Membrane in water
40155
    1TCq1    O1    1   2.915   1.859  10.803  0.1260 -0.3765 -0.1995
    1TCq1    C1    2   2.921   1.807  10.931 -0.3420  0.2850  0.3179
    1TCq1    O2    3   2.880   1.861  11.033  0.0323 -0.2658  0.4690
    1TCq1    C2    4   2.985   1.678  10.911 -0.4822  0.3575  0.6299
    1TCq1    C3    5   3.098   1.669  10.829  0.1776  0.2111  0.5067
    1TCq1    C4    6   3.155   1.549  10.838  1.0245 -0.6379 -0.1533
    1TCq1    C5    7   3.114   1.454  10.923 -0.7427  0.0396  0.3168
    1TCq1    C6    8   3.003   1.465  11.003  1.4562 -0.1458  0.0523
    1TCq1    C7    9   2.937   1.576  10.994  0.0082 -0.5234  0.0626
    1TCq1    C8   10   2.965   1.372  11.105 -0.1484  0.5130  0.1707
    1TCq1    O4   11   2.877   1.402  11.180 -0.1197 -0.2676 -0.0758
    1TCq1    C9   12   3.271   1.519  10.752 -0.1518 -0.7976  0.3804
    1TCq1    O5   13   3.304   1.393  10.745 -0.4115 -0.5126 -0.1970
    1TCq1    O6   14   3.347   1.615  10.727  0.2747 -0.7457 -0.2962
    1TCq1    H1   15   2.946   1.808  10.726 -0.8834 -1.7327  0.2956
    1TCq1    H2   16   3.135   1.753  10.772 -2.0917  0.4692 -0.5618
    1TCq1    H3   17   3.163   1.358  10.913 -0.7099  0.3492 -2.4369
    1TCq1    H4   18   2.857   1.585  11.067  1.0868 -0.6169  1.2578
    2MPD2     C   19   3.151   1.041  11.456 -0.3032  0.0942  0.6252
    2MPD2    C1   20   3.054   1.134  11.463 -0.2880  0.1556 -0.1829
    2MPD2    C2   21   3.005   1.199  11.343  0.1547  0.2010  0.6472
    2MPD2    C3   22   3.065   1.178  11.223 -0.7657  0.0074  0.2835
    2MPD2    C4   23   3.161   1.083  11.222 -0.3138 -0.2435  0.5552
    2MPD2    C5   24   3.207   1.014  11.332  0.3770  0.1898  0.0722
    2MPD2     H   25   2.940   1.285  11.350 -0.2333  0.1833 -2.8698
    2MPD2    H1   26   3.215   1.074  11.129 -0.4679  1.7884  0.2814
    2MPD2    H2   27   3.187   0.997  11.549 -2.9088  1.4757  2.2798
    2MPD2    H3   28   3.289   0.944  11.325  1.2371  1.3040 -1.0412
    2MPD2     N   29   3.052   1.266  11.111  0.0722  0.4313 -0.0312
    2MPD2    H5   30   3.125   1.261  11.041  0.1948 -0.6413  0.1638
    2MPD2    N1   31   2.997   1.177  11.591  0.0775  0.2794 -0.5232
    2MPD2    H7   32   2.928   1.252  11.588 -0.2917 -0.0038  0.8837
    3TCq1    O1   33   2.651   2.029   9.625 -0.4431  0.7595  0.0089
    3TCq1    C1   34   2.535   2.031   9.689 -0.1061 -0.1660 -0.1467
    3TCq1    O2   35   2.428   2.036   9.634 -0.3540 -0.7128 -0.3093
    3TCq1    C2   36   2.559   2.039   9.831 -0.3807 -0.4860 -0.1957
    3TCq1    C3   37   2.679   2.088   9.876  0.7456  0.1421 -1.1789
    3TCq1    C4   38   2.699   2.078  10.014 -0.0016  0.6575 -0.4572
    3TCq1    C5   39   2.604   2.028  10.097  0.2375  0.4417 -0.5940
    3TCq1    C6   40   2.480   1.996  10.042 -0.0375 -0.0193  0.4412
    3TCq1    C7   41   2.455   1.998   9.909  0.3265 -0.2758 -0.7910
    3TCq1    C8   42   2.365   1.986  10.122 -0.3793 -0.9394  0.0055
    3TCq1    O4   43   2.270   1.923  10.088  0.0593  0.0204  0.5368
    3TCq1    C9   44   2.818   2.128  10.075  0.3069 -0.6707 -0.1647
    3TCq1    O5   45   2.829   2.109  10.198 -0.6170  0.0739 -0.7130
    3TCq1    O6   46   2.921   2.143  10.004  0.2591 -0.3706  0.1223
    3TCq1    H1   47   2.717   1.988   9.685  0.2883  0.5277 -0.9320
    3TCq1    H2   48   2.756   2.137   9.818  2.3683 -0.6545  0.2942
    3TCq1    H3   49   2.624   2.015  10.203 -1.9106  1.3017 -0.0807
    3TCq1    H4   50   2.352   1.982   9.879  0.1933  0.5861 -0.7844
    4MPD2     C   51   2.133   2.145  10.563  0.3163  0.7046 -0.3371
    4MPD2    C1   52   2.237   2.234  10.529 -0.3056  0.7706 -0.1482
    4MPD2    C2   53   2.318   2.211  10.420 -0.5699  0.2763 -0.2512
    4MPD2    C3   54   2.298   2.104  10.335 -0.4440  0.0915  0.1457
    4MPD2    C4   55   2.202   2.014  10.375 -0.2786  0.1315  0.2945
    4MPD2    C5   56   2.126   2.028  10.486  0.1659  0.3178 -0.0575
    4MPD2     H   57   2.402   2.278  10.405  0.4426 -0.9103  0.1320
    4MPD2    H1   58   2.204   1.920  10.321  1.3926  1.1920 -1.4834
    4MPD2    H2   59   2.067   2.161  10.648  0.8613 -0.2021  0.2525
    4MPD2    H3   60   2.055   1.949  10.509  0.1735 -0.2528 -1.9815
    4MPD2     N   61   2.378   2.080  10.224 -0.8217 -0.3269  0.0583
    4MPD2    H5   62   2.457   2.143  10.221 -2.1742  1.4880  2.9726
    4MPD2    N1   63   2.259   2.352  10.592 -1.0311  0.4985 -0.5528
    4MPD2    H7   64   2.338   2.410  10.567 -1.6329  0.9149 -1.5213
    5TCq1    O1   65   3.501   3.681  11.691  0.2857  0.6430 -0.0137
    5TCq1    C1   66   3.464   3.696  11.564  0.9221 -0.4558  0.8917
    5TCq1    O2   67   3.517   3.650  11.465  0.1098  0.3970  0.4185
    5TCq1    C2   68   3.327   3.743  11.569  0.2724 -0.4121 -0.4614
    5TCq1    C3   69   3.254   3.765  11.682 -0.2354  0.3064  0.0581
    5TCq1    C4   70   3.130   3.816  11.667 -0.4933  0.0565 -0.4355
    5TCq1    C5   71   3.086   3.858  11.545  0.4847 -0.0227  0.0278
    5TCq1    C6   72   3.157   3.833  11.434  0.3431  0.1165 -0.8873
    5TCq1    C7   73   3.275   3.772  11.443 -0.4522  0.2430  0.0536
    5TCq1    C8   74   3.113   3.871  11.299 -0.7872  0.6987 -0.0865
    5TCq1    O4   75   3.177   3.818  11.209  0.1338  0.1667  0.5098
    5TCq1    C9   76   3.046   3.838  11.785 -0.7789  0.5345 -0.3813
    5TCq1    O5   77   3.094   3.819  11.899 -0.0290  0.8464 -0.3057
    5TCq1    O6   78   2.945   3.910  11.764  0.3548  0.3951 -0.6932
    5TCq1    H1   79   3.429   3.711  11.751 -0.6156 -2.6260  0.5251
    5TCq1    H2   80   3.285   3.747  11.784 -0.3756  0.6120  0.1532
    5TCq1    H3   81   3.004   3.929  11.553 -0.3317 -0.7484 -1.8830
    5TCq1    H4   82   3.330   3.761  11.351 -1.3300  1.0488 -0.5622
    6MPD2     C   83   2.813   4.053  11.180 -0.8470 -1.0347  0.3825
    6MPD2    C1   84   2.920   3.973  11.170  0.7635  0.0241  0.2879
    6MPD2    C2   85   2.951   3.927  11.044  0.1348  0.6055  0.8821
    6MPD2    C3   86   2.880   3.955  10.935 -0.0941 -0.5886 -0.7357
    6MPD2    C4   87   2.778   4.046  10.949  0.2036 -0.0805 -1.1515
    6MPD2    C5   88   2.739   4.090  11.075 -0.6244  0.4386 -0.1829
    6MPD2     H   89   3.032   3.855  11.037 -0.7378 -0.2495 -0.4101
    6MPD2    H1   90   2.714   4.075  10.867 -0.5424  1.1350 -0.1544
    6MPD2    H2   91   2.788   4.090  11.279 -0.1691 -2.0247  0.9282
    6MPD2    H3   92   2.646   4.145  11.086 -0.9199 -0.3592  1.2860
    6MPD2     N   93   2.905   3.892  10.810  0.2648  0.2137 -0.0309
    6MPD2    H5   94   2.979   3.823  10.812  0.4116  0.3577 -0.3156
    6MPD2    N1   95   2.996   3.949  11.293  0.6923  0.3315 -0.1086
    6MPD2    H7   96   2.953   3.991  11.375  1.3770 -1.6836  1.2624
    7TCq1    O1   97   0.473   3.935  13.437  0.8048 -0.3762 -0.0384
    7TCq1    C1   98   0.448   3.907  13.312 -0.7066  0.1087  0.7308
    7TCq1    O2   99   0.457   3.978  13.216 -0.8297  0.6373  0.2715
    7TCq1    C2  100   0.361   3.796  13.310 -0.6055  0.6965 -0.1027
    7TCq1    C3  101   0.257   3.800  13.214  0.7795  0.4349  0.4205
    7TCq1    C4  102   0.196   3.686  13.172  0.2590 -0.0702  0.2932
    7TCq1    C5  103   0.235   3.571  13.239  0.2531 -0.0334 -0.2569
    7TCq1    C6  104   0.331   3.575  13.336 -0.4946  0.4001 -0.2550
    7TCq1    C7  105   0.405   3.683  13.361 -0.1700 -0.3411 -0.2939
    7TCq1    C8  106   0.374   3.453  13.399  0.1951  0.3704 -0.3588
    7TCq1    O4  107   0.360   3.347  13.339 -0.0068 -0.4431  0.1311
    7TCq1    C9  108   0.079   3.685  13.089 -0.2549  0.1572 -1.0914
    7TCq1    O5  109   0.051   3.791  13.019 -0.1841  0.3296  0.3858
    7TCq1    O6  110   0.016   3.580  13.069  0.1280 -0.2292  0.3537
    7TCq1    H1  111   0.454   3.858  13.496  2.6461 -2.4426 -2.1491
    7TCq1    H2  112   0.229   3.893  13.167 -0.7244  0.9466  2.3757
    7TCq1    H3  113   0.177   3.480  13.230  0.9728 -0.3693 -1.4550
    7TCq1    H4  114   0.500   3.693  13.412 -0.4314  0.2167  0.0923
    8MPD2     C  115   0.695   3.202  13.718 -0.1135  0.1691 -0.7094
    8MPD2    C1  116   0.599   3.153  13.633 -0.4982  0.5046 -0.6211
    8MPD2    C2  117   0.516   3.238  13.565 -0.0584 -0.2196  0.7626
    8MPD2    C3  118   0.527   3.374  13.582 -0.0023 -0.1835 -0.6941
    8MPD2    C4  119   0.599   3.418  13.688 -0.9121  0.1802  0.1194
    8MPD2    C5  120   0.684   3.336  13.755  0.5864  0.1713  1.3268
    8MPD2     H  121   0.457   3.201  13.482 -0.9958 -0.4686  1.5401
    8MPD2    H1  122   0.587   3.523  13.715  2.0058  1.0430 -1.9427
    8MPD2    H2  123   0.775   3.142  13.758 -0.6440 -0.6433 -0.8604
    8MPD2    H3  124   0.752   3.378  13.829  0.3711 -0.1950  1.7380
    8MPD2     N  125   0.455   3.476  13.509  0.5641  0.4093 -0.1163
    8MPD2    H5  126   0.470   3.572  13.537 -0.1725  0.1824  1.0629
    8MPD2    N1  127   0.604   3.018  13.595 -0.0249  0.1298 -0.1890
    8MPD2    H7  128   0.693   2.977  13.623  0.5194 -0.6732 -3.0778
    9TCq1    O1  129   2.682   2.043  10.425 -0.0525 -0.1340 -0.0795
    9TCq1    C1  130   2.696   2.021  10.554 -0.0268  0.0269 -0.5247
    9TCq1    O2  131   2.605   2.033  10.635  0.2224 -0.1902  0.2402
    9TCq1    C2  132   2.822   2.090  10.573 -0.7832 -0.1370  0.2881
    9TCq1    C3  133   2.932   2.064  10.499 -0.3180 -0.4793 -0.1393
    9TCq1    C4  134   3.054   2.117  10.526  0.5922  0.4203 -0.0536
    9TCq1    C5  135   3.072   2.213  10.619  0.1521  0.5134  0.1782
    9TCq1    C6  136   2.964   2.236  10.696  0.3809 -0.0953 -0.3320
    9TCq1    C7  137   2.838   2.178  10.675  0.1308 -1.1353  0.2642
    9TCq1    C8  138   2.964   2.347  10.788  0.2514 -0.3409  0.7114
    9TCq1    O4  139   3.059   2.423  10.773 -0.6127  0.1803 -0.1493
    9TCq1    C9  140   3.169   2.071  10.454 -0.0932 -0.5795 -0.2585
    9TCq1    O5  141   3.140   2.025  10.339  0.2742  0.2501  0.2851
    9TCq1    O6  142   3.276   2.054  10.521  0.4926 -0.4895 -0.4688
    9TCq1    H1  143   2.773   2.055  10.391 -0.6948  0.3177 -1.6564
    9TCq1    H2  144   2.923   1.990  10.421 -0.1949  1.0423 -1.5981
    9TCq1    H3  145   3.170   2.244  10.654  0.2757 -0.5902  0.8157
    9TCq1    H4  146   2.746   2.212  10.721  1.1624 -0.3761  1.7411
   10MPD2     C  147   2.909   2.548  10.987  0.6457  0.9131  0.1271
   10MPD2    C1  148   2.875   2.412  11.007 -0.4145 -0.4001  1.0205
   10MPD2    C2  149   2.811   2.381  11.125  1.1249 -0.2253 -0.8121
   10MPD2    C3  150   2.809   2.467  11.233  0.8770  0.3839  0.4634
   10MPD2    C4  151   2.841   2.599  11.207 -0.0666  0.0400 -0.0068
   10MPD2    C5  152   2.894   2.638  11.084  0.7147  0.6050  0.0038
   10MPD2     H  153   2.777   2.280  11.142 -0.8790  1.1270  3.1930
   10MPD2    H1  154   2.824   2.678  11.280 -0.6786 -0.6512  0.5933
   10MPD2    H2  155   2.941   2.582  10.889 -0.6094 -1.3726 -1.0785
   10MPD2    H3  156   2.906   2.745  11.069 -2.8162  0.8311 -1.2247
   10MPD2     N  157   2.765   2.429  11.368 -0.0049 -0.0296 -0.1673
   10MPD2    H5  158   2.772   2.496  11.444  1.9644 -1.3994  0.8592
   10MPD2    N1  159   2.883   2.325  10.900 -0.5914 -0.5926  0.3029
   10MPD2    H7  160   2.826   2.242  10.914  0.0769 -1.2487 -0.9168
   11TCq1    O1  161   4.290   1.683  14.652 -0.0130  0.3146 -0.7488
   11TCq1    C1  162   4.166   1.718  14.609 -0.1620 -0.1307 -0.6428
   11TCq1    O2  163   4.061   1.711  14.672 -0.4569 -0.2212  0.5600
   11TCq1    C2  164   4.180   1.750  14.471 -0.0055 -0.1074 -0.1498
   11TCq1    C3  165   4.270   1.685  14.388  0.4690  0.2067 -0.0768
   11TCq1    C4  166   4.237   1.693  14.258  0.0494 -0.4679  0.7118
   11TCq1    C5  167   4.130   1.760  14.199 -0.2353  0.8985  1.2204
   11TCq1    C6  168   4.035   1.804  14.283  0.9761 -0.5035 -0.8505
   11TCq1    C7  169   4.059   1.802  14.421 -0.3533  0.5326  0.0664
   11TCq1    C8  170   3.903   1.844  14.237  0.7312 -0.5345  0.6561
   11TCq1    O4  171   3.832   1.909  14.312  0.4947  0.4879 -1.3532
   11TCq1    C9  172   4.319   1.626  14.162 -0.6077 -0.2122  0.1738
   11TCq1    O5  173   4.279   1.630  14.041 -0.2911  0.3301  0.4456
   11TCq1    O6  174   4.424   1.571  14.205  0.3145  0.3333 -0.3778
   11TCq1    H1  175   4.358   1.711  14.588  0.2111  3.0405  0.6684
   11TCq1    H2  176   4.355   1.627  14.422 -0.5238 -1.9811 -1.2981
   11TCq1    H3  177   4.116   1.776  14.093 -1.9852 -3.1326  0.8498
   11TCq1    H4  178   3.979   1.832  14.488  0.9798  0.1405  1.8253
   12MPD2     C  179   3.676   1.907  14.065 -0.2145  0.4967  0.4082
   12MPD2    C1  180   3.766   1.808  14.036  0.0623  1.3040  0.2643
   12MPD2    C2  181   3.751   1.725  13.930  0.4188 -0.2481  0.3071
   12MPD2    C3  182   3.646   1.743  13.840 -0.2214 -0.2860  0.8957
   12MPD2    C4  183   3.563   1.856  13.859 -0.9736  0.4099  0.4597
   12MPD2    C5  184   3.576   1.927  13.978 -0.1414 -0.4256 -0.1910
   12MPD2     H  185   3.826   1.647  13.929 -0.6094 -1.1920 -3.1270
   12MPD2    H1  186   3.480   1.887  13.798 -0.3520 -1.7445 -1.5049
   12MPD2    H2  187   3.678   1.978  14.147 -0.2741  1.8551 -0.7648
   12MPD2    H3  188   3.511   2.012  13.998  1.2058  0.3867  0.6740
   12MPD2     N  189   3.617   1.659  13.732  0.1832  0.1262  0.5897
   12MPD2    H5  190   3.534   1.686  13.680  1.9463 -1.2381 -2.9725
   12MPD2    N1  191   3.882   1.789  14.112  0.8017 -0.0912 -0.2593
   12MPD2    H7  192   3.957   1.733  14.072  1.8298  2.4587 -1.8402
   13TCq1    O1  193   3.270   1.816  10.253  0.1361  0.1719  0.1232
   13TCq1    C1  194   3.257   1.807  10.120  0.5321  0.2013 -0.0830
   13TCq1    O2  195   3.323   1.747  10.040  0.0072  1.4069 -0.5036
   13TCq1    C2  196   3.113   1.835  10.089  0.5038  0.4428  0.5014
   13TCq1    C3  197   3.088   1.850   9.956  0.9664 -0.2822  0.6312
   13TCq1    C4  198   2.964   1.824   9.916  0.4316  0.0527 -0.1953
   13TCq1    C5  199   2.861   1.787  10.005 -0.4018 -0.0876 -0.0456
   13TCq1    C6  200   2.899   1.781  10.138  0.0736  0.1885 -0.4266
   13TCq1    C7  201   3.019   1.805  10.182 -0.4588  0.2044 -0.0415
   13TCq1    C8  202   2.790   1.753  10.236 -0.3639  0.3745  0.1344
   13TCq1    O4  203   2.819   1.769  10.353  0.3476 -0.2254 -0.0569
   13TCq1    C9  204   2.938   1.858   9.781 -0.4140  0.1517  0.4227
   13TCq1    O5  205   3.021   1.930   9.729 -0.2633  0.5467 -0.1013
   13TCq1    O6  206   2.820   1.866   9.738  0.1347  0.5608 -0.0737
   13TCq1    H1  207   3.210   1.886  10.285  0.1195  0.7413 -1.1544
   13TCq1    H2  208   3.166   1.856   9.881 -1.0909  2.5071 -1.3155
   13TCq1    H3  209   2.761   1.779   9.962 -1.0968 -0.1251  1.5952
   13TCq1    H4  210   3.040   1.778  10.285 -0.4407  0.0278 -0.0926
   14MPD2     C  211   2.453   1.612  10.177 -0.2309 -0.4184 -0.0210
   14MPD2    C1  212   2.551   1.685  10.249 -0.1641  0.3044 -0.5169
   14MPD2    C2  213   2.519   1.736  10.374 -0.2500 -0.2746 -0.0514
   14MPD2    C3  214   2.391   1.722  10.425  0.3386  0.3435  0.6583
   14MPD2    C4  215   2.290   1.666  10.345 -0.1211 -0.2213 -0.3700
   14MPD2    C5  216   2.324   1.609  10.226  0.2067 -0.2590  0.2739
   14MPD2     H  217   2.597   1.788  10.429 -0.3890  0.9803 -1.0440
   14MPD2    H1  218   2.184   1.677  10.365  0.2140  0.0655  1.1876
   14MPD2    H2  219   2.477   1.574  10.078  0.1538  1.5692 -0.6941
   14MPD2    H3  220   2.246   1.583  10.155  0.3723 -1.7742  0.6582
   14MPD2     N  221   2.354   1.784  10.549  0.2913 -0.2456  0.3250
   14MPD2    H5  222   2.430   1.829  10.598  1.1747 -0.3197 -0.9790
   14MPD2    N1  223   2.679   1.698  10.179  0.0022 -0.5069 -0.2271
   14MPD2    H7  224   2.682   1.671  10.082 -2.3861  0.0195 -0.4292
   15TCq1    O1  225   3.922   0.640   1.618 -0.4463 -0.3926 -0.1449
   15TCq1    C1  226   3.968   0.641   1.739  0.6296 -0.0182 -0.1852
   15TCq1    O2  227   3.909   0.674   1.840 -0.0135  0.0005  0.4655
   15TCq1    C2  228   4.113   0.619   1.727 -0.0885  0.2497 -0.4729
   15TCq1    C3  229   4.193   0.714   1.781 -0.5192 -0.2230 -1.1793
   15TCq1    C4  230   4.331   0.692   1.791  0.4686  0.8240  0.0415
   15TCq1    C5  231   4.385   0.575   1.751  0.3055  0.1687 -0.4004
   15TCq1    C6  232   4.303   0.476   1.691 -0.5939  0.2968  0.6081
   15TCq1    C7  233   4.168   0.501   1.680 -0.0804  0.3366  0.0667
   15TCq1    C8  234   4.365   0.352   1.642 -0.3357 -0.5559 -0.4928
   15TCq1    O4  235   4.483   0.354   1.644  0.0264  0.1702  0.8761
   15TCq1    C9  236   4.407   0.810   1.817 -0.4023  0.6148 -0.4107
   15TCq1    O5  237   4.351   0.921   1.812 -0.4582  0.3960 -0.0616
   15TCq1    O6  238   4.530   0.792   1.793 -0.2521 -0.3378  0.4407
   15TCq1    H1  239   3.975   0.611   1.541  0.4795 -0.1456  0.4000
   15TCq1    H2  240   4.155   0.813   1.801  1.2035 -0.1155  1.6140
   15TCq1    H3  241   4.488   0.549   1.771 -0.5341 -1.4760  1.7899
   15TCq1    H4  242   4.102   0.424   1.641 -0.7899  0.9609  0.0439
   16MPD2     C  243   4.217   0.061   1.463  0.0738  0.6459  0.3288
   16MPD2    C1  244   4.311   0.127   1.529  0.3322 -0.0400  0.0015
   16MPD2    C2  245   4.443   0.083   1.529 -0.4416 -0.4702  0.2181
   16MPD2    C3  246   4.471   4.682   1.468  0.1780  0.1661 -0.9161
   16MPD2    C4  247   4.370   4.621   1.394  0.0312  0.1763 -0.2747
   16MPD2    C5  248   4.243   4.665   1.398 -0.1158  0.8557  0.2452
   16MPD2     H  249   4.523   0.132   1.584 -0.8417  0.0092  0.3799
   16MPD2    H1  250   4.393   4.532   1.336  0.1639 -0.6006  0.9809
   16MPD2    H2  251   4.113   0.092   1.461  0.3029  1.2492 -3.0857
   16MPD2    H3  252   4.163   4.620   1.340 -0.4914  1.0597  0.6109
   16MPD2     N  253   4.604   4.641   1.478 -0.0813  0.1298 -0.6133
   16MPD2    H5  254   4.669   4.713   1.510 -0.5840 -0.3717  1.5704
   16MPD2    N1  255   4.278   0.251   1.602  0.0892 -0.0607 -0.2307
   16MPD2    H7  256   4.180   0.274   1.617  0.0456 -0.8130  0.6501
   17TCq1    O1  257   3.479   1.289   9.686 -0.4507 -0.2780  0.0736
   17TCq1    C1  258   3.384   1.291   9.592  0.9158  0.3737  0.1327
   17TCq1    O2  259   3.419   1.272   9.478  0.3408 -0.0455 -0.0219
   17TCq1    C2  260   3.268   1.371   9.636  0.3368  0.4903  0.8927
   17TCq1    C3  261   3.223   1.461   9.542 -0.3642  0.1858  0.3188
   17TCq1    C4  262   3.128   1.544   9.583 -0.3838  0.0384 -0.1645
   17TCq1    C5  263   3.073   1.539   9.702  0.3113 -0.4512  1.3666
   17TCq1    C6  264   3.128   1.453   9.794  0.2614  0.2293 -0.2787
   17TCq1    C7  265   3.235   1.376   9.763 -0.4106  0.5524 -0.1557
   17TCq1    C8  266   3.065   1.448   9.923  0.3079 -0.2100 -0.4814
   17TCq1    O4  267   2.945   1.456   9.923  0.1903 -0.3824 -0.1775
   17TCq1    C9  268   3.070   1.625   9.481 -0.0938  0.0612 -0.2370
   17TCq1    O5  269   2.953   1.674   9.510 -0.0877 -0.0618 -0.2968
   17TCq1    O6  270   3.148   1.676   9.390  0.1687 -0.4302 -0.2930
   17TCq1    H1  271   3.471   1.341   9.769  0.5089 -0.8702  0.5330
   17TCq1    H2  272   3.250   1.448   9.438 -2.2874  0.2970 -0.2041
   17TCq1    H3  273   2.990   1.605   9.723 -0.2981  0.0826 -2.7230
   17TCq1    H4  274   3.283   1.312   9.835  0.6555  1.4895 -0.0358
   18MPD2     C  275   3.003   1.466  10.219  0.0366  0.3584  0.2789
   18MPD2    C1  276   3.120   1.425  10.167  0.6676  0.2579  0.9189
   18MPD2    C2  277   3.223   1.382  10.253 -0.0825  0.5792  0.9415
   18MPD2    C3  278   3.217   1.378  10.389 -0.4362  0.8082  0.0183
   18MPD2    C4  279   3.097   1.415  10.442  0.1835 -0.3580  0.6002
   18MPD2    C5  280   2.997   1.451  10.357 -0.1086 -0.5341  0.0257
   18MPD2     H  281   3.315   1.353  10.204  0.1805 -1.0572  2.3587
   18MPD2    H1  282   3.078   1.411  10.549  2.4980 -0.3957  0.9962
   18MPD2    H2  283   2.915   1.500  10.166  0.3249 -0.0954 -0.4969
   18MPD2    H3  284   2.912   1.488  10.413 -1.6902 -1.6098 -1.6380
   18MPD2     N  285   3.324   1.325  10.471  0.0494 -0.6305 -0.2074
   18MPD2    H5  286   3.310   1.344  10.570 -0.9863 -0.2187 -0.4333
   18MPD2    N1  287   3.156   1.430  10.023 -0.3384  0.3022 -0.2143
   18MPD2    H7  288   3.249   1.409   9.990  0.4954  0.4944  2.0066
   19TMC2    C1  289   0.109   1.576  13.522 -0.4062  1.2190 -0.3833
   19TMC2    C2  290   0.042   1.663  13.439 -0.4128  0.1824  0.5855
   19TMC2    C3  291   4.644   1.622  13.382  0.3022  0.3094  0.2159
   19TMC2    C4  292   0.064   1.447  13.547  0.9298  0.1780  0.1120
   19TMC2    C5  293   4.675   1.406  13.466 -0.4006 -0.2814  0.6941
   19TMC2    C6  294   4.598   1.495  13.395  0.6656 -0.2288  0.0211
   19TMC2     C  295   0.229   1.630  13.598 -0.0224 -0.7453 -0.6043
   19TMC2     O  296   0.286   1.728  13.552  0.3779  0.0767 -0.1116
   19TMC2     H  297   0.078   1.765  13.448 -0.4529  0.3793 -1.5212
   19TMC2    H1  298   0.118   1.376  13.608  0.3420  1.1248  1.7402
   19TMC2    H2  299   4.514   1.468  13.332  1.0633 -0.7810 -0.2726
   19TMC2    C7  300   4.616   1.273  13.480 -0.1153 -0.3310  0.2965
   19TMC2    C8  301   4.595   1.696  13.271 -0.3119  0.2200 -0.1566
   19TMC2    O1  302   4.524   1.238  13.406 -0.3732 -0.0254 -0.3916
   19TMC2    O2  303   4.554   1.653  13.162  0.0920  0.0030  0.5743
   19TMC2    O5  304   4.653   1.818  13.278 -0.0023  0.0225 -0.4401
   19TMC2    H5  305   4.639   1.854  13.368 -1.4255 -0.7800 -0.3231
   20MPD2     C  306   0.470   1.656  13.772 -0.2251  0.2458 -0.3267
   20MPD2    C1  307   0.380   1.554  13.779  0.2268 -0.3158  0.8857
   20MPD2    C2  308   0.400   1.440  13.861  0.8386  0.5670 -0.3653
   20MPD2    C3  309   0.512   1.438  13.944 -0.2967  0.5772  0.1272
   20MPD2    C4  310   0.587   1.554  13.949  1.2785 -0.1577  0.1645
   20MPD2    C5  311   0.573   1.657  13.861  0.6677 -0.4667 -0.2280
   20MPD2     H  312   0.324   1.362  13.864  0.8463  0.5948  0.5499
   20MPD2    H1  313   0.671   1.563  14.017  0.5128  1.5968  0.8845
   20MPD2    H2  314   0.460   1.749  13.717  2.0478 -0.2906 -1.6760
   20MPD2    H3  315   0.636   1.745  13.867 -0.9476  0.8969 -2.9311
   20MPD2     N  316   0.537   1.330  14.033 -0.6421 -0.1764 -0.4082
   20MPD2    H5  317   0.631   1.331  14.072 -1.4679 -0.9558  1.6281
   20MPD2    N1  318   0.265   1.544  13.702  0.0288 -0.0871  0.4745
   20MPD2    H7  319   0.205   1.467  13.729 -1.2367  0.9313  0.5294
   21MPD2     C  320   2.193   2.381  13.952  0.3507 -0.2286  0.1332
   21MPD2    C1  321   2.301   2.297  13.969  0.5077 -0.4296 -0.3049
   21MPD2    C2  322   2.288   2.184  14.053 -0.8513  0.7303 -0.6529
   21MPD2    C3  323   2.173   2.173  14.127 -0.1742  0.3632  0.4874
   21MPD2    C4  324   2.062   2.253  14.097  0.4674 -0.1753 -0.2046
   21MPD2    C5  325   2.069   2.355  14.010  0.3009  0.2265 -0.1991
   21MPD2     H  326   2.363   2.106  14.058  0.1150  1.8817  2.8327
   21MPD2    H1  327   1.966   2.241  14.146  0.2519 -0.1918 -0.6329
   21MPD2    H2  328   2.200   2.463  13.882 -1.0311 -0.3970 -0.1960
   21MPD2    H3  329   1.994   2.431  13.992 -0.2241  0.0749  1.4189
   21MPD2     N  330   2.149   2.074  14.226 -0.3317 -0.2071  1.0038
   21MPD2    H5  331   2.059   2.080  14.271 -0.0692 -1.8294  1.7576
   21MPD2    N1  332   2.422   2.307  13.899 -0.3285 -0.1264 -0.1743
   21MPD2    H7  333   2.482   2.225  13.907 -2.1209 -1.7482 -3.4304
   22TCq2    C1  334   2.234   1.976  14.263 -0.5436 -1.0555  0.2665
   22TCq2    O2  335   2.325   1.929  14.200 -0.1171 -0.8314 -0.6537
   22TCq2    C2  336   2.190   1.910  14.390  0.0573  0.5126 -0.5533
   22TCq2    C3  337   2.258   1.802  14.438 -0.0476 -0.5578  0.2449
   22TCq2    C4  338   2.220   1.742  14.554 -0.1063 -0.5563  0.5323
   22TCq2    C5  339   2.125   1.795  14.637  0.5944 -0.0170  0.2244
   22TCq2    C6  340   2.063   1.907  14.592 -0.0034 -0.1822  0.4157
   22TCq2    C7  341   2.093   1.965  14.468  0.6750 -0.2874 -0.0524
   22TCq2    C8  342   1.942   1.947  14.664 -0.6012  0.4106  0.6021
   22TCq2    O4  343   1.934   1.904  14.784  0.0346 -0.7818 -0.6682
   22TCq2    C9  344   2.293   1.618  14.590  0.2613 -0.2229  0.6857
   22TCq2    O5  345   2.253   1.558  14.700  0.2548  0.6270  0.2534
   22TCq2    O6  346   2.368   1.574  14.499  0.0361  0.1422  0.2538
   22TCq2    H2  347   2.335   1.757  14.377  0.0525 -2.0388  1.4610
   22TCq2    H3  348   2.091   1.742  14.725 -3.5222 -0.4744 -1.6429
   22TCq2    H4  349   2.048   2.060  14.444  1.6933  0.3978  0.7540
   23MPD2     C  350   3.741   2.771  14.400 -0.4000 -0.1473  0.4239
   23MPD2    C1  351   3.683   2.820  14.514 -0.1029 -0.4315 -0.6583
   23MPD2    C2  352   3.558   2.882  14.511  0.2784  0.1779 -0.3560
   23MPD2    C3  353   3.484   2.871  14.395  0.0409  0.2966  0.1455
   23MPD2    C4  354   3.543   2.831  14.279 -0.5373 -0.0691  0.6243
   23MPD2    C5  355   3.675   2.778  14.280  0.3140 -0.5676 -0.5332
   23MPD2     H  356   3.498   2.899  14.600 -0.0875 -0.1970 -0.5297
   23MPD2    H1  357   3.486   2.836  14.187 -0.4911  0.5367  0.6267
   23MPD2    H2  358   3.835   2.718  14.390 -0.2505  0.3094 -0.5596
   23MPD2    H3  359   3.720   2.740  14.189 -0.3375  1.5532 -1.7446
   23MPD2     N  360   3.349   2.906  14.381 -0.0076  0.2900 -0.3708
   23MPD2    H5  361   3.306   2.887  14.291 -0.6565  0.4655 -0.0952
   23MPD2    N1  362   3.745   2.808  14.640 -0.5429  0.4473 -0.2857
   23MPD2    H7  363   3.700   2.857  14.717 -0.3734  2.2849 -1.3525
   24TCq2    C1  364   3.268   2.954  14.478  0.2805  0.6986  0.1248
   24TCq2    O2  365   3.290   2.968  14.597 -0.2832  0.1934 -0.1062
   24TCq2    C2  366   3.136   2.986  14.432  0.2069 -0.0181  0.2861
   24TCq2    C3  367   3.096   2.983  14.301 -0.7102 -0.1096  0.5142
   24TCq2    C4  368   2.970   3.025  14.269 -0.2160  0.8173 -0.2906
   24TCq2    C5  369   2.881   3.076  14.359  0.3177  0.0063  0.4785
   24TCq2    C6  370   2.932   3.096  14.491 -0.1764 -0.3003 -0.2137
   24TCq2    C7  371   3.051   3.037  14.531 -0.0406 -0.2263  0.1953
   24TCq2    C8  372   2.839   3.097  14.597 -0.4290  0.0643  0.1524
   24TCq2    O4  373   2.878   3.114  14.711  0.6090 -0.4908 -0.2091
   24TCq2    C9  374   2.922   3.012  14.132 -0.4565 -0.0083 -0.1433
   24TCq2    O5  375   3.000   2.966  14.043  0.5441 -0.4728 -0.1793
   24TCq2    O6  376   2.798   3.031  14.120 -0.0883 -0.4446  0.1221
   24TCq2    H2  377   3.161   2.963  14.216 -0.1811 -1.0000  1.1311
   24TCq2    H3  378   2.789   3.123  14.326  1.6547  1.8526 -0.6172
   24TCq2    H4  379   3.081   3.051  14.634 -0.1765  5.0680 -0.4988
   25TMC2    C1  380   2.352   0.100  11.221  0.1172 -0.4586  0.1704
   25TMC2    C2  381   2.279   0.201  11.164 -0.0745  0.4603 -0.4849
   25TMC2    C3  382   2.226   0.286  11.257 -0.9540  0.2603  0.2281
   25TMC2    C4  383   2.389   0.094  11.353  0.0983 -0.5719  0.6313
   25TMC2    C5  384   2.335   0.184  11.439 -0.6316  0.6892 -0.0649
   25TMC2    C6  385   2.258   0.283  11.388 -0.4062 -0.1078 -0.0105
   25TMC2     C  386   2.366   4.699  11.138  0.8632  0.8281 -0.3696
   25TMC2     O  387   2.452   4.619  11.171 -0.3417  0.1191  0.6910
   25TMC2     H  388   2.262   0.219  11.059  0.7522  1.2828 -0.4704
   25TMC2    H1  389   2.451   0.012  11.389  2.0138 -0.1589 -1.7643
   25TMC2    H2  390   2.211   0.354  11.456 -1.7900 -1.6706  0.6765
   25TMC2    C7  391   2.354   0.174  11.577  0.3422  0.3837  0.4721
   25TMC2    C8  392   2.141   0.395  11.214 -0.5411  0.4121 -0.0399
   25TMC2    O1  393   2.301   0.264  11.640 -0.0646 -0.0143  0.3929
   25TMC2    O2  394   2.055   0.384  11.126  0.3168  0.5732  0.7616
   25TMC2    O5  395   2.195   0.517  11.240  0.1684  0.3028  0.2887
   25TMC2    H5  396   2.280   0.501  11.288 -0.1027 -4.4506 -0.8391
   26MPD2     C  397   2.155   4.337  10.839  0.2020 -0.2907  0.2493
   26MPD2    C1  398   2.055   4.423  10.882  0.0343  0.4201  0.8511
   26MPD2    C2  399   2.098   4.537  10.949 -0.2081 -0.8056 -0.6522
   26MPD2    C3  400   2.229   4.560  10.984 -0.7039 -0.4847  0.0685
   26MPD2    C4  401   2.327   4.458  10.963 -0.2514  0.0122  0.6722
   26MPD2    C5  402   2.285   4.354  10.881  0.0885 -0.1135  0.3434
   26MPD2     H  403   2.026   4.613  10.977  0.9565  0.7320 -1.8134
   26MPD2    H1  404   2.428   4.453  11.002 -0.1410  1.4775  0.5628
   26MPD2    H2  405   2.128   4.255  10.773  1.6089 -0.8916  0.4370
   26MPD2    H3  406   2.361   4.280  10.860 -1.0600 -0.1906 -3.5468
   26MPD2     N  407   2.250   4.680  11.065 -0.3834  0.2687 -0.5259
   26MPD2    H5  408   2.185   0.038  11.064  0.6034  1.1065 -0.0997
   26MPD2    N1  409   1.920   4.396  10.846  0.2651 -0.0865  0.5843
   26MPD2    H7  410   1.897   4.315  10.789 -0.7477  1.6232 -1.4309
   27TMC2    C1  411   1.459   2.613  12.059 -0.6323 -0.6294 -0.5569
   27TMC2    C2  412   1.596   2.621  12.067  0.2770  0.0760 -0.0854
   27TMC2    C3  413   1.653   2.726  12.131 -0.1973  0.3356 -0.0704
   27TMC2    C4  414   1.380   2.718  12.096 -0.5047  0.0078 -0.9236
   27TMC2    C5  415   1.439   2.838  12.143 -0.1324  0.6511 -0.3255
   27TMC2    C6  416   1.578   2.838  12.168 -0.1039  0.3405  0.3177
   27TMC2     C  417   1.418   2.485  12.109 -0.1791 -0.4131 -0.2313
   27TMC2     O  418   1.506   2.395  12.125  0.0946 -0.3082  0.2220
   27TMC2     H  419   1.660   2.543  12.026  0.9621 -0.5416  2.1350
   27TMC2    H1  420   1.276   2.721  12.064 -1.4115  1.1527  2.0844
   27TMC2    H2  421   1.616   2.924  12.223 -0.1156  0.2454  0.4746
   27TMC2    C7  422   1.368   2.890  12.248 -0.0970 -0.1373  0.1043
   27TMC2    C8  423   1.793   2.727  12.133  0.6049  0.9265 -0.2253
   27TMC2    O1  424   1.275   2.967  12.219  0.1878  0.0962  0.0310
   27TMC2    O2  425   1.861   2.628  12.150 -0.8470  0.6040 -0.3524
   27TMC2    O5  426   1.843   2.853  12.148  0.0481  0.5736  0.9563
   27TMC2    H5  427   1.786   2.911  12.094  0.2848 -1.5031 -1.5406
   28MPD2     C  428   1.053   2.176  12.324  0.0330 -0.0225 -0.0851
   28MPD2    C1  429   1.014   2.306  12.317  0.5544  0.5668  0.2900
   28MPD2    C2  430   1.099   2.399  12.265 -0.1170  0.1328  0.9637
   28MPD2    C3  431   1.218   2.370  12.211  0.4140  0.5753 -0.2526
   28MPD2    C4  432   1.267   2.237  12.216  0.2428  0.9688  0.6235
   28MPD2    C5  433   1.181   2.146  12.282  0.1552  0.2269 -0.4232
   28MPD2     H  434   1.076   2.505  12.272 -1.5030 -0.2859  2.6894
   28MPD2    H1  435   1.367   2.209  12.184 -0.3427 -1.6575  1.1470
   28MPD2    H2  436   0.993   2.103  12.377 -0.7409 -0.4360 -1.5389
   28MPD2    H3  437   1.215   2.043  12.290 -0.1897  0.2555  1.5967
   28MPD2     N  438   1.288   2.482  12.160 -0.4722  0.3006 -0.0270
   28MPD2    H5  439   1.238   2.570  12.154  0.0593  0.7387  2.3137
   28MPD2    N1  440   0.891   2.325  12.378  0.7720 -0.3226 -0.3376
   28MPD2    H7  441   0.829   2.245  12.385  1.1883 -0.6907 -0.8751
   29MPD2     C  442   0.670   4.481  14.061 -0.9712 -0.5444  0.0358
   29MPD2    C1  443   0.805   4.461  14.024 -0.0108  0.8052 -0.0114
   29MPD2    C2  444   0.889   4.570  13.998  0.9178  0.2857  0.4600
   29MPD2    C3  445   0.849   4.700  14.015  0.0724  0.0304 -0.1475
   29MPD2    C4  446   0.720   4.718  14.075  0.3599 -0.4293  0.1150
   29MPD2    C5  447   0.639   4.609  14.090 -0.4398 -0.0055  0.5388
   29MPD2     H  448   0.993   4.542  13.985  0.8451  0.0795  0.3271
   29MPD2    H1  449   0.686   0.098  14.099 -0.4372 -0.5865 -0.3665
   29MPD2    H2  450   0.601   4.398  14.071  0.7062 -2.1302 -1.5430
   29MPD2    H3  451   0.539   4.610  14.130 -0.5845 -1.9588  0.1988
   29MPD2     N  452   0.930   0.097  14.007  0.4212  0.2336 -0.6757
   29MPD2    H5  453   0.885   0.185  14.026  0.4931  0.0738  0.2647
   29MPD2    N1  454   0.858   4.323  14.009 -0.1413  0.9919  0.3029
   29MPD2    H7  455   0.945   4.305  13.959 -0.6379  0.3683 -0.3432
   30TCq2    C1  456   1.057   0.100  13.956  0.5106 -0.2102 -0.0233
   30TCq2    O2  457   1.124   0.018  13.898  0.1200 -0.5179 -0.1344
   30TCq2    C2  458   1.108   0.239  13.963  0.2882 -0.1929 -0.9213
   30TCq2    C3  459   1.044   0.333  14.040  0.8162  0.3747  0.7689
   30TCq2    C4  460   1.094   0.461  14.043  0.5680 -0.3619 -0.1613
   30TCq2    C5  461   1.198   0.492  13.968 -0.6972  0.2742  0.1420
   30TCq2    C6  462   1.252   0.399  13.886  0.3061 -0.0037 -0.4312
   30TCq2    C7  463   1.216   0.269  13.879 -0.5978 -0.1421 -0.3776
   30TCq2    C8  464   1.379   0.429  13.825 -0.2870  0.1034 -0.3610
   30TCq2    O4  465   1.418   0.356  13.736 -0.5921 -0.1177 -0.0278
   30TCq2    C9  466   1.021   0.563  14.111  0.0513  0.1359 -0.0106
   30TCq2    O5  467   0.934   0.521  14.188  0.4667 -0.1015 -0.4075
   30TCq2    O6  468   1.076   0.675  14.120 -0.6051 -0.3240 -0.2247
   30TCq2    H2  469   0.957   0.318  14.104 -0.4308 -2.0478 -1.5158
   30TCq2    H3  470   1.231   0.596  13.962 -0.0192 -0.0130 -1.0627
   30TCq2    H4  471   1.257   0.199  13.806  0.1591 -0.3998  0.2870
   31MPD2     C  472   3.508   4.053  14.427 -0.9355  0.2955 -1.0539
   31MPD2    C1  473   3.403   4.121  14.380 -0.8476  0.3016 -0.2636
   31MPD2    C2  474   3.286   4.136  14.457  0.0376 -0.1069  0.1076
   31MPD2    C3  475   3.281   4.075  14.584  0.3810 -0.6702  0.0703
   31MPD2    C4  476   3.385   3.999  14.628  0.5220  0.1921 -0.8364
   31MPD2    C5  477   3.500   3.992  14.549 -0.7481 -0.5696  0.1637
   31MPD2     H  478   3.195   4.185  14.425  0.4002  0.5041 -0.0101
   31MPD2    H1  479   3.379   3.943  14.720  0.1174  2.9146  0.8201
   31MPD2    H2  480   3.607   4.042  14.383 -1.1289 -0.2800 -1.3445
   31MPD2    H3  481   3.582   3.931  14.586 -0.8122 -0.3841  0.6211
   31MPD2     N  482   3.165   4.086  14.666 -0.7446 -0.0523  0.3374
   31MPD2    H5  483   3.163   4.038  14.755  0.9037 -1.5624 -0.4413
   31MPD2    N1  484   3.428   4.205  14.269 -0.3187 -0.2829  0.5307
   31MPD2    H7  485   3.525   4.227  14.247 -1.1790  3.2156  0.2054
   32TCq2    C1  486   3.055   4.160  14.640 -0.3569 -0.2136 -0.5790
   32TCq2    O2  487   3.046   4.267  14.582  0.3213  0.4220  0.1209
   32TCq2    C2  488   2.937   4.106  14.708 -0.4888  0.1041  0.3326
   32TCq2    C3  489   2.842   4.198  14.753  0.0449  0.3102 -0.5595
   32TCq2    C4  490   2.735   4.156  14.837  0.5666 -0.1545 -0.5509
   32TCq2    C5  491   2.725   4.026  14.878 -0.2392 -0.5456 -0.5535
   32TCq2    C6  492   2.822   3.940  14.834 -0.9572 -0.0423  0.2761
   32TCq2    C7  493   2.918   3.977  14.744 -0.1749  0.7160  0.4716
   32TCq2    C8  494   2.838   3.810  14.902  0.4577  0.0345 -0.8224
   32TCq2    O4  495   2.942   3.747  14.883 -0.0796 -0.3417  0.5408
   32TCq2    C9  496   2.635   4.251  14.890  0.2153  0.7557 -0.0630
   32TCq2    O5  497   2.673   4.364  14.920 -0.0447 -0.4981 -0.0889
   32TCq2    O6  498   2.529   4.201  14.926  0.0838 -0.4762  0.4017
   32TCq2    H2  499   2.849   4.306  14.740 -2.3668  0.5901  0.4858
   32TCq2    H3  500   2.657   4.012  14.961  2.4245 -1.5106  1.4784
   32TCq2    H4  501   2.996   3.908  14.714  0.2511  2.4655 -2.5331
   33MPD2     C  502   4.002   1.731  10.512  0.3326 -0.1993  0.6377
   33MPD2    C1  503   3.883   1.681  10.449 -0.3119 -0.1034  0.1077
   33MPD2    C2  504   3.831   1.760  10.347  0.2776 -0.8097 -0.0235
   33MPD2    C3  505   3.887   1.881  10.310 -0.6701 -0.1992 -0.1457
   33MPD2    C4  506   4.011   1.914  10.366  0.0612 -0.4193  0.0092
   33MPD2    C5  507   4.067   1.838  10.460 -0.2105 -0.1810  0.3196
   33MPD2     H  508   3.739   1.724  10.302  1.2334 -3.6689  0.3061
   33MPD2    H1  509   4.059   2.000  10.321 -0.5479 -0.0186  0.1302
   33MPD2    H2  510   4.049   1.670  10.588  1.8068 -1.2121 -1.0907
   33MPD2    H3  511   4.169   1.862  10.489 -0.6514  1.5296  0.4736
   33MPD2     N  512   3.813   1.963  10.226 -0.0705 -0.2266 -0.2466
   33MPD2    H5  513   3.865   2.035  10.178 -1.5750  0.7095 -0.4623
   33MPD2    N1  514   3.831   1.558  10.490 -0.3845 -0.1966 -0.2926
   33MPD2    H7  515   3.891   1.496  10.543 -1.2715 -1.9927 -1.4110
   34TCq2    C1  516   3.673   1.976  10.219 -0.4253  0.0776  0.1980
   34TCq2    O2  517   3.593   1.935  10.304  0.4198 -0.6180 -0.1415
   34TCq2    C2  518   3.625   2.049  10.099  0.0359 -0.9107  0.0716
   34TCq2    C3  519   3.497   2.070  10.089 -0.0128  0.3055  0.4619
   34TCq2    C4  520   3.443   2.106   9.970  0.6338  0.2405  0.6265
   34TCq2    C5  521   3.527   2.111   9.856 -0.0911 -0.6072  0.2461
   34TCq2    C6  522   3.660   2.063   9.866  0.1198 -0.5238  0.7942
   34TCq2    C7  523   3.707   2.032   9.989  0.3318  0.0542  0.1374
   34TCq2    C8  524   3.757   2.084   9.762 -0.5052 -0.2477  0.1019
   34TCq2    O4  525   3.876   2.105   9.802 -0.7275  0.4943  0.2016
   34TCq2    C9  526   3.297   2.130   9.954  0.1924  0.6031  0.2064
   34TCq2    O5  527   3.250   2.155   9.843 -0.5446  0.4112 -0.3368
   34TCq2    O6  528   3.225   2.117  10.062 -0.6852 -0.1186  0.3149
   34TCq2    H2  529   3.445   2.054  10.183  1.6354  0.8389  1.4877
   34TCq2    H3  530   3.485   2.151   9.764 -0.1694  2.2877  1.5607
   34TCq2    H4  531   3.805   1.986   9.991  1.3672  2.2359 -0.1170
   35MPD2     C  532   0.739   3.229  11.851  0.0481 -0.6496  0.0208
   35MPD2    C1  533   0.702   3.110  11.906 -0.0698 -0.0684  0.6656
   35MPD2    C2  534   0.617   3.032  11.833  0.2434 -0.1700 -0.0655
   35MPD2    C3  535   0.539   3.079  11.732  0.1797  0.0567  0.5704
   35MPD2    C4  536   0.571   3.201  11.675 -0.2535 -0.2205 -0.7961
   35MPD2    C5  537   0.677   3.274  11.736  0.1793 -0.0825  0.1814
   35MPD2     H  538   0.598   2.931  11.868 -1.0806  0.0943 -0.0472
   35MPD2    H1  539   0.520   3.250  11.592 -0.7493  0.6389  0.0163
   35MPD2    H2  540   0.809   3.292  11.904  1.3503 -0.5062 -1.8948
   35MPD2    H3  541   0.718   3.366  11.694  0.5249  0.1902  1.1157
   35MPD2     N  542   0.434   2.999  11.680 -0.5058  0.0162 -0.4951
   35MPD2    H5  543   0.418   2.909  11.723 -0.3329  2.0758  3.8483
   35MPD2    N1  544   0.773   3.078  12.023  0.0880  0.3676  0.2027
   35MPD2    H7  545   0.844   3.147  12.041 -0.1402 -0.1643  3.1142
   36TCq2    C1  546   0.349   3.036  11.578 -0.3754 -0.2690 -0.2807
   36TCq2    O2  547   0.331   3.144  11.532  0.1225  0.5880  0.0929
   36TCq2    C2  548   0.249   2.939  11.552 -0.5187  0.0661  0.0484
   36TCq2    C3  549   0.141   2.981  11.488  0.7901  0.5868  0.6599
   36TCq2    C4  550   0.052   2.893  11.437  0.4521  0.0746 -0.0221
   36TCq2    C5  551   0.069   2.762  11.443 -0.2117  0.5053 -0.0613
   36TCq2    C6  552   0.180   2.716  11.509  0.3378  0.1335  0.0636
   36TCq2    C7  553   0.273   2.803  11.561  0.1714 -0.0069 -0.2464
   36TCq2    C8  554   0.189   2.571  11.542 -0.2137  0.0058 -0.0465
   36TCq2    O4  555   0.087   2.507  11.556 -0.2897  0.3006  0.1675
   36TCq2    C9  556   4.667   2.943  11.357 -0.2052  0.2223 -0.0995
   36TCq2    O5  557   4.643   3.067  11.371 -0.0351 -0.2872 -0.0218
   36TCq2    O6  558   4.575   2.865  11.330  0.2751  0.6326  0.0016
   36TCq2    H2  559   0.128   3.082  11.450  1.1616  0.3580 -0.0742
   36TCq2    H3  560   0.005   2.693  11.390  0.2354  0.5582 -0.6732
   36TCq2    H4  561   0.361   2.770  11.616 -0.4624  0.0802  0.8332
   37TMC2    C1  562   2.526   2.902  11.608  0.5732  0.1569  0.2835
   37TMC2    C2  563   2.526   2.882  11.468 -0.4542  0.4195 -0.4899
   37TMC2    C3  564   2.656   2.885  11.409 -0.2808 -0.4949  0.2249
   37TMC2    C4  565   2.641   2.925  11.673  0.2792  0.5008  0.6205
   37TMC2    C5  566   2.757   2.932  11.605 -0.0321 -0.2191 -0.1334
   37TMC2    C6  567   2.767   2.911  11.470 -0.1783  0.5228 -0.3379
   37TMC2     C  568   2.398   2.910  11.677 -0.1874 -0.4026  0.2930
   37TMC2     O  569   2.302   2.883  11.606 -0.7830  0.1883 -0.0631
   37TMC2     H  570   2.432   2.879  11.414 -2.4295 -1.1139  3.0533
   37TMC2    H1  571   2.652   2.931  11.780  3.8604 -2.9899  0.4392
   37TMC2    H2  572   2.864   2.923  11.422 -0.7624 -2.1946 -2.1819
   37TMC2    C7  573   2.877   2.977  11.678 -0.4066 -0.0902 -0.5571
   37TMC2    C8  574   2.662   2.896  11.266 -0.3183  0.2426  0.2160
   37TMC2    O1  575   2.850   3.025  11.787 -0.1453  0.6437  0.8779
   37TMC2    O2  576   2.748   2.963  11.209 -0.0863  0.1675 -0.1000
   37TMC2    O5  577   2.573   2.813  11.212  0.3553  0.1108  0.5020
   37TMC2    H5  578   2.527   2.756  11.277  0.0984  1.2762  1.3426
   38MPD2     C  579   2.132   3.055  12.091  0.3410 -0.7331 -0.1320
   38MPD2    C1  580   2.259   3.019  12.126 -0.9163  0.3294  0.2234
   38MPD2    C2  581   2.344   2.978  12.025  0.5922 -0.2934 -0.1288
   38MPD2    C3  582   2.305   2.971  11.894  0.3583  0.4545  0.1477
   38MPD2    C4  583   2.177   3.026  11.857  0.0682 -0.4776  0.3077
   38MPD2    C5  584   2.101   3.060  11.958 -0.2962  0.2193  0.2398
   38MPD2     H  585   2.445   2.954  12.056  0.8391  1.9224  0.7278
   38MPD2    H1  586   2.150   3.032  11.752 -0.9018  1.0810  0.6393
   38MPD2    H2  587   2.055   3.086  12.161  0.5975  0.9290 -0.5942
   38MPD2    H3  588   2.012   3.115  11.931 -0.7477 -0.5174  0.2265
   38MPD2     N  589   2.408   2.927  11.814  0.0826  0.1733 -0.7734
   38MPD2    H5  590   2.495   2.912  11.864  0.0367  1.2031 -0.3670
   38MPD2    N1  591   2.312   3.020  12.258  0.3826  0.0427  0.1151
   38MPD2    H7  592   2.403   2.977  12.267 -0.2054 -1.6613 -2.2573
   39MPD2     C  593   0.920   4.301   1.307 -0.0601  0.5119 -0.9524
   39MPD2    C1  594   0.820   4.374   1.369 -0.9272 -0.0648 -0.6454
   39MPD2    C2  595   0.708   4.308   1.418 -0.8236  0.3329  0.3032
   39MPD2    C3  596   0.684   4.177   1.393 -0.5063  0.3788  0.2856
   39MPD2    C4  597   0.790   4.101   1.337 -0.2492  0.0597 -0.7475
   39MPD2    C5  598   0.897   4.164   1.298 -0.0766  0.3951  0.1792
   39MPD2     H  599   0.638   4.371   1.474  0.4932  2.1112 -0.0510
   39MPD2    H1  600   0.780   3.998   1.305 -1.2732 -0.2332  0.5217
   39MPD2    H2  601   1.015   4.346   1.280 -0.5261  3.7394  2.7560
   39MPD2    H3  602   0.974   4.105   1.249 -0.7796 -1.0886  0.8757
   39MPD2     N  603   0.564   4.110   1.420 -0.0572  0.9244  0.1433
   39MPD2    H5  604   0.555   4.016   1.383 -0.0637  0.1026  2.2427
   39MPD2    N1  605   0.866   4.504   1.404  0.0047  0.0108 -0.1915
   39MPD2    H7  606   0.959   4.527   1.369  0.1757 -0.7019 -0.2135
   40TCq2    C1  607   0.811   4.589   1.488  0.2190 -0.4655  0.5330
   40TCq2    O2  608   0.706   4.590   1.547  0.2299  0.2586 -0.1551
   40TCq2    C2  609   0.891   4.711   1.493 -0.6710 -0.6984 -0.6269
   40TCq2    C3  610   0.872   0.066   1.608 -0.0834 -0.2860 -0.2962
   40TCq2    C4  611   0.970   0.161   1.644 -0.1042  0.1607  0.2222
   40TCq2    C5  612   1.087   0.171   1.572 -0.0065  0.1364  0.8609
   40TCq2    C6  613   1.100   0.103   1.453  0.1118  0.0343  0.5356
   40TCq2    C7  614   1.010   0.003   1.418 -0.4670  0.1596 -0.3840
   40TCq2    C8  615   1.204   0.126   1.358 -0.1181  0.5405 -0.4033
   40TCq2    O4  616   1.258   0.030   1.306 -0.1347 -0.1403 -0.7681
   40TCq2    C9  617   0.954   0.254   1.754  0.7170 -0.7442  0.3950
   40TCq2    O5  618   1.024   0.360   1.754  0.0441  0.2645  0.0247
   40TCq2    O6  619   0.913   0.199   1.859 -0.2511 -0.0398 -0.2664
   40TCq2    H2  620   0.778   0.050   1.659  0.1256 -0.6769 -0.0316
   40TCq2    H3  621   1.163   0.239   1.609  0.9509 -1.4331  1.8033
   40TCq2    H4  622   1.024   4.677   1.320  2.7208  2.0707 -0.8048
   41TMC2    C1  623   4.481   2.724  14.153 -0.4939 -0.3359  0.2036
   41TMC2    C2  624   4.522   2.854  14.192  0.7592 -0.0443 -0.2691
   41TMC2    C3  625   4.519   2.944  14.090  0.0731 -0.1017  0.1172
   41TMC2    C4  626   4.424   2.695  14.033  0.5221  0.2656  0.1248
   41TMC2    C5  627   4.428   2.792  13.945  0.6838  0.2294 -0.0451
   41TMC2    C6  628   4.457   2.918  13.970 -0.4642 -0.1625  0.4739
   41TMC2     C  629   4.473   2.620  14.251  1.0237  0.2001  0.2610
   41TMC2     O  630   4.475   2.502  14.220 -0.3846  0.3242  0.3041
   41TMC2     H  631   4.589   2.876  14.274  0.4936 -0.1065 -0.0347
   41TMC2    H1  632   4.378   2.598  14.016  0.6451 -0.4887  4.1336
   41TMC2    H2  633   4.474   2.987  13.888 -0.9673  0.8951  1.2450
   41TMC2    C7  634   4.342   2.777  13.829 -0.3385  0.0688 -0.2104
   41TMC2    C8  635   4.580   3.076  14.097  0.3780  0.5899  0.3069
   41TMC2    O1  636   4.249   2.701  13.848  0.0639  0.4607  0.5639
   41TMC2    O2  637   4.596   3.151  14.001  0.4499  0.8590 -0.0666
   41TMC2    O5  638   4.560   3.123  14.222  0.0434 -0.0748 -0.5043
   41TMC2    H5  639   4.514   3.057  14.278  0.2036  1.6811  1.6760
   42MPD2     C  640   4.408   2.461  14.510 -0.4833 -0.5905 -0.4481
   42MPD2    C1  641   4.403   2.598  14.491 -0.4897 -0.1141 -0.1325
   42MPD2    C2  642   4.369   2.673  14.596  0.4791 -0.7186  0.1568
   42MPD2    C3  643   4.327   2.616  14.718 -0.2425  1.0487  0.5312
   42MPD2    C4  644   4.333   2.480  14.739 -0.2189 -0.3848  0.7512
   42MPD2    C5  645   4.377   2.403  14.637  0.4882  0.7754 -0.6602
   42MPD2     H  646   4.369   2.779  14.574  0.8542 -0.3589  1.8658
   42MPD2    H1  647   4.311   2.424  14.829 -1.9128  3.6461  2.8630
   42MPD2    H2  648   4.439   2.400  14.426 -0.3343  2.4505 -2.5790
   42MPD2    H3  649   4.370   2.295  14.636  1.6459  0.6711  2.2492
   42MPD2     N  650   4.271   2.693  14.820  0.2996  0.0801  0.6211
   42MPD2    H5  651   4.246   2.642  14.905 -1.3160  0.7687  0.5402
   42MPD2    N1  652   4.428   2.666  14.370 -0.4384 -0.2233  0.5980
   42MPD2    H7  653   4.412   2.765  14.381 -0.4742 -0.1397 -0.2052
   43MPD2     C  654   0.688   1.421   0.514 -0.3634 -0.3594  0.4539
   43MPD2    C1  655   0.786   1.419   0.611  0.5488 -0.6236  0.3948
   43MPD2    C2  656   0.750   1.429   0.741  0.1001 -0.4043  0.1901
   43MPD2    C3  657   0.616   1.435   0.781  0.0722  0.0207  0.3280
   43MPD2    C4  658   0.516   1.434   0.684  0.9988  0.8458  0.0070
   43MPD2    C5  659   0.553   1.431   0.553  0.5870 -0.7459 -0.8833
   43MPD2     H  660   0.829   1.421   0.815  0.1212  0.3203  0.2486
   43MPD2    H1  661   0.409   1.429   0.699  0.7564  2.0251 -1.3427
   43MPD2    H2  662   0.712   1.428   0.409  1.9320 -2.7268  0.8114
   43MPD2    H3  663   0.473   1.445   0.481  1.5243 -1.4499 -2.0691
   43MPD2     N  664   0.577   1.429   0.913 -0.0582  0.8557  0.3182
   43MPD2    H5  665   0.476   1.424   0.927 -0.4092  0.6511 -2.2803
   43MPD2    N1  666   0.924   1.405   0.583 -0.3220  0.3250 -0.9090
   43MPD2    H7  667   0.985   1.403   0.663 -0.4484 -0.1025 -0.8205
   44TCq2    C1  668   0.632   1.585   1.479  0.0712  0.0781  0.2773
   44TCq2    O2  669   0.757   1.587   1.475 -0.7138 -0.2601  0.3361
   44TCq2    C2  670   0.563   1.531   1.359 -0.1991  0.1299  0.3611
   44TCq2    C3  671   0.447   1.469   1.382 -0.1475 -0.2179  0.0490
   44TCq2    C4  672   0.386   1.414   1.269 -0.1424 -0.3267 -0.4651
   44TCq2    C5  673   0.455   1.394   1.155  0.5418 -0.1109 -0.1913
   44TCq2    C6  674   0.586   1.445   1.143 -0.6603 -0.0381  0.3578
   44TCq2    C7  675   0.640   1.513   1.248  0.6359  0.3478  0.3978
   44TCq2    C8  676   0.649   1.464   1.019 -0.3294  0.0801  0.5915
   44TCq2    O4  677   0.766   1.505   1.025 -0.2485 -0.4360  0.5944
   44TCq2    C9  678   0.252   1.357   1.278 -0.4606  0.3209  0.4744
   44TCq2    O5  679   0.199   1.371   1.393  0.3234 -0.4567 -0.4611
   44TCq2    O6  680   0.189   1.348   1.173  1.1625 -0.5433  0.4277
   44TCq2    H2  681   0.393   1.467   1.476 -0.3017 -0.8042 -0.0514
   44TCq2    H3  682   0.422   1.322   1.081 -0.6343  0.7256 -0.4827
   44TCq2    H4  683   0.739   1.557   1.247  0.0720  1.7003  2.5802
   45TMC2    C1  684   1.518   2.929   9.137 -0.1018 -0.1791  0.0102
   45TMC2    C2  685   1.625   2.906   9.216  0.5350 -0.0481  0.2529
   45TMC2    C3  686   1.671   3.011   9.293 -0.1294 -0.3083 -0.0878
   45TMC2    C4  687   1.454   3.047   9.139  0.7240  0.6287  0.0380
   45TMC2    C5  688   1.505   3.152   9.215  0.4368  0.0576  0.8250
   45TMC2    C6  689   1.610   3.132   9.299 -0.7288  0.2521 -0.3526
   45TMC2     C  690   1.454   2.817   9.071 -0.1185  0.4428 -0.5281
   45TMC2     O  691   1.513   2.708   9.073 -0.0404 -0.1733  0.0655
   45TMC2     H  692   1.696   2.825   9.211 -0.2083 -0.5351 -1.9872
   45TMC2    H1  693   1.371   3.066   9.070  1.6393  0.4908 -1.1017
   45TMC2    H2  694   1.654   3.206   9.364 -1.2212 -0.1831  0.4875
   45TMC2    C7  695   1.436   3.284   9.212  0.1781 -0.6364 -0.2034
   45TMC2    C8  696   1.789   2.994   9.382  0.7524  0.1630 -0.6687
   45TMC2    O1  697   1.355   3.295   9.123  0.1782  0.8000  0.0668
   45TMC2    O2  698   1.875   3.081   9.397 -0.0680 -0.0060 -0.2369
   45TMC2    O5  699   1.732   2.933   9.484 -0.0675  0.0829  0.6222
   45TMC2    H5  700   1.664   2.867   9.459  1.3020 -1.5144  1.1373
   46MPD2     C  701   1.254   2.619   8.951  0.1621  0.2664  0.2080
   46MPD2    C1  702   1.236   2.757   8.974 -0.1507 -0.4824  0.5700
   46MPD2    C2  703   1.111   2.805   8.951 -0.4153  0.4114  0.0229
   46MPD2    C3  704   1.011   2.733   8.888  0.4598  0.2726 -0.2291
   46MPD2    C4  705   1.029   2.597   8.872  1.1751  0.5019  0.8010
   46MPD2    C5  706   1.150   2.544   8.907 -0.0133  0.0081 -0.0033
   46MPD2     H  707   1.086   2.908   8.974  1.0155  0.4908  1.2314
   46MPD2    H1  708   0.952   2.532   8.833  1.3136  0.8237 -0.0042
   46MPD2    H2  709   1.349   2.568   8.962 -0.4837 -0.5966  1.8015
   46MPD2    H3  710   1.165   2.438   8.893 -0.8562 -0.2970  1.4180
   46MPD2     N  711   0.892   2.803   8.862 -0.0853 -0.5250  0.0293
   46MPD2    H5  712   0.883   2.900   8.891 -1.0184 -0.2927 -1.0442
   46MPD2    N1  713   1.330   2.849   9.025  0.4826  0.1948  0.5062
   46MPD2    H7  714   1.289   2.940   9.043 -1.4575  0.0294 -3.1027
   47TMC2    C1  715   4.267   4.041   9.402  0.4031  0.3014  0.7128
   47TMC2    C2  716   4.302   3.985   9.282  0.0873  0.1881  0.1065
   47TMC2    C3  717   4.212   4.004   9.181  0.2868  0.0630 -0.2182
   47TMC2    C4  718   4.141   4.099   9.421 -0.9834 -0.4797 -0.2335
   47TMC2    C5  719   4.049   4.102   9.319 -0.3074 -0.0981  0.0667
   47TMC2    C6  720   4.086   4.062   9.196  0.3306  0.2059 -0.1555
   47TMC2     C  721   4.344   4.015   9.522 -0.3316 -0.0359  0.2466
   47TMC2     O  722   4.316   4.081   9.620  0.2982  0.1906 -0.0686
   47TMC2     H  723   4.402   3.944   9.270  0.0651 -0.2326  1.3067
   47TMC2    H1  724   4.110   4.123   9.522  1.7441  1.4155  0.1673
   47TMC2    H2  725   4.006   4.066   9.123  1.5323  0.4011 -1.4562
   47TMC2    C7  726   3.911   4.141   9.354  0.8564 -0.0421 -0.0099
   47TMC2    C8  727   4.261   3.967   9.051  0.7124 -0.1287 -0.6034
   47TMC2    O1  728   3.884   4.128   9.472  0.0428 -0.0410 -0.2751
   47TMC2    O2  729   4.380   3.975   9.018  0.2256 -0.3959 -0.6047
   47TMC2    O5  730   4.156   3.972   8.961  0.2310 -0.6399 -0.2305
   47TMC2    H5  731   4.064   3.954   8.988  0.4159  1.6344  1.8539
   48MPD2     C  732   4.562   3.983   9.713  0.0101 -0.1598 -0.4255
   48MPD2    C1  733   4.534   3.895   9.612  0.4209 -0.1125  0.0871
   48MPD2    C2  734   4.590   3.761   9.615 -0.3835 -0.2340 -0.3149
   48MPD2    C3  735   4.662   3.725   9.728 -0.3843  0.4206 -0.5227
   48MPD2    C4  736   4.686   3.812   9.834  0.0376  0.0691 -0.4525
   48MPD2    C5  737   4.634   3.942   9.821  0.1083  0.1937  0.6843
   48MPD2     H  738   4.574   3.692   9.533  2.3674 -2.8942  1.3906
   48MPD2    H1  739   0.017   3.776   9.923 -1.5434 -1.4797 -0.1877
   48MPD2    H2  740   4.519   4.082   9.726  0.0964 -0.0530 -0.9451
   48MPD2    H3  741   4.650   4.016   9.899  3.7426  1.9169 -1.7295
   48MPD2     N  742   4.707   3.587   9.731 -0.0792  0.0195  0.0934
   48MPD2    H5  743   4.673   3.537   9.649 -1.7837  0.9870  0.2039
   48MPD2    N1  744   4.447   3.929   9.507 -0.3203 -0.3898 -0.3963
   48MPD2    H7  745   4.453   3.874   9.422  0.4844  0.2444 -0.7505
   49MPD2     C  746   3.203   1.042   9.827  0.4002  0.6628  0.2078
   49MPD2    C1  747   3.075   1.067   9.868 -0.4058  0.0528 -0.6253
   49MPD2    C2  748   3.049   1.101   9.995 -0.7108 -0.0511  1.0111
   49MPD2    C3  749   3.149   1.087  10.088  0.0627 -0.2156  0.2564
   49MPD2    C4  750   3.272   1.060  10.050  0.0345  0.2012  0.6133
   49MPD2    C5  751   3.298   1.040   9.919 -0.5178  0.4723 -0.1489
   49MPD2     H  752   2.946   1.121  10.023 -1.1348  1.5034 -1.6326
   49MPD2    H1  753   3.349   1.052  10.126  0.6465 -0.7758 -0.1011
   49MPD2    H2  754   3.231   1.017   9.725 -1.5208 -0.3250 -0.0749
   49MPD2    H3  755   3.396   0.999   9.895 -0.1918  2.3552 -2.0399
   49MPD2     N  756   3.119   1.081  10.230  0.3031 -0.3865 -1.1810
   49MPD2    H5  757   3.200   1.081  10.291 -0.2903  1.6133 -0.3924
   49MPD2    N1  758   2.966   1.049   9.779 -0.2023  0.4188  0.3412
   49MPD2    H7  759   2.877   1.043   9.828 -0.3090 -3.1844 -0.3494
   50TCq2    C1  760   2.976   1.056   9.641  0.3719 -0.6297 -0.3290
   50TCq2    O2  761   3.067   1.089   9.570  0.3769 -0.0886 -0.4177
   50TCq2    C2  762   2.851   1.026   9.570  0.2186  0.2853 -0.4825
   50TCq2    C3  763   2.845   1.070   9.439 -0.1705  0.1074 -0.5250
   50TCq2    C4  764   2.732   1.047   9.371  0.2027  1.1707 -0.1773
   50TCq2    C5  765   2.635   0.971   9.422  0.5455  0.3094  0.5194
   50TCq2    C6  766   2.649   0.905   9.544 -0.2055 -0.0422 -0.0812
   50TCq2    C7  767   2.749   0.945   9.625  0.2455  0.1946 -0.1615
   50TCq2    C8  768   2.534   0.828   9.592 -0.7553 -0.4364 -0.0142
   50TCq2    O4  769   2.463   0.777   9.506 -0.0841 -0.4183  0.7720
   50TCq2    C9  770   2.739   1.070   9.227  0.3432  0.0246 -0.4025
   50TCq2    O5  771   2.673   0.987   9.162  0.7579 -0.4388  0.2984
   50TCq2    O6  772   2.820   1.152   9.178 -0.1994  0.0132  0.1864
   50TCq2    H2  773   2.932   1.123   9.402  0.7151 -1.0561 -0.1095
   50TCq2    H3  774   2.562   0.941   9.348  0.8121  0.5546  0.1523
   50TCq2    H4  775   2.788   0.904   9.718 -1.5065  2.2362  1.4422
   51MPD2     C  776   2.904   3.085   1.068  0.0540  0.0703 -0.1761
   51MPD2    C1  777   3.023   3.117   1.014  0.1877 -0.3458 -0.0707
   51MPD2    C2  778   3.142   3.074   1.070 -0.0118  0.3863 -0.1722
   51MPD2    C3  779   3.134   2.993   1.183  0.6937 -0.1740 -0.0239
   51MPD2    C4  780   3.009   2.946   1.222  0.0698  0.1941 -0.8042
   51MPD2    C5  781   2.895   2.999   1.171 -0.1299  0.7734  0.2355
   51MPD2     H  782   3.240   3.089   1.027  0.6034  0.4323  1.2633
   51MPD2    H1  783   3.004   2.887   1.313  1.0420  1.9777  0.4070
   51MPD2    H2  784   2.817   3.132   1.025 -1.1737 -0.2959  1.8800
   51MPD2    H3  785   2.799   2.968   1.209 -0.1121  0.0702 -0.2937
   51MPD2     N  786   3.252   2.948   1.250  0.1789 -0.3552  0.0724
   51MPD2    H5  787   3.238   2.876   1.319 -0.3289  1.6853  2.1005
   51MPD2    N1  788   3.015   3.198   0.900  0.7411  0.7299 -0.1219
   51MPD2    H7  789   2.924   3.228   0.867 -0.0840  0.0371  1.5455
   52TCq2    C1  790   3.382   2.987   1.236  0.0793 -0.5410 -0.0308
   52TCq2    O2  791   3.432   3.086   1.186 -0.4971  0.7712  0.2220
   52TCq2    C2  792   3.471   2.911   1.322 -0.5602  0.1091  0.2805
   52TCq2    C3  793   3.418   2.801   1.383  0.4692  0.5894 -0.8842
   52TCq2    C4  794   3.490   2.743   1.485 -0.7670  0.4521 -0.0537
   52TCq2    C5  795   3.608   2.788   1.531 -1.1395  0.0598 -0.0300
   52TCq2    C6  796   3.661   2.897   1.467  0.4532 -0.1256 -0.0535
   52TCq2    C7  797   3.592   2.957   1.362  0.2043 -0.5860  0.2615
   52TCq2    C8  798   3.760   2.980   1.540  0.2009 -0.7801  0.3637
   52TCq2    O4  799   3.764   3.102   1.529 -0.6274  0.2263 -0.1101
   52TCq2    C9  800   3.436   2.628   1.557 -0.4380 -0.1936 -0.0664
   52TCq2    O5  801   3.313   2.611   1.541 -0.2603  0.0979 -0.1740
   52TCq2    O6  802   3.503   2.587   1.658 -0.6730 -0.2850 -0.3989
   52TCq2    H2  803   3.341   2.750   1.327  0.1119 -2.4240  2.3704
   52TCq2    H3  804   3.657   2.723   1.602  0.5829  1.4860  0.0974
   52TCq2    H4  805   3.639   3.039   1.309 -0.1684 -0.4955  0.0654
   53TMC2    C1  806   3.341   3.141  12.217 -0.2002 -0.2685  0.2179
   53TMC2    C2  807   3.440   3.123  12.307 -0.1478  0.2087  0.6368
   53TMC2    C3  808   3.395   3.127  12.438  0.7275 -0.3125 -0.7458
   53TMC2    C4  809   3.208   3.181  12.246  0.2184 -0.0228 -0.7457
   53TMC2    C5  810   3.172   3.177  12.380  0.6633 -0.6088 -0.3009
   53TMC2    C6  811   3.265   3.146  12.472  0.7175 -0.7772 -0.4081
   53TMC2     C  812   3.367   3.106  12.080  0.0980 -0.7575  0.0477
   53TMC2     O  813   3.482   3.067  12.059  0.1348 -0.3935  0.0275
   53TMC2     H  814   3.541   3.099  12.274 -1.0397  0.9341 -2.6224
   53TMC2    H1  815   3.136   3.212  12.170  0.4432  1.1896 -0.4698
   53TMC2    H2  816   3.252   3.171  12.577  2.6059  1.0341 -0.6154
   53TMC2    C7  817   3.051   3.248  12.413 -0.1313 -0.4426 -0.2230
   53TMC2    C8  818   3.491   3.154  12.541 -0.6485  0.1131 -0.3177
   53TMC2    O1  819   3.001   3.321  12.325  0.2200 -0.2522  0.2386
   53TMC2    O2  820   3.464   3.221  12.639 -0.3240  0.3271 -0.0361
   53TMC2    O5  821   3.615   3.126  12.503 -0.1515 -0.3263  0.1554
   53TMC2    H5  822   3.623   3.068  12.425  0.1486  1.2678 -0.9987
   54MPD2     C  823   3.380   3.048  11.788 -0.6463  0.2310  0.3665
   54MPD2    C1  824   3.262   3.065  11.861 -0.1465 -0.6265 -0.0517
   54MPD2    C2  825   3.138   3.043  11.802  0.6850 -0.4919  0.8194
   54MPD2    C3  826   3.124   2.995  11.675  0.1202 -0.0666 -0.4212
   54MPD2    C4  827   3.242   2.978  11.600  0.1057 -0.5827 -0.9807
   54MPD2    C5  828   3.362   3.004  11.657 -0.0655  0.6234 -0.3472
   54MPD2     H  829   3.048   3.067  11.858 -0.0973 -2.1127  0.2588
   54MPD2    H1  830   3.244   2.944  11.497  0.3144 -1.1158 -0.7964
   54MPD2    H2  831   3.482   3.074  11.812 -0.9125  0.2498  1.4716
   54MPD2    H3  832   3.451   2.973  11.603 -0.0536 -1.3633  0.7911
   54MPD2     N  833   2.997   2.967  11.609 -0.8318  0.2564  0.3450
   54MPD2    H5  834   2.999   2.926  11.516 -1.2473 -1.6331  1.1674
   54MPD2    N1  835   3.254   3.105  11.999  0.4125 -0.8032 -0.2544
   54MPD2    H7  836   3.164   3.120  12.044 -0.1517 -1.2078 -1.2351
   55MPD2     C  837   2.650   3.738   1.028 -0.1238 -0.0938 -0.4271
   55MPD2    C1  838   2.541   3.793   0.971  0.3513 -0.2290 -0.4600
   55MPD2    C2  839   2.530   3.931   0.978  0.8113  0.6751 -0.3168
   55MPD2    C3  840   2.614   4.015   1.047 -0.7541 -0.1978  0.4439
   55MPD2    C4  841   2.727   3.957   1.094  0.6552  0.6273  0.1695
   55MPD2    C5  842   2.744   3.824   1.081 -0.4759 -0.0615 -0.0894
   55MPD2     H  843   2.443   3.983   0.938  0.8822  1.2084  0.2314
   55MPD2    H1  844   2.814   4.009   1.134  1.1965  1.3851 -1.9763
   55MPD2    H2  845   2.665   3.630   1.029 -0.2842 -0.1204 -1.1100
   55MPD2    H3  846   2.836   3.780   1.117 -0.8132 -0.4131  0.3413
   55MPD2     N  847   2.591   4.152   1.056  0.2819  0.6604  0.1154
   55MPD2    H5  848   2.508   4.190   1.011 -0.4451 -2.4251 -1.1061
   55MPD2    N1  849   2.439   3.703   0.931 -0.1039 -0.1208 -0.3283
   55MPD2    H7  850   2.473   3.607   0.930 -0.9096 -0.4058 -1.0135
   56TCq2    C1  851   2.310   3.733   0.891 -0.4128  0.0861  0.0426
   56TCq2    O2  852   2.264   3.841   0.862 -0.1849  0.1906 -0.0005
   56TCq2    C2  853   2.226   3.617   0.888  0.1916 -0.1290 -0.2808
   56TCq2    C3  854   2.270   3.496   0.928 -0.2931 -0.5910  0.8353
   56TCq2    C4  855   2.179   3.404   0.973  0.5735 -0.3989  0.5736
   56TCq2    C5  856   2.047   3.434   0.953 -0.4862  0.1795 -0.2562
   56TCq2    C6  857   2.001   3.556   0.909 -0.4061  0.0468 -0.6446
   56TCq2    C7  858   2.094   3.655   0.883 -1.1828  0.3597  0.1042
   56TCq2    C8  859   1.860   3.582   0.929 -0.4387 -0.2578 -0.1349
   56TCq2    O4  860   1.791   3.510   0.998  0.3270 -0.0728  0.0808
   56TCq2    C9  861   2.216   3.274   1.005  0.3712 -0.0878  0.1018
   56TCq2    O5  862   2.120   3.195   1.026 -0.1073 -0.0698 -0.3213
   56TCq2    O6  863   2.337   3.245   0.986  0.4984  0.1740 -0.3840
   56TCq2    H2  864   2.374   3.469   0.914 -0.4570 -0.4531 -0.7062
   56TCq2    H3  865   1.974   3.356   0.970 -0.4597  0.3978  0.8851
   56TCq2    H4  866   2.065   3.757   0.859  0.7373  0.3541 -2.1649
   57TMC2    C1  867   3.057   1.757  13.299 -0.4635  0.7387 -0.4240
   57TMC2    C2  868   3.123   1.778  13.418 -0.2689 -0.0760 -0.2696
   57TMC2    C3  869   3.255   1.818  13.418  0.2305 -0.0090  0.4982
   57TMC2    C4  870   3.126   1.763  13.180 -0.2531  0.1627 -0.0155
   57TMC2    C5  871   3.256   1.802  13.186 -0.7622  0.3263 -0.5735
   57TMC2    C6  872   3.324   1.822  13.301 -0.8948 -0.1283 -1.1016
   57TMC2     C  873   2.915   1.793  13.314 -0.0866 -0.4499  0.2741
   57TMC2     O  874   2.882   1.906  13.342  0.4343 -0.2514 -0.3877
   57TMC2     H  875   3.061   1.805  13.502 -2.1832 -0.7503 -1.4583
   57TMC2    H1  876   3.074   1.762  13.085  0.4075 -1.2882 -0.3514
   57TMC2    H2  877   3.429   1.851  13.297 -1.1573  0.6290 -2.6818
   57TMC2    C7  878   3.322   1.833  13.063  0.7963  0.2337  0.0741
   57TMC2    C8  879   3.322   1.822  13.547  0.2498  0.4586 -0.0613
   57TMC2    O1  880   3.406   1.924  13.070  0.5318 -0.0465 -0.3465
   57TMC2    O2  881   3.288   1.879  13.649  0.0679  0.0636  0.0731
   57TMC2    O5  882   3.448   1.776  13.536 -0.0422  0.0018 -0.1229
   57TMC2    H5  883   3.455   1.724  13.453  0.1521  1.8382 -1.2853
   58MPD2     C  884   2.418   1.643  13.350  0.2833  0.7202 -0.1880
   58MPD2    C1  885   2.487   1.757  13.394  0.2056 -0.8547 -0.2804
   58MPD2    C2  886   2.624   1.779  13.367 -0.0796 -0.8024  0.1498
   58MPD2    C3  887   2.694   1.685  13.291 -0.4679 -0.0608 -0.6423
   58MPD2    C4  888   2.626   1.572  13.248 -0.4143 -0.5911  1.1414
   58MPD2    C5  889   2.497   1.552  13.276  0.1557 -0.1814 -0.2443
   58MPD2     H  890   2.672   1.861  13.420 -0.0009 -0.6162 -0.2065
   58MPD2    H1  891   2.670   1.492  13.189 -1.4927  0.2144 -0.7680
   58MPD2    H2  892   2.313   1.625  13.367  0.7004 -1.0943  0.4664
   58MPD2    H3  893   2.434   1.475  13.234 -1.0608  0.6040  0.1372
   58MPD2     N  894   2.836   1.689  13.272 -0.1222  0.6446  0.2667
   58MPD2    H5  895   2.879   1.600  13.246 -0.9941  0.8202 -1.7862
   58MPD2    N1  896   2.423   1.854  13.475  0.5696 -0.4508 -0.1737
   58MPD2    H7  897   2.475   1.931  13.516  0.5947 -0.4213 -0.2607
   59MPD2     C  898   0.421   2.070  12.896 -0.7082 -0.2387  0.6045
   59MPD2    C1  899   0.527   1.995  12.839 -0.2151 -0.0607 -0.0004
   59MPD2    C2  900   0.648   1.995  12.898  0.3183  0.3288 -0.2003
   59MPD2    C3  901   0.665   2.047  13.024 -0.5588  0.3553  0.1527
   59MPD2    C4  902   0.559   2.102  13.084 -0.4152 -0.3897 -0.4477
   59MPD2    C5  903   0.439   2.125  13.021  0.6149 -0.5770  0.1276
   59MPD2     H  904   0.727   1.935  12.854 -0.1111  0.1280 -0.7028
   59MPD2    H1  905   0.565   2.145  13.184 -2.6886 -0.5761 -0.2282
   59MPD2    H2  906   0.326   2.087  12.848 -0.3590  0.4717  0.1579
   59MPD2    H3  907   0.355   2.177  13.066  0.1855 -2.3673  1.3486
   59MPD2     N  908   0.781   2.040  13.099 -1.0442  0.0731  0.2539
   59MPD2    H5  909   0.778   2.073  13.195 -2.0139 -1.3320  0.7041
   59MPD2    N1  910   0.512   1.926  12.717 -0.5552  0.0331  0.2088
   59MPD2    H7  911   0.603   1.900  12.681 -1.7205 -0.4067 -2.4270
   60TCq2    C1  912   0.395   1.907  12.644  0.3315 -1.2167 -0.1099
   60TCq2    O2  913   0.280   1.898  12.682  0.1851 -0.6160 -0.1295
   60TCq2    C2  914   0.424   1.851  12.514 -0.6580 -0.5475  0.2298
   60TCq2    C3  915   0.337   1.757  12.464 -0.0924  0.1583  0.3336
   60TCq2    C4  916   0.370   1.690  12.347 -0.6825 -0.2962 -0.0517
   60TCq2    C5  917   0.483   1.721  12.285  0.1100 -0.4368  0.1950
   60TCq2    C6  918   0.564   1.815  12.335  0.1251  0.0049 -0.2122
   60TCq2    C7  919   0.542   1.878  12.454 -0.6267  0.7618  0.2578
   60TCq2    C8  920   0.654   1.883  12.243 -0.7558 -0.7466 -0.4743
   60TCq2    O4  921   0.734   1.822  12.176  0.3245 -0.3234 -0.2560
   60TCq2    C9  922   0.275   1.597  12.292 -0.6216 -0.5295 -0.2078
   60TCq2    O5  923   0.285   1.569  12.171  0.3472  0.0364  0.1199
   60TCq2    O6  924   0.174   1.565  12.360  0.6377 -0.1858  0.0362
   60TCq2    H2  925   0.239   1.743  12.508 -0.3469 -0.9541 -0.5938
   60TCq2    H3  926   0.522   1.664  12.202 -1.3921 -1.8389  0.4400
   60TCq2    H4  927   0.605   1.958  12.491  0.1002  1.5341 -2.6743
   61MPD2     C  928   0.273   3.268  14.643 -0.2789 -0.5983  0.0250
   61MPD2    C1  929   0.181   3.336  14.717  0.8809  0.0374  0.9005
   61MPD2    C2  930   0.076   3.399  14.656  0.3517 -0.0415  0.1473
   61MPD2    C3  931   0.063   3.396  14.519  0.2624  0.1346 -0.3840
   61MPD2    C4  932   0.153   3.327  14.448 -0.0210 -1.3094  0.7801
   61MPD2    C5  933   0.253   3.262  14.506  0.7341  0.3300 -0.6197
   61MPD2     H  934   0.008   3.457  14.717  2.4653  1.4164  1.0984
   61MPD2    H1  935   0.133   3.310  14.343  0.6841  1.3352  0.2020
   61MPD2    H2  936   0.362   3.219  14.681  0.3053 -0.0434 -0.6071
   61MPD2    H3  937   0.322   3.204  14.446 -0.0681 -0.6156 -0.6339
   61MPD2     N  938   4.689   3.468  14.450  0.3266  0.3668 -0.2315
   61MPD2    H5  939   4.700   3.481  14.350 -0.0711 -0.2311 -0.3516
   61MPD2    N1  940   0.198   3.356  14.859  0.0815  0.2601  0.6429
   61MPD2    H7  941   0.137   3.428  14.894 -0.6155 -0.8013  1.6222
   62TCq2    C1  942   0.287   3.294  14.935  0.0203 -1.2439  0.4725
   62TCq2    O2  943   0.320   3.177  14.918  0.3438  0.0540  0.4452
   62TCq2    C2  944   0.265   3.344  15.068 -0.4351  0.1716  0.5491
   62TCq2    C3  945   0.198   3.250  15.138  0.3423 -0.1093  0.3008
   62TCq2    C4  946   0.099   3.295  15.226  0.5325  0.7445  0.0898
   62TCq2    C5  947   0.069   3.428  15.237 -1.0596 -0.1985  0.0257
   62TCq2    C6  948   0.132   3.510  15.154  0.7787  0.0854 -0.2287
   62TCq2    C7  949   0.224   3.472  15.066  0.0791 -0.3255  0.3399
   62TCq2    C8  950   0.085   3.645  15.124  0.0140  0.9043 -0.3507
   62TCq2    O4  951   0.162   3.737  15.145 -0.5288 -0.0008 -0.2785
   62TCq2    C9  952   0.056   3.205  15.327  0.1224  0.1959  0.8823
   62TCq2    O5  953   0.111   3.093  15.335  0.0954  0.2473  0.2882
   62TCq2    O6  954   4.681   3.234  15.401  0.5051  0.2184 -0.2009
   62TCq2    H2  955   0.238   3.149  15.140  1.8607  0.5183  1.7022
   62TCq2    H3  956   0.008   3.468  15.318 -0.2627 -0.0077  0.5238
   62TCq2    H4  957   0.260   3.547  14.997 -1.6171 -0.6325 -0.8859
   63TMC2    C1  958   4.570   3.521  10.863 -0.3486  0.1152 -0.1391
   63TMC2    C2  959   4.655   3.573  10.954 -0.3025  1.1126  0.5566
   63TMC2    C3  960   0.027   3.665  10.907 -0.5964  0.1479 -0.3194
   63TMC2    C4  961   4.569   3.567  10.728  0.4810  0.8929 -0.3305
   63TMC2    C5  962   4.649   3.667  10.694  0.1248  0.0509  0.1501
   63TMC2    C6  963   0.027   3.713  10.777 -0.3046 -0.1352  0.0197
   63TMC2     C  964   4.453   3.447  10.916 -0.2737  0.1792 -0.8106
   63TMC2     O  965   4.429   3.443  11.037 -0.0504 -0.3580  0.3872
   63TMC2     H  966   4.668   3.531  11.053 -1.5868  0.7981  0.5894
   63TMC2    H1  967   4.486   3.539  10.664 -0.8957  0.9460  1.4175
   63TMC2    H2  968   0.098   3.781  10.732  1.0114 -0.5700  1.4437
   63TMC2    C7  969   4.636   3.718  10.560 -0.2446 -0.1683 -0.1711
   63TMC2    C8  970   0.119   3.729  11.007 -0.6573  0.8947 -0.3776
   63TMC2    O1  971   4.559   3.658  10.487  0.5010  0.2529 -0.4795
   63TMC2    O2  972   0.078   3.776  11.114  0.6547 -0.0612 -0.1096
   63TMC2    O5  973   0.233   3.773  10.941 -1.1777 -0.0118  0.0340
   63TMC2    H5  974   0.248   3.718  10.861 -0.9295  0.5547 -0.3063
   64MPD2     C  975   4.003   3.216  10.810  0.5750 -0.1730  0.2825
   64MPD2    C1  976   4.091   3.198  10.705 -0.1778 -0.1048 -0.5568
   64MPD2    C2  977   4.213   3.263  10.712 -1.4577  0.3147 -0.5936
   64MPD2    C3  978   4.254   3.325  10.822 -0.1364  0.0781 -0.3026
   64MPD2    C4  979   4.177   3.337  10.935 -0.6602  0.4813 -0.3245
   64MPD2    C5  980   4.053   3.272  10.927 -0.0468  0.5405 -0.0322
   64MPD2     H  981   4.277   3.271  10.624  0.0110  0.0159  0.4510
   64MPD2    H1  982   4.210   3.378  11.029 -0.4051  0.3056 -0.3375
   64MPD2    H2  983   3.911   3.161  10.818  0.7756 -0.3253  1.6011
   64MPD2    H3  984   3.987   3.269  11.013 -1.3473 -0.7299 -1.0690
   64MPD2     N  985   4.384   3.388  10.819 -0.6045 -0.1387 -0.1326
   64MPD2    H5  986   4.436   3.389  10.732  1.1196  0.9702  0.9231
   64MPD2    N1  987   4.069   3.121  10.588 -0.5917 -0.4299 -0.4558
   64MPD2    H7  988   4.141   3.118  10.517  0.0559  2.3799  0.0632
   65MPD2     C  989   0.589   2.522  15.679 -0.3936  0.2940 -0.4795
   65MPD2    C1  990   0.566   2.484  15.550  0.2174 -0.6862  0.1577
   65MPD2    C2  991   0.551   2.351  15.513  0.4200  0.3430  0.2637
   65MPD2    C3  992   0.527   2.255  15.620  0.6268  0.7736  0.0730
   65MPD2    C4  993   0.541   2.294  15.754 -0.6447  0.1513  0.6060
   65MPD2    C5  994   0.572   2.427  15.778  0.0913  0.2192  0.1434
   65MPD2     H  995   0.541   2.321  15.409  1.5052  0.5215  0.1116
   65MPD2    H1  996   0.535   2.227  15.838 -1.4048  0.4012  0.7514
   65MPD2    H2  997   0.612   2.624  15.708 -2.6709  0.4651  0.6919
   65MPD2    H3  998   0.586   2.460  15.880 -1.0694  0.3896  0.2495
   65MPD2     N  999   0.472   2.125  15.594  0.6418  0.7588  0.8610
   65MPD2    H5 1000   0.420   2.083  15.671  1.5734  1.1585  1.7101
   65MPD2    N1 1001   0.571   2.585  15.444  0.2002 -0.3123  0.0844
   65MPD2    H7 1002   0.560   2.548  15.350  2.4327  2.5529 -1.2865
   66TCq2    C1 1003   0.586   2.717  15.460 -0.1650 -0.4306  0.3016
   66TCq2    O2 1004   0.610   2.786  15.561  0.0262  0.7263 -0.1121
   66TCq2    C2 1005   0.564   2.802  15.334  0.6325  0.6322 -0.0670
   66TCq2    C3 1006   0.559   2.748  15.212  0.3077 -0.2776 -1.3589
   66TCq2    C4 1007   0.546   2.829  15.107 -1.1194  0.4064  0.0782
   66TCq2    C5 1008   0.557   2.961  15.125 -0.1729  0.3261  0.6339
   66TCq2    C6 1009   0.575   3.017  15.251  0.1628 -0.4499  0.2697
   66TCq2    C7 1010   0.585   2.938  15.358  0.2373  0.1720 -0.4237
   66TCq2    C8 1011   0.559   3.161  15.246  0.4557  0.4787  0.4173
   66TCq2    O4 1012   0.580   3.220  15.141 -0.3643  0.3850 -0.5842
   66TCq2    C9 1013   0.550   2.777  14.962 -0.4129 -0.0617  0.4600
   66TCq2    O5 1014   0.548   2.857  14.866 -0.3303 -0.0714 -0.2722
   66TCq2    O6 1015   0.569   2.651  14.947  0.4460 -0.4642  0.2189
   66TCq2    H2 1016   0.568   2.641  15.196  0.4827 -0.5329  0.4070
   66TCq2    H3 1017   0.528   3.019  15.038  1.2496  0.5932  0.3430
   66TCq2    H4 1018   0.589   2.981  15.457  0.4674  0.2551 -0.4687
   67MPD2     C 1019   0.762   2.155  14.010  0.5883 -0.1321 -0.8344
   67MPD2    C1 1020   0.669   2.124  14.104  0.2338 -0.4506 -0.2152
   67MPD2    C2 1021   0.542   2.072  14.071  0.2416 -0.7953  0.7619
   67MPD2    C3 1022   0.505   2.057  13.934 -1.2042 -0.2860 -0.2389
   67MPD2    C4 1023   0.603   2.084  13.844  0.5557  0.4375  0.1174
   67MPD2    C5 1024   0.733   2.121  13.881 -0.3368  0.1864 -0.0036
   67MPD2     H 1025   0.466   2.062  14.148 -0.4010 -2.2857 -0.0732
   67MPD2    H1 1026   0.577   2.079  13.739  1.0892 -1.4581  0.0810
   67MPD2    H2 1027   0.864   2.182  14.032  0.7236 -1.7556  0.4829
   67MPD2    H3 1028   0.805   2.140  13.802  1.3792  1.3763  1.8534
   67MPD2     N 1029   0.379   2.008  13.885  0.2843  0.2543 -0.0186
   67MPD2    H5 1030   0.374   2.012  13.783  0.2019 -0.8368 -0.0562
   67MPD2    N1 1031   0.705   2.137  14.243 -0.0961  0.1018 -0.5120
   67MPD2    H7 1032   0.634   2.125  14.314  0.0625  3.2655  0.1977
   68TCq2    C1 1033   0.831   2.166  14.290  0.6788 -0.1113 -0.2334
   68TCq2    O2 1034   0.942   2.153  14.245 -0.4897  0.2459  0.2874
   68TCq2    C2 1035   0.822   2.231  14.424 -0.2667  0.3153 -0.3440
   68TCq2    C3 1036   0.701   2.275  14.476 -0.5772 -0.4311  0.3948
   68TCq2    C4 1037   0.709   2.327  14.600  0.6261 -0.0057  0.2369
   68TCq2    C5 1038   0.814   2.326  14.681 -0.6828 -0.0673 -0.9493
   68TCq2    C6 1039   0.933   2.273  14.635 -0.2991 -0.2569 -0.1723
   68TCq2    C7 1040   0.941   2.225  14.504 -0.1514 -0.2542  0.2619
   68TCq2    C8 1041   1.050   2.257  14.722 -0.6512  0.3149  0.1055
   68TCq2    O4 1042   1.157   2.229  14.668 -0.4442  0.6111  0.6738
   68TCq2    C9 1043   0.588   2.371  14.666 -0.6208  0.4878  0.0271
   68TCq2    O5 1044   0.482   2.332  14.612 -0.1750  0.1909 -0.9656
   68TCq2    O6 1045   0.592   2.440  14.769 -0.4513  0.1624 -0.0684
   68TCq2    H2 1046   0.616   2.295  14.411 -2.6195 -0.8207  2.9751
   68TCq2    H3 1047   0.801   2.369  14.780  2.5207 -1.5310  0.1021
   68TCq2    H4 1048   1.031   2.179  14.465 -0.4995 -1.3561  0.7608
   69TMC2    C1 1049   2.594   3.671  11.944  0.1844 -0.1087  0.8214
   69TMC2    C2 1050   2.493   3.686  11.855  0.3333  0.0497 -0.1546
   69TMC2    C3 1051   2.541   3.670  11.722 -0.4514  0.3896  0.0243
   69TMC2    C4 1052   2.723   3.635  11.909 -0.9319  0.4774 -0.0097
   69TMC2    C5 1053   2.750   3.610  11.778 -0.7902 -0.7989 -0.0905
   69TMC2    C6 1054   2.660   3.631  11.677 -0.1149 -0.3760  0.1091
   69TMC2     C 1055   2.554   3.669  12.083 -0.3312  0.0179  0.3124
   69TMC2     O 1056   2.432   3.681  12.104 -0.2096 -0.5473  0.4245
   69TMC2     H 1057   2.394   3.725  11.878  0.3312  0.1308 -0.3022
   69TMC2    H1 1058   2.802   3.599  11.974  0.3056  1.6239 -0.8921
   69TMC2    H2 1059   2.687   3.625  11.572 -0.7383  1.6099 -0.1575
   69TMC2    C7 1060   2.880   3.570  11.732  0.5199  0.2611  0.2343
   69TMC2    C8 1061   2.442   3.672  11.624  0.1177 -0.4360 -0.1700
   69TMC2    O1 1062   2.897   3.572  11.612 -0.4938  0.4295  0.4700
   69TMC2    O2 1063   2.443   3.604  11.525 -0.0479 -0.1750  1.1163
   69TMC2    O5 1064   2.379   3.786  11.639 -0.0210  0.1935 -0.0431
   69TMC2    H5 1065   2.405   3.834  11.721  1.7637 -0.3625 -0.2961
   70MPD2     C 1066   2.783   3.640  12.373  0.2412  0.4489  0.3550
   70MPD2    C1 1067   2.663   3.661  12.312  0.4857  0.1409 -0.2763
   70MPD2    C2 1068   2.550   3.675  12.389  0.2379  0.3626  0.6207
   70MPD2    C3 1069   2.552   3.660  12.529 -0.1672  0.4646  0.5666
   70MPD2    C4 1070   2.673   3.636  12.587  0.4301 -0.2900  0.8417
   70MPD2    C5 1071   2.784   3.622  12.511  0.5568 -0.6233 -0.0497
   70MPD2     H 1072   2.456   3.705  12.343  1.3882 -0.0052 -1.9230
   70MPD2    H1 1073   2.673   3.618  12.694  0.5715 -1.3651  0.6664
   70MPD2    H2 1074   2.869   3.621  12.310 -1.2116 -1.3767 -1.0895
   70MPD2    H3 1075   2.882   3.615  12.557  0.7771  1.0939 -0.2481
   70MPD2     N 1076   2.449   3.674  12.625  0.4992 -0.1069  0.4104
   70MPD2    H5 1077   2.476   3.662  12.722 -0.7220 -0.4476  0.7124
   70MPD2    N1 1078   2.663   3.650  12.166  0.1589  0.4387 -0.0268
   70MPD2    H7 1079   2.753   3.657  12.119 -0.5397  1.0886 -1.2653
   71TMC2    C1 1080   0.141   3.634   1.515  0.2061 -0.3968  0.8030
   71TMC2    C2 1081   0.178   3.732   1.613  0.0140 -0.1534  0.3117
   71TMC2    C3 1082   0.153   3.685   1.738  0.4855  0.3070 -0.3363
   71TMC2    C4 1083   0.062   3.525   1.531 -0.8517  0.3517 -0.2757
   71TMC2    C5 1084   0.030   3.503   1.659 -0.0380  0.1961 -0.7067
   71TMC2    C6 1085   0.070   3.579   1.767  0.5367  0.7479 -0.0452
   71TMC2     C 1086   0.198   3.654   1.380 -0.3777  0.4158 -1.0900
   71TMC2     O 1087   0.306   3.711   1.381  0.3593 -0.4050 -0.5530
   71TMC2     H 1088   0.261   3.801   1.606  1.9544 -2.3274  2.1721
   71TMC2    H1 1089   0.051   3.452   1.452 -0.2521  0.0975 -0.1251
   71TMC2    H2 1090   0.057   3.535   1.865  1.9389  2.5108  0.9282
   71TMC2    C7 1091   4.689   3.374   1.689 -0.9897  0.2885 -0.0544
   71TMC2    C8 1092   0.219   3.746   1.851  0.0821 -0.2345  0.3142
   71TMC2    O1 1093   4.707   3.320   1.804 -0.0198  0.0426 -0.1918
   71TMC2    O2 1094   0.299   3.834   1.822 -0.5282  0.0724  0.0689
   71TMC2    O5 1095   0.117   3.766   1.932  0.2390  0.0061  0.1382
   71TMC2    H5 1096   0.035   3.712   1.936  0.0250  0.3232  0.0496
   72MPD2     C 1097   0.237   3.549   0.877 -0.3510  0.9767  0.7163
   72MPD2    C1 1098   0.329   3.590   0.973  0.1270 -0.4430 -0.5557
   72MPD2    C2 1099   0.291   3.615   1.105  0.2103  0.5281  0.6618
   72MPD2    C3 1100   0.163   3.585   1.147  0.8126  0.1068 -0.1967
   72MPD2    C4 1101   0.065   3.549   1.052  0.0961 -0.1517  0.1665
   72MPD2    C5 1102   0.107   3.528   0.925  0.8067  0.6367 -0.1158
   72MPD2     H 1103   0.371   3.648   1.169  1.3966  0.9630 -1.0305
   72MPD2    H1 1104   4.685   3.515   1.077  0.5736 -0.0932  2.1483
   72MPD2    H2 1105   0.262   3.537   0.772  0.7761 -1.5682  1.2757
   72MPD2    H3 1106   0.035   3.491   0.853 -1.3502  1.6772  1.4734
   72MPD2     N 1107   0.120   3.600   1.281  0.1142 -0.0470  0.4666
   72MPD2    H5 1108   0.023   3.578   1.302 -0.2983  0.8082 -0.5012
   72MPD2    N1 1109   0.460   3.629   0.944  0.1423 -0.0964 -0.5223
   72MPD2    H7 1110   0.495   3.689   1.018  0.8490 -0.8361 -0.2450
   73TMC2    C1 1111   0.322   0.982  13.597 -0.1641 -0.2710  0.1487
   73TMC2    C2 1112   0.370   0.876  13.538 -0.0704 -0.8020  0.5249
   73TMC2    C3 1113   0.475   0.825  13.602  0.6352  0.2282 -0.8909
   73TMC2    C4 1114   0.381   1.046  13.702  0.6392  0.0683  0.0869
   73TMC2    C5 1115   0.508   1.006  13.749 -0.7167 -0.7681  0.0339
   73TMC2    C6 1116   0.550   0.883  13.703  0.0674 -0.0355 -0.5933
   73TMC2     C 1117   0.276   1.083  13.502  0.3860 -0.1310 -0.1454
   73TMC2     O 1118   0.311   1.197  13.529 -0.0378 -0.1144  0.3189
   73TMC2     H 1119   0.335   0.831  13.445  2.5827 -0.5133 -0.6085
   73TMC2    H1 1120   0.336   1.137  13.740 -2.5938 -1.7867  0.7088
   73TMC2    H2 1121   0.654   0.852  13.713 -0.5205 -2.2891 -1.4229
   73TMC2    C7 1122   0.606   1.117  13.729  0.7827 -0.2599  0.8598
   73TMC2    C8 1123   0.547   0.717  13.527 -0.0066 -0.2000 -0.5063
   73TMC2    O1 1124   0.726   1.084  13.742 -0.1576 -0.2248 -0.1990
   73TMC2    O2 1125   0.641   0.735  13.450 -0.4606  0.5488  0.0632
   73TMC2    O5 1126   0.454   0.625  13.512  0.0483  0.7692  0.3655
   73TMC2    H5 1127   0.387   0.626  13.584  0.6729 -1.6714  0.9593
   74MPD2     C 1128   4.711   1.249  13.107 -0.1837  0.0186  0.2284
   74MPD2    C1 1129   0.098   1.306  13.172 -0.7355 -0.8153 -0.2411
   74MPD2    C2 1130   0.159   1.244  13.275  0.2533 -1.0559 -0.3262
   74MPD2    C3 1131   0.133   1.113  13.297  0.3862  0.1914  0.1995
   74MPD2    C4 1132   0.041   1.045  13.218  0.1539 -0.1680 -0.0699
   74MPD2    C5 1133   4.691   1.115  13.125  0.2540  0.7587  0.4524
   74MPD2     H 1134   0.235   1.291  13.337  1.6373  0.8075 -3.4099
   74MPD2    H1 1135   0.031   0.937  13.225  1.7442 -0.3854 -1.2861
   74MPD2    H2 1136   4.647   1.297  13.034 -1.4545 -0.2536  1.1860
   74MPD2    H3 1137   4.611   1.067  13.068 -0.5432  1.0867  1.2969
   74MPD2     N 1138   0.197   1.036  13.397 -0.1183  0.4199  0.8355
   74MPD2    H5 1139   0.155   0.944  13.409 -1.1701  0.7955  0.0613
   74MPD2    N1 1140   0.134   1.439  13.130  0.0795 -0.4332 -0.1595
   74MPD2    H7 1141   0.080   1.481  13.055  0.0518 -1.3078 -0.6252
   75TCq2    C1 1142   0.277   1.966  13.966 -0.6796  0.5357 -0.3338
   75TCq2    O2 1143   0.278   1.957  14.091  0.1233 -0.2831 -0.0117
   75TCq2    C2 1144   0.160   1.932  13.893 -0.5493 -0.8661 -0.1139
   75TCq2    C3 1145   0.100   1.813  13.937  0.0540  0.4414  0.0747
   75TCq2    C4 1146   4.715   1.765  13.859 -0.0512  0.2735  0.6192
   75TCq2    C5 1147   4.687   1.830  13.736  0.3554  0.0703 -0.7365
   75TCq2    C6 1148   0.034   1.936  13.689 -0.2499  0.4201  0.6194
   75TCq2    C7 1149   0.128   1.994  13.770  0.8121 -0.1079  0.1856
   75TCq2    C8 1150   4.693   2.003  13.575  0.4550 -0.3750 -0.5883
   75TCq2    O4 1151   4.623   1.935  13.503  0.3642 -0.2368  0.4395
   75TCq2    C9 1152   4.623   1.663  13.902 -0.0455 -0.0495 -0.1085
   75TCq2    O5 1153   4.656   1.585  13.996  0.4721  0.2369  0.0027
   75TCq2    O6 1154   4.504   1.658  13.852 -0.1240 -0.6022  0.0842
   75TCq2    H2 1155   0.122   1.764  14.031  1.0869 -0.0918 -0.4349
   75TCq2    H3 1156   4.608   1.788  13.676  0.0713 -4.4936  2.8270
   75TCq2    H4 1157   0.188   2.075  13.729 -1.3582  2.8945  2.9824
   76MPD2     C 1158   3.907   2.961  11.396  0.0668  0.1067  0.4823
   76MPD2    C1 1159   3.836   3.034  11.487  0.0088 -0.4588  0.4812
   76MPD2    C2 1160   3.863   3.007  11.621 -0.5797  0.2758 -0.2199
   76MPD2    C3 1161   3.939   2.904  11.665  0.2682 -0.1303 -0.3316
   76MPD2    C4 1162   3.994   2.823  11.566  0.7328 -0.1656  0.2879
   76MPD2    C5 1163   3.976   2.851  11.436 -0.5574 -0.2924 -0.0881
   76MPD2     H 1164   3.815   3.074  11.691 -0.4771 -0.7171  0.8083
   76MPD2    H1 1165   4.066   2.745  11.587 -0.7154 -0.9095  2.4904
   76MPD2    H2 1166   3.906   2.982  11.289 -0.0060  0.3401  0.5285
   76MPD2    H3 1167   4.023   2.797  11.354  2.1252  0.4115  0.9732
   76MPD2     N 1168   3.963   2.869  11.806  0.0537  0.4047  0.1905
   76MPD2    H5 1169   4.022   2.791  11.830 -0.2695  0.4375  1.0844
   76MPD2    N1 1170   3.758   3.146  11.453 -0.2079 -0.4423 -0.7179
   76MPD2    H7 1171   3.727   3.205  11.529  0.0365 -1.8823  0.5162
   77TCq2    C1 1172   3.899   2.927  11.912  0.4517 -0.0573  0.1505
   77TCq2    O2 1173   3.802   3.005  11.906  0.0942  0.1185 -0.2330
   77TCq2    C2 1174   3.934   2.862  12.036 -0.2332 -1.6075 -0.1096
   77TCq2    C3 1175   3.854   2.899  12.142  0.4040  0.0982 -0.4362
   77TCq2    C4 1176   3.896   2.864  12.268 -0.3614  0.9740  0.4994
   77TCq2    C5 1177   4.009   2.806  12.296 -0.2210  0.8277  0.1042
   77TCq2    C6 1178   4.087   2.778  12.192 -0.0153 -0.3027 -0.7301
   77TCq2    C7 1179   4.051   2.806  12.059  0.3325  0.7848 -0.0903
   77TCq2    C8 1180   4.217   2.721  12.211  0.7431  0.0602 -0.0498
   77TCq2    O4 1181   4.279   2.682  12.111 -0.0164 -0.5356 -0.2606
   77TCq2    C9 1182   3.813   2.893  12.384 -0.3300 -0.3226 -0.5028
   77TCq2    O5 1183   3.697   2.930  12.364 -0.7485 -0.2894 -0.0793
   77TCq2    O6 1184   3.865   2.857  12.493  0.0001 -0.6566  0.1943
   77TCq2    H2 1185   3.764   2.958  12.129  0.3562  0.0536 -0.3160
   77TCq2    H3 1186   4.029   2.754  12.389  1.6097  0.9636 -0.2007
   77TCq2    H4 1187   4.117   2.789  11.974 -1.3159  3.3323 -1.8941
   78MPD1     C 1188   3.499   2.562   0.546 -0.0187 -0.1840 -0.4734
   78MPD1    C1 1189   3.582   2.676   0.550 -0.3815 -0.1934 -0.4489
   78MPD1    C2 1190   3.690   2.671   0.634 -0.9511 -0.1706  1.0379
   78MPD1    C3 1191   3.718   2.564   0.719 -0.1362  0.3258 -0.1331
   78MPD1    C4 1192   3.626   2.460   0.730  0.0665 -0.2271 -0.0725
   78MPD1    C5 1193   3.527   2.459   0.635 -0.2863 -0.0354 -0.6094
   78MPD1     H 1194   3.758   2.755   0.636 -2.8658  1.3936 -0.1317
   78MPD1    H1 1195   3.631   2.379   0.801 -0.5957 -1.2631 -1.2102
   78MPD1    H2 1196   3.416   2.550   0.477  0.3997 -3.4602 -0.4132
   78MPD1    H3 1197   3.459   2.376   0.623 -0.9760  0.2620  1.1490
   78MPD1     N 1198   3.836   2.546   0.790  0.3830 -0.0698  0.0509
   78MPD1    H5 1199   3.832   2.472   0.859  0.6741  0.7711  0.9694
   78MPD1    N1 1200   3.558   2.783   0.465  0.0069  0.0180 -0.1958
   78MPD1    H6 1201   3.464   2.795   0.428  0.8603 -1.7812 -2.9211
   78MPD1    H7 1202   3.588   2.860   0.526 -3.0328  0.0309  1.3098
   79TCq2    C1 1203   3.953   2.619   0.768 -0.5956  0.3125 -0.4706
   79TCq2    O2 1204   3.985   2.693   0.679 -0.3435 -0.5277 -0.3633
   79TCq2    C2 1205   4.067   2.613   0.861 -0.0651  0.1507 -0.2992
   79TCq2    C3 1206   4.061   2.531   0.968  0.2377  0.4590  0.4681
   79TCq2    C4 1207   4.165   2.534   1.058 -0.1484 -0.1058 -0.5358
   79TCq2    C5 1208   4.271   2.610   1.031 -0.2702  0.1001  0.8358
   79TCq2    C6 1209   4.287   2.685   0.916  0.1373 -0.6647 -0.0146
   79TCq2    C7 1210   4.184   2.685   0.828 -0.4030 -0.0004 -0.5308
   79TCq2    C8 1211   4.412   2.756   0.892  0.5083 -0.0617 -0.1531
   79TCq2    O4 1212   4.482   2.779   0.992  0.1463  0.5281  0.5195
   79TCq2    C9 1213   4.167   2.442   1.176 -0.0444 -0.3644  0.5083
   79TCq2    O5 1214   4.268   2.458   1.249 -0.7590  1.0023  0.3190
   79TCq2    O6 1215   4.070   2.362   1.196  0.3507  0.0555 -0.5337
   79TCq2    H2 1216   3.978   2.464   0.992 -0.8895  1.0998 -1.6273
   79TCq2    H3 1217   4.346   2.618   1.108  0.6695  1.2296 -0.1893
   79TCq2    H4 1218   4.189   2.743   0.736  3.2843 -0.8159 -0.8240
   80MPD2     C 1219   3.107   2.790  12.331 -0.5491  1.1709  0.8058
   80MPD2    C1 1220   2.992   2.772  12.261  0.4286 -0.1839  0.6573
   80MPD2    C2 1221   2.876   2.803  12.318  0.2167  0.1788  0.1985
   80MPD2    C3 1222   2.866   2.841  12.451 -0.1081  0.0879 -0.3853
   80MPD2    C4 1223   2.980   2.842  12.526 -0.0135 -0.1630 -0.6877
   80MPD2    C5 1224   3.103   2.829  12.462 -0.4474  0.0144 -0.5493
   80MPD2     H 1225   2.790   2.794  12.253  2.6765  1.6717 -3.2349
   80MPD2    H1 1226   2.981   2.851  12.634 -0.4837 -0.9150 -0.6232
   80MPD2    H2 1227   3.200   2.750  12.292 -1.9589 -0.7900 -0.5379
   80MPD2    H3 1228   3.198   2.833  12.515 -0.1807  0.5352 -1.0563
   80MPD2     N 1229   2.747   2.874  12.517  0.0639  0.2561  0.1208
   80MPD2    H5 1230   2.750   2.889  12.617 -0.1894  1.0639  0.0053
   80MPD2    N1 1231   2.992   2.730  12.125  0.4557 -0.5628 -0.1426
   80MPD2    H7 1232   2.898   2.710  12.093 -0.2183  0.9924  0.8763
   81TCq2    C1 1233   3.101   2.738  12.040  0.5315 -0.3198 -1.0922
   81TCq2    O2 1234   3.218   2.754  12.066  0.8019  0.0017 -0.2615
   81TCq2    C2 1235   3.066   2.695  11.904 -0.0562 -0.0942 -0.5250
   81TCq2    C3 1236   3.168   2.680  11.820 -0.4704  0.2989  0.0495
   81TCq2    C4 1237   3.144   2.643  11.688  0.9525 -0.1876 -0.2267
   81TCq2    C5 1238   3.021   2.622  11.643 -0.1607  0.1195 -0.4344
   81TCq2    C6 1239   2.917   2.645  11.732 -0.3891  0.1490  0.7779
   81TCq2    C7 1240   2.934   2.674  11.862 -0.2921  0.4925 -0.5196
   81TCq2    C8 1241   2.779   2.598  11.694 -0.3487  0.1792 -0.0457
   81TCq2    O4 1242   2.756   2.602  11.577  0.1108 -0.1345  0.2299
   81TCq2    C9 1243   3.252   2.612  11.603 -0.5249 -0.0077  0.8099
   81TCq2    O5 1244   3.217   2.586  11.481 -0.3560 -0.0529 -0.3460
   81TCq2    O6 1245   3.363   2.585  11.660  0.0430 -0.3181  0.0164
   81TCq2    H2 1246   3.273   2.699  11.842 -0.9875  1.7330  1.2970
   81TCq2    H3 1247   3.002   2.622  11.536  1.4138  0.6238 -0.7049
   81TCq2    H4 1248   2.853   2.711  11.924 -0.6427  0.3138 -0.8689
   82MPD2     C 1249   1.248   2.466  10.265 -1.0236 -0.3883  0.1010
   82MPD2    C1 1250   1.206   2.338  10.269  0.1906 -0.2463 -0.5007
   82MPD2    C2 1251   1.258   2.241  10.357 -0.0158  0.0620  0.5013
   82MPD2    C3 1252   1.365   2.279  10.440 -0.1775 -0.8240  0.5759
   82MPD2    C4 1253   1.405   2.414  10.426  0.3534  0.6793  0.4052
   82MPD2    C5 1254   1.348   2.504  10.341 -0.4118  0.2856  0.3186
   82MPD2     H 1255   1.205   2.146  10.367 -2.1930  1.1504 -0.6621
   82MPD2    H1 1256   1.491   2.446  10.484 -0.7198  1.6733  1.4457
   82MPD2    H2 1257   1.196   2.539  10.204 -0.2180  0.6885  0.7158
   82MPD2    H3 1258   1.380   2.608  10.337 -0.9837  0.4889  0.9445
   82MPD2     N 1259   1.440   2.193  10.524 -0.5539  0.6282 -0.0529
   82MPD2    H5 1260   1.507   2.251  10.573  1.2907  0.6261 -2.5718
   82MPD2    N1 1261   1.101   2.294  10.181  0.7032  0.0743  0.3585
   82MPD2    H7 1262   1.056   2.376  10.140  1.2790  0.2393  0.0587
   83TCq2    C1 1263   1.433   2.057  10.524 -0.3759 -0.1843  0.2042
   83TCq2    O2 1264   1.350   1.987  10.468 -0.0834  0.6469 -0.2222
   83TCq2    C2 1265   1.506   2.011  10.646  0.1825  0.3798  0.2839
   83TCq2    C3 1266   1.586   2.097  10.716  0.2029 -0.6008 -0.1400
   83TCq2    C4 1267   1.636   2.056  10.838 -0.0959  0.7448  0.6685
   83TCq2    C5 1268   1.586   1.950  10.895  0.0695 -0.0182  0.1724
   83TCq2    C6 1269   1.491   1.871  10.835 -0.1339  0.6312 -0.1322
   83TCq2    C7 1270   1.451   1.901  10.707  0.4915 -0.7418  0.1946
   83TCq2    C8 1271   1.431   1.763  10.909  0.4302  0.1459  0.6802
   83TCq2    O4 1272   1.428   1.779  11.026  0.3811 -0.7870  0.4385
   83TCq2    C9 1273   1.720   2.157  10.907  0.5722  0.5504 -0.1377
   83TCq2    O5 1274   1.768   2.133  11.020  0.4456  0.4745  0.1979
   83TCq2    O6 1275   1.731   2.273  10.856 -0.4930  0.1257  0.4174
   83TCq2    H2 1276   1.625   2.190  10.676  0.1190 -0.1507  0.8338
   83TCq2    H3 1277   1.613   1.922  10.997  4.2627  1.6147 -0.4756
   83TCq2    H4 1278   1.378   1.842  10.652  0.1501 -0.1392  0.0069
   84TCq2    C1 1279   2.995   1.074  10.297  0.0312  0.1098 -0.9756
   84TCq2    O2 1280   2.880   1.085  10.260  0.1954 -0.0545 -0.2871
   84TCq2    C2 1281   3.023   1.069  10.443  0.1273 -0.1124 -1.2728
   84TCq2    C3 1282   3.145   1.028  10.492  0.7924 -0.1247 -0.3561
   84TCq2    C4 1283   3.168   1.033  10.627  0.4815 -0.2363 -0.5967
   84TCq2    C5 1284   3.068   1.084  10.707 -0.0539  0.1127  0.1761
   84TCq2    C6 1285   2.943   1.121  10.654  0.0482 -0.0605  0.1716
   84TCq2    C7 1286   2.919   1.112  10.522  0.5669  0.9836 -0.3852
   84TCq2    C8 1287   2.838   1.159  10.752  0.0596  0.0023 -0.3151
   84TCq2    O4 1288   2.870   1.145  10.867  0.0986 -0.2976 -0.3572
   84TCq2    C9 1289   3.281   0.973  10.684  0.0164  0.7988 -0.4653
   84TCq2    O5 1290   3.305   0.995  10.803 -0.1192 -0.2868 -0.1591
   84TCq2    O6 1291   3.370   0.925  10.607  0.1974  0.0914 -0.8349
   84TCq2    H2 1292   3.226   0.983  10.435 -0.2080 -0.5959 -1.3991
   84TCq2    H3 1293   3.081   1.094  10.814 -1.4535  0.6240  0.3009
   84TCq2    H4 1294   2.822   1.138  10.483  1.7407  2.1679 -2.5149
   85MPD2     C 1295   2.854   3.901  16.414  0.3225  0.1569  0.2906
   85MPD2    C1 1296   2.834   3.813  16.311  0.0270 -0.5677  0.3685
   85MPD2    C2 1297   2.837   3.867  16.184 -0.2276  0.0813 -0.2103
   85MPD2    C3 1298   2.869   4.004  16.161  0.3331 -0.1423  0.1356
   85MPD2    C4 1299   2.887   4.090  16.271 -0.0932 -0.2416  0.2428
   85MPD2    C5 1300   2.877   4.032  16.396 -0.4586  0.3993 -0.5962
   85MPD2     H 1301   2.820   3.806  16.096  0.7271 -1.8765  0.9545
   85MPD2    H1 1302   2.914   4.195  16.265 -0.9198  0.0935  2.4100
   85MPD2    H2 1303   2.869   3.871  16.517  0.3644 -3.4236 -0.7496
   85MPD2    H3 1304   2.890   4.097  16.481 -4.2376 -0.0062  0.3091
   85MPD2     N 1305   2.875   4.047  16.029 -0.4064  0.1384  0.4214
   85MPD2    H5 1306   2.850   3.980  15.957  2.2145  3.0749 -3.1654
   85MPD2    N1 1307   2.784   3.680  16.325 -0.2006 -0.6973  0.0885
   85MPD2    H7 1308   2.745   3.634  16.243 -2.4751  0.5900  0.4628
   86TCq2    C1 1309   2.926   4.167  15.988 -0.8372  0.0940  0.0496
   86TCq2    O2 1310   2.992   4.252  16.052 -0.2564  0.2499 -0.0083
   86TCq2    C2 1311   2.927   4.170  15.847  0.8579 -0.0857  1.2509
   86TCq2    C3 1312   2.812   4.190  15.780 -0.1719 -0.2422 -0.1299
   86TCq2    C4 1313   2.822   4.213  15.644  0.1229  0.2507  0.1134
   86TCq2    C5 1314   2.943   4.210  15.579 -0.1249  0.0859 -0.2653
   86TCq2    C6 1315   3.050   4.184  15.655 -0.5121 -0.2971  0.1641
   86TCq2    C7 1316   3.049   4.164  15.791  0.4335 -0.6746 -0.7224
   86TCq2    C8 1317   3.180   4.232  15.612 -0.2369  0.3625 -0.0578
   86TCq2    O4 1318   3.276   4.230  15.687  0.4015 -0.3837 -0.3135
   86TCq2    C9 1319   2.695   4.211  15.565  0.1898  0.7368 -0.0009
   86TCq2    O5 1320   2.716   4.212  15.442 -0.0127 -0.3681 -0.3338
   86TCq2    O6 1321   2.583   4.222  15.619  0.2877  0.0617 -0.5668
   86TCq2    H2 1322   2.715   4.189  15.828  0.0268 -0.7632  0.2512
   86TCq2    H3 1323   2.947   4.222  15.472  1.1315  3.7743  0.2175
   86TCq2    H4 1324   3.132   4.148  15.859  0.0450 -0.3456 -0.1730
   87MPD2     C 1325   4.224   2.178   0.930  0.9314 -0.5419  0.3203
   87MPD2    C1 1326   4.275   2.275   0.848 -0.3677  0.6860  1.0042
   87MPD2    C2 1327   4.211   2.308   0.728  0.1410  0.0278  0.0009
   87MPD2    C3 1328   4.094   2.240   0.691 -0.3838 -0.7901 -0.1430
   87MPD2    C4 1329   4.054   2.138   0.772 -0.0661  0.3172 -0.1200
   87MPD2    C5 1330   4.118   2.096   0.887 -0.3727  0.2761 -0.3684
   87MPD2     H 1331   4.240   2.397   0.674 -0.2558  1.0867  1.5403
   87MPD2    H1 1332   3.956   2.093   0.756 -0.7193  1.3221  1.0277
   87MPD2    H2 1333   4.274   2.152   1.023 -0.4127  1.1351  1.4930
   87MPD2    H3 1334   4.075   2.018   0.949  1.0401 -0.4766 -0.3546
   87MPD2     N 1335   4.016   2.276   0.582  0.6905 -0.5193 -0.5968
   87MPD2    H5 1336   3.918   2.250   0.574  0.5970 -0.2823 -0.2214
   87MPD2    N1 1337   4.394   2.339   0.878 -0.3505  0.1177 -0.2066
   87MPD2    H7 1338   4.442   2.310   0.962  0.6498  0.9637 -0.4977
   88TCq2    C1 1339   4.461   2.425   0.801 -0.5040 -0.2908 -0.7025
   88TCq2    O2 1340   4.444   2.470   0.690 -0.4771 -0.0828 -0.8292
   88TCq2    C2 1341   4.597   2.441   0.847 -0.3211  0.2532  0.5374
   88TCq2    C3 1342   4.621   2.450   0.982  1.1800 -0.0247 -1.0334
   88TCq2    C4 1343   0.028   2.419   1.018 -0.6266  0.4463 -0.3339
   88TCq2    C5 1344   0.122   2.385   0.936  0.3405 -0.2231  0.8140
   88TCq2    C6 1345   0.102   2.373   0.802 -0.0359 -0.0409 -0.4506
   88TCq2    C7 1346   4.697   2.406   0.757 -0.3437 -0.5993 -0.3304
   88TCq2    C8 1347   0.195   2.318   0.709 -0.2387 -0.0307 -0.0531
   88TCq2    O4 1348   0.168   2.304   0.591  0.3054 -0.3033 -0.4956
   88TCq2    C9 1349   0.055   2.429   1.158 -0.1613 -0.2438 -0.1675
   88TCq2    O5 1350   0.168   2.389   1.197 -0.2205  0.4194 -0.1116
   88TCq2    O6 1351   4.677   2.455   1.235 -0.1314 -0.5129 -0.0833
   88TCq2    H2 1352   4.537   2.469   1.049  0.3465 -1.6034 -1.6219
   88TCq2    H3 1353   0.217   2.362   0.984  1.2712 -0.4147 -1.1154
   88TCq2    H4 1354   4.678   2.398   0.650 -0.1480  0.5437 -0.4531
   89MPD2     C 1355   1.397   0.256   1.166 -0.0847 -0.1158 -0.6427
   89MPD2    C1 1356   1.332   0.322   1.267 -0.6000  0.1550  0.8242
   89MPD2    C2 1357   1.365   0.450   1.284  0.0417 -0.4003 -0.0563
   89MPD2    C3 1358   1.465   0.518   1.209 -0.5309 -0.3058  0.1209
   89MPD2    C4 1359   1.529   0.451   1.110  0.4179 -0.3763  0.5648
   89MPD2    C5 1360   1.493   0.319   1.092  0.3006 -0.8772 -0.0111
   89MPD2     H 1361   1.325   0.491   1.376  2.0403  1.1409  0.1185
   89MPD2    H1 1362   1.609   0.495   1.052 -1.1772  2.4858  0.5288
   89MPD2    H2 1363   1.371   0.154   1.141 -1.6292  0.1479 -0.1334
   89MPD2    H3 1364   1.536   0.258   1.014  4.1608  0.7215  0.8817
   89MPD2     N 1365   1.481   0.652   1.250 -0.7992  0.3222 -0.4398
   89MPD2    H5 1366   1.413   0.690   1.315 -1.6291 -2.1027  0.0986
   89MPD2    N1 1367   1.244   0.256   1.365  0.5654  0.5546  0.2677
   89MPD2    H7 1368   1.196   0.312   1.435  1.1838 -0.5030  1.5190
   90TCq2    C1 1369   1.588   0.736   1.226 -0.6662  0.0057 -0.5858
   90TCq2    O2 1370   1.677   0.729   1.144 -0.3466  0.3437  0.0520
   90TCq2    C2 1371   1.557   0.868   1.286  0.2124 -0.7945 -0.5969
   90TCq2    C3 1372   1.470   0.880   1.392 -0.3788  0.1034  0.1896
   90TCq2    C4 1373   1.437   1.010   1.425  0.7528  1.2478  0.1666
   90TCq2    C5 1374   1.475   1.120   1.355  0.3499 -0.5595  0.1884
   90TCq2    C6 1375   1.560   1.102   1.255  0.3276 -0.1964 -0.1000
   90TCq2    C7 1376   1.608   0.979   1.225  0.6710 -0.0602 -0.7778
   90TCq2    C8 1377   1.640   1.216   1.214 -0.3853 -0.3625  0.1261
   90TCq2    O4 1378   1.589   1.325   1.241 -0.1606  0.0050 -0.3796
   90TCq2    C9 1379   1.341   1.028   1.533 -0.1978  0.6190  0.4480
   90TCq2    O5 1380   1.343   1.140   1.592  0.3156 -0.6294  0.2021
   90TCq2    O6 1381   1.257   0.934   1.556  0.0143  0.0567 -0.1728
   90TCq2    H2 1382   1.432   0.791   1.441  3.1414  0.3659  3.4052
   90TCq2    H3 1383   1.438   1.215   1.392  2.4983  0.1940  0.3803
   90TCq2    H4 1384   1.630   0.959   1.121  0.4563  0.1630 -0.8656
   91TMC2    C1 1385   2.919   4.581  16.547  0.3752  0.0986  0.3554
   91TMC2    C2 1386   2.973   4.628  16.656  0.0904 -0.3425 -0.0087
   91TMC2    C3 1387   2.916   0.016  16.721  0.4194 -0.5638 -0.9106
   91TMC2    C4 1388   2.814   4.647  16.486  0.2731  0.6637 -0.2267
   91TMC2    C5 1389   2.756   0.029  16.554 -0.2213  0.1168  0.1733
   91TMC2    C6 1390   2.802   0.070  16.677  0.0575  1.1998  0.0466
   91TMC2     C 1391   2.991   4.487  16.460  0.9094 -0.0859  0.3501
   91TMC2     O 1392   2.925   4.396  16.414 -0.2905  0.3487 -0.4333
   91TMC2     H 1393   3.046   4.568  16.708  0.3058  0.0439  0.1233
   91TMC2    H1 1394   2.776   4.601  16.395  2.7428 -1.8173  0.0159
   91TMC2    H2 1395   2.741   0.135  16.739 -0.8447  0.3315  0.0516
   91TMC2    C7 1396   2.609   0.065  16.529 -0.7765  0.7089 -0.2031
   91TMC2    C8 1397   2.954   0.047  16.862  0.7522 -0.3196  0.3557
   91TMC2    O1 1398   2.548   0.119  16.619  0.0709  0.6448  0.6556
   91TMC2    O2 1399   2.880   0.109  16.937  0.4170 -0.1726  0.4172
   91TMC2    O5 1400   3.085   0.041  16.874  0.3360  0.4469 -0.3172
   91TMC2    H5 1401   3.120   0.009  16.788  0.2771  1.1298 -0.6002
   92MPD2     C 1402   3.197   4.339  16.315  0.3066 -0.4217 -0.0023
   92MPD2    C1 1403   3.212   4.469  16.367 -0.3597  0.2209  0.5038
   92MPD2    C2 1404   3.320   4.554  16.331  0.4564 -0.1526 -0.0691
   92MPD2    C3 1405   3.416   4.499  16.242  0.1879  0.0778 -0.2604
   92MPD2    C4 1406   3.392   4.376  16.183  0.3783 -0.4972  0.7283
   92MPD2    C5 1407   3.286   4.294  16.220 -0.3967  0.2549  0.1811
   92MPD2     H 1408   3.329   4.649  16.381  0.5773 -0.8520  1.2518
   92MPD2    H1 1409   3.463   4.343  16.107 -1.0417  0.3484 -0.9820
   92MPD2    H2 1410   3.123   4.269  16.353 -0.5580  0.2009 -0.5414
   92MPD2    H3 1411   3.276   4.200  16.167  1.1961  1.0894 -1.6111
   92MPD2     N 1412   3.533   4.574  16.201  0.0996  0.2518 -0.1061
   92MPD2    H5 1413   3.590   4.530  16.130 -1.2929 -0.0759 -1.0301
   92MPD2    N1 1414   3.120   4.530  16.451 -0.5756 -0.3243 -0.0591
   92MPD2    H7 1415   3.148   4.622  16.482  3.1528 -0.4639 -3.0665
   93MPD2     C 1416   4.356   0.276  13.513 -0.1856  0.2563 -0.0649
   93MPD2    C1 1417   4.314   0.331  13.629  0.2194  0.0008  0.7471
   93MPD2    C2 1418   4.189   0.301  13.683 -0.0285  0.4044 -0.4559
   93MPD2    C3 1419   4.110   0.218  13.609 -0.1239  0.1828  0.5205
   93MPD2    C4 1420   4.145   0.162  13.494  0.4694  0.5154  0.1936
   93MPD2    C5 1421   4.268   0.195  13.447  0.4049  0.6725  0.4290
   93MPD2     H 1422   4.161   0.348  13.777  0.8383 -1.8753  0.9497
   93MPD2    H1 1423   4.080   0.103  13.429 -1.6312  0.8173  2.0175
   93MPD2    H2 1424   4.456   0.288  13.473  0.3102  0.8145  1.3233
   93MPD2    H3 1425   4.304   0.156  13.352 -2.3396 -1.6933  0.3720
   93MPD2     N 1426   3.985   0.183  13.659 -0.2056  0.1804  0.2492
   93MPD2    H5 1427   3.937   0.120  13.596 -0.5657  1.1618 -0.4604
   93MPD2    N1 1428   4.395   0.410  13.714 -0.3141  0.0272 -0.4929
   93MPD2    H7 1429   4.350   0.456  13.792 -4.6564  0.2865 -3.1904
   94TCq2    C1 1430   4.530   0.441  13.695 -0.2427  0.6854 -0.1176
   94TCq2    O2 1431   4.603   0.404  13.601  0.4944  0.0350 -0.3867
   94TCq2    C2 1432   4.595   0.527  13.793 -0.4088  0.2874 -0.0988
   94TCq2    C3 1433   4.536   0.562  13.911  0.0639  0.1165 -0.1578
   94TCq2    C4 1434   4.629   0.610  14.001  0.6933  0.3379 -0.0721
   94TCq2    C5 1435   0.037   0.643  13.979  0.1276  0.1777 -0.5872
   94TCq2    C6 1436   0.081   0.623  13.849 -0.5539 -0.3179 -0.2297
   94TCq2    C7 1437   4.720   0.560  13.753  0.4910 -0.2434  0.2086
   94TCq2    C8 1438   0.216   0.650  13.811 -0.0999 -0.1824  1.6430
   94TCq2    O4 1439   0.252   0.621  13.701  0.0616  0.0782 -0.2350
   94TCq2    C9 1440   4.584   0.618  14.136 -0.4159 -0.0999  0.1255
   94TCq2    O5 1441   4.647   0.698  14.211 -0.0750 -0.2113 -0.1288
   94TCq2    O6 1442   4.473   0.565  14.165  0.6918  0.6461 -0.7021
   94TCq2    H2 1443   4.446   0.514  13.949  1.3566 -0.1621  2.5791
   94TCq2    H3 1444   0.097   0.670  14.065 -0.6548 -0.4511  0.1605
   94TCq2    H4 1445   0.050   0.529  13.662  1.3276 -0.4488  0.7446
   95TMC2    C1 1446   4.398   1.730  16.113 -0.1842  0.2288 -0.9095
   95TMC2    C2 1447   4.434   1.605  16.166 -0.2303 -0.2950 -0.4892
   95TMC2    C3 1448   4.426   1.581  16.302  0.0462 -0.1874  0.2825
   95TMC2    C4 1449   4.350   1.824  16.200 -0.2058 -0.5940  0.8250
   95TMC2    C5 1450   4.340   1.794  16.330 -0.5815  0.3300 -0.5038
   95TMC2    C6 1451   4.390   1.676  16.390 -0.3111  0.1370 -0.3134
   95TMC2     C 1452   4.465   1.760  15.989  0.7314  0.0878  0.3037
   95TMC2     O 1453   4.571   1.708  15.969  0.2673 -0.2248  0.1108
   95TMC2     H 1454   4.459   1.521  16.101 -0.4934 -1.0754  0.4143
   95TMC2    H1 1455   4.334   1.922  16.156 -0.5531 -0.0495  2.1885
   95TMC2    H2 1456   4.389   1.658  16.497  0.2154  0.4574 -0.2521
   95TMC2    C7 1457   4.317   1.914  16.410  0.0009 -0.0198  0.4426
   95TMC2    C8 1458   4.493   1.470  16.358  0.1413  0.7703  0.1088
   95TMC2    O1 1459   4.322   2.023  16.353  0.0296 -0.1009 -0.6276
   95TMC2    O2 1460   4.475   1.442  16.476  0.5133 -0.0745  0.1157
   95TMC2    O5 1461   4.605   1.446  16.284 -0.1827  0.6661 -1.0137
   95TMC2    H5 1462   4.628   1.528  16.235  0.2535  1.3540  0.3352
   96MPD2     C 1463   4.554   2.128  15.639  0.5085 -0.2138 -0.3354
   96MPD2    C1 1464   4.606   2.001  15.652 -0.6770  0.6306  0.1498
   96MPD2    C2 1465   4.553   1.912  15.747 -0.2868  0.0112 -0.2698
   96MPD2    C3 1466   4.449   1.956  15.827 -0.2209 -0.2829 -0.4068
   96MPD2    C4 1467   4.383   2.073  15.801  0.0976  0.5151  0.1577
   96MPD2    C5 1468   4.443   2.158  15.709 -0.0745  0.2039  0.3631
   96MPD2     H 1469   4.611   1.827  15.783 -0.1036 -0.9717 -2.9077
   96MPD2    H1 1470   4.307   2.107  15.870 -2.2389 -0.8636 -1.7515
   96MPD2    H2 1471   4.587   2.211  15.578 -0.5349 -0.4380 -1.2182
   96MPD2    H3 1472   4.391   2.249  15.683  1.9479 -0.5080 -6.3404
   96MPD2     N 1473   4.405   1.873  15.942 -0.6413 -0.3302 -0.1308
   96MPD2    H5 1474   4.321   1.910  15.985 -0.4094 -1.6576  1.4634
   96MPD2    N1 1475   0.007   1.969  15.586  0.6861  0.7703 -0.9317
   96MPD2    H7 1476   0.062   2.044  15.547  0.5137  0.9753 -0.7819
   97MPD2     C 1477   1.520   3.760   0.469 -0.7055  0.3674 -0.1192
   97MPD2    C1 1478   1.505   3.896   0.460  0.3197  0.2908 -0.1522
   97MPD2    C2 1479   1.605   3.960   0.394 -0.6277 -0.7331 -0.6371
   97MPD2    C3 1480   1.722   3.902   0.354  0.4292 -0.0745 -0.0013
   97MPD2    C4 1481   1.734   3.765   0.357  1.1420 -0.6686 -0.5414
   97MPD2    C5 1482   1.630   3.694   0.417  0.1233 -0.1644 -0.1125
   97MPD2     H 1483   1.607   4.068   0.382  2.0143 -0.7393 -0.3287
   97MPD2    H1 1484   1.832   3.726   0.329  2.1772  2.9670 -1.9920
   97MPD2    H2 1485   1.440   3.698   0.508  1.7140 -1.0319  2.6770
   97MPD2    H3 1486   1.640   3.586   0.425 -3.0682 -0.4649 -0.0295
   97MPD2     N 1487   1.837   3.976   0.319  0.5000 -0.2482  0.3761
   97MPD2    H5 1488   1.836   4.070   0.357  1.9929  0.4260 -1.2887
   97MPD2    N1 1489   1.399   3.956   0.530 -0.0062  0.3645 -0.6815
   97MPD2    H7 1490   1.335   3.891   0.576  0.5328 -1.1357 -2.0564
   98TCq2    C1 1491   1.941   3.943   0.236  0.4334  0.1959  0.4696
   98TCq2    O2 1492   1.964   3.850   0.162  0.3594  0.0641  0.0812
   98TCq2    C2 1493   2.025   4.064   0.228 -0.1400  0.0061 -0.6037
   98TCq2    C3 1494   2.040   4.130   0.347 -0.3582 -0.0284  0.4525
   98TCq2    C4 1495   2.101   4.250   0.349  0.1203 -0.9530 -0.5637
   98TCq2    C5 1496   2.153   4.304   0.234 -0.1954  0.5053 -0.7006
   98TCq2    C6 1497   2.124   4.238   0.117  0.4550  0.9455 -0.0699
   98TCq2    C7 1498   2.070   4.112   0.115 -0.3667 -0.3450  0.1008
   98TCq2    C8 1499   2.174   4.287  17.669 -0.1426 -0.0349  0.1083
   98TCq2    O4 1500   2.163   4.215  17.575 -0.3116 -0.1034  0.3267
   98TCq2    C9 1501   2.127   4.316   0.477  0.8827 -0.5253  0.0372
   98TCq2    O5 1502   2.179   4.431   0.481  0.5525 -0.2987  1.0307
   98TCq2    O6 1503   2.097   4.250   0.579 -0.7151 -0.0520  0.2226
   98TCq2    H2 1504   2.009   4.090   0.442  0.6628  0.4745  1.0021
   98TCq2    H3 1505   2.211   4.396   0.239  0.7632 -0.1707  0.4860
   98TCq2    H4 1506   2.063   4.055   0.022 -3.5025 -0.9124  0.6763
   99MPD2     C 1507   0.624   1.832   1.921  0.2420  0.3957 -0.8528
   99MPD2    C1 1508   0.491   1.828   1.882  0.1700 -0.1298  0.3212
   99MPD2    C2 1509   0.462   1.757   1.764  0.5369  0.5283  0.0165
   99MPD2    C3 1510   0.567   1.709   1.685 -0.5011  0.1715 -0.9957
   99MPD2    C4 1511   0.703   1.731   1.727  0.4904  0.6683 -0.0852
   99MPD2    C5 1512   0.730   1.792   1.846  0.0541 -0.0598 -0.5051
   99MPD2     H 1513   0.365   1.730   1.725 -0.1817 -0.5591  2.6198
   99MPD2    H1 1514   0.786   1.683   1.677 -3.1943 -2.8920 -2.8093
   99MPD2    H2 1515   0.657   1.898   2.000 -1.1073 -0.3786  0.3551
   99MPD2    H3 1516   0.833   1.792   1.881 -0.0941  1.2692 -0.0811
   99MPD2     N 1517   0.537   1.640   1.568 -0.1644 -0.3911 -0.3303
   99MPD2    H5 1518   0.439   1.622   1.549  0.3197 -1.9616 -1.3691
   99MPD2    N1 1519   0.384   1.876   1.959 -0.5516  0.4151  0.4736
   99MPD2    H7 1520   0.285   1.875   1.935  0.4598 -1.5908 -3.5808
  100TCq2    C1 1521   0.388   1.927   2.088 -0.9559  0.2681 -0.4023
  100TCq2    O2 1522   0.490   1.948   2.154  0.1349 -0.1385  0.1362
  100TCq2    C2 1523   0.257   1.956   2.140 -0.1928 -0.7769  0.5646
  100TCq2    C3 1524   0.243   1.965   2.274  0.0585  0.0027 -0.6428
  100TCq2    C4 1525   0.120   1.999   2.327 -0.7823  0.2159  0.3064
  100TCq2    C5 1526   0.014   2.020   2.246 -0.4838 -0.1037  0.4233
  100TCq2    C6 1527   0.026   2.004   2.109 -0.3833  0.4937 -0.0723
  100TCq2    C7 1528   0.153   1.976   2.057 -0.0387 -0.4206 -0.7338
  100TCq2    C8 1529   4.632   2.057   2.035 -0.0107 -0.2533 -0.5114
  100TCq2    O4 1530   4.568   2.152   2.076 -0.1398 -0.6004 -0.1361
  100TCq2    C9 1531   0.107   2.030   2.462 -0.2189 -0.0799 -0.4225
  100TCq2    O5 1532   0.208   2.019   2.538  0.3587  0.3256 -0.0655
  100TCq2    O6 1533   4.707   2.035   2.503  0.2333 -0.4229  0.5836
  100TCq2    H2 1534   0.322   1.942   2.344  1.0260  2.3375 -0.9709
  100TCq2    H3 1535   4.639   2.062   2.278  0.6869  3.0216 -0.1193
  100TCq2    H4 1536   0.148   1.972   1.949  1.9685  1.0042 -0.8833
  101MPD2     C 1537   1.586   2.513  12.769  0.5965  0.5618 -0.3068
  101MPD2    C1 1538   1.488   2.576  12.838 -0.3787  0.4811 -0.6379
  101MPD2    C2 1539   1.417   2.493  12.921  0.0311  0.0175 -0.1822
  101MPD2    C3 1540   1.440   2.360  12.940 -0.3925 -0.3770 -0.2655
  101MPD2    C4 1541   1.538   2.299  12.865  0.3279 -0.2676  0.7307
  101MPD2    C5 1542   1.601   2.379  12.777  0.3775 -0.6149  0.4725
  101MPD2     H 1543   1.348   2.548  12.984 -1.6458 -1.2128 -0.9466
  101MPD2    H1 1544   1.550   2.191  12.869 -0.0012 -0.2198  2.8700
  101MPD2    H2 1545   1.647   2.565  12.696 -0.4975  2.9122  0.4741
  101MPD2    H3 1546   1.670   2.326  12.712  1.7001  2.1619 -0.3718
  101MPD2     N 1547   1.354   2.288  13.025 -0.3857 -0.1122 -0.4781
  101MPD2    H5 1548   1.279   2.342  13.067  0.6479  1.3514 -0.5131
  101MPD2    N1 1549   1.466   2.712  12.819  0.0679  0.0386 -0.2251
  101MPD2    H7 1550   1.540   2.758  12.767 -0.9696 -0.1638 -1.9001
  102TCq2    C1 1551   1.477   3.094  12.505  0.0304  0.1719 -0.1734
  102TCq2    O2 1552   1.583   3.035  12.503  0.4348  0.1000  0.8636
  102TCq2    C2 1553   1.387   3.055  12.612  0.0447 -0.5096 -0.8809
  102TCq2    C3 1554   1.286   3.140  12.647  0.3505  0.1830  0.2444
  102TCq2    C4 1555   1.229   3.125  12.771 -0.3864 -0.3589 -0.1997
  102TCq2    C5 1556   1.259   3.020  12.848  0.7614  0.9076  0.1206
  102TCq2    C6 1557   1.358   2.925  12.810 -0.7346 -0.6669  0.7125
  102TCq2    C7 1558   1.434   2.963  12.701  0.1043 -0.3236  0.2124
  102TCq2    C8 1559   1.368   2.790  12.870  0.7173  0.0754  0.4249
  102TCq2    O4 1560   1.276   2.756  12.941  0.3029 -0.1320  0.1420
  102TCq2    C9 1561   1.145   3.233  12.827 -0.3385 -0.3828  0.1957
  102TCq2    O5 1562   1.106   3.333  12.755 -0.0379  0.2654  0.0836
  102TCq2    O6 1563   1.075   3.196  12.925  0.1014 -0.3500 -0.8345
  102TCq2    H2 1564   1.266   3.231  12.592  1.3297  0.6011  0.5763
  102TCq2    H3 1565   1.199   2.997  12.936 -0.1037  1.8587 -0.2159
  102TCq2    H4 1566   1.530   2.914  12.688 -0.0201 -0.2216 -1.0472
  103TMC2    C1 1567   4.631   2.898  12.878  0.1789 -0.0950 -0.8469
  103TMC2    C2 1568   0.047   2.915  12.870  0.0800  0.7461 -0.1629
  103TMC2    C3 1569   0.113   2.948  12.981  0.5268  0.1922 -0.1544
  103TMC2    C4 1570   4.556   2.931  12.985  0.0043 -0.1466  0.1507
  103TMC2    C5 1571   4.628   2.950  13.099  0.5706 -0.1716  0.0946
  103TMC2    C6 1572   0.045   2.958  13.103 -0.3303  0.3061 -0.6816
  103TMC2     C 1573   4.549   2.842  12.770 -0.1612  0.1654 -0.0908
  103TMC2     O 1574   4.436   2.887  12.774 -0.0811 -0.3703 -0.2125
  103TMC2     H 1575   0.103   2.867  12.790  0.9119 -0.5253  1.1894
  103TMC2    H1 1576   4.447   2.937  12.990 -0.1571 -0.7715 -2.9036
  103TMC2    H2 1577   0.097   2.955  13.198  1.4602  1.1213 -1.6365
  103TMC2    C7 1578   4.570   2.927  13.227  0.7513 -0.0452 -0.1914
  103TMC2    C8 1579   0.259   2.901  12.987 -0.7276 -0.6728 -0.0665
  103TMC2    O1 1580   4.639   2.960  13.322 -0.0669  0.1951 -0.0982
  103TMC2    O2 1581   0.295   2.817  12.909 -0.6358 -0.3199  0.2353
  103TMC2    O5 1582   0.310   2.922  13.108 -0.1232 -0.1412  0.5186
  103TMC2    H5 1583   0.280   3.009  13.142 -2.5469 -0.7683  0.0266
  104MPD2     C 1584   4.625   2.625  12.492 -0.3725 -0.3720  0.3044
  104MPD2    C1 1585   4.551   2.713  12.560 -0.0769 -0.5660  0.0232
  104MPD2    C2 1586   4.429   2.757  12.513 -0.2582 -0.6088  0.5099
  104MPD2    C3 1587   4.375   2.700  12.401 -0.5550  0.7217 -0.4896
  104MPD2    C4 1588   4.442   2.596  12.347 -0.3788  0.2113 -0.6273
  104MPD2    C5 1589   4.561   2.551  12.396  0.9373  0.1110  0.0118
  104MPD2     H 1590   4.370   2.828  12.570  0.5283  0.1517  0.3805
  104MPD2    H1 1591   4.405   2.547  12.257 -0.7859  0.6005 -0.6730
  104MPD2    H2 1592   0.003   2.599  12.531  0.0657  0.6501 -0.1160
  104MPD2    H3 1593   4.616   2.473  12.344 -0.4779 -0.9367  0.1037
  104MPD2     N 1594   4.261   2.750  12.342  0.0770  1.1612 -0.6429
  104MPD2    H5 1595   4.222   2.826  12.397  0.5703  0.3968  0.7580
  104MPD2    N1 1596   4.610   2.757  12.684  0.5919  0.2419 -0.0386
  104MPD2    H7 1597   4.706   2.735  12.710  0.7875  3.8610  2.2598
  105MPD2     C 1598   1.215   1.988  17.249  0.0134  0.2260 -1.2051
  105MPD2    C1 1599   1.213   2.078  17.354 -0.2065 -0.7537 -0.2109
  105MPD2    C2 1600   1.104   2.085  17.435  0.0627 -0.8366 -0.3694
  105MPD2    C3 1601   0.996   1.998  17.416 -0.6278 -0.2991 -0.5221
  105MPD2    C4 1602   0.997   1.909  17.311  0.4639  0.0741  0.0974
  105MPD2    C5 1603   1.101   1.910  17.228  0.3860 -0.0628  0.2478
  105MPD2     H 1604   1.110   2.161  17.512  0.1073  1.3977 -2.5695
  105MPD2    H1 1605   0.903   1.864  17.282  0.2844  1.4305 -1.4337
  105MPD2    H2 1606   1.289   1.988  17.170 -0.1597  2.0760 -1.3608
  105MPD2    H3 1607   1.082   1.857  17.135  1.2255 -1.8453  1.0979
  105MPD2     N 1608   0.890   2.008  17.517  0.3165 -0.2653  0.2157
  105MPD2    H5 1609   0.904   2.079  17.588 -1.1787 -0.0971  0.3372
  105MPD2    N1 1610   1.315   2.168  17.370 -0.4525  0.4856 -0.1809
  105MPD2    H7 1611   1.298   2.251  17.426 -1.4156 -0.4308  0.8682
  106TCq2    C1 1612   0.783   1.922  17.516 -0.0967 -0.1371  0.0913
  106TCq2    O2 1613   0.744   1.857  17.424  0.6865 -0.3572 -0.5805
  106TCq2    C2 1614   0.697   1.946  17.628  0.2843 -0.3695 -0.5332
  106TCq2    C3 1615   0.564   1.920  17.604  0.2320 -0.1130 -0.4193
  106TCq2    C4 1616   0.477   1.937   0.023 -0.0486  0.2906  0.0644
  106TCq2    C5 1617   0.510   2.009   0.132 -0.3717 -0.6293 -0.7528
  106TCq2    C6 1618   0.643   2.031   0.155  0.5735 -0.5064  0.0288
  106TCq2    C7 1619   0.739   2.002   0.066  0.2228 -0.2401  0.0955
  106TCq2    C8 1620   0.672   2.078   0.295 -0.7360  0.2441  0.6108
  106TCq2    O4 1621   0.792   2.079   0.326 -0.1964 -0.1970  1.1553
  106TCq2    C9 1622   0.337   1.891   0.005  0.1600 -0.1805  0.3119
  106TCq2    O5 1623   0.262   1.912   0.104  0.0244 -0.1490 -0.1406
  106TCq2    O6 1624   0.314   1.829  17.578  0.0450  0.2864  0.0492
  106TCq2    H2 1625   0.531   1.877  17.510  0.1347  1.0929 -0.9411
  106TCq2    H3 1626   0.425   2.037   0.194  1.5185 -1.2839  2.1195
  106TCq2    H4 1627   0.846   2.017   0.077  0.1384  0.9011 -0.6244
  107TMC2    C1 1628   2.282   1.219  11.545  0.3258 -0.2256  0.5249
  107TMC2    C2 1629   2.403   1.234  11.599 -0.2893 -0.3363  0.8017
  107TMC2    C3 1630   2.507   1.249  11.510 -0.1287  0.7165 -0.1198
  107TMC2    C4 1631   2.253   1.227  11.406  0.1107 -0.4086 -0.1768
  107TMC2    C5 1632   2.366   1.222  11.323  0.3458  0.0938  0.7401
  107TMC2    C6 1633   2.493   1.241  11.374  0.6530 -0.1804 -0.1576
  107TMC2     C 1634   2.165   1.241  11.628  0.0914  0.0537 -0.2001
  107TMC2     O 1635   2.183   1.260  11.748 -0.3655  0.4225 -0.3862
  107TMC2     H 1636   2.419   1.221  11.705 -1.8100 -2.0925  0.8183
  107TMC2    H1 1637   2.156   1.207  11.363 -0.5328  0.5745  0.8141
  107TMC2    H2 1638   2.580   1.235  11.309 -1.8146 -1.6196 -3.3052
  107TMC2    C7 1639   2.339   1.184  11.186 -0.4883  0.3920 -0.1144
  107TMC2    C8 1640   2.640   1.216  11.561  0.8709  0.2705  0.4086
  107TMC2    O1 1641   2.228   1.140  11.167  0.6810  0.2249  0.2142
  107TMC2    O2 1642   2.640   1.185  11.679  0.1846  0.4824  0.6798
  107TMC2    O5 1643   2.726   1.307  11.513  0.1427  0.2320  0.4273
  107TMC2    H5 1644   2.691   1.350  11.432 -1.8195 -0.8755  0.6925
  108MPD2     C 1645   1.803   1.232  11.554  0.0392 -0.0821 -0.1694
  108MPD2    C1 1646   1.915   1.254  11.630  0.0589 -0.2861  0.2242
  108MPD2    C2 1647   1.901   1.323  11.754 -0.8084  0.6639 -0.2265
  108MPD2    C3 1648   1.778   1.379  11.790 -0.1406  0.2851 -0.1239
  108MPD2    C4 1649   1.668   1.354  11.705  0.3362 -0.1133 -0.0933
  108MPD2    C5 1650   1.683   1.270  11.600  0.3624 -0.4325  0.3229
  108MPD2     H 1651   1.985   1.351  11.817 -0.4056  0.4887 -0.6876
  108MPD2    H1 1652   1.569   1.394  11.723  0.5858  0.4251  0.0749
  108MPD2    H2 1653   1.798   1.185  11.456 -2.0050  1.4275 -0.7884
  108MPD2    H3 1654   1.596   1.256  11.537  0.2212 -3.2180  1.1251
  108MPD2     N 1655   1.760   1.461  11.900 -0.0392 -0.3458  0.0644
  108MPD2    H5 1656   1.668   1.503  11.903 -0.1120 -0.6199  1.7450
  108MPD2    N1 1657   2.040   1.223  11.571  0.3474  0.7632 -0.1159
  108MPD2    H7 1658   2.044   1.163  11.490 -2.6620 -1.2566  1.2100
  109MPD2     C 1659   0.288   3.303   1.551 -0.9053 -0.0136 -0.2784
  109MPD2    C1 1660   0.378   3.338   1.451 -0.1110 -0.7553 -0.1038
  109MPD2    C2 1661   0.474   3.433   1.484  0.1750  0.5931 -0.3179
  109MPD2    C3 1662   0.480   3.487   1.608 -0.2516  0.0496 -0.1201
  109MPD2    C4 1663   0.411   3.434   1.715 -0.7036 -0.4914 -0.7811
  109MPD2    C5 1664   0.305   3.356   1.679 -0.5657  0.1095  0.2067
  109MPD2     H 1665   0.531   3.485   1.409  0.3586 -1.1120 -1.3729
  109MPD2    H1 1666   0.424   3.477   1.813 -0.6058  0.4591 -1.2084
  109MPD2    H2 1667   0.204   3.236   1.534 -2.5834  1.8359  0.7822
  109MPD2    H3 1668   0.234   3.327   1.756  0.2746 -1.8579  0.2175
  109MPD2     N 1669   0.580   3.585   1.619  0.0528  0.9836 -0.1390
  109MPD2    H5 1670   0.631   3.592   1.532  2.6336 -0.4511  1.2717
  109MPD2    N1 1671   0.360   3.287   1.320 -0.2113 -0.2267 -0.2324
  109MPD2    H7 1672   0.280   3.225   1.308 -2.9537  2.9895  1.2411
  110TCq2    C1 1673   0.625   3.654   1.726 -0.5323 -0.0089  0.3905
  110TCq2    O2 1674   0.586   3.659   1.837 -0.0088 -0.8481 -0.7424
  110TCq2    C2 1675   0.735   3.740   1.689  0.5627 -0.0542  0.7052
  110TCq2    C3 1676   0.799   3.803   1.797  0.7560  0.1085 -0.2997
  110TCq2    C4 1677   0.911   3.873   1.775  0.1042  0.0114 -0.2102
  110TCq2    C5 1678   0.968   3.872   1.655 -0.0455  0.2267  0.3561
  110TCq2    C6 1679   0.896   3.820   1.552  0.2439 -0.3756 -0.1039
  110TCq2    C7 1680   0.774   3.758   1.560 -0.1525  0.0022  0.4767
  110TCq2    C8 1681   0.972   3.820   1.428  0.3175 -0.2311  0.1118
  110TCq2    O4 1682   1.064   3.895   1.409 -0.3899 -0.1004  0.5208
  110TCq2    C9 1683   0.984   3.933   1.887 -0.2017 -0.3167  0.1753
  110TCq2    O5 1684   0.970   3.886   2.001 -0.3528  0.3938  0.2564
  110TCq2    O6 1685   1.065   4.022   1.859  0.5962  0.0785 -0.3869
  110TCq2    H2 1686   0.762   3.801   1.899  1.5600  1.9219  0.0256
  110TCq2    H3 1687   1.066   3.918   1.648  0.5699 -1.1453 -0.0892
  110TCq2    H4 1688   0.723   3.713   1.476  1.2089 -1.1543  0.2697
  111TMC2    C1 1689   2.002   3.153  11.283  0.1579  0.4070  0.1490
  111TMC2    C2 1690   2.071   3.081  11.197  0.1123 -0.9360 -0.2184
  111TMC2    C3 1691   2.202   3.067  11.225 -0.5410  0.2728 -0.2935
  111TMC2    C4 1692   2.053   3.213  11.387 -0.4142  0.3358  0.0531
  111TMC2    C5 1693   2.188   3.199  11.403  0.1946  0.3914 -0.4299
  111TMC2    C6 1694   2.264   3.117  11.330  0.1692  0.3527  0.4314
  111TMC2     C 1695   1.880   3.198  11.233  0.0442  0.3584  0.0240
  111TMC2     O 1696   1.870   3.226  11.115 -0.0154 -0.0986  0.1257
  111TMC2     H 1697   2.024   3.033  11.112 -0.1997 -0.3717 -0.3670
  111TMC2    H1 1698   1.989   3.280  11.444 -0.9183 -1.5782  1.7472
  111TMC2    H2 1699   2.351   3.066  11.369  1.3358  0.4073 -2.0632
  111TMC2    C7 1700   2.242   3.238  11.532  0.4925 -0.0659  0.3095
  111TMC2    C8 1701   2.266   2.947  11.168 -0.4121 -0.2094  0.0593
  111TMC2    O1 1702   2.156   3.246  11.625  0.3747 -0.2803  0.5160
  111TMC2    O2 1703   2.230   2.845  11.219 -0.1763  0.1143 -0.3060
  111TMC2    O5 1704   2.283   2.975  11.037 -0.4513 -0.0351  0.9434
  111TMC2    H5 1705   2.247   3.061  11.006  0.0559  1.3416  4.0916
  112MPD2     C 1706   1.391   3.300  11.267  0.0300  0.2510 -0.1191
  112MPD2    C1 1707   1.482   3.343  11.175  0.2327 -0.4287 -0.3885
  112MPD2    C2 1708   1.612   3.308  11.187  0.1267 -0.3953 -0.6784
  112MPD2    C3 1709   1.656   3.243  11.303  0.1199 -0.5016  0.5074
  112MPD2    C4 1710   1.560   3.208  11.398 -0.1005 -0.1193 -0.9644
  112MPD2    C5 1711   1.435   3.241  11.380 -0.5926  0.4990  0.4704
  112MPD2     H 1712   1.683   3.356  11.121  2.1139 -0.5519  1.3117
  112MPD2    H1 1713   1.580   3.159  11.493  1.0939 -0.8698 -1.6004
  112MPD2    H2 1714   1.283   3.306  11.252 -0.2512 -2.2817  0.9528
  112MPD2    H3 1715   1.359   3.213  11.452 -2.4216  3.1629 -0.4165
  112MPD2     N 1716   1.789   3.209  11.331  0.1818  0.1104  0.9034
  112MPD2    H5 1717   1.810   3.162  11.418  0.4729  0.9050  1.2554
  112MPD2    N1 1718   1.450   3.424  11.061  0.0609 -0.4979  0.0610
  112MPD2    H7 1719   1.522   3.435  10.990 -1.1493 -1.0741 -1.2578
  113MPD2     C 1720   4.507   0.945   0.965  0.0934 -0.3196 -0.5134
  113MPD2    C1 1721   4.394   1.018   1.020 -0.3007  0.6847  0.5572
  113MPD2    C2 1722   4.275   0.948   1.052  0.1699  0.1822  0.5735
  113MPD2    C3 1723   4.265   0.817   1.018  0.2968 -0.1071 -0.2263
  113MPD2    C4 1724   4.365   0.749   0.951 -0.7299  1.1902 -0.3680
  113MPD2    C5 1725   4.485   0.816   0.927 -0.0197 -0.4637  0.1468
  113MPD2     H 1726   4.187   1.004   1.082  0.1326  0.5130 -0.1449
  113MPD2    H1 1727   4.347   0.649   0.912 -0.4655  1.3241 -0.8297
  113MPD2    H2 1728   4.601   0.993   0.937 -0.3856  1.9985  1.8284
  113MPD2    H3 1729   4.561   0.761   0.873  1.5574 -1.1053  2.9822
  113MPD2     N 1730   4.138   0.745   1.018  0.0633 -0.1462 -0.2606
  113MPD2    H5 1731   4.125   0.654   0.975  0.3334 -1.6865  2.9696
  113MPD2    N1 1732   4.390   1.155   1.036  0.0875 -0.0026 -0.0892
  113MPD2    H7 1733   4.306   1.200   1.071  1.2301  1.2180  1.1304
  114TCq2    C1 1734   4.037   0.773   1.115  0.4135 -0.4911  0.0975
  114TCq2    O2 1735   4.037   0.849   1.212 -0.1818  0.1049 -0.0090
  114TCq2    C2 1736   3.909   0.704   1.088  0.7553 -0.5681 -0.1218
  114TCq2    C3 1737   3.864   0.678   0.963 -0.4706  0.3885  0.1207
  114TCq2    C4 1738   3.733   0.637   0.954 -0.1780  0.3307  0.4915
  114TCq2    C5 1739   3.651   0.623   1.063  0.2876  0.0045  0.0639
  114TCq2    C6 1740   3.698   0.654   1.186 -0.1784 -0.0840  0.3798
  114TCq2    C7 1741   3.827   0.692   1.199 -0.9025 -0.8410  0.0285
  114TCq2    C8 1742   3.633   0.593   1.294  0.1198  0.0488 -0.1913
  114TCq2    O4 1743   3.519   0.626   1.289 -0.3082  0.2976 -0.0370
  114TCq2    C9 1744   3.678   0.613   0.819 -0.8030 -0.3640 -0.5313
  114TCq2    O5 1745   3.758   0.641   0.729 -0.0291 -0.4421 -0.2375
  114TCq2    O6 1746   3.550   0.618   0.812  0.1298  0.7177  0.2511
  114TCq2    H2 1747   3.923   0.682   0.872  0.7519  0.9606  0.9459
  114TCq2    H3 1748   3.550   0.587   1.047  0.2023  0.2555  0.0457
  114TCq2    H4 1749   3.866   0.696   1.301 -1.3525 -0.2702  0.1764
  115TMC2    C1 1750   0.482   3.989  17.655  0.2653 -0.3264 -0.3323
  115TMC2    C2 1751   0.612   3.950  17.651 -0.4860  0.4591 -0.2045
  115TMC2    C3 1752   0.700   4.051  17.674 -0.1108 -0.0626 -0.2381
  115TMC2    C4 1753   0.444   4.121   0.002 -0.2552 -0.1240 -0.1195
  115TMC2    C5 1754   0.538   4.218   0.028  0.1670 -0.0554 -0.0223
  115TMC2    C6 1755   0.670   4.183   0.013 -0.3395 -0.6790  0.3110
  115TMC2     C 1756   0.385   3.906  17.588 -0.6036  0.3788 -0.1496
  115TMC2     O 1757   0.412   3.849  17.482  0.2962 -0.4944  0.2304
  115TMC2     H 1758   0.635   3.845  17.635  2.2171  0.8981  0.7598
  115TMC2    H1 1759   0.339   4.149   0.010 -0.8424 -1.6291 -2.3550
  115TMC2    H2 1760   0.758   4.246   0.009  0.8638 -2.2617  2.0191
  115TMC2    C7 1761   0.496   4.362  17.681  0.1657  0.0613 -0.1405
  115TMC2    C8 1762   0.825   4.020  17.610 -0.3835 -0.1229 -0.0408
  115TMC2    O1 1763   0.392   4.396   0.052  0.0037  0.2744  0.0944
  115TMC2    O2 1764   0.889   4.091  17.534 -0.0157 -0.2378 -0.6247
  115TMC2    O5 1765   0.859   3.900  17.667  0.0145  0.0958  0.0744
  115TMC2    H5 1766   0.820   3.879   0.073  0.4188  1.0292  0.4772
  116MPD2     C 1767   4.622   3.733  17.523 -0.5392  0.0909  0.6393
  116MPD2    C1 1768   0.024   3.698  17.469 -0.3755 -0.4634  0.1703
  116MPD2    C2 1769   0.147   3.760  17.498 -0.4948 -0.0780  0.5346
  116MPD2    C3 1770   0.142   3.855  17.600  0.3289  0.0105 -0.1362
  116MPD2    C4 1771   0.022   3.873  17.667 -0.5296 -0.3683 -0.0529
  116MPD2    C5 1772   4.624   3.819  17.630  1.4062  0.1531  0.4267
  116MPD2     H 1773   0.237   3.732  17.444 -0.8128 -1.0441  0.5073
  116MPD2    H1 1774   0.007   3.935   0.073  0.1731 -0.1074 -0.1223
  116MPD2    H2 1775   4.527   3.683  17.508  0.0333 -0.7312 -0.3006
  116MPD2    H3 1776   4.540   3.836   0.014  0.4517 -2.3182 -0.1638
  116MPD2     N 1777   0.256   3.922  17.643  0.2447 -0.0416  0.7363
  116MPD2    H5 1778   0.244   3.973   0.049 -0.8738 -0.3115  0.7494
  116MPD2    N1 1779   0.029   3.588  17.377  0.4096  0.1650 -0.0971
  116MPD2    H7 1780   0.119   3.544  17.360  1.3976  1.7025  1.1441
  117TMC2    C1 1781   4.135   0.566  13.373  0.1832 -1.1558  0.2716
  117TMC2    C2 1782   4.170   0.482  13.277 -0.1109  0.3016  0.8410
  117TMC2    C3 1783   4.298   0.500  13.234 -0.0150 -1.1981 -0.2235
  117TMC2    C4 1784   4.220   0.659  13.432  0.3410 -0.9560  0.4120
  117TMC2    C5 1785   4.344   0.677  13.378  0.5112 -0.3366  0.2988
  117TMC2    C6 1786   4.384   0.598  13.276 -0.1524  0.0107  0.5712
  117TMC2     C 1787   3.988   0.566  13.388  0.9775 -0.3071  0.2257
  117TMC2     O 1788   3.934   0.454  13.381  0.4334  0.2097 -0.4246
  117TMC2     H 1789   4.103   0.401  13.251  0.5345  0.5783 -1.6405
  117TMC2    H1 1790   4.181   0.734  13.500  2.1371  0.7626 -0.4417
  117TMC2    H2 1791   4.478   0.599  13.222 -0.1119  1.8122  0.6815
  117TMC2    C7 1792   4.447   0.759  13.431  0.7362 -0.6755  0.7344
  117TMC2    C8 1793   4.337   0.390  13.137  0.2783  0.4007 -0.2507
  117TMC2    O1 1794   4.542   0.787  13.361  0.3304  0.1634  0.3393
  117TMC2    O2 1795   4.254   0.334  13.070 -0.0028  0.5324  0.2548
  117TMC2    O5 1796   4.458   0.341  13.168 -0.4873 -0.4328  0.7640
  117TMC2    H5 1797   4.502   0.390  13.242 -0.3098  0.0712  0.3240
  118MPD2     C 1798   4.506   0.865  13.767  0.3856 -0.0146 -0.8181
  118MPD2    C1 1799   4.496   0.881  13.636  0.3192  0.1289 -0.9539
  118MPD2    C2 1800   4.551   0.992  13.574  0.1505 -0.1627 -0.1345
  118MPD2    C3 1801   4.609   1.090  13.648  0.1830  0.2461 -0.2527
  118MPD2    C4 1802   4.631   1.065  13.780  0.0567 -0.4403 -0.4373
  118MPD2    C5 1803   4.588   0.956  13.841 -0.4522 -0.5949 -0.0982
  118MPD2     H 1804   4.545   1.016  13.468 -0.0601 -0.3264 -0.1604
  118MPD2    H1 1805   4.677   1.139  13.845  0.1460  0.7598 -1.8746
  118MPD2    H2 1806   4.463   0.779  13.816 -0.7542  1.3176  0.5287
  118MPD2    H3 1807   4.595   0.943  13.949  0.9309 -2.5516 -0.4224
  118MPD2     N 1808   4.651   1.217  13.601 -0.5934 -0.3506 -0.0263
  118MPD2    H5 1809   4.703   1.276  13.666 -1.5693 -0.8300  1.1893
  118MPD2    N1 1810   4.416   0.798  13.559  0.7283 -0.1819  0.1127
  118MPD2    H7 1811   4.347   0.744  13.610  0.2265  1.9056  1.6649
  119MPD2     C 1812   2.610   2.427  13.289  0.3098 -0.6744  0.4223
  119MPD2    C1 1813   2.481   2.431  13.329  0.2430  0.0879 -0.5719
  119MPD2    C2 1814   2.400   2.534  13.282  0.1380  0.0144 -0.6050
  119MPD2    C3 1815   2.455   2.628  13.202 -0.6875 -0.4682  0.0311
  119MPD2    C4 1816   2.593   2.638  13.181 -0.1481  0.3532  0.0900
  119MPD2    C5 1817   2.670   2.533  13.228 -0.0583 -0.1814 -0.0556
  119MPD2     H 1818   2.298   2.547  13.315  0.9741  2.5016  1.0117
  119MPD2    H1 1819   2.641   2.725  13.138 -0.2061  0.1203 -0.4438
  119MPD2    H2 1820   2.670   2.340  13.310  0.0928 -0.5665  1.4717
  119MPD2    H3 1821   2.777   2.530  13.206 -0.2512  1.2521 -1.2112
  119MPD2     N 1822   2.377   2.724  13.131 -0.0190 -0.2825  0.1966
  119MPD2    H5 1823   2.416   2.809  13.091  0.5909 -1.6738 -2.2028
  119MPD2    N1 1824   2.436   2.333  13.417 -0.4031  0.5099  0.0477
  119MPD2    H7 1825   2.493   2.250  13.434 -0.1681  0.6836  0.1046
  120TCq2    C1 1826   2.237   2.722  13.109 -0.7264 -0.0333 -0.3870
  120TCq2    O2 1827   2.174   2.820  13.085 -0.4590 -0.2080 -1.2769
  120TCq2    C2 1828   2.170   2.597  13.082 -0.1898 -0.8268 -0.2714
  120TCq2    C3 1829   2.228   2.492  13.019  0.1314 -0.5110  0.3786
  120TCq2    C4 1830   2.159   2.377  12.995 -0.0905 -0.6186  0.5053
  120TCq2    C5 1831   2.029   2.375  13.028 -0.1105  0.3929 -0.6631
  120TCq2    C6 1832   1.970   2.483  13.088 -0.0209  0.6524 -0.3966
  120TCq2    C7 1833   2.040   2.594  13.118  0.5081  0.5317  0.5782
  120TCq2    C8 1834   1.857   2.464  13.173  0.8235 -0.3473 -1.2361
  120TCq2    O4 1835   1.810   2.574  13.202 -0.2628  0.5229 -0.4296
  120TCq2    C9 1836   2.225   2.254  12.950  0.0870  0.6889  0.5025
  120TCq2    O5 1837   2.179   2.150  12.998  0.0335  0.7787  0.4261
  120TCq2    O6 1838   2.324   2.268  12.872  0.0173  1.0085 -0.2357
  120TCq2    H2 1839   2.334   2.489  12.996  0.1051  0.3520  0.1588
  120TCq2    H3 1840   1.980   2.283  12.999 -1.4199  0.8170  0.2177
  120TCq2    H4 1841   2.002   2.674  13.180 -0.7009  0.4621 -0.0693
  121TMC2    C1 1842   3.249   3.788  14.046  0.0263 -0.3735  0.3397
  121TMC2    C2 1843   3.232   3.676  14.118 -0.8603 -0.4375 -0.0647
  121TMC2    C3 1844   3.113   3.614  14.112 -0.6283 -0.7576  0.6024
  121TMC2    C4 1845   3.144   3.852  13.974 -0.0448 -0.2634  0.9851
  121TMC2    C5 1846   3.023   3.794  13.988 -0.1754 -0.3293 -0.5223
  121TMC2    C6 1847   3.002   3.673  14.055 -0.0130 -0.1127  0.1730
  121TMC2     C 1848   3.381   3.843  14.046 -0.4116  0.6255 -0.4723
  121TMC2     O 1849   3.449   3.814  14.146 -0.0185 -0.2158  0.1926
  121TMC2     H 1850   3.316   3.639  14.176 -1.6064 -0.7039  0.8319
  121TMC2    H1 1851   3.158   3.945  13.920  0.3928 -0.6676  0.3931
  121TMC2    H2 1852   2.910   3.615  14.056  0.6607 -1.2209 -2.3207
  121TMC2    C7 1853   2.909   3.875  13.944 -0.5685  0.5110  0.5667
  121TMC2    C8 1854   3.091   3.486  14.178  0.7245 -0.8946  0.7214
  121TMC2    O1 1855   2.946   3.974  13.888 -0.3773 -0.2287  0.0096
  121TMC2    O2 1856   2.988   3.442  14.225  0.7245  0.0024  0.0361
  121TMC2    O5 1857   3.203   3.410  14.166 -0.3601  0.0124  0.0991
  121TMC2    H5 1858   3.283   3.454  14.130 -0.5068 -0.6873 -1.0731
  122MPD2     C 1859   3.628   4.020  13.988 -0.3308  0.0007 -0.0321
  122MPD2    C1 1860   3.548   3.961  13.890 -0.3176  0.8140 -0.1942
  122MPD2    C2 1861   3.590   3.970  13.761 -0.1642  0.1414 -0.2139
  122MPD2    C3 1862   3.695   4.043  13.723 -0.7423  0.0277  0.2512
  122MPD2    C4 1863   3.764   4.110  13.823  0.4686 -0.3902  0.2508
  122MPD2    C5 1864   3.744   4.081  13.953  0.2136  0.1617 -0.5666
  122MPD2     H 1865   3.534   3.909  13.692  1.1512 -0.0363 -1.1285
  122MPD2    H1 1866   3.856   4.159  13.796 -0.8255  0.8364 -1.9411
  122MPD2    H2 1867   3.620   4.016  14.096 -2.8896 -2.3785 -0.3281
  122MPD2    H3 1868   3.806   4.130  14.027 -1.0842 -1.1405  1.3806
  122MPD2     N 1869   3.734   4.061  13.590 -0.0294 -0.0731  0.3498
  122MPD2    H5 1870   3.790   4.142  13.566  1.2491 -1.4947 -1.4700
  122MPD2    N1 1871   3.421   3.899  13.925  0.3500 -0.5637  0.0830
  122MPD2    H7 1872   3.367   3.877  13.842 -1.4506 -0.6748  1.2894
  123MPD2     C 1873   2.163   2.245   9.995 -0.3228  0.2317 -0.0234
  123MPD2    C1 1874   2.146   2.200   9.873  0.7892  0.0381  0.1619
  123MPD2    C2 1875   2.222   2.257   9.770  0.2454  0.3519 -1.1631
  123MPD2    C3 1876   2.305   2.363   9.795  0.7651 -0.7422  0.2230
  123MPD2    C4 1877   2.322   2.408   9.923 -0.0634 -0.5245 -0.0237
  123MPD2    C5 1878   2.248   2.344  10.025 -0.3591 -0.4941 -0.3704
  123MPD2     H 1879   2.230   2.217   9.670  0.9223 -1.9314 -0.2073
  123MPD2    H1 1880   2.399   2.480   9.949 -0.3061  0.5578 -2.2291
  123MPD2    H2 1881   2.114   2.193  10.077 -0.2301 -0.6401 -0.5312
  123MPD2    H3 1882   2.271   2.364  10.128 -0.9932 -0.4367 -0.2403
  123MPD2     N 1883   2.398   2.399   9.692 -0.4952 -0.0672  0.2834
  123MPD2    H5 1884   2.375   2.370   9.597 -1.5111  0.9919  0.2034
  123MPD2    N1 1885   2.067   2.084   9.857 -0.1037 -0.3903  0.5176
  123MPD2    H7 1886   2.030   2.040   9.940 -0.3686 -0.4349  0.3762
  124TCq2    C1 1887   2.520   2.467   9.710  0.2817  0.1798 -0.1634
  124TCq2    O2 1888   2.575   2.508   9.812 -0.0711 -0.4189 -0.0649
  124TCq2    C2 1889   2.598   2.443   9.594  0.3922  0.1931  0.0273
  124TCq2    C3 1890   2.717   2.385   9.630  0.3283 -0.2115  0.3604
  124TCq2    C4 1891   2.777   2.304   9.537  0.1319 -0.3058 -0.8988
  124TCq2    C5 1892   2.711   2.272   9.412 -0.1910  0.2779  0.0589
  124TCq2    C6 1893   2.590   2.331   9.391 -0.9362  0.0821 -0.6451
  124TCq2    C7 1894   2.528   2.416   9.482 -0.8239 -0.2387 -0.5187
  124TCq2    C8 1895   2.533   2.300   9.262  0.0442 -0.8507  0.2874
  124TCq2    O4 1896   2.565   2.194   9.211 -0.5250  0.1364  0.2891
  124TCq2    C9 1897   2.897   2.238   9.563  0.4427 -0.2897 -0.3708
  124TCq2    O5 1898   2.933   2.150   9.478 -0.2060 -0.6064  0.3559
  124TCq2    O6 1899   2.952   2.256   9.677  0.0423 -0.4434  0.4889
  124TCq2    H2 1900   2.761   2.417   9.724 -1.8189 -0.0806  1.3092
  124TCq2    H3 1901   2.752   2.198   9.344 -0.2419  0.2253  0.0857
  124TCq2    H4 1902   2.439   2.471   9.453 -0.2317  1.0955  0.2217
  125TMC2    C1 1903   3.007   4.003   9.683 -0.2345 -0.7263 -0.2895
  125TMC2    C2 1904   3.050   3.876   9.711 -0.2050  0.4587 -0.1952
  125TMC2    C3 1905   3.180   3.845   9.685  0.3076  0.7166 -0.4000
  125TMC2    C4 1906   3.090   4.097   9.622 -0.7754 -0.3712  0.0662
  125TMC2    C5 1907   3.218   4.058   9.595  0.1004  0.3440 -0.0685
  125TMC2    C6 1908   3.262   3.932   9.624 -0.0298 -0.8118  0.8350
  125TMC2     C 1909   2.891   4.062   9.748  0.3825  0.5429 -0.3499
  125TMC2     O 1910   2.899   4.176   9.793 -0.1867 -0.0777  0.3772
  125TMC2     H 1911   2.980   3.805   9.753 -1.2193  1.5509 -0.0484
  125TMC2    H1 1912   3.040   4.187   9.588 -1.8148 -1.7989 -2.1803
  125TMC2    H2 1913   3.365   3.903   9.606 -0.3793 -1.7888  0.4084
  125TMC2    C7 1914   3.285   4.136   9.494 -0.3965  0.1196  0.4222
  125TMC2    C8 1915   3.238   3.727   9.748 -0.0940 -0.2013  0.2539
  125TMC2    O1 1916   3.211   4.222   9.443 -0.0089  0.7398 -0.2939
  125TMC2    O2 1917   3.207   3.680   9.854  0.3741 -0.2153  0.1927
  125TMC2    O5 1918   3.320   3.669   9.660  0.1341 -0.4242  0.0460
  125TMC2    H5 1919   3.340   3.712   9.573 -1.7237 -2.6072 -1.4479
  126MPD1     C 1920   2.400   4.027   9.883  0.4947  0.6692 -0.0656
  126MPD1    C1 1921   2.430   3.926   9.787 -0.8357 -0.0131  0.7002
  126MPD1    C2 1922   2.555   3.923   9.735 -0.7145  0.7935  0.0569
  126MPD1    C3 1923   2.654   4.015   9.776 -0.7109  0.0205  0.2955
  126MPD1    C4 1924   2.627   4.104   9.877  0.2606 -0.0620  0.1713
  126MPD1    C5 1925   2.497   4.117   9.929  0.4770 -0.4606  1.2738
  126MPD1     H 1926   2.575   3.839   9.670 -2.5423  0.5905 -0.2221
  126MPD1    H1 1927   2.700   4.170   9.920 -0.4805  1.4462 -0.8589
  126MPD1    H2 1928   2.297   4.029   9.917  0.3999 -4.3155 -0.1658
  126MPD1    H3 1929   2.484   4.193  10.004 -1.5571  1.2870 -0.8621
  126MPD1     N 1930   2.781   3.987   9.730 -0.2240 -0.0929 -0.5060
  126MPD1    H5 1931   2.788   3.918   9.656 -0.0833 -2.3401  1.6239
  126MPD1    N1 1932   2.326   3.852   9.727 -0.6002 -0.0073 -0.4725
  126MPD1    H6 1933   2.354   3.777   9.665  0.3431 -0.3806  0.4115
  126MPD1    H7 1934   2.250   3.834   9.792  0.4186 -0.5596  0.5584
  127MPD2     C 1935   4.681   2.749   9.230  0.0742 -0.0993  0.3653
  127MPD2    C1 1936   4.618   2.697   9.345  0.1579  0.3744  0.1916
  127MPD2    C2 1937   4.611   2.783   9.456  0.2379 -0.6483 -0.1951
  127MPD2    C3 1938   4.639   2.923   9.449 -0.1288 -0.4029 -0.0843
  127MPD2    C4 1939   4.686   2.968   9.327 -0.4178 -0.5461 -0.0704
  127MPD2    C5 1940   4.700   2.880   9.222 -0.5375 -0.2573  0.6268
  127MPD2     H 1941   4.566   2.740   9.544  0.0914 -1.2149 -0.5505
  127MPD2    H1 1942   4.716   3.071   9.311  0.4620 -1.1621 -2.3564
  127MPD2    H2 1943   4.697   2.695   9.137 -3.1567  1.7601 -1.2709
  127MPD2    H3 1944   0.013   2.918   9.126  1.2414 -2.6587  0.2882
  127MPD2     N 1945   4.638   3.000   9.567 -0.0475 -0.0671 -0.8608
  127MPD2    H5 1946   4.632   2.956   9.659 -1.6694  1.7412 -0.1070
  127MPD2    N1 1947   4.583   2.561   9.336  0.3249  0.0201 -0.3587
  127MPD2    H7 1948   4.616   2.515   9.252 -1.6998 -0.4189 -0.9049
  128TCq2    C1 1949   4.504   2.493   9.427  0.1459  0.3306  0.2856
  128TCq2    O2 1950   4.426   2.545   9.509  0.2994  0.1801 -0.0019
  128TCq2    C2 1951   4.493   2.354   9.406 -0.2499  0.7434  0.1989
  128TCq2    C3 1952   4.599   2.294   9.342  0.7065 -0.1278 -0.6134
  128TCq2    C4 1953   4.568   2.196   9.249  1.0196  0.7099  0.2579
  128TCq2    C5 1954   4.445   2.142   9.256  0.5556 -0.8012 -0.1217
  128TCq2    C6 1955   4.347   2.181   9.336 -0.1004  0.3242  0.5395
  128TCq2    C7 1956   4.362   2.295   9.413  0.0270  0.0437 -0.4701
  128TCq2    C8 1957   4.206   2.155   9.285 -0.5051 -0.4234 -0.3091
  128TCq2    O4 1958   4.198   2.111   9.171 -0.4116 -0.2883  0.0147
  128TCq2    C9 1959   4.673   2.142   9.157  0.4294  0.0634 -0.4315
  128TCq2    O5 1960   0.067   2.203   9.159 -0.2550  0.3255 -0.1512
  128TCq2    O6 1961   4.650   2.037   9.090 -0.0821 -0.4334  0.0907
  128TCq2    H2 1962   4.699   2.336   9.342  0.9794 -0.7818 -1.0845
  128TCq2    H3 1963   4.419   2.088   9.166  0.7423 -0.0571 -0.6292
  128TCq2    H4 1964   4.284   2.353   9.460 -1.3641 -1.6336 -0.7024
  129MPD2     C 1965   2.497   2.905   0.351 -0.0572 -0.0259  0.1300
  129MPD2    C1 1966   2.483   2.945   0.481  0.7516  0.4916 -0.1392
  129MPD2    C2 1967   2.567   3.048   0.527  0.1268  0.3999 -0.3119
  129MPD2    C3 1968   2.661   3.109   0.450 -0.0650 -0.0533 -0.0956
  129MPD2    C4 1969   2.678   3.064   0.320 -0.1164  0.3178 -0.8894
  129MPD2    C5 1970   2.598   2.967   0.271 -0.1346 -0.0009 -0.5910
  129MPD2     H 1971   2.552   3.082   0.629 -2.0030 -2.2526  0.2524
  129MPD2    H1 1972   2.757   3.102   0.255 -0.1587  0.4232 -0.8783
  129MPD2    H2 1973   2.444   2.822   0.305 -1.0173  1.4527 -1.4134
  129MPD2    H3 1974   2.631   2.931   0.175  0.3083  1.4078 -0.9718
  129MPD2     N 1975   2.736   3.209   0.508 -0.5388 -0.1250  1.0102
  129MPD2    H5 1976   2.726   3.218   0.609  0.1971 -1.7976  1.2242
  129MPD2    N1 1977   2.386   2.895   0.572 -0.2626 -0.2318  0.9183
  129MPD2    H7 1978   2.384   2.925   0.668 -1.6897  1.7089  0.2968
  130TCq2    C1 1979   2.302   2.793   0.547 -0.5891 -0.4222 -0.1623
  130TCq2    O2 1980   2.291   2.724   0.447 -0.0819  0.5938 -0.0614
  130TCq2    C2 1981   2.256   2.732   0.667 -0.4335 -0.0865  0.2126
  130TCq2    C3 1982   2.308   2.607   0.684  0.3898  0.8991 -0.2198
  130TCq2    C4 1983   2.260   2.537   0.790 -0.2412  0.4951 -0.6694
  130TCq2    C5 1984   2.140   2.579   0.853 -0.3882  0.8983  0.3526
  130TCq2    C6 1985   2.082   2.697   0.821 -0.1123  0.1508  0.0042
  130TCq2    C7 1986   2.141   2.775   0.730  0.1493 -0.4707 -0.3573
  130TCq2    C8 1987   1.956   2.738   0.879  0.0272 -0.0312 -0.1632
  130TCq2    O4 1988   1.880   2.658   0.927 -0.3103  0.1340 -0.4171
  130TCq2    C9 1989   2.301   2.404   0.811  0.3066  0.3212  0.1600
  130TCq2    O5 1990   2.210   2.326   0.845 -0.2679  0.0182  0.4769
  130TCq2    O6 1991   2.417   2.373   0.777 -0.0022 -0.4746  0.4006
  130TCq2    H2 1992   2.388   2.568   0.622 -0.5324 -0.8758 -0.3097
  130TCq2    H3 1993   2.093   2.514   0.927  1.0656  0.4276  0.8524
  130TCq2    H4 1994   2.092   2.867   0.698 -0.5298 -0.2870  1.2127
  131MPD2     C 1995   1.455   1.875   9.123  0.6283  0.2022 -0.5274
  131MPD2    C1 1996   1.582   1.916   9.110  0.3036  0.3878  0.2733
  131MPD2    C2 1997   1.676   1.906   9.214  0.2762 -0.0064  0.2652
  131MPD2    C3 1998   1.645   1.840   9.330 -0.4169  0.1930 -0.0463
  131MPD2    C4 1999   1.514   1.803   9.344  0.1054  0.8194  0.1666
  131MPD2    C5 2000   1.425   1.814   9.238 -0.2638  0.0077  0.3736
  131MPD2     H 2001   1.776   1.943   9.195  1.1552 -0.8697  3.1853
  131MPD2    H1 2002   1.479   1.766   9.440 -0.6059 -0.7287 -0.7024
  131MPD2    H2 2003   1.380   1.881   9.045 -0.7474  1.7189  0.8893
  131MPD2    H3 2004   1.322   1.782   9.250 -0.3037 -0.5043 -1.3750
  131MPD2     N 2005   1.735   1.833   9.437  0.0978  0.3038  0.0481
  131MPD2    H5 2006   1.821   1.886   9.431  1.3601 -1.7730 -0.2216
  131MPD2    N1 2007   1.605   1.984   8.989 -0.0613  0.0951 -0.5385
  131MPD2    H7 2008   1.520   1.992   8.933  0.5249 -1.1873 -1.6175
  132TCq2    C1 2009   1.837   2.415   8.660  0.2943  0.2447 -0.4049
  132TCq2    O2 2010   1.759   2.504   8.635  0.7105  0.5128 -0.0075
  132TCq2    C2 2011   1.775   2.282   8.668 -0.4867  0.0237 -0.0077
  132TCq2    C3 2012   1.672   2.254   8.583 -0.0417 -0.5445  0.0119
  132TCq2    C4 2013   1.598   2.149   8.616  0.0630  0.4262 -0.1312
  132TCq2    C5 2014   1.609   2.080   8.732 -0.3749 -0.8815  0.2685
  132TCq2    C6 2015   1.697   2.124   8.823 -0.1158 -0.8288 -0.2647
  132TCq2    C7 2016   1.792   2.216   8.786  0.4892  0.5276 -0.1104
  132TCq2    C8 2017   1.717   2.055   8.955 -0.3784 -0.1474  0.0613
  132TCq2    O4 2018   1.821   2.077   9.014 -0.1993  0.0850 -0.0269
  132TCq2    C9 2019   1.493   2.114   8.526 -0.3115  0.2940  0.9156
  132TCq2    O5 2020   1.440   1.998   8.536 -0.3220 -0.1194  0.6239
  132TCq2    O6 2021   1.479   2.190   8.428 -0.7840 -0.0524  0.2833
  132TCq2    H2 2022   1.671   2.306   8.488  0.6705 -1.1936 -0.3555
  132TCq2    H3 2023   1.533   2.005   8.752 -2.2767  1.4059  1.5688
  132TCq2    H4 2024   1.868   2.247   8.858  2.9283 -1.9052 -1.6397
  133MPD2     C 2025   0.956   3.677   8.862 -0.4410  0.0070 -0.0656
  133MPD2    C1 2026   1.024   3.557   8.853  0.2304 -1.1534  0.8394
  133MPD2    C2 2027   0.957   3.437   8.847 -0.1054 -0.3854 -0.5029
  133MPD2    C3 2028   0.816   3.436   8.831 -0.2084 -0.3797 -0.6629
  133MPD2    C4 2029   0.749   3.558   8.826  0.2187 -0.4155  1.0953
  133MPD2    C5 2030   0.819   3.672   8.845 -0.1142 -0.1863  0.1461
  133MPD2     H 2031   1.003   3.338   8.854 -2.0635 -1.2139  0.4956
  133MPD2    H1 2032   0.642   3.567   8.821  0.3586  1.5107  1.3982
  133MPD2    H2 2033   1.007   3.773   8.858 -1.0710  0.3762  0.8216
  133MPD2    H3 2034   0.763   3.764   8.838 -1.9063 -1.0858  2.5973
  133MPD2     N 2035   0.735   3.322   8.820  0.0551  0.3609 -0.5770
  133MPD2    H5 2036   0.634   3.333   8.817  0.2259  2.0835  0.0007
  133MPD2    N1 2037   1.164   3.563   8.848 -0.3243  0.4922  0.0776
  133MPD2    H7 2038   1.203   3.657   8.843  1.3488 -0.2190 -0.1972
  134TCq2    C1 2039   1.249   3.460   8.835 -0.0320 -1.2674 -0.7272
  134TCq2    O2 2040   1.228   3.341   8.811 -0.2524 -0.4583 -0.1441
  134TCq2    C2 2041   1.390   3.501   8.845 -0.4150 -1.1495  0.3241
  134TCq2    C3 2042   1.426   3.630   8.856  0.4120  0.6369 -0.7671
  134TCq2    C4 2043   1.548   3.670   8.891  0.4491 -0.7638 -0.0233
  134TCq2    C5 2044   1.644   3.574   8.915 -0.4493 -0.6746  0.0549
  134TCq2    C6 2045   1.604   3.441   8.909 -0.5663 -0.6626 -0.1481
  134TCq2    C7 2046   1.481   3.402   8.861  0.1724  0.4412  0.6336
  134TCq2    C8 2047   1.704   3.343   8.951  0.1624 -0.1553 -0.7204
  134TCq2    O4 2048   1.778   3.386   9.040  0.9636 -0.5415  0.2143
  134TCq2    C9 2049   1.578   3.810   8.890 -0.0362  0.7174  0.3315
  134TCq2    O5 2050   1.478   3.891   8.891  0.2245  0.1098  0.5098
  134TCq2    O6 2051   1.692   3.844   8.925 -0.0681  0.1608  0.6042
  134TCq2    H2 2052   1.355   3.712   8.852  0.1682  0.4486 -0.3446
  134TCq2    H3 2053   1.745   3.591   8.950 -0.5611  4.1312 -1.9075
  134TCq2    H4 2054   1.456   3.296   8.868 -2.5470  0.9644 -1.3227
  135MPD2     C 2055   3.513   3.977   9.865  0.3239 -0.1738  0.3198
  135MPD2    C1 2056   3.453   4.099   9.865  0.1523 -0.0273 -0.1917
  135MPD2    C2 2057   3.500   4.203   9.792  0.4587 -0.3389 -0.3893
  135MPD2    C3 2058   3.613   4.183   9.713  0.6001  0.1087 -0.2268
  135MPD2    C4 2059   3.672   4.062   9.718  0.1262 -0.0772  0.0336
  135MPD2    C5 2060   3.630   3.966   9.796  0.2753  0.4190 -0.1736
  135MPD2     H 2061   3.466   4.306   9.804  1.1274  0.0482 -1.8341
  135MPD2    H1 2062   3.766   4.045   9.666  0.2609  1.8443 -0.3780
  135MPD2    H2 2063   3.474   3.886   9.908 -0.2643 -0.1870 -0.2401
  135MPD2    H3 2064   3.674   3.867   9.797 -2.7768 -0.9792 -2.3334
  135MPD2     N 2065   3.676   4.279   9.630  0.2349 -0.2053 -0.3129
  135MPD2    H5 2066   3.758   4.247   9.579  1.8101  1.9846  0.8395
  135MPD2    N1 2067   3.331   4.118   9.939 -0.3184  0.2972  0.1370
  135MPD2    H7 2068   3.283   4.207   9.931 -0.7048  0.0501 -0.2697
  136TCq2    C1 2069   3.259   4.027  10.012 -0.3906  0.1401 -0.2556
  136TCq2    O2 2070   3.295   3.913  10.049 -0.2245  0.0725 -0.5747
  136TCq2    C2 2071   3.119   4.065  10.047  0.5583  0.3345 -0.5059
  136TCq2    C3 2072   3.106   4.179  10.121 -0.3459  0.1961 -0.2613
  136TCq2    C4 2073   2.991   4.195  10.199 -0.1981  1.0116  0.2767
  136TCq2    C5 2074   2.899   4.090  10.216  0.5486 -0.5925  0.6352
  136TCq2    C6 2075   2.920   3.982  10.142  0.4110 -0.8233 -0.0625
  136TCq2    C7 2076   3.034   3.963  10.067  0.3341  0.3000 -0.1987
  136TCq2    C8 2077   2.798   3.900  10.133 -0.5347 -0.8543  0.2106
  136TCq2    O4 2078   2.699   3.934  10.202  0.2297  1.1383  0.2608
  136TCq2    C9 2079   2.976   4.316  10.271  0.7748  0.7151  0.2425
  136TCq2    O5 2080   3.086   4.371  10.307 -0.2288  0.0862  0.2936
  136TCq2    O6 2081   2.864   4.354  10.321  0.0755  0.4605 -0.1042
  136TCq2    H2 2082   3.183   4.254  10.134 -1.4293  1.0927  0.9390
  136TCq2    H3 2083   2.819   4.096  10.288  1.1455 -0.8117  1.3101
  136TCq2    H4 2084   3.044   3.871  10.011 -2.1529  1.2607 -2.2762
  137MPD2     C 2085   3.880   2.831   9.204  0.6890 -0.8009 -0.1557
  137MPD2    C1 2086   3.853   2.711   9.260  0.1457 -0.1268  0.0636
  137MPD2    C2 2087   3.813   2.709   9.391  0.6477  0.0954 -0.2771
  137MPD2    C3 2088   3.807   2.825   9.460 -0.7380  0.4887 -0.0624
  137MPD2    C4 2089   3.836   2.947   9.400 -1.4189  0.0757  0.2875
  137MPD2    C5 2090   3.873   2.945   9.276 -0.1300 -1.0929  0.0848
  137MPD2     H 2091   3.782   2.617   9.440 -0.0797  0.4714 -0.0213
  137MPD2    H1 2092   3.810   3.039   9.449 -1.6311  1.5163 -2.5491
  137MPD2    H2 2093   3.901   2.834   9.098 -0.6989  1.3764 -0.3633
  137MPD2    H3 2094   3.877   3.037   9.218  2.0500 -1.2811 -0.0841
  137MPD2     N 2095   3.758   2.816   9.593  0.1963  0.0582 -0.1440
  137MPD2    H5 2096   3.725   2.724   9.621  1.4896 -0.1142  0.7932
  137MPD2    N1 2097   3.855   2.602   9.174 -0.0839  0.4983  0.1062
  137MPD2    H7 2098   3.891   2.610   9.080  0.4879  0.1607  0.2952
  138TCq2    C1 2099   3.789   2.482   9.193 -0.0284  0.5200 -0.6059
  138TCq2    O2 2100   3.705   2.458   9.279  0.5192  0.3365 -0.4852
  138TCq2    C2 2101   3.821   2.378   9.092 -0.0368 -0.4111  0.3777
  138TCq2    C3 2102   3.915   2.403   8.988 -0.9048 -0.1458  0.3467
  138TCq2    C4 2103   3.911   2.342   8.860 -0.2681  0.6965  0.2695
  138TCq2    C5 2104   3.812   2.246   8.834  0.2848  0.0200  0.6390
  138TCq2    C6 2105   3.719   2.227   8.934 -0.7108 -0.2073 -0.0898
  138TCq2    C7 2106   3.723   2.288   9.059 -0.6298 -0.7450 -0.3580
  138TCq2    C8 2107   3.596   2.155   8.900 -0.1767 -0.1170  0.3202
  138TCq2    O4 2108   3.620   2.093   8.795  0.1472  0.0594  0.0326
  138TCq2    C9 2109   3.992   2.397   8.751  0.4796  0.1558  0.3064
  138TCq2    O5 2110   4.042   2.513   8.757 -0.0343  0.1182 -0.4204
  138TCq2    O6 2111   3.997   2.332   8.644 -0.0743 -0.2460 -0.2598
  138TCq2    H2 2112   3.982   2.488   8.998 -1.9632  0.8777 -1.1796
  138TCq2    H3 2113   3.804   2.204   8.734 -0.1293  1.5858  0.0082
  138TCq2    H4 2114   3.659   2.262   9.142 -2.4530 -2.1885 -2.2005
  139TMC2    C1 2115   3.924   1.505  12.804  1.0739 -0.0591 -0.5589
  139TMC2    C2 2116   3.923   1.576  12.684 -0.0649 -0.3943  0.6652
  139TMC2    C3 2117   3.878   1.702  12.692 -0.3489  0.3767  0.2023
  139TMC2    C4 2118   3.873   1.556  12.924  0.6841  0.5050 -0.1526
  139TMC2    C5 2119   3.816   1.686  12.916  0.1503 -0.3380  0.0273
  139TMC2    C6 2120   3.810   1.754  12.799  0.3143  0.2077  0.0177
  139TMC2     C 2121   4.018   1.390  12.802  0.0987  0.6604 -0.0958
  139TMC2     O 2122   4.003   1.320  12.707 -0.5325  0.2351  0.0886
  139TMC2     H 2123   3.965   1.532  12.594 -0.8303 -1.6735  0.9409
  139TMC2    H1 2124   3.883   1.500  13.016 -0.0681  0.8535  0.1331
  139TMC2    H2 2125   3.770   1.854  12.792  0.8678  0.5967  2.4346
  139TMC2    C7 2126   3.760   1.748  13.036 -0.2306  0.2718  0.1390
  139TMC2    C8 2127   3.918   1.787  12.577 -0.6205 -0.7269 -0.3985
  139TMC2    O1 2128   3.703   1.856  13.021 -0.1425  0.2857 -0.8257
  139TMC2    O2 2129   3.867   1.759  12.473 -0.0082 -0.1928 -0.1091
  139TMC2    O5 2130   3.947   1.911  12.631 -0.0246 -0.2891  0.2412
  139TMC2    H5 2131   3.989   1.902  12.719 -0.2303  1.5984  0.5326
  140MPD2     C 2132   4.231   1.265  13.089  0.2368  0.0294 -0.2514
  140MPD2    C1 2133   4.159   1.262  12.969  0.9847  0.1453  0.4257
  140MPD2    C2 2134   4.141   1.136  12.910 -0.4033 -0.6796 -0.5606
  140MPD2    C3 2135   4.214   1.027  12.957  0.8431  0.3965  0.2573
  140MPD2    C4 2136   4.287   1.041  13.076  0.0083 -0.0346  0.9424
  140MPD2    C5 2137   4.298   1.160  13.144 -0.2751  0.1111 -0.0965
  140MPD2     H 2138   4.083   1.123  12.819 -2.3929  0.1469  0.6020
  140MPD2    H1 2139   4.368   0.976  13.107 -0.9988 -0.8155  1.9500
  140MPD2    H2 2140   4.254   1.365  13.125 -2.5949  0.6902 -0.3071
  140MPD2    H3 2141   4.357   1.175  13.233 -0.4749 -0.7332  0.1783
  140MPD2     N 2142   4.207   0.911  12.878  0.7351  0.1172  0.1951
  140MPD2    H5 2143   4.153   0.914  12.792  0.6822 -0.6146  0.2052
  140MPD2    N1 2144   4.081   1.376  12.922 -0.1118  0.5124 -0.3445
  140MPD2    H7 2145   4.070   1.448  12.993 -0.6691 -0.1092  0.2124
  141TCq2    C1 2146   4.237   2.824  14.817  0.1809  0.8573  0.2282
  141TCq2    O2 2147   4.228   2.900  14.722 -0.0771 -0.1771  0.3489
  141TCq2    C2 2148   4.193   2.872  14.945 -0.2242 -0.1990  0.4115
  141TCq2    C3 2149   4.215   2.805  15.065 -0.1350  0.3780  0.4309
  141TCq2    C4 2150   4.196   2.876  15.180 -0.5839 -0.4354  0.3894
  141TCq2    C5 2151   4.162   3.006  15.176 -0.1560  0.1697  0.7708
  141TCq2    C6 2152   4.144   3.067  15.057 -0.1215  0.8001  0.0249
  141TCq2    C7 2153   4.153   3.002  14.940 -0.3892 -0.1338  0.3191
  141TCq2    C8 2154   4.100   3.207  15.061 -0.2879 -0.3876 -0.8368
  141TCq2    O4 2155   4.065   3.250  15.173  0.3470 -0.1809 -0.6418
  141TCq2    C9 2156   4.244   2.818  15.298 -0.6537 -0.2137 -0.0151
  141TCq2    O5 2157   4.286   2.698  15.298  0.8053  0.0484  0.3206
  141TCq2    O6 2158   4.270   2.893  15.394 -0.1433  0.3140  0.5076
  141TCq2    H2 2159   4.264   2.708  15.075 -0.5296  0.3604  2.2020
  141TCq2    H3 2160   4.159   3.068  15.266 -1.1937  1.3882 -0.0980
  141TCq2    H4 2161   4.122   3.060  14.854  0.5888  0.3586  0.2945
  142MPD2     C 2162   2.258   1.490   9.813  0.4737 -0.3330 -0.5979
  142MPD2    C1 2163   2.180   1.408   9.742 -0.7534 -0.5079 -0.9297
  142MPD2    C2 2164   2.128   1.455   9.625 -0.0566 -0.2940 -0.1939
  142MPD2    C3 2165   2.163   1.574   9.570 -0.0975 -0.2475  0.3116
  142MPD2    C4 2166   2.241   1.660   9.653  0.2231 -0.5083  0.2127
  142MPD2    C5 2167   2.290   1.616   9.770  0.7332  0.1918  0.1028
  142MPD2     H 2168   2.055   1.391   9.576  0.4657 -1.2753  0.3007
  142MPD2    H1 2169   2.275   1.757   9.619  0.6984 -1.0296 -0.7791
  142MPD2    H2 2170   2.301   1.455   9.907 -0.8834  2.2258  0.9883
  142MPD2    H3 2171   2.362   1.676   9.823  0.7790  0.9188 -0.7774
  142MPD2     N 2172   2.127   1.626   9.438 -0.1575  0.1620  0.2255
  142MPD2    H5 2173   2.164   1.717   9.410 -1.6301  0.7827  0.2777
  142MPD2    N1 2174   2.143   1.283   9.796  0.4858 -0.2546 -0.0901
  142MPD2    H7 2175   2.167   1.258   9.891 -0.0250 -1.8597 -0.3797
  143TCq2    C1 2176   2.044   1.568   9.339 -0.1941  0.2672  0.2384
  143TCq2    O2 2177   1.958   1.482   9.354 -0.0236 -0.5887  0.3648
  143TCq2    C2 2178   2.037   1.647   9.219 -0.0978 -0.1930 -0.5984
  143TCq2    C3 2179   1.931   1.627   9.136  0.0657  0.3549  0.5330
  143TCq2    C4 2180   1.934   1.699   9.017  1.2987  0.1814 -0.0933
  143TCq2    C5 2181   2.014   1.810   8.999  0.1400  0.1293  0.4824
  143TCq2    C6 2182   2.105   1.836   9.100  0.2549  0.2527  0.2335
  143TCq2    C7 2183   2.122   1.752   9.209 -0.2668  0.1205 -0.0896
  143TCq2    C8 2184   2.178   1.961   9.094  0.5140  0.5187  0.9526
  143TCq2    O4 2185   2.299   1.948   9.114  0.8208 -0.0329  0.3832
  143TCq2    C9 2186   1.851   1.664   8.905 -0.3282 -0.1270 -0.6718
  143TCq2    O5 2187   1.876   1.706   8.789 -0.0573  0.2549 -0.0570
  143TCq2    O6 2188   1.757   1.587   8.935  0.3048 -0.5482  0.2860
  143TCq2    H2 2189   1.878   1.532   9.128  0.3548  0.1995  0.4677
  143TCq2    H3 2190   2.006   1.869   8.908 -0.6090  1.2901  1.3002
  143TCq2    H4 2191   2.192   1.779   9.286  0.6837  0.0405 -0.9220
  144MPD2     C 2192   4.637   0.000   0.664 -0.6732  0.0928  0.5439
  144MPD2    C1 2193   4.513   0.058   0.642 -0.3011  0.1991  0.2412
  144MPD2    C2 2194   4.441   0.100   0.751  0.7806 -0.1511  0.0608
  144MPD2    C3 2195   4.497   0.112   0.875 -0.3278 -0.1477  0.1557
  144MPD2    C4 2196   4.627   0.065   0.885  0.7585  0.3146  1.2943
  144MPD2    C5 2197   4.694   0.003   0.783  0.3580 -1.0452  0.4489
  144MPD2     H 2198   4.350   0.155   0.729 -0.7947 -2.8496 -0.2053
  144MPD2    H1 2199   4.678   0.057   0.980 -0.1586 -2.2477  1.5762
  144MPD2    H2 2200   4.694   4.677   0.581  0.1785  2.3005 -0.0159
  144MPD2    H3 2201   0.074   4.684   0.802  0.4312 -0.2064  1.8135
  144MPD2     N 2202   4.439   0.178   0.983  0.3305 -0.1467  0.6372
  144MPD2    H5 2203   4.497   0.186   1.065  0.5201 -0.0955  0.4989
  144MPD2    N1 2204   4.466   0.086   0.515 -0.1953 -0.0723 -0.4347
  144MPD2    H7 2205   4.370   0.119   0.508  0.9378  3.1210 -0.7264
  145TCq2    C1 2206   4.313   0.240   0.989  0.6544 -0.1327 -0.8153
  145TCq2    O2 2207   4.214   0.237   0.916 -0.5060  0.4164  0.3377
  145TCq2    C2 2208   4.298   0.334   1.107 -0.0997 -0.1565 -0.5350
  145TCq2    C3 2209   4.176   0.345   1.171  0.0217  0.3290  0.2321
  145TCq2    C4 2210   4.173   0.438   1.272  0.1696 -0.0936  1.2816
  145TCq2    C5 2211   4.276   0.515   1.313  0.2715 -0.7023  0.0346
  145TCq2    C6 2212   4.391   0.495   1.249 -0.1806 -0.7156  0.3171
  145TCq2    C7 2213   4.403   0.406   1.152 -0.1307 -0.2261  1.4764
  145TCq2    C8 2214   4.491   0.603   1.257 -0.0512  0.3034  0.2536
  145TCq2    O4 2215   4.600   0.584   1.205 -0.5868 -0.2759 -0.0543
  145TCq2    C9 2216   4.048   0.462   1.334  0.8927 -0.5479 -0.0096
  145TCq2    O5 2217   3.952   0.383   1.306 -0.2286  0.1718 -0.6204
  145TCq2    O6 2218   4.044   0.566   1.401 -0.4135 -0.5823 -0.5633
  145TCq2    H2 2219   4.090   0.283   1.152  1.2870 -1.0865 -0.9431
  145TCq2    H3 2220   4.274   0.571   1.406  0.1667  2.3581 -1.8299
  145TCq2    H4 2221   4.495   0.403   1.097 -1.1593 -1.2129 -0.1761
  146TMC2    C1 2222   0.867   3.720  12.648 -0.3532  0.2720 -0.0027
  146TMC2    C2 2223   0.808   3.622  12.714  0.8341  0.4922  0.6161
  146TMC2    C3 2224   0.842   3.496  12.674  0.2643  0.8065  0.8645
  146TMC2    C4 2225   0.946   3.703  12.532  0.7187 -0.4982 -0.3096
  146TMC2    C5 2226   0.965   3.576  12.492  0.2963  0.0677 -0.1401
  146TMC2    C6 2227   0.914   3.469  12.557 -0.4184 -0.3114  0.1894
  146TMC2     C 2228   0.909   3.840  12.726  0.0563 -0.3635  0.4006
  146TMC2     O 2229   0.909   3.953  12.677 -0.9709 -0.1685 -0.0078
  146TMC2     H 2230   0.757   3.633  12.809  0.8918  0.0044  0.7029
  146TMC2    H1 2231   0.999   3.787  12.488 -1.1813  0.3941 -0.9129
  146TMC2    H2 2232   0.945   3.370  12.527  3.6619 -0.1960  4.0480
  146TMC2    C7 2233   1.099   3.558  12.432  0.5259  0.7298  0.5304
  146TMC2    C8 2234   0.773   3.381  12.733  0.5523  0.0124 -1.2676
  146TMC2    O1 2235   1.130   3.631  12.339 -0.1621 -0.7617  0.5345
  146TMC2    O2 2236   0.653   3.371  12.728 -0.1585 -0.2015  0.0626
  146TMC2    O5 2237   0.857   3.275  12.732  0.2705  0.3518 -0.5462
  146TMC2    H5 2238   0.952   3.299  12.733  0.2549  0.3263  1.4845
  147MPD2     C 2239   1.585   3.581  12.587 -0.1947  0.5222 -0.0099
  147MPD2    C1 2240   1.506   3.546  12.701  0.8786  0.1606 -0.2165
  147MPD2    C2 2241   1.370   3.508  12.683 -0.4091 -0.1570 -0.4272
  147MPD2    C3 2242   1.319   3.518  12.550 -0.5051  0.5989  0.3669
  147MPD2    C4 2243   1.392   3.571  12.448  0.2873  0.4876  0.3211
  147MPD2    C5 2244   1.525   3.596  12.466 -0.7890  0.7731 -0.3308
  147MPD2     H 2245   1.316   3.471  12.769  0.5370  4.9324  2.3086
  147MPD2    H1 2246   1.347   3.582  12.350 -1.2980 -0.9215  0.8783
  147MPD2    H2 2247   1.689   3.611  12.588 -0.3013  0.9035 -0.4232
  147MPD2    H3 2248   1.586   3.631  12.384  0.4432 -0.5874 -0.0036
  147MPD2     N 2249   1.177   3.496  12.531  0.0980  0.1739  0.5922
  147MPD2    H5 2250   1.131   3.454  12.611  1.2832  1.4469  1.9611
  147MPD2    N1 2251   1.577   3.552  12.824  0.2377  0.6366  0.0455
  147MPD2    H7 2252   1.676   3.561  12.807  0.3541  0.8635  0.8752
  148MPD2     C 2253   1.910   2.361  10.352 -0.0797  0.1912 -0.2546
  148MPD2    C1 2254   1.867   2.420  10.233  0.2455 -1.0251 -0.2736
  148MPD2    C2 2255   1.752   2.366  10.172 -0.0874 -0.0126  0.8857
  148MPD2    C3 2256   1.674   2.260  10.237  0.1973  0.8546 -0.4772
  148MPD2    C4 2257   1.728   2.201  10.350  0.3744 -0.3035  0.4125
  148MPD2    C5 2258   1.832   2.267  10.410 -0.6408 -0.3447  0.1239
  148MPD2     H 2259   1.730   2.413  10.077  2.3848  0.5326  0.5905
  148MPD2    H1 2260   1.682   2.125  10.413 -1.5131 -0.4155 -1.1224
  148MPD2    H2 2261   1.996   2.397  10.408  0.2803  1.1413 -1.4069
  148MPD2    H3 2262   1.866   2.228  10.505 -0.3432 -1.7149 -0.5407
  148MPD2     N 2263   1.557   2.202  10.190 -0.4285  0.3625  0.3334
  148MPD2    H5 2264   1.533   2.113  10.234  0.7895  0.7591  1.7836
  148MPD2    N1 2265   1.937   2.518  10.161 -0.6937 -1.1169  0.3307
  148MPD2    H7 2266   1.909   2.539  10.066  0.5503 -1.8902 -0.2008
  149TCq2    C1 2267   2.042   2.592  10.212 -0.7722 -0.2908 -0.2423
  149TCq2    O2 2268   2.081   2.596  10.326  0.5361  0.2337 -0.2826
  149TCq2    C2 2269   2.096   2.685  10.118 -0.5987 -0.0434  0.3097
  149TCq2    C3 2270   2.142   2.803  10.176 -0.7202 -0.3894  0.4542
  149TCq2    C4 2271   2.206   2.893  10.094 -0.1167  0.4533  0.2981
  149TCq2    C5 2272   2.207   2.881   9.958 -1.7485 -0.1151 -0.0273
  149TCq2    C6 2273   2.156   2.764   9.912 -0.8283  0.1654  0.2454
  149TCq2    C7 2274   2.101   2.662   9.986 -0.0953  0.1997  0.7322
  149TCq2    C8 2275   2.153   2.761   9.763 -0.4982 -0.6687 -1.2207
  149TCq2    O4 2276   2.234   2.832   9.704  0.0565 -0.0952  0.3204
  149TCq2    C9 2277   2.227   3.032  10.155 -0.8545  0.1905  0.2857
  149TCq2    O5 2278   2.218   3.129  10.078  0.1536  0.0018 -0.4459
  149TCq2    O6 2279   2.193   3.048  10.273 -0.5445 -0.5791 -0.2212
  149TCq2    H2 2280   2.133   2.820  10.283 -1.6004 -0.5820  0.4068
  149TCq2    H3 2281   2.244   2.957   9.891 -0.9791 -1.1035 -0.7301
  149TCq2    H4 2282   2.079   2.563   9.949  0.8488 -0.1570  1.1149
  150MPD2     C 2283   2.823   2.280  12.207 -0.0863 -0.4047 -0.1057
  150MPD2    C1 2284   2.879   2.284  12.084 -0.1350 -0.0873  0.5790
  150MPD2    C2 2285   3.008   2.349  12.082 -0.4798 -0.5772 -0.3106
  150MPD2    C3 2286   3.084   2.382  12.200  0.4956 -0.0695  0.2411
  150MPD2    C4 2287   3.013   2.373  12.319 -0.4971 -0.0016  0.1812
  150MPD2    C5 2288   2.882   2.326  12.322  1.3796 -0.3509  0.3068
  150MPD2     H 2289   3.061   2.375  11.991  1.2981  0.5296  1.0337
  150MPD2    H1 2290   3.052   2.413  12.411  0.3666 -0.3267 -0.0423
  150MPD2    H2 2291   2.723   2.237  12.204 -0.4526  0.3321  1.6191
  150MPD2    H3 2292   2.830   2.312  12.416  1.2683 -0.5077  0.2225
  150MPD2     N 2293   3.213   2.420  12.184 -0.6163 -0.6905 -0.5653
  150MPD2    H5 2294   3.253   2.407  12.092  0.4014 -1.4428 -0.0180
  150MPD2    N1 2295   2.800   2.245  11.968  0.4302  0.3992  0.1612
  150MPD2    H7 2296   2.723   2.181  11.982 -0.7367  1.4668 -1.2645
  151TCq2    C1 2297   3.301   2.471  12.273  0.1035 -0.6670  0.0536
  151TCq2    O2 2298   3.281   2.482  12.392 -0.9238 -0.2545  0.2555
  151TCq2    C2 2299   3.440   2.480  12.227  0.9144 -0.0638 -0.1763
  151TCq2    C3 2300   3.469   2.448  12.099 -0.7937 -0.0592 -0.2359
  151TCq2    C4 2301   3.604   2.469  12.068  0.4692  0.2710  0.2566
  151TCq2    C5 2302   3.705   2.511  12.153  0.2804 -0.9690  0.4957
  151TCq2    C6 2303   3.662   2.524  12.276  0.5550  0.1863  0.2210
  151TCq2    C7 2304   3.534   2.514  12.320  0.1181 -0.7863 -0.1536
  151TCq2    C8 2305   3.760   2.523  12.377 -0.1404 -0.4325 -0.0610
  151TCq2    O4 2306   3.734   2.563  12.490 -0.2800  0.2082  0.4356
  151TCq2    C9 2307   3.652   2.439  11.930  0.2395  0.4185 -0.0268
  151TCq2    O5 2308   3.765   2.393  11.923  0.4352 -0.5022 -0.3398
  151TCq2    O6 2309   3.583   2.475  11.834 -0.5557  0.1137  0.6016
  151TCq2    H2 2310   3.403   2.407  12.023 -2.0325  2.2277 -0.3785
  151TCq2    H3 2311   3.808   2.512  12.117  0.3705  0.0840  0.7996
  151TCq2    H4 2312   3.518   2.519  12.427 -1.4864  0.2291 -0.4437
  152MPD2     C 2313   2.894   1.731  12.514  0.0523 -0.0938 -0.2317
  152MPD2    C1 2314   2.897   1.824  12.418  0.4630  0.1742 -0.1799
  152MPD2    C2 2315   2.780   1.878  12.367  0.9097  0.2488  0.4141
  152MPD2    C3 2316   2.651   1.839  12.408 -0.0136 -0.4483  0.0269
  152MPD2    C4 2317   2.653   1.757  12.525 -0.6701  0.2164  0.3105
  152MPD2    C5 2318   2.771   1.702  12.574  0.4295 -0.6697  0.6030
  152MPD2     H 2319   2.781   1.961  12.297 -2.9046  0.1832  0.3070
  152MPD2    H1 2320   2.560   1.732  12.575 -1.2131 -0.1904 -0.9206
  152MPD2    H2 2321   2.990   1.698  12.552 -0.1770 -0.9888 -0.4141
  152MPD2    H3 2322   2.768   1.625  12.650  0.5463  0.6337  1.9169
  152MPD2     N 2323   2.542   1.905  12.354 -0.3624 -0.0414  0.5991
  152MPD2    H5 2324   2.563   1.973  12.281 -2.1373 -0.5463 -0.3880
  152MPD2    N1 2325   3.021   1.885  12.375  0.1434  0.4449 -0.0171
  152MPD2    H7 2326   3.110   1.854  12.413  0.3273 -1.3631 -1.9481
  153TCq2    C1 2327   3.034   1.977  12.272 -0.2239  0.2660 -0.1395
  153TCq2    O2 2328   2.971   1.971  12.171  0.4008  0.0727 -0.1568
  153TCq2    C2 2329   3.175   2.019  12.258 -0.4382  0.2363  0.1071
  153TCq2    C3 2330   3.244   2.035  12.138 -0.1369 -0.1466  0.3756
  153TCq2    C4 2331   3.370   2.080  12.135  0.1570 -0.4970  0.8708
  153TCq2    C5 2332   3.435   2.107  12.253 -0.2205 -0.8817 -0.3675
  153TCq2    C6 2333   3.363   2.095  12.373 -0.1040 -1.1967 -0.1717
  153TCq2    C7 2334   3.235   2.052  12.375  0.0299 -0.0735  0.2581
  153TCq2    C8 2335   3.412   2.178  12.478 -0.7115 -0.2817  1.0548
  153TCq2    O4 2336   3.327   2.210  12.561  0.1754  0.1643 -0.5850
  153TCq2    C9 2337   3.430   2.085  12.004 -0.2812 -0.2224  0.0178
  153TCq2    O5 2338   3.362   2.063  11.906  0.1223 -0.3222 -0.2965
  153TCq2    O6 2339   3.554   2.118  12.005  0.0330  0.0040 -0.3047
  153TCq2    H2 2340   3.199   2.000  12.046  0.4488  0.2695 -0.0742
  153TCq2    H3 2341   3.536   2.145  12.251 -0.4813 -0.2043 -0.7006
  153TCq2    H4 2342   3.192   2.028  12.471 -1.2625  0.4197 -0.1940
  154MPD2     C 2343   3.996   0.894   0.144  0.2619  0.6402 -0.4369
  154MPD2    C1 2344   3.999   1.011   0.078  0.0706  0.9123 -0.0173
  154MPD2    C2 2345   3.897   1.095   0.099  0.0360 -0.2269 -0.6041
  154MPD2    C3 2346   3.789   1.064   0.183  0.1002  0.4222 -0.6730
  154MPD2    C4 2347   3.785   0.943   0.242  0.2101  0.3706  0.6386
  154MPD2    C5 2348   3.893   0.861   0.227  0.3349  0.2710  0.5036
  154MPD2     H 2349   3.903   1.191   0.049 -0.9801 -0.5171 -1.2926
  154MPD2    H1 2350   3.700   0.908   0.300  1.0579 -0.6129  1.2877
  154MPD2    H2 2351   4.078   0.824   0.137 -2.2184 -2.3248  0.3391
  154MPD2    H3 2352   3.888   0.761   0.268  0.9939  0.2727  0.5895
  154MPD2     N 2353   3.688   1.165   0.211 -0.0904  0.4294 -0.0164
  154MPD2    H5 2354   3.703   1.259   0.174 -2.7164  0.9530  0.2771
  154MPD2    N1 2355   4.112   1.048   0.004  0.1377  0.2672  0.0135
  154MPD2    H7 2356   4.188   0.986   0.031  0.8922  0.7441 -1.0024
  155TCq2    C1 2357   4.140   1.162  17.614 -0.5652 -0.3080  0.6191
  155TCq2    O2 2358   4.068   1.257  17.591  0.4873 -0.3302  0.4205
  155TCq2    C2 2359   4.274   1.181  17.574  0.1201 -0.1312 -0.5413
  155TCq2    C3 2360   4.311   1.254  17.459  0.5978 -0.5152 -0.0219
  155TCq2    C4 2361   4.442   1.269  17.436  0.5015  0.3474  0.6480
  155TCq2    C5 2362   4.533   1.235  17.529  0.5893  0.1428 -0.1238
  155TCq2    C6 2363   4.496   1.163  17.635 -0.2704  0.3632  0.1458
  155TCq2    C7 2364   4.365   1.119  17.654  0.7852  0.1950 -0.3655
  155TCq2    C8 2365   4.589   1.094   0.038  0.1513  0.3981  0.4027
  155TCq2    O4 2366   4.554   0.989   0.103  0.7280 -0.4293 -0.3066
  155TCq2    C9 2367   4.494   1.341  17.316  0.4312 -0.3756 -0.1679
  155TCq2    O5 2368   4.606   1.400  17.334  0.2631  1.2585 -0.0863
  155TCq2    O6 2369   4.422   1.365  17.213  0.4206  0.1843 -0.0491
  155TCq2    H2 2370   4.234   1.293  17.393  0.3823  0.0509  0.5664
  155TCq2    H3 2371   4.636   1.251  17.499  1.4148  0.1681  2.7038
  155TCq2    H4 2372   4.344   1.082   0.072 -2.0628  1.1210 -0.6073
  156MPD2     C 2373   3.538   4.024  11.509  0.7021  0.2445 -0.6715
  156MPD2    C1 2374   3.435   4.097  11.449  0.4639  0.2328 -0.2145
  156MPD2    C2 2375   3.332   4.143  11.527 -0.3475 -0.3698  0.9970
  156MPD2    C3 2376   3.330   4.121  11.663 -0.1615 -0.1758  0.4072
  156MPD2    C4 2377   3.429   4.051  11.725  0.0081  0.9912 -0.0136
  156MPD2    C5 2378   3.532   4.002  11.644  0.2457 -0.4182  0.0091
  156MPD2     H 2379   3.245   4.200  11.495 -0.0490  1.5637  3.6002
  156MPD2    H1 2380   3.426   4.031  11.832 -0.1439 -1.7145 -0.5125
  156MPD2    H2 2381   3.618   3.977  11.453 -0.3451 -4.0715  1.4115
  156MPD2    H3 2382   3.616   3.950  11.688  0.8555 -0.2419 -0.9426
  156MPD2     N 2383   3.214   4.176  11.727  0.0135 -0.9158 -0.3484
  156MPD2    H5 2384   3.131   4.198  11.672 -0.6135 -0.2246  0.8781
  156MPD2    N1 2385   3.440   4.112  11.306  0.6471  0.3602  0.0354
  156MPD2    H7 2386   3.521   4.072  11.261  0.5346  1.7736 -1.4191
  157TCq2    C1 2387   3.343   4.181  11.232 -0.1254 -0.8778  0.2905
  157TCq2    O2 2388   3.244   4.242  11.269  0.0105  0.2443 -0.2198
  157TCq2    C2 2389   3.379   4.209  11.099  0.1170 -0.2378  0.5363
  157TCq2    C3 2390   3.507   4.230  11.059  0.1423 -0.1532 -0.4478
  157TCq2    C4 2391   3.531   4.282  10.940 -0.4948 -0.4401  0.4722
  157TCq2    C5 2392   3.432   4.329  10.861 -0.1487  0.3769 -0.0590
  157TCq2    C6 2393   3.305   4.312  10.907 -0.5470 -0.5328 -0.0229
  157TCq2    C7 2394   3.277   4.246  11.022  0.1293  1.2589 -0.2728
  157TCq2    C8 2395   3.214   4.416  10.876  0.6987  0.0294  0.5348
  157TCq2    O4 2396   3.263   4.504  10.812  0.1651  0.1060 -0.2785
  157TCq2    C9 2397   3.675   4.315  10.916  0.2718 -0.1171  0.4663
  157TCq2    O5 2398   3.704   4.383  10.815  0.0532 -0.0528 -0.1261
  157TCq2    O6 2399   3.760   4.241  10.964  0.3985  0.0500 -0.4465
  157TCq2    H2 2400   3.588   4.208  11.127  0.7478 -3.7942 -2.3150
  157TCq2    H3 2401   3.459   4.387  10.774 -0.3754 -2.0219 -1.7237
  157TCq2    H4 2402   3.177   4.215  11.047  0.5434 -1.4789 -2.0581
  158TMC2    C1 2403   4.176   3.124  13.851  0.0440  0.1935  0.1861
  158TMC2    C2 2404   4.299   3.177  13.808 -0.1847 -0.4314  0.2536
  158TMC2    C3 2405   4.326   3.183  13.671  0.9255 -0.5945 -0.3975
  158TMC2    C4 2406   4.084   3.074  13.766 -0.3710 -0.0192 -0.6554
  158TMC2    C5 2407   4.116   3.090  13.627 -0.2021 -0.3324  0.3159
  158TMC2    C6 2408   4.234   3.143  13.579 -0.6532 -0.0717  0.4543
  158TMC2     C 2409   4.157   3.115  13.995 -1.0578 -0.0017  0.4569
  158TMC2     O 2410   4.210   3.191  14.073 -0.6002  0.6090  0.4031
  158TMC2     H 2411   4.371   3.216  13.880 -1.2300  2.2463 -0.1498
  158TMC2    H1 2412   3.986   3.041  13.799 -0.3191  1.2418  0.7545
  158TMC2    H2 2413   4.240   3.161  13.472 -2.0235 -1.7375  0.1015
  158TMC2    C7 2414   4.022   3.045  13.525 -0.7685  0.8319  0.0021
  158TMC2    C8 2415   4.458   3.215  13.634  0.0030  0.0389  0.3363
  158TMC2    O1 2416   4.039   3.088  13.413 -0.1186  0.4802 -0.1934
  158TMC2    O2 2417   4.546   3.237  13.717  0.4328 -0.0689  0.2795
  158TMC2    O5 2418   4.478   3.187  13.501 -0.4469 -0.0625  0.2397
  158TMC2    H5 2419   4.405   3.192  13.436  0.0270  1.5137 -0.1777
  159MPD2     C 2420   4.056   2.873  14.425 -0.2697  0.4001  0.7853
  159MPD2    C1 2421   4.075   2.781  14.329 -0.4871  0.3388  0.4538
  159MPD2    C2 2422   4.079   2.817  14.198  0.0045  0.5254  0.0578
  159MPD2    C3 2423   4.076   2.950  14.168  0.2006  0.1518  0.4951
  159MPD2    C4 2424   4.071   3.042  14.268  0.3880 -0.3466 -0.4280
  159MPD2    C5 2425   4.058   3.009  14.400 -0.0887  0.1158 -0.2041
  159MPD2     H 2426   4.113   2.747  14.123 -1.3150  0.9567 -0.9460
  159MPD2    H1 2427   4.068   3.150  14.259  0.5030 -0.2142  1.0762
  159MPD2    H2 2428   4.048   2.840  14.528  1.0300  1.3229  1.1759
  159MPD2    H3 2429   4.041   3.093  14.468  0.5692 -1.0467  1.3931
  159MPD2     N 2430   4.095   2.994  14.029 -0.1487 -0.3036 -0.3079
  159MPD2    H5 2431   4.080   2.924  13.957 -0.3070  1.1078 -1.6453
  159MPD2    N1 2432   4.073   2.641  14.371  0.1768 -0.3091 -0.2116
  159MPD2    H7 2433   4.056   2.626  14.470 -0.2764 -0.6859 -0.3462
  160TMC2    C1 2434   2.461   0.633   0.971  0.9296  0.4502 -0.3041
  160TMC2    C2 2435   2.418   0.517   0.912  0.1108  0.0679 -0.5065
  160TMC2    C3 2436   2.512   0.423   0.878 -0.1292  0.2521 -0.0626
  160TMC2    C4 2437   2.594   0.661   0.996  0.7896  0.0575  0.9020
  160TMC2    C5 2438   2.684   0.560   0.965  0.3057  0.1622  0.3916
  160TMC2    C6 2439   2.645   0.445   0.894 -0.6669  0.4534 -0.5152
  160TMC2     C 2440   2.351   0.710   1.035 -0.0087 -0.4757 -0.6246
  160TMC2     O 2441   2.238   0.663   1.025 -0.7154  0.2242 -0.1635
  160TMC2     H 2442   2.313   0.492   0.906  0.8244 -3.0544  0.2359
  160TMC2    H1 2443   2.631   0.741   1.058  3.3343 -0.4096 -0.0412
  160TMC2    H2 2444   2.728   0.378   0.872 -1.8414 -0.6638 -1.5009
  160TMC2    C7 2445   2.825   0.575   0.973 -0.2834 -0.0375 -1.0590
  160TMC2    C8 2446   2.473   0.291   0.845  0.1249 -0.9402  0.8160
  160TMC2    O1 2447   2.891   0.472   0.987 -0.5896 -0.1611  0.3311
  160TMC2    O2 2448   2.383   0.266   0.770 -0.7885  0.1125 -0.1999
  160TMC2    O5 2449   2.480   0.231   0.968 -0.4204  0.0068  0.5860
  160TMC2    H5 2450   2.508   0.294   1.038 -2.3693  2.2137 -0.5972
  161MPD2     C 2451   2.234   0.881   1.237 -1.1039  0.0424 -0.1661
  161MPD2    C1 2452   2.330   0.924   1.147 -1.2336 -0.1552  1.4655
  161MPD2    C2 2453   2.362   1.058   1.144 -0.0840  0.0715 -1.0921
  161MPD2    C3 2454   2.288   1.143   1.216 -0.1000 -0.2943  0.1403
  161MPD2    C4 2455   2.189   1.099   1.307  0.7802  0.7373 -0.7067
  161MPD2    C5 2456   2.162   0.968   1.313  0.4283  0.3069  0.2051
  161MPD2     H 2457   2.450   1.090   1.090  0.5744 -1.3117 -0.8220
  161MPD2    H1 2458   2.135   1.168   1.371  0.7795 -0.0713  0.1678
  161MPD2    H2 2459   2.210   0.776   1.251  0.7432  0.0554  2.8882
  161MPD2    H3 2460   2.079   0.924   1.366  0.1721  2.0904  1.2842
  161MPD2     N 2461   2.320   1.279   1.212  0.4741 -0.2557 -0.2011
  161MPD2    H5 2462   2.258   1.341   1.262 -0.0116  0.0481 -1.1845
  161MPD2    N1 2463   2.402   0.832   1.065  0.0875  0.6730  0.4889
  161MPD2    H7 2464   2.488   0.871   1.030 -0.7392  2.5001  0.5181
  162TMC2    C1 2465   0.573   2.989   0.475 -0.8619 -0.5859  0.6021
  162TMC2    C2 2466   0.466   3.003   0.399 -0.9762  0.1316 -0.0844
  162TMC2    C3 2467   0.342   2.976   0.454  0.0254 -0.0089 -0.2548
  162TMC2    C4 2468   0.557   2.930   0.599 -0.6148 -0.1397 -0.6702
  162TMC2    C5 2469   0.432   2.904   0.646 -0.1836 -0.0842 -0.1230
  162TMC2    C6 2470   0.320   2.934   0.584  0.3167  0.2175  0.1544
  162TMC2     C 2471   0.709   2.997   0.426  0.2961  0.1100  0.4358
  162TMC2     O 2472   0.794   2.925   0.487  0.3844 -0.1421  0.0998
  162TMC2     H 2473   0.467   3.047   0.300  1.5542 -0.9567 -0.5462
  162TMC2    H1 2474   0.642   2.899   0.659 -0.4624  0.3603 -0.6266
  162TMC2    H2 2475   0.218   2.923   0.618  0.4853  0.1427  0.6362
  162TMC2    C7 2476   0.411   2.887   0.788  0.4581 -1.0575 -0.1961
  162TMC2    C8 2477   0.229   3.030   0.381 -0.4710  0.8376  0.0684
  162TMC2    O1 2478   0.297   2.885   0.838  0.2300  0.0755  0.6999
  162TMC2    O2 2479   0.251   3.132   0.316  0.7943  0.0001 -0.1726
  162TMC2    O5 2480   0.127   2.944   0.382 -0.3145 -0.0340 -0.6421
  162TMC2    H5 2481   0.144   2.867   0.439 -1.3497  0.8648  0.8838
  163MPD2     C 2482   1.067   3.144   0.090 -0.5313 -0.0198  0.5662
  163MPD2    C1 2483   1.073   3.061   0.197 -0.3807  0.4386  0.4585
  163MPD2    C2 2484   0.959   3.038   0.276 -0.1703 -0.1149 -0.8785
  163MPD2    C3 2485   0.836   3.102   0.242 -0.7074 -0.7631 -0.3276
  163MPD2    C4 2486   0.839   3.192   0.135 -0.6962 -0.5736 -0.1133
  163MPD2    C5 2487   0.945   3.205   0.051 -0.1320 -0.8885 -0.0022
  163MPD2     H 2488   0.963   2.968   0.358  0.8241 -1.7622 -2.3296
  163MPD2    H1 2489   0.749   3.250   0.117  0.5477  1.3754 -0.0536
  163MPD2    H2 2490   1.152   3.157   0.025 -0.0903 -2.5256  0.6386
  163MPD2    H3 2491   0.947   3.269  17.646  2.1006 -1.9525 -0.7322
  163MPD2     N 2492   0.723   3.085   0.315 -0.2226  0.3490 -0.2923
  163MPD2    H5 2493   0.635   3.117   0.275 -1.0625  1.4917  2.5010
  163MPD2    N1 2494   1.200   3.001   0.222  0.3080  0.7779 -0.1227
  163MPD2    H7 2495   1.265   3.025   0.148  0.9702  1.0066  0.5310
  164TCq2    C1 2496   2.181   2.405  10.696  0.7916  0.1358  0.3404
  164TCq2    O2 2497   2.097   2.350  10.762  0.1094  0.0021 -0.5179
  164TCq2    C2 2498   2.218   2.549  10.728 -0.4676  0.7394  0.7596
  164TCq2    C3 2499   2.302   2.615  10.640  0.5274 -0.3473 -0.4882
  164TCq2    C4 2500   2.297   2.751  10.647  0.0735 -0.2662  0.2547
  164TCq2    C5 2501   2.212   2.819  10.734 -0.0359  0.3250  0.3934
  164TCq2    C6 2502   2.135   2.747  10.820  0.5397 -0.6923  0.5172
  164TCq2    C7 2503   2.136   2.610  10.818  0.0007  0.3700 -0.9137
  164TCq2    C8 2504   2.020   2.814  10.878 -0.4550 -0.5903 -0.4016
  164TCq2    O4 2505   1.973   2.909  10.823  0.1645 -0.4338  0.4714
  164TCq2    C9 2506   2.376   2.832  10.555 -0.0761 -0.1019  0.2076
  164TCq2    O5 2507   2.366   2.960  10.572 -0.5511 -0.5943 -0.4848
  164TCq2    O6 2508   2.408   2.779  10.442 -0.3861 -0.4631 -0.0731
  164TCq2    H2 2509   2.363   2.569  10.563  1.0233  1.2201 -1.0188
  164TCq2    H3 2510   2.206   2.926  10.743  1.2260  0.1513  3.3950
  164TCq2    H4 2511   2.051   2.554  10.854  0.8199 -0.6373 -0.5377
  165MPD2     C 2512   3.993   2.837   1.798  0.0592 -0.1050  0.7914
  165MPD2    C1 2513   3.946   2.938   1.712  0.0260  0.2680 -0.3852
  165MPD2    C2 2514   3.998   3.067   1.718 -0.1680  0.8680  0.0409
  165MPD2    C3 2515   4.103   3.092   1.802  0.3956  0.4632 -0.1275
  165MPD2    C4 2516   4.147   2.987   1.885 -0.3343  0.5913  0.3498
  165MPD2    C5 2517   4.097   2.861   1.879 -0.2307 -0.0599  0.3762
  165MPD2     H 2518   3.965   3.142   1.646  0.0128 -0.4983 -1.4584
  165MPD2    H1 2519   4.236   2.996   1.946  0.6050 -1.2403 -0.7622
  165MPD2    H2 2520   3.954   2.736   1.798 -0.7227  0.1984 -0.1960
  165MPD2    H3 2521   4.131   2.779   1.942 -1.3789  0.0267  1.1028
  165MPD2     N 2522   4.163   3.218   1.827  0.2767 -0.3172  0.2194
  165MPD2    H5 2523   4.243   3.225   1.890  0.8052  0.0676 -0.4979
  165MPD2    N1 2524   3.837   2.896   1.627 -0.4026 -0.4025 -0.1211
  165MPD2    H7 2525   3.822   2.795   1.626  1.2055 -0.6587  1.0897
  166TCq2    C1 2526   4.120   3.339   1.772 -0.0578 -0.8164 -0.0420
  166TCq2    O2 2527   4.026   3.365   1.696  0.0487  0.3454  0.1444
  166TCq2    C2 2528   4.206   3.450   1.798  0.5547 -0.3797 -0.9417
  166TCq2    C3 2529   4.322   3.434   1.865  0.2454  0.6494 -0.0208
  166TCq2    C4 2530   4.397   3.545   1.885  0.9784 -0.9924 -0.4595
  166TCq2    C5 2531   4.350   3.672   1.844 -0.5008  0.2834 -0.5938
  166TCq2    C6 2532   4.233   3.684   1.771  0.1576  0.1143 -0.3673
  166TCq2    C7 2533   4.160   3.569   1.740  0.0371 -0.5988 -0.6578
  166TCq2    C8 2534   4.166   3.817   1.761  0.1403  0.1662  0.5608
  166TCq2    O4 2535   4.215   3.908   1.825  0.7759 -0.0588 -0.2200
  166TCq2    C9 2536   4.523   3.527   1.958 -0.2676 -0.4556  0.1509
  166TCq2    O5 2537   4.601   3.628   1.959 -0.1097 -0.3363  0.0208
  166TCq2    O6 2538   4.512   3.441   2.053  0.2250 -0.1774 -0.5679
  166TCq2    H2 2539   4.367   3.339   1.890  0.5006  0.7696 -0.0210
  166TCq2    H3 2540   4.413   3.760   1.857 -0.3911 -0.2440  2.6012
  166TCq2    H4 2541   4.058   3.577   1.704 -0.9587 -1.2855  2.0338
  167TMC2    C1 2542   1.132   2.262  12.696 -0.7480 -0.2869  0.1596
  167TMC2    C2 2543   1.011   2.199  12.681  0.4859  0.0874  0.4280
  167TMC2    C3 2544   1.011   2.067  12.660  0.0221  0.2639  0.2847
  167TMC2    C4 2545   1.250   2.195  12.675  1.2876 -0.0614 -0.1774
  167TMC2    C5 2546   1.239   2.065  12.635  0.1583  0.2686  1.3535
  167TMC2    C6 2547   1.124   1.996  12.637  0.3981 -0.3401  0.4072
  167TMC2     C 2548   1.130   2.401  12.725 -0.5204  0.1304 -0.5572
  167TMC2     O 2549   1.025   2.439  12.786  0.3437 -0.6389 -0.1720
  167TMC2     H 2550   0.924   2.254  12.715  0.0311  0.8063 -1.8817
  167TMC2    H1 2551   1.348   2.242  12.685  0.8985  0.5607  0.7627
  167TMC2    H2 2552   1.118   1.890  12.616  0.8444 -0.2210 -0.3435
  167TMC2    C7 2553   1.361   1.989  12.650  0.0379  0.6501  0.5657
  167TMC2    C8 2554   0.883   2.016  12.646 -0.5254  0.0147  0.6292
  167TMC2    O1 2555   1.348   1.874  12.696  0.1076  0.0442 -0.1933
  167TMC2    O2 2556   0.791   2.081  12.601 -0.2381 -0.1136 -0.0176
  167TMC2    O5 2557   0.890   1.878  12.632 -0.2635  0.2771  0.4708
  167TMC2    H5 2558   0.951   1.831  12.693 -2.6820  0.1832  2.8069
  168MPD2     C 2559   1.098   2.697  12.643 -0.2876 -0.1600  0.4799
  168MPD2    C1 2560   1.199   2.610  12.609  0.1241  0.2321 -0.0984
  168MPD2    C2 2561   1.289   2.653  12.517 -0.6589  0.4526  0.1844
  168MPD2    C3 2562   1.279   2.777  12.448  0.1049  0.6824  0.1484
  168MPD2    C4 2563   1.176   2.860  12.488  0.4165  0.0041 -0.0483
  168MPD2    C5 2564   1.085   2.814  12.575 -0.1739 -0.7459  0.8428
  168MPD2     H 2565   1.369   2.583  12.493 -0.8680 -0.4499  2.0631
  168MPD2    H1 2566   1.166   2.963  12.456  2.2786  0.3134  0.3483
  168MPD2    H2 2567   1.025   2.669  12.717 -2.0414  0.7908 -0.9041
  168MPD2    H3 2568   1.005   2.880  12.608 -0.1744  0.6607 -2.0197
  168MPD2     N 2569   1.376   2.794  12.347 -0.4005  0.3435  0.1063
  168MPD2    H5 2570   1.448   2.723  12.346  0.0246  0.7662  1.6950
  168MPD2    N1 2571   1.216   2.475  12.654  0.1742  0.0817 -0.1672
  168MPD2    H7 2572   1.297   2.427  12.617 -0.3950 -2.6446  2.0813
  169MPD1     C 2573   4.646   0.948   9.327 -0.2951  0.6486 -0.3403
  169MPD1    C1 2574   4.521   0.979   9.378 -0.3571 -0.3881 -0.2985
  169MPD1    C2 2575   4.477   1.109   9.369  0.2571 -0.2886  0.7508
  169MPD1    C3 2576   4.564   1.212   9.336 -0.4829 -0.0418 -0.2425
  169MPD1    C4 2577   4.686   1.174   9.290  0.1400  0.1769  0.6055
  169MPD1    C5 2578   0.008   1.047   9.277 -0.0983 -0.6265  0.3915
  169MPD1     H 2579   4.376   1.124   9.405  0.2833  2.4626 -0.3380
  169MPD1    H1 2580   0.043   1.248   9.276  0.7471 -0.4627  0.5523
  169MPD1    H2 2581   4.675   0.845   9.305  0.8308  0.7429  0.7289
  169MPD1    H3 2582   0.104   1.028   9.230 -0.0874 -0.2889  0.2761
  169MPD1     N 2583   4.526   1.347   9.352  0.1525 -0.2974  0.0600
  169MPD1    H5 2584   4.438   1.368   9.398  0.3499  1.4817 -0.3926
  169MPD1    N1 2585   4.423   0.879   9.408 -0.0983 -0.5368 -0.2929
  169MPD1    H6 2586   4.340   0.910   9.457  0.6311  1.1869 -0.1575
  169MPD1    H7 2587   4.468   0.811   9.470 -0.9217 -2.6267 -1.9817
  170MPD1     C 2588   1.502   0.100  12.858 -0.3107 -0.0203  0.4203
  170MPD1    C1 2589   1.521   0.120  12.996 -0.4067 -0.1122 -0.0433
  170MPD1    C2 2590   1.644   0.161  13.033 -0.1277 -0.5285 -0.9374
  170MPD1    C3 2591   1.745   0.188  12.951  0.5844  0.4359  0.1788
  170MPD1    C4 2592   1.719   0.185  12.813 -0.0406 -0.3495 -0.1125
  170MPD1    C5 2593   1.603   0.135  12.770 -0.3392  0.2837 -0.4321
  170MPD1     H 2594   1.677   0.163  13.137  1.1761 -0.8689 -1.3503
  170MPD1    H1 2595   1.801   0.200  12.743  0.3862 -0.7848  0.2925
  170MPD1    H2 2596   1.409   0.062  12.816  0.6657 -1.0785 -0.7753
  170MPD1    H3 2597   1.591   0.109  12.666 -0.1101  2.0033 -0.8980
  170MPD1     N 2598   1.877   0.225  13.008 -0.6240  0.2849 -0.1203
  170MPD1    H5 2599   1.884   0.204  13.107 -1.6677 -2.4512 -0.6203
  170MPD1    N1 2600   1.428   0.067  13.086 -0.6965 -0.3481 -0.2266
  170MPD1    H6 2601   1.464   0.095  13.177 -2.1206 -1.1583  0.5729
  170MPD1    H7 2602   1.338   0.110  13.068 -1.7259 -1.3056  2.7319
  171MPD1     C 2603   0.667   1.380  15.415 -0.3616  0.2706  0.4054
  171MPD1    C1 2604   0.648   1.245  15.392 -0.1111  0.0388 -0.1771
  171MPD1    C2 2605   0.746   1.164  15.454 -0.0488  0.3795 -0.3028
  171MPD1    C3 2606   0.847   1.203  15.541 -0.5597  0.1116 -0.4597
  171MPD1    C4 2607   0.863   1.335  15.552 -0.6459 -0.6571  0.1891
  171MPD1    C5 2608   0.777   1.420  15.493 -0.2980 -0.1987 -0.1475
  171MPD1     H 2609   0.728   1.057  15.442 -0.4218  0.5139 -0.9502
  171MPD1    H1 2610   0.933   1.378  15.623  0.8779  1.1336 -2.4152
  171MPD1    H2 2611   0.605   1.457  15.370 -0.4146  0.4332  0.7599
  171MPD1    H3 2612   0.791   1.526  15.511  0.1821 -0.0422 -1.3673
  171MPD1     N 2613   0.941   1.117  15.601  0.3187  0.0313  0.1995
  171MPD1    H5 2614   1.013   1.166  15.652  1.5651 -0.9760 -0.5878
  171MPD1    N1 2615   0.531   1.192  15.342  0.0295 -0.1777 -0.3598
  171MPD1    H6 2616   0.496   1.264  15.279  1.1528 -1.3189 -2.2846
  171MPD1    H7 2617   0.546   1.105  15.291  0.9989 -0.1927 -0.0401
  172MPD1     C 2618   4.549   0.426   0.680  0.0841 -0.0476  0.1707
  172MPD1    C1 2619   4.465   0.504   0.604 -0.7474 -0.6185 -0.0876
  172MPD1    C2 2620   4.508   0.541   0.477  0.3901  0.0781  0.2051
  172MPD1    C3 2621   4.631   0.498   0.423  0.1320 -0.4045  0.2130
  172MPD1    C4 2622   4.703   0.409   0.501  0.9937  0.3992  0.4863
  172MPD1    C5 2623   4.665   0.376   0.629  1.4510 -0.4904  0.3078
  172MPD1     H 2624   4.447   0.601   0.410  2.1267  1.6614  0.0258
  172MPD1    H1 2625   0.086   0.381   0.479  0.8918 -0.5951  1.2510
  172MPD1    H2 2626   4.529   0.392   0.781  0.8965 -1.7652 -0.2398
  172MPD1    H3 2627   0.002   0.306   0.690 -1.7295 -0.5584  3.1501
  172MPD1     N 2628   4.682   0.538   0.296 -0.5232 -0.3035  0.7450
  172MPD1    H5 2629   0.054   0.499   0.278 -0.6609 -0.6337  0.7572
  172MPD1    N1 2630   4.331   0.523   0.658  0.3640  0.6963  0.3176
  172MPD1    H6 2631   4.313   0.514   0.757 -0.2835 -0.9237  0.0444
  172MPD1    H7 2632   4.284   0.602   0.615 -0.5046  0.2667  0.4871
  173MPD1     C 2633   1.157   0.882  14.994 -0.5763 -0.0437 -0.4966
  173MPD1    C1 2634   1.143   0.792  15.097 -0.5218  0.7198  0.2051
  173MPD1    C2 2635   1.114   0.663  15.058  0.4850  0.1258 -0.5488
  173MPD1    C3 2636   1.098   0.618  14.925  0.2837  0.6408  0.0739
  173MPD1    C4 2637   1.112   0.715  14.825  0.5437  0.8424  0.0630
  173MPD1    C5 2638   1.147   0.843  14.862  0.1715 -0.5027  0.5028
  173MPD1     H 2639   1.105   0.587  15.135 -1.7870  2.0196  1.0492
  173MPD1    H1 2640   1.094   0.699  14.720  0.9415 -2.6552  0.5162
  173MPD1    H2 2641   1.170   0.986  15.020 -0.4367 -0.3832  0.7817
  173MPD1    H3 2642   1.156   0.921  14.787 -0.6500  0.9379  1.8981
  173MPD1     N 2643   1.068   0.484  14.911  0.0102  0.2840 -0.4221
  173MPD1    H5 2644   1.070   0.439  15.002  0.1790  0.6356 -0.2530
  173MPD1    N1 2645   1.134   0.828  15.227  0.1266 -0.3006 -0.1666
  173MPD1    H6 2646   1.156   0.755  15.294 -0.0144 -1.3370 -1.2524
  173MPD1    H7 2647   1.188   0.911  15.253 -0.2887 -0.2519  0.5407
  174MPD1     C 2648   1.430   0.094  14.134  0.1294  0.6985  0.8160
  174MPD1    C1 2649   1.403   4.696  14.205 -0.1881 -0.4586  0.7504
  174MPD1    C2 2650   1.312   4.701  14.310  0.7507 -0.4869  0.0999
  174MPD1    C3 2651   1.269   0.105  14.363  0.0038 -0.7328  0.0252
  174MPD1    C4 2652   1.308   0.217  14.294 -0.6482 -0.5040 -0.6401
  174MPD1    C5 2653   1.381   0.211  14.179  0.2037 -0.2840  0.0700
  174MPD1     H 2654   1.265   4.612  14.350 -0.3731  0.9248  1.9235
  174MPD1    H1 2655   1.275   0.309  14.340 -0.0507 -0.1921 -0.8475
  174MPD1    H2 2656   1.490   0.088  14.044 -1.2257  2.1534 -0.1723
  174MPD1    H3 2657   1.406   0.294  14.113  3.4892 -2.4899 -1.3906
  174MPD1     N 2658   1.184   0.117  14.479 -0.0059 -0.6087  0.4397
  174MPD1    H5 2659   1.157   0.213  14.494  1.9351  0.0500 -0.2107
  174MPD1    N1 2660   1.439   4.578  14.150  0.1898  0.2717  0.3434
  174MPD1    H6 2661   1.539   4.577  14.129 -0.2910  0.4974 -1.9992
  174MPD1    H7 2662   1.431   4.507  14.223  0.5707 -0.7425 -0.6063
  175MPD1     C 2663   4.587   1.411  15.695  0.2589 -0.6815  1.0041
  175MPD1    C1 2664   4.463   1.437  15.743  0.0285  0.2839 -0.2855
  175MPD1    C2 2665   4.422   1.377  15.859 -0.2633  0.3119  0.6476
  175MPD1    C3 2666   4.500   1.288  15.927  0.3143 -0.4246  0.6220
  175MPD1    C4 2667   4.624   1.264  15.883 -0.2278  0.3104 -0.4457
  175MPD1    C5 2668   4.668   1.330  15.775  0.0898 -0.3400  0.5386
  175MPD1     H 2669   4.321   1.385  15.897 -1.0015 -0.8056 -1.0973
  175MPD1    H1 2670   4.700   1.208  15.936 -0.3905  0.8182  0.3262
  175MPD1    H2 2671   4.613   1.446  15.596  0.6291  0.2722  1.4384
  175MPD1    H3 2672   0.053   1.313  15.749  0.0618  0.1640  0.0823
  175MPD1     N 2673   4.462   1.218  16.043  0.1996 -0.3471  0.3145
  175MPD1    H5 2674   4.526   1.147  16.076 -0.4981 -1.5090 -0.8189
  175MPD1    N1 2675   4.370   1.509  15.665 -0.2050  0.1356  0.0848
  175MPD1    H6 2676   4.299   1.539  15.731 -1.9050 -3.1037 -0.2595
  175MPD1    H7 2677   4.400   1.587  15.607 -1.4767 -0.4084 -1.2873
  176MPD1     C 2678   1.877   3.636  17.356 -0.6550  0.2232 -0.2273
  176MPD1    C1 2679   1.771   3.695  17.294 -0.6840 -0.5226  0.4525
  176MPD1    C2 2680   1.679   3.610  17.242 -0.6148 -0.0721 -0.0005
  176MPD1    C3 2681   1.703   3.478  17.225  0.0681 -0.7299 -0.0047
  176MPD1    C4 2682   1.795   3.421  17.303  0.4701  0.4707  1.0096
  176MPD1    C5 2683   1.890   3.503  17.360 -0.0094  0.4978  0.3058
  176MPD1     H 2684   1.588   3.650  17.198  0.0684  1.8350  0.3243
  176MPD1    H1 2685   1.807   3.315  17.320  3.2892  0.2894 -2.2867
  176MPD1    H2 2686   1.961   3.694  17.391  1.1270 -1.7856 -1.1858
  176MPD1    H3 2687   1.967   3.464  17.426  0.0755  3.1289  1.7349
  176MPD1     N 2688   1.617   3.400  17.145 -0.5456  0.1847 -0.3883
  176MPD1    H5 2689   1.547   3.453  17.094 -0.5549  0.6042  0.0687
  176MPD1    N1 2690   1.757   3.833  17.308 -0.2318  0.2915 -0.0182
  176MPD1    H6 2691   1.833   3.880  17.358  1.2305 -3.9443  1.7055
  176MPD1    H7 2692   1.670   3.851  17.358  0.4767 -0.7607  1.6094
  177MPD1     C 2693   0.470   2.924  10.336 -0.3837  0.2716 -0.3545
  177MPD1    C1 2694   0.415   3.046  10.377  0.5011 -0.0718 -0.5824
  177MPD1    C2 2695   0.335   3.104  10.278  0.2003 -0.1721 -0.0336
  177MPD1    C3 2696   0.296   3.037  10.165  0.6017 -0.7540  0.6836
  177MPD1    C4 2697   0.333   2.911  10.139  0.4838 -0.2360  0.0769
  177MPD1    C5 2698   0.434   2.857  10.217  0.2228  0.1564 -0.1790
  177MPD1     H 2699   0.286   3.200  10.294  0.9400  0.8010 -3.4756
  177MPD1    H1 2700   0.319   2.865  10.042 -0.5706  0.8880 -0.3013
  177MPD1    H2 2701   0.545   2.875  10.397  0.7522 -0.4793 -2.3538
  177MPD1    H3 2702   0.479   2.762  10.191  1.0355  0.5838 -0.3596
  177MPD1     N 2703   0.218   3.108  10.077 -0.7585 -0.1636 -0.3479
  177MPD1    H5 2704   0.209   3.206  10.100 -0.6766 -0.6172  1.6349
  177MPD1    N1 2705   0.463   3.108  10.496  0.3349  0.3848 -0.1984
  177MPD1    H6 2706   0.497   3.043  10.567  0.6388  0.9890  0.2074
  177MPD1    H7 2707   0.392   3.159  10.548 -0.3182  2.2238 -2.8609
  178MPD1     C 2708   2.243   3.729   0.506  0.4715 -0.5834 -0.4000
  178MPD1    C1 2709   2.253   3.866   0.501  0.1312  0.0903 -0.1353
  178MPD1    C2 2710   2.270   3.926   0.377 -1.0721 -0.4415  0.6433
  178MPD1    C3 2711   2.301   3.860   0.263 -0.4309 -0.4516  0.6313
  178MPD1    C4 2712   2.290   3.729   0.269  0.6240  0.2665  0.4452
  178MPD1    C5 2713   2.262   3.665   0.389  0.6797  0.0934  0.2437
  178MPD1     H 2714   2.271   4.034   0.368 -0.8925 -0.5663 -0.9294
  178MPD1    H1 2715   2.309   3.663   0.185  0.3585 -1.8880  2.0814
  178MPD1    H2 2716   2.211   3.675   0.594  1.9867 -0.4153  0.2605
  178MPD1    H3 2717   2.238   3.560   0.406  2.8320 -0.4095  0.1978
  178MPD1     N 2718   2.356   3.921   0.148  0.2887  0.5428 -1.0633
  178MPD1    H5 2719   2.365   3.855   0.072  3.0020 -0.2808 -0.0239
  178MPD1    N1 2720   2.202   3.946   0.609 -0.2279 -0.0259  0.1400
  178MPD1    H6 2721   2.242   4.039   0.612  1.5381 -0.6903 -3.1034
  178MPD1    H7 2722   2.231   3.897   0.694  2.3896  3.0179  0.9955
  179MPD1     C 2723   1.782   2.454  15.710  0.2122 -0.1319 -0.1022
  179MPD1    C1 2724   1.678   2.365  15.682  0.5762 -0.5120 -0.7877
  179MPD1    C2 2725   1.712   2.237  15.637 -0.1087  0.1436 -0.0611
  179MPD1    C3 2726   1.845   2.200  15.631  0.1250  0.6813 -0.9357
  179MPD1    C4 2727   1.942   2.285  15.675  0.4655 -0.1031  0.6426
  179MPD1    C5 2728   1.912   2.417  15.719 -0.0658  0.1884  0.3795
  179MPD1     H 2729   1.636   2.160  15.627 -1.7609  1.8019 -0.2013
  179MPD1    H1 2730   2.043   2.246  15.669  0.7098  0.7192 -0.5347
  179MPD1    H2 2731   1.757   2.551  15.749 -0.7744 -1.2139  1.9314
  179MPD1    H3 2732   1.986   2.492  15.743  1.0052 -1.1936  1.3683
  179MPD1     N 2733   1.881   2.071  15.602  0.4322  0.0053 -0.1505
  179MPD1    H5 2734   1.980   2.047  15.612  0.2082 -1.0123 -0.3601
  179MPD1    N1 2735   1.541   2.404  15.692 -0.3340  0.0057  0.5326
  179MPD1    H6 2736   1.484   2.322  15.709 -1.1060  0.4883  0.2775
  179MPD1    H7 2737   1.523   2.476  15.762 -1.9337 -1.5096  1.6559
  180MPD1     C 2738   2.375   3.719  15.514  0.6618 -0.4025 -0.2131
  180MPD1    C1 2739   2.379   3.818  15.418 -0.2673  0.4097 -0.2109
  180MPD1    C2 2740   2.275   3.823  15.327  0.6224  0.8235 -0.3927
  180MPD1    C3 2741   2.190   3.716  15.317  0.0592  0.3158 -0.6578
  180MPD1    C4 2742   2.193   3.614  15.410 -0.1138 -0.2872 -0.0866
  180MPD1    C5 2743   2.290   3.616  15.508 -0.2927  1.2182  0.4509
  180MPD1     H 2744   2.266   3.904  15.255 -0.5701  0.1028 -1.0647
  180MPD1    H1 2745   2.122   3.532  15.410 -1.2360  0.6960 -0.9161
  180MPD1    H2 2746   2.440   3.716  15.601 -0.6098  0.8384  0.7840
  180MPD1    H3 2747   2.289   3.535  15.580 -0.9552  0.8513  0.0276
  180MPD1     N 2748   2.091   3.716  15.211  0.4158  0.1704  0.0478
  180MPD1    H5 2749   2.083   3.805  15.162 -1.2990 -0.0378 -0.0774
  180MPD1    N1 2750   2.472   3.924  15.445  0.4374  0.6023  0.0535
  180MPD1    H6 2751   2.489   3.988  15.368  0.6136  3.9214  2.8237
  180MPD1    H7 2752   2.560   3.887  15.479  1.5434  1.9084 -1.4033
  181MPD1     C 2753   3.331   0.201   9.522  0.7229 -0.4128  0.4610
  181MPD1    C1 2754   3.300   0.336   9.532  0.3926 -0.6119 -0.6230
  181MPD1    C2 2755   3.348   0.420   9.629  0.3560 -1.2330 -0.1766
  181MPD1    C3 2756   3.408   0.366   9.739 -0.5281  0.1314 -0.4577
  181MPD1    C4 2757   3.437   0.231   9.734  0.1512  0.1624 -0.5457
  181MPD1    C5 2758   3.397   0.151   9.630  0.2517  0.6443  0.5161
  181MPD1     H 2759   3.332   0.527   9.623 -0.0690 -1.2683  0.3558
  181MPD1    H1 2760   3.491   0.179   9.812 -4.6544 -2.9337  0.7435
  181MPD1    H2 2761   3.294   0.132   9.447  1.0677  2.3920 -2.2850
  181MPD1    H3 2762   3.409   0.043   9.624  1.0723  0.7939 -0.4978
  181MPD1     N 2763   3.468   0.439   9.843 -0.6013  0.3589 -0.2366
  181MPD1    H5 2764   3.518   0.379   9.908  0.4407  1.8232  0.3032
  181MPD1    N1 2765   3.217   0.389   9.429  0.7091 -0.4041 -0.8589
  181MPD1    H6 2766   3.129   0.339   9.425 -0.5462  1.6702  1.1000
  181MPD1    H7 2767   3.193   0.486   9.446  0.5611 -0.4623 -0.7337
  182MPD1     C 2768   4.044   3.276   1.388  0.1246  0.6997  0.0138
  182MPD1    C1 2769   4.141   3.369   1.340 -0.4941  0.0915 -0.1592
  182MPD1    C2 2770   4.127   3.419   1.204  0.0901  0.1884 -0.7541
  182MPD1    C3 2771   4.023   3.375   1.124  0.0983 -0.3256  0.8215
  182MPD1    C4 2772   3.933   3.283   1.173  0.5734 -1.0346  0.1703
  182MPD1    C5 2773   3.945   3.238   1.304  0.5906 -0.4877  0.0733
  182MPD1     H 2774   4.195   3.494   1.166 -1.1237  1.2961 -0.7203
  182MPD1    H1 2775   3.845   3.252   1.118  0.2016  1.4805 -0.6614
  182MPD1    H2 2776   4.055   3.224   1.483  0.1568 -0.9948 -0.9127
  182MPD1    H3 2777   3.858   3.185   1.341  0.8834 -2.0319 -1.3888
  182MPD1     N 2778   4.016   3.411   0.993  0.1352  0.2685  0.0446
  182MPD1    H5 2779   3.933   3.369   0.952  1.5410 -1.6055 -0.8626
  182MPD1    N1 2780   4.243   3.411   1.421 -0.0381 -0.1951 -0.1425
  182MPD1    H6 2781   4.331   3.412   1.369  0.0815  1.1883  0.0764
  182MPD1    H7 2782   4.252   3.349   1.501 -1.6153 -1.2960 -0.8164
  183MPD1     C 2783   1.235   0.461   9.816  0.1919 -0.1102 -0.1015
  183MPD1    C1 2784   1.172   0.396   9.916 -0.1181 -0.0184 -0.3741
  183MPD1    C2 2785   1.038   0.438   9.933  1.2044 -0.4118 -0.2625
  183MPD1    C3 2786   0.981   0.543   9.876 -0.5554 -0.7225  0.0935
  183MPD1    C4 2787   1.059   0.611   9.783  0.5995  0.3172 -0.1750
  183MPD1    C5 2788   1.184   0.574   9.764  0.4038 -0.8549 -0.2089
  183MPD1     H 2789   0.982   0.372   9.998  0.1697 -0.9891 -1.7504
  183MPD1    H1 2790   1.021   0.702   9.738 -2.2527 -0.7704  0.0068
  183MPD1    H2 2791   1.337   0.440   9.785  0.7183 -2.1221  2.9374
  183MPD1    H3 2792   1.246   0.637   9.701 -0.8107  1.0322  0.4954
  183MPD1     N 2793   0.851   0.581   9.908 -0.4948  0.5076 -0.1315
  183MPD1    H5 2794   0.799   0.513   9.963  0.9605  0.4861  1.2225
  183MPD1    N1 2795   1.223   0.275   9.968  0.3805 -0.3820  0.0831
  183MPD1    H6 2796   1.325   0.272   9.971  0.3769  2.0720  2.5607
  183MPD1    H7 2797   1.194   0.247  10.062 -3.1986 -1.6970 -1.4200
  184MPD1     C 2798   3.841   2.671  10.031 -0.4826 -0.3721 -0.1023
  184MPD1    C1 2799   3.844   2.618   9.910 -0.3692 -0.7452 -0.0149
  184MPD1    C2 2800   3.947   2.644   9.823  0.5358 -1.0865 -0.1968
  184MPD1    C3 2801   4.026   2.756   9.843  0.2727  0.3650  0.3697
  184MPD1    C4 2802   4.011   2.829   9.959 -0.5578 -0.3846  0.0211
  184MPD1    C5 2803   3.929   2.776  10.059 -0.0114 -0.3613  0.2401
  184MPD1     H 2804   3.964   2.579   9.738 -0.1180 -2.4478  0.7191
  184MPD1    H1 2805   4.070   2.919   9.974  0.8777 -1.7160  2.3885
  184MPD1    H2 2806   3.770   2.639  10.107 -1.8754  0.7098 -0.9505
  184MPD1    H3 2807   3.933   2.831  10.153 -1.1444  2.7096 -1.4905
  184MPD1     N 2808   4.111   2.805   9.740 -1.0409 -0.1848 -0.6150
  184MPD1    H5 2809   4.158   2.893   9.760 -2.5349 -0.0540  2.4223
  184MPD1    N1 2810   3.772   2.495   9.886  0.1362 -0.2759  0.4186
  184MPD1    H6 2811   3.763   2.476   9.787 -0.0771 -1.3518  0.6416
  184MPD1    H7 2812   3.678   2.490   9.926  0.2778  1.8249  1.0310
  185MPD1     C 2813   4.472   2.408   8.896 -0.7164  0.2524  0.0561
  185MPD1    C1 2814   4.524   2.535   8.897 -0.4773 -0.3226  0.0889
  185MPD1    C2 2815   4.462   2.626   8.985 -0.6580 -0.5900 -0.1105
  185MPD1    C3 2816   4.344   2.598   9.052  0.9672  0.1847  0.0169
  185MPD1    C4 2817   4.300   2.472   9.056  0.7160  0.6018  0.1224
  185MPD1    C5 2818   4.367   2.378   8.980 -0.0235 -0.0887 -0.3966
  185MPD1     H 2819   4.502   2.726   8.997  2.0578 -1.9548  2.2445
  185MPD1    H1 2820   4.231   2.448   9.137  1.3330 -0.0339  0.4586
  185MPD1    H2 2821   4.513   2.333   8.830 -0.3645 -0.6874  1.3428
  185MPD1    H3 2822   4.334   2.275   8.989 -1.7781  0.4451 -0.6064
  185MPD1     N 2823   4.290   2.678   9.158 -0.1063 -0.5835  0.0063
  185MPD1    H5 2824   4.237   2.625   9.226 -0.1938  1.4226  1.4885
  185MPD1    N1 2825   4.649   2.562   8.835 -0.3409 -1.1197 -0.3596
  185MPD1    H6 2826   4.644   2.657   8.799  1.9978 -0.4273  1.1507
  185MPD1    H7 2827   4.671   2.508   8.751 -2.0818 -1.6196 -0.4877
  186MPD1     C 2828   2.482   1.844  16.047 -0.4731 -0.7118 -0.5218
  186MPD1    C1 2829   2.428   1.952  15.983  0.7380  0.5159 -0.2572
  186MPD1    C2 2830   2.461   2.076  16.039  0.1399 -0.0695  0.0865
  186MPD1    C3 2831   2.511   2.089  16.168  0.2282 -0.3567 -0.1552
  186MPD1    C4 2832   2.535   1.969  16.237 -0.1074  0.4407 -0.5049
  186MPD1    C5 2833   2.526   1.851  16.176 -1.0532 -0.2162  0.5290
  186MPD1     H 2834   2.436   2.167  15.986 -1.9863 -1.4592 -1.3121
  186MPD1    H1 2835   2.581   1.965  16.335  1.1065  0.0038 -1.0922
  186MPD1    H2 2836   2.489   1.753  15.989 -0.0357 -0.4270 -0.9168
  186MPD1    H3 2837   2.554   1.761  16.229 -1.2742 -0.0788  0.8834
  186MPD1     N 2838   2.508   2.212  16.247  0.8810  0.8717  0.2366
  186MPD1    H5 2839   2.524   2.206  16.347  0.7042 -1.0012  0.1579
  186MPD1    N1 2840   2.392   1.934  15.854 -0.2693  0.1908 -0.5568
  186MPD1    H6 2841   2.337   1.848  15.844  3.0102 -1.9179 -0.3402
  186MPD1    H7 2842   2.326   2.011  15.838 -0.8375  0.0029  0.9189
  187MPD1     C 2843   2.096   4.195  17.190 -0.1862 -0.0435 -0.4234
  187MPD1    C1 2844   1.995   4.101  17.197  0.3651  0.5946 -0.3595
  187MPD1    C2 2845   1.871   4.152  17.209  0.2092  0.1772 -0.1991
  187MPD1    C3 2846   1.852   4.290  17.236 -0.8094  0.7069 -0.8514
  187MPD1    C4 2847   1.954   4.378  17.231  0.4129 -0.4599 -0.6396
  187MPD1    C5 2848   2.080   4.324  17.200 -0.0883 -0.0481 -0.9446
  187MPD1     H 2849   1.784   4.089  17.200  0.1419  0.5138 -1.9115
  187MPD1    H1 2850   1.948   4.486  17.243  1.9505 -0.0777 -3.3826
  187MPD1    H2 2851   2.196   4.168  17.158 -0.9744  0.7790 -3.5952
  187MPD1    H3 2852   2.167   4.385  17.182  0.6637 -0.8553 -0.0488
  187MPD1     N 2853   1.717   4.340  17.241  0.7432 -0.1383 -0.1356
  187MPD1    H5 2854   1.715   4.441  17.247 -0.4363 -0.1368 -0.5743
  187MPD1    N1 2855   2.013   3.966  17.158 -0.3454  0.3463 -0.5185
  187MPD1    H6 2856   1.940   3.907  17.196 -0.8457  0.7517 -0.8448
  187MPD1    H7 2857   2.104   3.930  17.184 -0.7514  0.1567  0.6533
  188MPD1     C 2858   0.760   0.082  10.229 -0.4819  0.3704 -0.5641
  188MPD1    C1 2859   0.718   4.674  10.266 -0.5033  0.0890 -0.5143
  188MPD1    C2 2860   0.753   4.567  10.182  0.5830  0.3268  0.2731
  188MPD1    C3 2861   0.845   4.579  10.079 -0.1481 -0.1705 -0.1105
  188MPD1    C4 2862   0.889   4.703  10.050  0.0547  0.4329  0.1288
  188MPD1    C5 2863   0.847   0.086  10.126  0.1164  0.1375 -0.1368
  188MPD1     H 2864   0.705   4.471  10.200 -1.5820  1.6017  1.3440
  188MPD1    H1 2865   0.958   0.001   9.969 -0.0086  3.4299  0.7619
  188MPD1    H2 2866   0.723   0.173  10.276 -0.1834  0.1102  0.1620
  188MPD1    H3 2867   0.884   0.185  10.106 -1.0274  0.5927 -0.0112
  188MPD1     N 2868   0.884   4.465  10.004  0.8050 -0.2814  0.4071
  188MPD1    H5 2869   0.935   4.491   9.920 -1.1895  0.6356 -0.5166
  188MPD1    N1 2870   0.611   4.666  10.358  0.2292 -0.2741 -0.2516
  188MPD1    H6 2871   0.593   0.017  10.430 -0.3018  0.5747 -1.2022
  188MPD1    H7 2872   0.522   4.678  10.310  0.1916 -1.4326 -0.4635
  189MPD1     C 2873   2.423   1.052  17.662 -1.4526 -0.7378  0.9278
  189MPD1    C1 2874   2.541   1.038   0.054  0.4826 -0.3274  0.1828
  189MPD1    C2 2875   2.599   0.910   0.059 -0.4290 -0.4450  0.3111
  189MPD1    C3 2876   2.532   0.804   0.001 -0.8258 -0.2769 -0.1432
  189MPD1    C4 2877   2.405   0.819  17.636 -0.5909 -0.3260  0.1384
  189MPD1    C5 2878   2.349   0.940  17.618  0.4696  0.1675  0.0714
  189MPD1     H 2879   2.692   0.891   0.112  0.4048 -2.5668 -1.8980
  189MPD1    H1 2880   2.346   0.732  17.609 -1.5701  0.2913  0.2883
  189MPD1    H2 2881   2.374   1.149  17.659 -2.2019 -1.1403  0.3278
  189MPD1    H3 2882   2.252   0.949  17.571 -0.1695 -0.8465  1.1944
  189MPD1     N 2883   2.585   0.680   0.016 -0.3330  0.4542  0.7180
  189MPD1    H5 2884   2.677   0.678   0.059 -0.6642  2.1504  1.4990
  189MPD1    N1 2885   2.599   1.159   0.103  0.1727 -0.0568  0.1266
  189MPD1    H6 2886   2.645   1.144   0.192 -0.1324 -1.5223  0.0433
  189MPD1    H7 2887   2.527   1.230   0.110  1.2827  1.1835 -1.1837
  190MPD1     C 2888   1.348   3.236  15.809  0.7259  0.5716 -0.7776
  190MPD1    C1 2889   1.406   3.285  15.925  0.6078 -0.4915 -0.2266
  190MPD1    C2 2890   1.545   3.318  15.913  0.2680 -0.0681 -0.1790
  190MPD1    C3 2891   1.619   3.288  15.801 -0.2578 -0.0755  0.5392
  190MPD1    C4 2892   1.554   3.220  15.696  0.5345  0.0217  0.5166
  190MPD1    C5 2893   1.421   3.197  15.698  0.0933  0.5301  0.4839
  190MPD1     H 2894   1.597   3.348  16.004 -1.3192 -0.2506  0.7774
  190MPD1    H1 2895   1.604   3.182  15.607  1.6331  1.1558  0.6562
  190MPD1    H2 2896   1.242   3.214  15.807  0.3258  2.5464 -1.1117
  190MPD1    H3 2897   1.378   3.136  15.619 -0.6283  1.2827  0.2986
  190MPD1     N 2898   1.759   3.316  15.805 -0.8390 -0.5150 -0.2447
  190MPD1    H5 2899   1.791   3.357  15.892 -2.5932 -0.6248  0.4497
  190MPD1    N1 2900   1.326   3.344  16.030  0.3001  0.1352  0.2175
  190MPD1    H6 2901   1.371   3.347  16.122 -0.5252 -1.0616  0.6649
  190MPD1    H7 2902   1.240   3.293  16.048 -0.6515  1.9278  0.6998
  191MPD1     C 2903   1.516   0.472  12.852 -0.3099 -0.4229  0.1922
  191MPD1    C1 2904   1.578   0.520  12.730 -0.4819  0.2539  0.2289
  191MPD1    C2 2905   1.503   0.611  12.658  0.5250 -0.3200  0.4049
  191MPD1    C3 2906   1.374   0.650  12.698  0.2730 -0.2977  0.2735
  191MPD1    C4 2907   1.315   0.596  12.806  0.4299  0.2991  0.2777
  191MPD1    C5 2908   1.386   0.515  12.884 -0.0721  0.0079  0.7360
  191MPD1     H 2909   1.538   0.653  12.565 -2.1636  0.1030 -0.4349
  191MPD1    H1 2910   1.217   0.624  12.842  0.4434  0.7707 -0.0553
  191MPD1    H2 2911   1.562   0.402  12.921  0.8006 -0.6224 -0.7381
  191MPD1    H3 2912   1.338   0.487  12.977 -0.1979 -1.2894  0.2896
  191MPD1     N 2913   1.316   0.751  12.626 -0.1546  0.0979 -0.2074
  191MPD1    H5 2914   1.363   0.787  12.544 -1.1926 -1.2437 -1.3984
  191MPD1    N1 2915   1.700   0.483  12.683 -0.6232  0.3268 -0.2753
  191MPD1    H6 2916   1.706   0.498  12.582 -2.0243  0.9050 -0.2792
  191MPD1    H7 2917   1.713   0.385  12.704  1.6381  0.7986  0.6261
  192MPD1     C 2918   0.414   1.333  12.379 -0.0504  0.1571 -0.9354
  192MPD1    C1 2919   0.447   1.259  12.493 -0.4719  0.5336 -0.4962
  192MPD1    C2 2920   0.569   1.199  12.494  0.3482 -0.0933  0.0342
  192MPD1    C3 2921   0.671   1.230  12.401 -0.0379  0.0382  0.5672
  192MPD1    C4 2922   0.626   1.302  12.293  0.0265 -0.3630 -0.2959
  192MPD1    C5 2923   0.503   1.358  12.280  0.6233  0.3881  0.2868
  192MPD1     H 2924   0.589   1.130  12.575  1.1483 -0.7202 -0.7061
  192MPD1    H1 2925   0.700   1.321  12.216  1.8319 -2.7510  0.8690
  192MPD1    H2 2926   0.311   1.366  12.369 -0.0232  1.3466  2.6761
  192MPD1    H3 2927   0.491   1.433  12.202  1.7661 -0.2260 -0.4700
  192MPD1     N 2928   0.802   1.181  12.410  0.2949  0.3683  0.6299
  192MPD1    H5 2929   0.866   1.202  12.334  0.2017  1.4178  0.8381
  192MPD1    N1 2930   0.347   1.215  12.578 -0.6941 -0.2109 -0.6776
  192MPD1    H6 2931   0.387   1.192  12.669  0.1731 -0.6803 -1.1734
  192MPD1    H7 2932   0.286   1.295  12.593  1.2417  1.2406 -0.6528
  193MPD1     C 2933   0.705   0.780  16.317 -0.2471  1.0725 -0.2097
  193MPD1    C1 2934   0.725   0.877  16.220 -0.7828  0.1529 -0.2392
  193MPD1    C2 2935   0.837   0.955  16.224  0.2067 -1.0254 -0.8757
  193MPD1    C3 2936   0.944   0.913  16.298 -0.4423  0.4266 -0.6148
  193MPD1    C4 2937   0.928   0.800  16.378 -0.2606  0.0199 -0.0224
  193MPD1    C5 2938   0.809   0.742  16.392 -0.2357 -0.1535 -0.4250
  193MPD1     H 2939   0.838   1.050  16.170  0.4436  0.2459  1.3589
  193MPD1    H1 2940   1.022   0.761  16.417 -0.6399  1.5074  2.3707
  193MPD1    H2 2941   0.619   0.715  16.329  1.3717 -0.9890  0.3855
  193MPD1    H3 2942   0.804   0.656  16.458 -2.0782 -0.2154 -0.6548
  193MPD1     N 2943   1.066   0.990  16.307  0.2130  0.2838  0.0339
  193MPD1    H5 2944   1.151   0.942  16.335  1.7687  2.1786 -1.3979
  193MPD1    N1 2945   0.620   0.907  16.131 -0.4189 -0.1876  0.1659
  193MPD1    H6 2946   0.656   0.949  16.045 -2.3784  0.7388 -0.2082
  193MPD1    H7 2947   0.566   0.826  16.102 -2.6102  1.0540  0.7648
  194MPD1     C 2948   4.224   3.499  17.037  0.5914 -0.0577 -0.5046
  194MPD1    C1 2949   4.117   3.536  17.125  0.1182 -0.1445 -0.1174
  194MPD1    C2 2950   4.039   3.429  17.168  0.0731  0.6052 -0.5070
  194MPD1    C3 2951   4.048   3.296  17.126 -0.3822 -0.1697 -0.2098
  194MPD1    C4 2952   4.149   3.274  17.037  0.0505 -0.6758 -0.1840
  194MPD1    C5 2953   4.236   3.366  16.991  0.7483 -0.2762  0.3401
  194MPD1     H 2954   3.964   3.453  17.242  0.8165  0.8186  0.1665
  194MPD1    H1 2955   4.166   3.173  17.002 -0.5516 -1.5157  1.9481
  194MPD1    H2 2956   4.297   3.577  17.015 -1.2257  1.8430  0.2670
  194MPD1    H3 2957   4.308   3.335  16.916  0.0515 -1.3842  0.1358
  194MPD1     N 2958   3.983   3.186  17.181  0.2625  0.0320  0.0227
  194MPD1    H5 2959   4.005   3.097  17.135  1.8605  0.6293 -0.3787
  194MPD1    N1 2960   4.104   3.658  17.176  0.2976 -0.3520 -0.0544
  194MPD1    H6 2961   4.133   3.733  17.112 -0.2582  1.0798  1.3646
  194MPD1    H7 2962   4.007   3.681  17.195 -0.3397 -3.2614  0.1599
  195MPD1     C 2963   1.306   3.537   0.285 -0.5125 -0.0015  0.5301
  195MPD1    C1 2964   1.184   3.544   0.352 -0.2020  0.1986 -0.2438
  195MPD1    C2 2965   1.070   3.556   0.271  0.2542  0.2251 -0.0493
  195MPD1    C3 2966   1.074   3.525   0.134 -0.3288  0.1228 -0.3010
  195MPD1    C4 2967   1.197   3.500   0.080  0.3857  0.4922  0.7413
  195MPD1    C5 2968   1.305   3.504   0.155 -0.2813  0.2822  0.2465
  195MPD1     H 2969   0.974   3.585   0.311  0.2143 -0.2915  0.2301
  195MPD1    H1 2970   1.216   3.473  17.659  2.0159 -0.7885  1.3626
  195MPD1    H2 2971   1.398   3.539   0.342  0.6341 -1.9551 -1.2443
  195MPD1    H3 2972   1.395   3.464   0.111 -1.3669  0.0037 -1.7023
  195MPD1     N 2973   0.959   3.523   0.053 -0.5581  0.0730 -0.2539
  195MPD1    H5 2974   0.977   3.510  17.636 -1.7914 -0.3591 -0.4188
  195MPD1    N1 2975   1.185   3.552   0.488 -0.5992 -0.0833 -0.4601
  195MPD1    H6 2976   1.092   3.550   0.529  0.1678 -1.2245  1.2355
  195MPD1    H7 2977   1.244   3.479   0.527  1.4414  1.0448 -1.4563
  196MPD1     C 2978   1.143   4.075   0.226 -0.4725 -0.8681 -0.6799
  196MPD1    C1 2979   1.163   3.948   0.277  1.3695  0.4169  0.6796
  196MPD1    C2 2980   1.073   3.909   0.381  0.2847 -0.2941  0.7519
  196MPD1    C3 2981   0.993   3.992   0.450 -0.5952  0.5086  0.8100
  196MPD1    C4 2982   0.978   4.116   0.398 -0.1444 -0.4258  0.2764
  196MPD1    C5 2983   1.050   4.161   0.286 -0.5124 -0.5679  0.3965
  196MPD1     H 2984   1.086   3.806   0.412  0.6264 -0.6419 -0.5665
  196MPD1    H1 2985   0.909   4.187   0.443 -1.1586 -1.0328 -0.3160
  196MPD1    H2 2986   1.213   4.121   0.157 -1.6018  3.5294  1.1240
  196MPD1    H3 2987   1.044   4.262   0.248  0.2955 -1.1852 -1.3574
  196MPD1     N 2988   0.910   3.957   0.559  0.9336  0.4075 -0.1588
  196MPD1    H5 2989   0.861   4.030   0.610  1.0318  0.3722 -0.0131
  196MPD1    N1 2990   1.241   3.857   0.207  0.5827  0.4554  0.4134
  196MPD1    H6 2991   1.322   3.888   0.153 -0.2414 -2.7731 -2.6666
  196MPD1    H7 2992   1.256   3.770   0.257 -1.6938 -0.9462 -1.4037
  197MPD1     C 2993   3.788   1.937  17.616  0.0168 -0.2212 -0.4135
  197MPD1    C1 2994   3.870   1.833  17.620 -0.0104  0.0207  0.3341
  197MPD1    C2 2995   3.985   1.852  17.543  0.2507 -0.4902 -0.7699
  197MPD1    C3 2996   3.995   1.960  17.451 -0.7236  0.1884 -0.3115
  197MPD1    C4 2997   3.894   2.055  17.451 -0.5699  0.0077 -0.9033
  197MPD1    C5 2998   3.790   2.046  17.539  0.1396 -0.3619 -0.5707
  197MPD1     H 2999   4.070   1.784  17.545 -0.0414 -0.8948 -1.7813
  197MPD1    H1 3000   3.892   2.142  17.386  0.6159  1.9862  1.6594
  197MPD1    H2 3001   3.707   1.936   0.006  0.1923  0.6331 -0.2088
  197MPD1    H3 3002   3.707   2.115  17.537  0.1778 -0.2901  0.5088
  197MPD1     N 3003   4.106   1.978  17.358  0.1548  0.0225  0.0179
  197MPD1    H5 3004   4.105   2.055  17.291 -0.8158  1.0625  1.2493
  197MPD1    N1 3005   3.859   1.752   0.054  0.3996  0.0126  0.1137
  197MPD1    H6 3006   3.761   1.740   0.080  0.3908 -0.2351 -0.0267
  197MPD1    H7 3007   3.896   1.659   0.033  0.1207  0.3514 -1.8586
  198MPD1     C 3008   1.897   3.983  15.268 -0.1791  0.2375  0.1885
  198MPD1    C1 3009   2.009   4.054  15.223  0.0274  0.3961  0.3761
  198MPD1    C2 3010   2.076   4.140  15.307  0.1377 -0.1290 -0.2029
  198MPD1    C3 3011   2.011   4.183  15.424  0.6490  0.5944  0.9926
  198MPD1    C4 3012   1.896   4.115  15.469 -0.2145  0.5868  0.3915
  198MPD1    C5 3013   1.839   4.021  15.390  0.5722 -0.2145  0.3268
  198MPD1     H 3014   2.167   4.186  15.270 -0.2698  1.8374  1.2183
  198MPD1    H1 3015   1.841   4.134  15.560 -1.5468 -0.0600 -0.2694
  198MPD1    H2 3016   1.855   3.898  15.217 -0.0635 -0.0134  0.5104
  198MPD1    H3 3017   1.744   3.979  15.420  0.8364 -0.6886  0.5058
  198MPD1     N 3018   2.077   4.284  15.498 -0.3189 -0.1629  0.3970
  198MPD1    H5 3019   2.177   4.292  15.481 -0.1428  2.2423  2.5895
  198MPD1    N1 3020   2.061   4.021  15.095 -0.6291 -0.2963  0.2762
  198MPD1    H6 3021   1.983   4.001  15.032  0.7511  0.9161 -1.8134
  198MPD1    H7 3022   2.117   4.094  15.053  0.8952 -1.2791  0.6135
  199MPD1     C 3023   3.909   0.180   9.711  0.3873  0.2708 -0.6685
  199MPD1    C1 3024   3.982   0.286   9.751  0.4696 -0.6071  0.1802
  199MPD1    C2 3025   3.941   0.417   9.727  0.2009 -0.1917  0.0401
  199MPD1    C3 3026   3.816   0.436   9.675 -0.3780 -0.0181 -0.0948
  199MPD1    C4 3027   3.738   0.331   9.649 -0.0940 -0.3725  0.4659
  199MPD1    C5 3028   3.783   0.204   9.672  0.1214 -0.0542  0.5735
  199MPD1     H 3029   4.003   0.501   9.759  1.2267 -0.0271 -2.3951
  199MPD1    H1 3030   3.634   0.354   9.629  0.0899 -0.5228 -0.7118
  199MPD1    H2 3031   3.953   0.081   9.723  1.5202  1.1081  2.1494
  199MPD1    H3 3032   3.712   0.121   9.667  3.6653 -2.9544 -1.4456
  199MPD1     N 3033   3.764   0.563   9.646  0.7560  0.1586  0.3895
  199MPD1    H5 3034   3.680   0.567   9.590  0.4958  0.5436  0.8041
  199MPD1    N1 3035   4.119   0.269   9.782 -0.0673  0.0296  0.1902
  199MPD1    H6 3036   4.148   0.358   9.822  0.4813 -0.0796  0.0370
  199MPD1    H7 3037   4.136   0.190   9.843  0.7471 -1.1177 -1.5371
  200MPD1     C 3038   2.914   1.197  14.636  0.0080  0.1452 -0.0796
  200MPD1    C1 3039   2.932   1.139  14.513 -0.4914 -0.0173 -0.2326
  200MPD1    C2 3040   2.989   1.220  14.412 -0.7398 -0.6448 -0.1225
  200MPD1    C3 3041   3.048   1.343  14.443  0.1662 -0.5521 -0.5648
  200MPD1    C4 3042   3.046   1.382  14.578  0.2812 -0.1427 -0.8940
  200MPD1    C5 3043   2.974   1.313  14.674 -0.1636  0.0452  0.3209
  200MPD1     H 3044   2.987   1.183  14.310  1.9295  3.0712 -1.5232
  200MPD1    H1 3045   3.095   1.470  14.619 -2.0052  0.7746 -0.1592
  200MPD1    H2 3046   2.854   1.143  14.709 -0.5780  1.3754  0.3627
  200MPD1    H3 3047   2.965   1.339  14.779  2.0480  1.0778  0.2486
  200MPD1     N 3048   3.112   1.425  14.350 -0.5292 -0.1261 -0.3890
  200MPD1    H5 3049   3.112   1.388  14.255 -0.3590 -2.1398  0.3914
  200MPD1    N1 3050   2.848   1.034  14.476  0.0242 -0.6643  0.0008
  200MPD1    H6 3051   2.891   0.980  14.401 -2.0051 -0.1215 -1.5608
  200MPD1    H7 3052   2.833   0.971  14.555 -0.7403 -0.7054 -0.1801
  201MPD1     C 3053   0.116   0.546  13.127  0.2402  0.2362  0.4269
  201MPD1    C1 3054   0.204   0.486  13.210  0.3865 -0.4044 -0.6265
  201MPD1    C2 3055   0.216   0.346  13.207 -0.1574 -0.0920  0.4431
  201MPD1    C3 3056   0.138   0.268  13.126  0.9224  0.0703 -0.2069
  201MPD1    C4 3057   0.042   0.331  13.050  0.2436  1.3427  0.0439
  201MPD1    C5 3058   0.029   0.465  13.056 -0.5844  0.4028  0.2870
  201MPD1     H 3059   0.290   0.299  13.271  0.0556  0.0573  0.3060
  201MPD1    H1 3060   4.680   0.276  13.005  1.2807  1.6641 -2.2088
  201MPD1    H2 3061   0.092   0.652  13.124  0.6459  0.2898 -0.7614
  201MPD1    H3 3062   4.679   0.510  12.986 -0.3400  0.4442  0.0675
  201MPD1     N 3063   0.181   0.136  13.109 -0.2631  0.0763 -0.2085
  201MPD1    H5 3064   0.259   0.106  13.167 -0.8537 -1.6042 -0.3015
  201MPD1    N1 3065   0.279   0.568  13.303  0.7951  0.0175  0.3813
  201MPD1    H6 3066   0.301   0.655  13.255 -1.1667  1.6849  2.5165
  201MPD1    H7 3067   0.370   0.524  13.317  1.3691  1.9030  2.5792
  202MPD1     C 3068   0.347   4.199   9.115  0.1847  1.0431  0.0455
  202MPD1    C1 3069   0.351   4.330   9.158 -0.1481  0.5341  0.6003
  202MPD1    C2 3070   0.374   4.340   9.295  0.6346 -0.6844 -0.1912
  202MPD1    C3 3071   0.427   4.238   9.370  0.2034 -0.8389  0.0148
  202MPD1    C4 3072   0.441   4.115   9.311 -0.8905 -0.6055 -0.4490
  202MPD1    C5 3073   0.406   4.101   9.187  0.0708 -0.3914  0.2379
  202MPD1     H 3074   0.373   4.440   9.338 -1.1419  0.2602 -2.4200
  202MPD1    H1 3075   0.479   4.028   9.363  1.7339 -0.0216 -1.4196
  202MPD1    H2 3076   0.312   4.183   9.013  1.4229 -0.8855 -0.0637
  202MPD1    H3 3077   0.395   3.998   9.154  0.1181 -0.2978 -0.0642
  202MPD1     N 3078   0.462   4.244   9.503 -0.2719  0.1087  0.3527
  202MPD1    H5 3079   0.499   4.164   9.553 -2.6507 -0.0065  1.9327
  202MPD1    N1 3080   0.282   4.436   9.096  0.1163 -0.5104  0.0137
  202MPD1    H6 3081   0.322   4.525   9.126  0.9880 -0.4246 -1.4058
  202MPD1    H7 3082   0.314   4.443   9.000  0.9714  1.2203  0.4164
  203MPD1     C 3083   3.041   0.387  12.285 -0.6633  0.1724 -0.2355
  203MPD1    C1 3084   3.086   0.267  12.248  0.7937  1.1599  0.5439
  203MPD1    C2 3085   3.195   0.220  12.318 -0.1666  0.3073  0.0295
  203MPD1    C3 3086   3.251   0.277  12.432 -0.5469  0.6485  0.0142
  203MPD1    C4 3087   3.194   0.396  12.466  0.4456 -0.1750 -0.0680
  203MPD1    C5 3088   3.102   0.454  12.385 -0.1110 -0.0270  0.2296
  203MPD1     H 3089   3.242   0.127  12.286 -1.4140 -0.2121 -0.2991
  203MPD1    H1 3090   3.227   0.462  12.546 -1.0232  0.6800 -0.1621
  203MPD1    H2 3091   2.954   0.438  12.244 -0.1513  2.4229  1.4542
  203MPD1    H3 3092   3.063   0.551  12.414  1.3136  0.0608  1.8805
  203MPD1     N 3093   3.362   0.219  12.495 -0.2245  0.4579  0.2429
  203MPD1    H5 3094   3.389   0.129  12.456  1.7259  0.0208  2.6278
  203MPD1    N1 3095   3.048   0.218  12.124  0.7374  0.3311 -0.0647
  203MPD1    H6 3096   3.062   0.118  12.112 -0.6105  0.1162  0.1306
  203MPD1    H7 3097   2.948   0.236  12.113  0.1601 -3.0860 -0.4890
  204MPD1     C 3098   2.390   1.131  17.198  0.0179 -0.4387 -0.2577
  204MPD1    C1 3099   2.474   1.185  17.106 -0.0579 -0.9040 -0.0051
  204MPD1    C2 3100   2.605   1.149  17.110  0.0776 -0.1759 -0.0480
  204MPD1    C3 3101   2.668   1.083  17.218  0.2248 -0.5002 -0.0556
  204MPD1    C4 3102   2.590   1.037  17.319 -0.6256  0.1205  0.0592
  204MPD1    C5 3103   2.452   1.060  17.303 -0.0649  0.2797  0.1875
  204MPD1     H 3104   2.669   1.176  17.027 -1.0735  0.7807 -0.6170
  204MPD1    H1 3105   2.626   0.975  17.400  1.3364  1.4872  0.2537
  204MPD1    H2 3106   2.284   1.156  17.204 -0.4567 -2.1786 -1.5614
  204MPD1    H3 3107   2.391   1.024  17.385  2.4972  0.8184  2.3516
  204MPD1     N 3108   2.803   1.069  17.215  0.1273  0.1483  0.3121
  204MPD1    H5 3109   2.847   1.100  17.130 -0.4982 -1.7945 -0.7158
  204MPD1    N1 3110   2.419   1.236  16.989  0.3776 -0.3833 -0.1826
  204MPD1    H6 3111   2.476   1.315  16.960  0.0826 -1.1426 -2.8069
  204MPD1    H7 3112   2.331   1.277  17.020  1.0744 -1.1887  2.8663
  205MPD1     C 3113   3.738   0.457  16.480  0.6029  0.7813  0.1229
  205MPD1    C1 3114   3.663   0.512  16.577 -0.0141  0.3814  0.5822
  205MPD1    C2 3115   3.651   0.434  16.689  0.4460  0.4260  0.1526
  205MPD1    C3 3116   3.717   0.314  16.707 -0.0560 -0.2858 -0.5430
  205MPD1    C4 3117   3.795   0.263  16.604 -0.4148  0.2299  0.0919
  205MPD1    C5 3118   3.790   0.329  16.482 -0.0892  0.4491 -1.0730
  205MPD1     H 3119   3.584   0.473  16.765  0.1738 -0.8732  0.5943
  205MPD1    H1 3120   3.850   0.171  16.618  0.8992  0.7808 -1.4856
  205MPD1    H2 3121   3.743   0.506  16.383 -0.1667 -1.3915 -1.0228
  205MPD1    H3 3122   3.836   0.293  16.391  1.6787  0.9847 -0.3876
  205MPD1     N 3123   3.719   0.239  16.828  0.0657  0.1214  0.0798
  205MPD1    H5 3124   3.804   0.185  16.843 -0.2703 -0.3137  0.3807
  205MPD1    N1 3125   3.595   0.628  16.553 -0.2267 -0.1890 -0.6032
  205MPD1    H6 3126   3.582   0.686  16.635  1.1837 -0.4192 -0.2051
  205MPD1    H7 3127   3.636   0.685  16.479  0.0072 -0.1522 -0.4428
  206MPD1     C 3128   3.194   3.436  16.163 -0.1320 -0.0272 -0.6797
  206MPD1    C1 3129   3.290   3.347  16.115  0.8805  0.1206 -0.4315
  206MPD1    C2 3130   3.332   3.349  15.984  0.6634  0.5233 -0.2864
  206MPD1    C3 3131   3.276   3.439  15.898 -0.5738  0.3664  0.0417
  206MPD1    C4 3132   3.193   3.531  15.948 -0.1323 -0.6889  0.4212
  206MPD1    C5 3133   3.152   3.536  16.079 -0.6648 -0.5293  0.3465
  206MPD1     H 3134   3.387   3.266  15.940  1.0409 -0.8049  2.6746
  206MPD1    H1 3135   3.160   3.616  15.888  3.1523 -0.8368 -1.5835
  206MPD1    H2 3136   3.150   3.433  16.262 -0.1919 -1.5831 -0.7482
  206MPD1    H3 3137   3.092   3.613  16.127 -0.6053 -1.0437  1.2358
  206MPD1     N 3138   3.295   3.443  15.757  0.4608 -0.4418 -0.1089
  206MPD1    H5 3139   3.253   3.528  15.719  2.9868  0.4104 -0.9732
  206MPD1    N1 3140   3.318   3.234  16.193 -0.5007  0.5566 -1.1946
  206MPD1    H6 3141   3.398   3.186  16.153 -0.5459 -0.7396  0.2772
  206MPD1    H7 3142   3.337   3.250  16.292 -2.7300  0.8799 -0.8268
  207MPD1     C 3143   1.785   0.255   9.633 -0.1197 -1.0444 -0.7986
  207MPD1    C1 3144   1.833   0.346   9.541 -0.3015  0.1050 -0.3414
  207MPD1    C2 3145   1.881   0.465   9.588  0.4407  0.5054 -0.6251
  207MPD1    C3 3146   1.860   0.498   9.724 -0.1697  0.4949 -0.7951
  207MPD1    C4 3147   1.805   0.408   9.810 -0.5060 -0.4399  0.2970
  207MPD1    C5 3148   1.756   0.289   9.764  0.6935 -0.0936 -0.1264
  207MPD1     H 3149   1.933   0.534   9.522  1.0011  0.2366 -0.4634
  207MPD1    H1 3150   1.788   0.431   9.914 -5.2268 -1.7443 -0.1912
  207MPD1    H2 3151   1.768   0.149   9.614 -0.3341 -1.3978  1.3537
  207MPD1    H3 3152   1.716   0.213   9.832  2.9775 -0.7413  0.4943
  207MPD1     N 3153   1.913   0.619   9.788 -0.2709 -0.0866 -0.7629
  207MPD1    H5 3154   1.894   0.637   9.886  2.7078  0.9474 -0.3705
  207MPD1    N1 3155   1.847   0.310   9.406 -0.0583  0.3655  0.3631
  207MPD1    H6 3156   1.939   0.321   9.364  0.6229  2.2272  2.3364
  207MPD1    H7 3157   1.829   0.210   9.397 -0.6961  0.4150  1.0354
  208MPD1     C 3158   4.719   4.358   0.986  1.1087  0.2208 -0.3526
  208MPD1    C1 3159   4.591   4.408   0.978 -0.5327  0.9916 -0.1382
  208MPD1    C2 3160   4.541   4.434   0.848  0.1030  0.0036  0.5632
  208MPD1    C3 3161   4.617   4.403   0.735  0.0510  0.7284 -1.2449
  208MPD1    C4 3162   0.029   4.364   0.750 -0.4414  0.2390  0.0844
  208MPD1    C5 3163   0.074   4.340   0.875 -0.2734  0.0087 -0.0702
  208MPD1     H 3164   4.435   4.456   0.836 -0.0126 -0.2504  1.1123
  208MPD1    H1 3165   0.090   4.334   0.665 -0.2752 -0.1086  0.3250
  208MPD1    H2 3166   0.048   4.347   1.083 -2.2028  1.8581  1.5172
  208MPD1    H3 3167   0.178   4.308   0.879  0.0366  1.1786  1.5910
  208MPD1     N 3168   4.561   4.420   0.614 -0.1580 -0.4691 -0.4163
  208MPD1    H5 3169   4.459   4.429   0.619 -0.0119 -0.2405  2.1689
  208MPD1    N1 3170   4.507   4.419   1.095 -0.7646 -0.8335 -0.0291
  208MPD1    H6 3171   4.437   4.492   1.087 -0.0535 -0.0544  0.9008
  208MPD1    H7 3172   4.561   4.433   1.181 -1.5598 -0.4054  0.3938
  209MPD1     C 3173   2.578   1.752  10.913 -0.1693 -0.4579  0.1121
  209MPD1    C1 3174   2.564   1.669  10.808 -0.1558  0.0995 -0.4913
  209MPD1    C2 3175   2.454   1.584  10.805 -0.6342 -0.6918 -0.0959
  209MPD1    C3 3176   2.379   1.558  10.918 -0.7091  0.5779 -0.3219
  209MPD1    C4 3177   2.414   1.632  11.037  1.1451  0.4742  0.4375
  209MPD1    C5 3178   2.510   1.728  11.032  0.3050  0.3972 -0.7451
  209MPD1     H 3179   2.434   1.530  10.713  0.6813 -0.0146 -0.7835
  209MPD1    H1 3180   2.375   1.614  11.137  0.7644 -0.0676  0.1869
  209MPD1    H2 3181   2.658   1.825  10.916 -0.1785 -0.5636  2.7911
  209MPD1    H3 3182   2.538   1.781  11.122  1.7825  0.2485 -1.1122
  209MPD1     N 3183   2.264   1.476  10.913  0.6942 -0.7341 -0.8012
  209MPD1    H5 3184   2.228   1.445  10.823 -0.1500 -0.6421 -0.4886
  209MPD1    N1 3185   2.621   1.709  10.687 -0.4903  0.1149 -0.3627
  209MPD1    H6 3186   2.633   1.632  10.621  0.2494  1.2124 -1.5191
  209MPD1    H7 3187   2.710   1.759  10.692 -0.4557 -0.0226  0.3472
  210MPD1     C 3188   1.555   0.763  11.361 -0.0374  0.1705  0.3991
  210MPD1    C1 3189   1.553   0.894  11.393  0.5764  0.3595  0.4839
  210MPD1    C2 3190   1.637   0.982  11.320 -0.0072  0.4641 -0.0048
  210MPD1    C3 3191   1.676   0.951  11.192  0.5980 -0.9662 -0.8871
  210MPD1    C4 3192   1.648   0.823  11.153  0.1725 -0.4772  0.2502
  210MPD1    C5 3193   1.597   0.727  11.237  1.0710 -0.0722  0.2305
  210MPD1     H 3194   1.642   1.088  11.343  0.2268  0.1433  1.3831
  210MPD1    H1 3195   1.672   0.787  11.054 -0.9882  0.1618 -0.2532
  210MPD1    H2 3196   1.525   0.682  11.427 -2.7133  0.6768 -0.1618
  210MPD1    H3 3197   1.600   0.625  11.202 -3.1098 -0.4960  1.2003
  210MPD1     N 3198   1.753   1.031  11.108 -0.0300  0.0030  0.4348
  210MPD1    H5 3199   1.778   0.997  11.016 -1.1337 -0.2135  0.2174
  210MPD1    N1 3200   1.521   0.925  11.523  0.3028  0.3474 -0.0676
  210MPD1    H6 3201   1.485   1.020  11.533 -0.2016 -0.1338  2.7176
  210MPD1    H7 3202   1.447   0.857  11.543  1.4242 -0.3537  1.7441
  211MPD1     C 3203   4.412   4.478  15.787  0.0453  0.8052 -0.0251
  211MPD1    C1 3204   4.438   4.603  15.835  0.5787 -0.4491  1.1077
  211MPD1    C2 3205   4.335   4.658  15.906 -0.1521 -0.4530 -1.1296
  211MPD1    C3 3206   4.212   4.604  15.923  0.2485 -0.3578 -0.1683
  211MPD1    C4 3207   4.185   4.487  15.850 -0.1456 -0.4005 -0.0653
  211MPD1    C5 3208   4.290   4.418  15.792  0.4494 -0.0955 -0.2541
  211MPD1     H 3209   4.349   0.029  15.964 -2.4765  0.0065 -1.2919
  211MPD1    H1 3210   4.091   4.435  15.856 -1.4137  1.8736 -0.4652
  211MPD1    H2 3211   4.486   4.427  15.727  1.6066  2.6744  0.2774
  211MPD1    H3 3212   4.267   4.315  15.765  0.4219 -0.3909  0.8944
  211MPD1     N 3213   4.109   4.678  15.994  0.0281 -0.3961  0.5208
  211MPD1    H5 3214   4.140   0.048  16.028 -0.1955 -0.1185 -0.0149
  211MPD1    N1 3215   4.569   4.656  15.854  0.9490  0.0111 -0.0636
  211MPD1    H6 3216   4.635   4.640  15.779 -0.3153 -0.7561 -1.0262
  211MPD1    H7 3217   4.553   0.036  15.867 -0.5626 -0.3705  1.0897
  212MPD1     C 3218   3.302   3.579  16.467  0.1102 -0.0335  0.4028
  212MPD1    C1 3219   3.183   3.574  16.535 -0.1405  0.4132  0.5431
  212MPD1    C2 3220   3.148   3.461  16.609 -0.1677 -0.1301  1.1041
  212MPD1    C3 3221   3.234   3.352  16.613 -0.3872 -0.1044  0.1148
  212MPD1    C4 3222   3.350   3.356  16.542  0.5140 -0.6145  0.2259
  212MPD1    C5 3223   3.387   3.470  16.475 -0.2568  0.3155  0.1301
  212MPD1     H 3224   3.049   3.454  16.653  0.2612  0.1044  2.1184
  212MPD1    H1 3225   3.424   3.277  16.548  0.9518 -0.3466 -1.5614
  212MPD1    H2 3226   3.342   3.665  16.414  2.1059  0.4148  2.6421
  212MPD1    H3 3227   3.481   3.474  16.421 -0.9698  1.7882 -1.0240
  212MPD1     N 3228   3.205   3.243  16.695  0.1083  0.6315  0.0169
  212MPD1    H5 3229   3.266   3.162  16.690  0.1319  0.6583 -0.1181
  212MPD1    N1 3230   3.101   3.687  16.541 -0.4414 -0.1615  0.3543
  212MPD1    H6 3231   3.118   3.735  16.454 -1.1447 -0.8416 -0.1636
  212MPD1    H7 3232   3.001   3.682  16.563 -0.2453  2.4641  1.8331
  213MPD1     C 3233   1.630   3.776  15.762 -0.7087  0.9646  0.2934
  213MPD1    C1 3234   1.619   3.907  15.718 -0.2651  0.8391  1.1280
  213MPD1    C2 3235   1.507   3.933  15.636  0.5889  0.6483  0.3862
  213MPD1    C3 3236   1.416   3.829  15.595  0.4431  0.3181 -0.1301
  213MPD1    C4 3237   1.444   3.699  15.628  0.3385  0.6148 -0.4390
  213MPD1    C5 3238   1.558   3.671  15.705  0.3548  0.3264  0.2849
  213MPD1     H 3239   1.488   4.033  15.598 -0.7103  0.4621  0.5327
  213MPD1    H1 3240   1.380   3.619  15.593  0.3423 -0.3746  1.8300
  213MPD1    H2 3241   1.717   3.749  15.821 -0.4346  0.2912 -0.4187
  213MPD1    H3 3242   1.577   3.567  15.729  2.6639  1.0959  1.7731
  213MPD1     N 3243   1.298   3.866  15.527  0.0728  0.1983 -0.3553
  213MPD1    H5 3244   1.282   3.966  15.517 -1.0084 -0.2031 -2.5889
  213MPD1    N1 3245   1.675   4.011  15.795 -0.1035 -0.1532 -0.0447
  213MPD1    H6 3246   1.772   3.985  15.812  0.1249 -0.3716 -1.7317
  213MPD1    H7 3247   1.667   4.096  15.739  2.4893  0.8391  1.0767
  214MPD1     C 3248   0.750   3.497  14.766 -0.6227  0.4669  0.3172
  214MPD1    C1 3249   0.730   3.448  14.892 -0.6532 -0.9240 -0.0835
  214MPD1    C2 3250   0.744   3.540  14.993  0.1858  0.2269 -0.3362
  214MPD1    C3 3251   0.783   3.676  14.970 -0.0576  0.1925  0.3409
  214MPD1    C4 3252   0.808   3.714  14.838  0.4904  0.3933 -0.2407
  214MPD1    C5 3253   0.779   3.628  14.734 -0.0423  0.4560 -0.0590
  214MPD1     H 3254   0.732   3.504  15.095 -1.8708 -0.6060 -0.8834
  214MPD1    H1 3255   0.846   3.810  14.806 -0.0091  0.9171  0.7478
  214MPD1    H2 3256   0.748   3.426  14.684  0.7089 -0.0652  0.7530
  214MPD1    H3 3257   0.804   3.665  14.635  2.2739  0.5300  0.5620
  214MPD1     N 3258   0.815   3.764  15.079 -0.0627  0.0940 -0.2813
  214MPD1    H5 3259   0.850   3.856  15.056 -1.7190  0.7234 -0.3315
  214MPD1    N1 3260   0.714   3.312  14.919 -0.3517 -0.3082 -0.0401
  214MPD1    H6 3261   0.658   3.270  14.844  0.2050  0.3637 -0.8320
  214MPD1    H7 3262   0.682   3.281  15.010  0.1852  1.1884  0.6479
  215MPD1     C 3263   0.723   0.151  11.218 -0.4127 -0.0931 -0.2226
  215MPD1    C1 3264   0.789   0.029  11.239  0.4635 -0.0586 -0.1151
  215MPD1    C2 3265   0.910   0.009  11.170  0.1653  0.1377 -0.8819
  215MPD1    C3 3266   0.955   0.096  11.072 -0.6564 -0.4032  0.6628
  215MPD1    C4 3267   0.875   0.205  11.045 -0.0864  0.1535 -0.6425
  215MPD1    C5 3268   0.764   0.230  11.115  0.5002  0.1030 -0.3188
  215MPD1     H 3269   0.976   4.645  11.191 -0.6096  0.5434  3.2042
  215MPD1    H1 3270   0.894   0.279  10.968  2.9833 -0.7155 -0.7042
  215MPD1    H2 3271   0.636   0.184  11.273  1.6136  0.6987  2.5134
  215MPD1    H3 3272   0.698   0.312  11.087 -2.1723 -1.7354  0.5341
  215MPD1     N 3273   1.079   0.072  11.009  0.0382 -0.0420 -0.1694
  215MPD1    H5 3274   1.134   4.710  11.032 -1.0848 -0.6395  0.4137
  215MPD1    N1 3275   0.765   4.673  11.355  0.1683  0.8753 -0.3734
  215MPD1    H6 3276   0.797   4.577  11.342 -0.4669  0.6329 -0.1385
  215MPD1    H7 3277   0.666   4.673  11.379  0.0949 -0.5624 -0.6899
  216MPD1     C 3278   3.660   1.728  16.061 -0.4872 -0.0348 -0.3652
  216MPD1    C1 3279   3.605   1.633  16.138  0.2622 -0.4127 -0.1098
  216MPD1    C2 3280   3.585   1.661  16.275 -0.4221  0.3453 -0.2690
  216MPD1    C3 3281   3.592   1.789  16.325 -0.0511 -0.0891 -0.3257
  216MPD1    C4 3282   3.655   1.881  16.247 -0.3615  0.2426  0.4956
  216MPD1    C5 3283   3.680   1.850  16.118 -0.6719  0.0004 -0.3516
  216MPD1     H 3284   3.551   1.578  16.337 -1.4305  0.6354 -0.4203
  216MPD1    H1 3285   3.666   1.984  16.278  1.8190 -0.4563  2.0052
  216MPD1    H2 3286   3.698   1.706  15.962  1.4372  1.5493  0.0118
  216MPD1    H3 3287   3.717   1.937  16.065  0.1562  0.9093  1.7128
  216MPD1     N 3288   3.559   1.808  16.459 -0.0672  0.1491 -0.3918
  216MPD1    H5 3289   3.535   1.721  16.506  3.7966 -0.2680  0.7425
  216MPD1    N1 3290   3.592   1.504  16.090  0.1164  0.4370  0.2897
  216MPD1    H6 3291   3.513   1.459  16.135  0.9419  0.5193  1.8160
  216MPD1    H7 3292   3.598   1.492  15.989  0.0157 -0.2699  0.3738
  217MPD1     C 3293   3.715   0.586   9.279 -0.1957  0.2358  0.3257
  217MPD1    C1 3294   3.601   0.509   9.305  0.4322 -0.3184  0.7021
  217MPD1    C2 3295   3.624   0.373   9.326 -0.7769  0.5559  0.6544
  217MPD1    C3 3296   3.754   0.319   9.318 -0.1670  0.3478  0.4747
  217MPD1    C4 3297   3.859   0.400   9.284 -0.5051 -0.0833 -0.0201
  217MPD1    C5 3298   3.842   0.534   9.269  0.7611  0.0319 -0.4808
  217MPD1     H 3299   3.540   0.316   9.362 -1.7366  1.8010  0.3768
  217MPD1    H1 3300   3.957   0.358   9.264 -0.1973  0.6169  0.0128
  217MPD1    H2 3301   3.714   0.694   9.263  2.7948  0.1124 -0.6059
  217MPD1    H3 3302   3.925   0.598   9.241  1.3290  0.4433  2.1350
  217MPD1     N 3303   3.780   0.183   9.343  0.0053  0.0579  0.3430
  217MPD1    H5 3304   3.879   0.164   9.351 -0.0315 -0.9933 -1.4984
  217MPD1    N1 3305   3.493   0.582   9.348  0.1071  0.0684 -0.3412
  217MPD1    H6 3306   3.483   0.659   9.282  3.9834  2.4148  1.8313
  217MPD1    H7 3307   3.407   0.529   9.358  0.3159 -0.0335  0.8810
  218MPD1     C 3308   0.718   0.994  12.100  0.0824  0.1197 -0.5380
  218MPD1    C1 3309   0.856   1.006  12.108  0.4587  0.1128  0.0312
  218MPD1    C2 3310   0.927   0.906  12.167 -0.0295  0.0228  0.7432
  218MPD1    C3 3311   0.864   0.797  12.223 -0.3953  0.2049  0.0808
  218MPD1    C4 3312   0.726   0.788  12.227  0.6789 -0.3606  0.7584
  218MPD1    C5 3313   0.651   0.883  12.160 -0.1196  0.1829  0.0179
  218MPD1     H 3314   1.034   0.901  12.150 -0.2033  1.8662 -0.9507
  218MPD1    H1 3315   0.671   0.705  12.270 -1.5982  1.7910  2.0171
  218MPD1    H2 3316   0.661   1.068  12.043 -1.0136  0.3590  0.8611
  218MPD1    H3 3317   0.545   0.863  12.156  0.0282 -0.7590  0.8029
  218MPD1     N 3318   0.949   0.698  12.275  0.2422 -0.0435 -0.0109
  218MPD1    H5 3319   1.046   0.695  12.245  0.0722 -1.5062 -0.4131
  218MPD1    N1 3320   0.926   1.102  12.033  0.2134  0.3511  0.3510
  218MPD1    H6 3321   1.017   1.132  12.069  1.0014 -0.4896 -0.9251
  218MPD1    H7 3322   0.871   1.186  12.019 -0.3157 -0.3828 -2.0121
  219MPD1     C 3323   1.738   0.587  12.005  0.1625 -0.2290  0.1664
  219MPD1    C1 3324   1.729   0.472  12.079 -0.2747 -0.1178  0.2743
  219MPD1    C2 3325   1.610   0.463  12.144  0.0664 -0.1251  0.6643
  219MPD1    C3 3326   1.532   0.566  12.173  0.4747 -0.0485 -0.2977
  219MPD1    C4 3327   1.552   0.688  12.102  0.3273 -0.1055 -0.0376
  219MPD1    C5 3328   1.659   0.698  12.021 -0.0800 -0.0616 -1.2095
  219MPD1     H 3329   1.604   0.367  12.193 -2.6465 -0.4893 -0.4126
  219MPD1    H1 3330   1.484   0.771  12.118  0.1392 -0.8083  2.9980
  219MPD1    H2 3331   1.824   0.586  11.939 -1.1843  2.0521 -1.6111
  219MPD1    H3 3332   1.683   0.788  11.964  0.5701  2.5310  3.1759
  219MPD1     N 3333   1.410   0.553  12.252 -0.1255  0.9137  0.3007
  219MPD1    H5 3334   1.343   0.629  12.246 -1.5958 -0.2988  1.3219
  219MPD1    N1 3335   1.819   0.362  12.054 -0.3827  0.1303  0.0409
  219MPD1    H6 3336   1.911   0.392  12.023  0.7074 -0.9254  2.2312
  219MPD1    H7 3337   1.831   0.295  12.130  2.2081  1.5329  0.8561
  220MPD1     C 3338   1.363   1.020   9.276 -0.6221  0.2545 -0.1207
  220MPD1    C1 3339   1.443   0.925   9.335 -0.1527 -0.2337  0.1281
  220MPD1    C2 3340   1.414   0.896   9.463 -0.0779 -0.6895 -0.1042
  220MPD1    C3 3341   1.310   0.950   9.535 -0.1161  0.3525 -0.4659
  220MPD1    C4 3342   1.235   1.044   9.481  1.1437 -0.0367  0.2430
  220MPD1    C5 3343   1.270   1.082   9.353  0.9452 -0.1824 -0.0895
  220MPD1     H 3344   1.474   0.821   9.513  2.4658  1.0363 -0.5816
  220MPD1    H1 3345   1.149   1.087   9.531  0.6433 -0.0341 -0.6270
  220MPD1    H2 3346   1.372   1.050   9.173 -1.6999 -0.2661 -0.3668
  220MPD1    H3 3347   1.216   1.165   9.309 -0.9162 -1.7933 -0.8240
  220MPD1     N 3348   1.305   0.904   9.671  0.3134 -0.7770 -0.2357
  220MPD1    H5 3349   1.374   0.834   9.698  0.5569 -0.6834 -0.6171
  220MPD1    N1 3350   1.537   0.853   9.252  0.5738  0.3130 -0.2946
  220MPD1    H6 3351   1.619   0.819   9.303  0.2812 -1.9361 -1.3294
  220MPD1    H7 3352   1.570   0.912   9.175 -1.0156  0.8767 -0.5372
  221MPD1     C 3353   2.993   4.207  16.806 -0.2966 -0.2506  0.1523
  221MPD1    C1 3354   3.079   4.298  16.855  0.3157  0.4467 -0.5200
  221MPD1    C2 3355   3.198   4.316  16.787 -0.1209  0.3226 -0.6629
  221MPD1    C3 3356   3.251   4.226  16.698  0.3588  0.0322  0.2856
  221MPD1    C4 3357   3.168   4.128  16.659 -0.4428 -0.6487 -0.4139
  221MPD1    C5 3358   3.035   4.118  16.704 -0.4342  0.1590 -0.5745
  221MPD1     H 3359   3.259   4.395  16.829  1.2900  0.0101 -2.1495
  221MPD1    H1 3360   3.207   4.058  16.586  1.6523  1.7141 -1.5609
  221MPD1    H2 3361   2.899   4.194  16.858 -0.5203 -0.4962 -0.3102
  221MPD1    H3 3362   2.966   4.039  16.678 -0.5868  0.7699 -2.0357
  221MPD1     N 3363   3.380   4.225  16.638  0.1317 -0.3580 -0.6206
  221MPD1    H5 3364   3.414   4.139  16.595  1.2426  0.2923 -1.0362
  221MPD1    N1 3365   3.030   4.389  16.949 -0.1102  0.4791  0.3137
  221MPD1    H6 3366   2.968   4.343  17.017  1.1416  0.4684  1.4506
  221MPD1    H7 3367   3.088   4.457  16.997  0.3791 -0.2382  0.7469
  222MPD1     C 3368   3.346   2.788  17.290 -0.4221  0.0506  0.2505
  222MPD1    C1 3369   3.402   2.756  17.169  0.1433  0.1788 -0.4743
  222MPD1    C2 3370   3.475   2.856  17.108 -0.2786  0.0564 -0.4078
  222MPD1    C3 3371   3.464   2.990  17.148 -0.1446 -0.1105  0.6627
  222MPD1    C4 3372   3.391   3.022  17.261 -0.2165  0.2757  0.0544
  222MPD1    C5 3373   3.335   2.918  17.332  1.2552 -0.0097 -0.6437
  222MPD1     H 3374   3.542   2.825  17.028  1.7631 -0.6969  1.5899
  222MPD1    H1 3375   3.380   3.124  17.296  0.3753  0.6870 -0.9708
  222MPD1    H2 3376   3.288   2.715  17.345 -0.9905  0.2777 -0.0423
  222MPD1    H3 3377   3.280   2.931  17.424  1.7432 -1.8879 -0.0885
  222MPD1     N 3378   3.528   3.099  17.087  0.1390 -0.1775  0.0396
  222MPD1    H5 3379   3.507   3.192  17.122  0.6869  0.7159 -2.0191
  222MPD1    N1 3380   3.416   2.623  17.134  0.1094 -0.2309  0.1560
  222MPD1    H6 3381   3.435   2.620  17.034 -1.1327  1.3699 -0.1402
  222MPD1    H7 3382   3.337   2.561  17.153  0.5462 -0.9816 -0.4741
  223MPD1     C 3383   3.742   3.208  16.102 -0.0476  0.4436  0.2576
  223MPD1    C1 3384   3.642   3.147  16.173  0.2000 -0.5439  0.2924
  223MPD1    C2 3385   3.625   3.169  16.310 -0.5358 -0.2020 -0.2130
  223MPD1    C3 3386   3.719   3.245  16.373 -1.0670  0.7909 -0.3561
  223MPD1    C4 3387   3.823   3.306  16.305  0.4165 -0.6717 -0.1563
  223MPD1    C5 3388   3.829   3.290  16.171 -0.1511 -0.4244 -0.6252
  223MPD1     H 3389   3.540   3.125  16.363  0.4308 -1.5452  0.2293
  223MPD1    H1 3390   3.894   3.376  16.345 -1.3950  1.4612 -0.6973
  223MPD1    H2 3391   3.755   3.212  15.994 -0.3044  0.5847  0.2302
  223MPD1    H3 3392   3.905   3.341  16.113 -0.5341  0.2653 -0.5179
  223MPD1     N 3393   3.703   3.264  16.515  0.2014  0.1631 -0.0884
  223MPD1    H5 3394   3.649   3.192  16.561 -2.6091  0.4727 -2.8794
  223MPD1    N1 3395   3.555   3.062  16.109  0.2400  0.1061  0.0052
  223MPD1    H6 3396   3.592   3.034  16.019 -0.3246 -0.4511 -0.0499
  223MPD1    H7 3397   3.541   2.982  16.171 -0.7827  0.3367  0.0782
  224MPD1     C 3398   0.302   0.589   9.391  0.4311 -0.5026  0.9582
  224MPD1    C1 3399   0.229   0.677   9.477 -0.7840 -0.6524 -0.0035
  224MPD1    C2 3400   0.178   0.635   9.599  0.1622  0.1526  0.7007
  224MPD1    C3 3401   0.185   0.497   9.624 -0.0382 -0.9721  0.2881
  224MPD1    C4 3402   0.248   0.411   9.534  1.1144  0.3017 -0.0468
  224MPD1    C5 3403   0.305   0.458   9.418 -0.5254 -0.4703 -0.4900
  224MPD1     H 3404   0.140   0.707   9.670 -1.9188  0.1086 -0.3720
  224MPD1    H1 3405   0.259   0.309   9.569 -2.9830  0.2174  1.0532
  224MPD1    H2 3406   0.336   0.630   9.296 -2.1453 -1.9037 -0.5729
  224MPD1    H3 3407   0.368   0.397   9.354 -0.8470 -0.3615 -0.9141
  224MPD1     N 3408   0.138   0.437   9.744 -0.2096 -0.5323 -0.2682
  224MPD1    H5 3409   0.135   0.335   9.745  1.4807 -0.5827 -1.0901
  224MPD1    N1 3410   0.233   0.816   9.446 -0.1256  0.3201  0.5468
  224MPD1    H6 3411   0.237   0.832   9.346 -2.2771  0.7218  0.5240
  224MPD1    H7 3412   0.161   0.876   9.485 -2.8230 -1.5383 -1.6189
  225MPD1     C 3413   1.243   1.595  12.321 -0.0188  0.4610  0.5302
  225MPD1    C1 3414   1.225   1.487  12.235  0.3834 -0.9469 -0.8500
  225MPD1    C2 3415   1.114   1.494  12.152 -0.0049 -0.8132 -0.0547
  225MPD1    C3 3416   1.015   1.588  12.164  0.1404 -0.9078 -0.0469
  225MPD1    C4 3417   1.022   1.678  12.271 -0.7386 -0.0057  0.7615
  225MPD1    C5 3418   1.137   1.680  12.349 -0.7658 -0.3231  0.1631
  225MPD1     H 3419   1.107   1.429  12.066 -0.7600  0.1257 -0.6976
  225MPD1    H1 3420   0.938   1.743  12.292 -1.1504  0.1630 -1.3984
  225MPD1    H2 3421   1.332   1.598  12.382  0.0681 -0.3046  0.4400
  225MPD1    H3 3422   1.146   1.745  12.435 -0.9712 -1.8087  1.3108
  225MPD1     N 3423   0.901   1.597  12.083  0.3152 -0.2299  0.1898
  225MPD1    H5 3424   0.838   1.675  12.099  0.7193  0.3240 -0.8886
  225MPD1    N1 3425   1.333   1.397  12.213 -0.1668 -0.3828 -0.3361
  225MPD1    H6 3426   1.303   1.307  12.179 -0.7732  0.0912 -1.0558
  225MPD1    H7 3427   1.380   1.385  12.303  1.1763  3.8524 -0.4480
  226MPD1     C 3428   0.859   1.686   9.413 -0.1632  0.3079 -0.0757
  226MPD1    C1 3429   0.766   1.608   9.362  0.3027  1.1312 -0.1544
  226MPD1    C2 3430   0.636   1.636   9.393  0.2354  0.0074 -0.0327
  226MPD1    C3 3431   0.606   1.733   9.487  0.4037  0.4966 -0.6671
  226MPD1    C4 3432   0.703   1.796   9.558 -0.6068  0.2609 -0.4949
  226MPD1    C5 3433   0.828   1.781   9.512  0.1512 -0.5720  0.6529
  226MPD1     H 3434   0.554   1.587   9.342  0.7810 -1.6592  0.6895
  226MPD1    H1 3435   0.687   1.863   9.642  1.7562 -1.3617  1.2465
  226MPD1    H2 3436   0.964   1.682   9.386  0.0598  1.6350  0.5710
  226MPD1    H3 3437   0.910   1.829   9.563  1.9623  0.6539 -3.3916
  226MPD1     N 3438   0.470   1.736   9.528 -0.3974 -0.9091  0.4062
  226MPD1    H5 3439   0.413   1.661   9.491 -2.4445  0.0812  1.5369
  226MPD1    N1 3440   0.808   1.513   9.263  0.1345  0.3206 -0.3243
  226MPD1    H6 3441   0.905   1.487   9.283  0.2496  0.7918 -0.2590
  226MPD1    H7 3442   0.740   1.439   9.249  0.3887  0.6257 -3.0698
  227MPD1     C 3443   4.386   1.948  10.261 -0.9351  0.5124  0.0619
  227MPD1    C1 3444   4.363   1.835  10.183  0.3010 -1.0465 -0.6425
  227MPD1    C2 3445   4.454   1.801  10.079  0.3441 -0.3549  0.5503
  227MPD1    C3 3446   4.561   1.887  10.046  0.4367 -0.4112  0.2137
  227MPD1    C4 3447   4.558   2.012  10.109 -0.3068  0.5458  0.6382
  227MPD1    C5 3448   4.486   2.033  10.224  0.8064  0.0128  0.0495
  227MPD1     H 3449   4.431   1.706  10.032 -2.0265  0.1755  0.6000
  227MPD1    H1 3450   4.637   2.082  10.083  0.0284 -0.3588 -0.8026
  227MPD1    H2 3451   4.327   1.973  10.348  1.3628 -2.0888  2.3441
  227MPD1    H3 3452   4.510   2.118  10.287 -0.7339  0.2170  0.3450
  227MPD1     N 3453   4.651   1.845   9.951 -0.3251  0.0163  0.2990
  227MPD1    H5 3454   4.621   1.754   9.920 -0.8546 -0.2528  1.6191
  227MPD1    N1 3455   4.265   1.744  10.229  0.3459 -0.1682  0.6618
  227MPD1    H6 3456   4.186   1.789  10.276  0.8510  1.5652 -0.1613
  227MPD1    H7 3457   4.225   1.694  10.150  1.1521  0.5740 -0.2138
  228MPD1     C 3458   2.219   4.082  12.991 -0.8389  0.1068  0.6826
  228MPD1    C1 3459   2.120   4.060  12.899 -0.1904  0.5678 -0.5956
  228MPD1    C2 3460   2.025   3.972  12.938  0.1374  0.3853 -0.4076
  228MPD1    C3 3461   2.027   3.900  13.057  0.4549  0.6247  1.1380
  228MPD1    C4 3462   2.138   3.914  13.140 -0.5899  0.1402  0.0538
  228MPD1    C5 3463   2.232   4.008  13.105  0.3591  0.4152  0.1409
  228MPD1     H 3464   1.932   3.955  12.883  1.7881  0.3136 -3.1787
  228MPD1    H1 3465   2.148   3.856  13.232  0.7394  0.8697  0.3615
  228MPD1    H2 3466   2.293   4.155  12.960 -0.5866  0.5895  2.4081
  228MPD1    H3 3467   2.318   4.027  13.168  0.6793 -1.2526  0.1807
  228MPD1     N 3468   1.938   3.788  13.072  0.6798 -0.3377 -0.3487
  228MPD1    H5 3469   1.857   3.790  13.012 -1.1068 -0.6730  2.0649
  228MPD1    N1 3470   2.103   4.154  12.797 -0.0361  0.2681 -0.2626
  228MPD1    H6 3471   2.190   4.176  12.749 -0.4362  0.4139 -0.9140
  228MPD1    H7 3472   2.037   4.121  12.728  3.3699 -3.7891 -1.5471
  229MPD1     C 3473   1.750   2.329  15.165  0.6046  0.1065  0.7571
  229MPD1    C1 3474   1.773   2.285  15.032  0.2375 -0.0624 -0.0613
  229MPD1    C2 3475   1.893   2.233  14.991 -0.3035  0.1388  0.0511
  229MPD1    C3 3476   1.993   2.220  15.084 -0.4598  0.1209 -0.2512
  229MPD1    C4 3477   1.970   2.247  15.220  0.9630  0.3803  0.0364
  229MPD1    C5 3478   1.855   2.311  15.253 -0.2937  0.3570 -0.5687
  229MPD1     H 3479   1.908   2.190  14.892 -1.1086  0.8271 -0.3660
  229MPD1    H1 3480   2.039   2.219  15.299  0.1051  1.9721  1.3644
  229MPD1    H2 3481   1.655   2.372  15.194 -0.2506 -1.0218 -0.4083
  229MPD1    H3 3482   1.834   2.355  15.350  2.0510 -1.6303  0.8336
  229MPD1     N 3483   2.117   2.168  15.056 -0.4731  0.1958 -0.0026
  229MPD1    H5 3484   2.173   2.151  15.139  1.4985 -1.3874 -1.6806
  229MPD1    N1 3485   1.664   2.294  14.937 -0.2535  0.6517 -0.4941
  229MPD1    H6 3486   1.698   2.305  14.841 -0.9505 -0.3669 -0.8532
  229MPD1    H7 3487   1.592   2.363  14.958 -0.7439 -0.0739  0.1641
  230MPD1     C 3488   2.909   1.742  15.436  0.5031 -0.3078 -0.4862
  230MPD1    C1 3489   2.940   1.776  15.308  0.4271 -1.0765  0.4450
  230MPD1    C2 3490   2.847   1.814  15.219 -0.7129  0.4244 -0.4887
  230MPD1    C3 3491   2.716   1.828  15.257  0.5006  0.1590 -0.0874
  230MPD1    C4 3492   2.677   1.806  15.392 -0.3225  0.0120 -0.5920
  230MPD1    C5 3493   2.774   1.753  15.474 -0.2582 -0.7586 -0.2347
  230MPD1     H 3494   2.878   1.843  15.119 -0.2484 -2.2194 -1.0968
  230MPD1    H1 3495   2.583   1.832  15.440 -0.1263  2.2759 -1.4205
  230MPD1    H2 3496   2.974   1.706  15.514 -0.8051 -1.1640  0.2160
  230MPD1    H3 3497   2.754   1.716  15.574  1.9991 -0.5733  0.2901
  230MPD1     N 3498   2.626   1.857  15.154  0.6436 -0.0794 -0.3468
  230MPD1    H5 3499   2.660   1.846  15.059  1.3371 -1.0399  0.0082
  230MPD1    N1 3500   3.068   1.750  15.258 -0.1186 -0.5255 -0.3884
  230MPD1    H6 3501   3.095   1.818  15.187  1.2757  0.0070  0.6634
  230MPD1    H7 3502   3.143   1.750  15.327 -1.3098 -2.9633  0.9114
  231MPD1     C 3503   4.512   3.903  15.557 -0.1656  0.6292  0.6301
  231MPD1    C1 3504   4.549   3.845  15.434  0.3028  0.1321 -0.1981
  231MPD1    C2 3505   4.674   3.870  15.384 -0.5842  0.1524  0.0118
  231MPD1    C3 3506   0.037   3.965  15.441 -0.6030 -0.0669  0.2877
  231MPD1    C4 3507   0.002   4.021  15.566  0.0305  0.4365 -0.1624
  231MPD1    C5 3508   4.599   3.986  15.623 -0.6241  0.3518  0.2524
  231MPD1     H 3509   4.700   3.817  15.294 -0.3273  0.4728 -0.1011
  231MPD1    H1 3510   0.064   4.102  15.603  2.4159 -0.8387 -1.2863
  231MPD1    H2 3511   4.415   3.899  15.604 -0.5829  0.0797 -0.2666
  231MPD1    H3 3512   4.562   4.055  15.699  2.4406  0.0060  2.0263
  231MPD1     N 3513   0.165   3.982  15.381  0.0730  0.3465 -0.0149
  231MPD1    H5 3514   0.177   3.940  15.289 -1.7259  0.7971 -0.4569
  231MPD1    N1 3515   4.464   3.749  15.377 -0.2779  0.4685  0.1552
  231MPD1    H6 3516   4.367   3.778  15.380 -0.3823  0.0147  1.4540
  231MPD1    H7 3517   4.488   3.738  15.279 -0.2732 -0.7641  0.2905
  232MPD1     C 3518   2.671   2.397   0.444 -0.0886  0.1665  0.1169
  232MPD1    C1 3519   2.574   2.450   0.362  0.2435 -0.0533  0.6352
  232MPD1    C2 3520   2.516   2.371   0.265  0.2822 -0.2046 -0.8087
  232MPD1    C3 3521   2.539   2.239   0.254 -0.4347  0.4221  1.1578
  232MPD1    C4 3522   2.644   2.188   0.337 -0.6158  0.2320 -0.2205
  232MPD1    C5 3523   2.702   2.269   0.432  0.1784  0.0570  0.2816
  232MPD1     H 3524   2.455   2.423   0.192 -1.2522  0.3722  0.8850
  232MPD1    H1 3525   2.682   2.086   0.338  0.2375  0.5430 -2.7423
  232MPD1    H2 3526   2.732   2.446   0.519 -1.3434 -0.0447  1.2629
  232MPD1    H3 3527   2.773   2.235   0.507 -0.7087  0.2860  1.2216
  232MPD1     N 3528   2.477   2.163   0.149  0.3381  0.2557  0.2442
  232MPD1    H5 3529   2.419   2.220   0.088 -1.6990  1.3404  3.2229
  232MPD1    N1 3530   2.542   2.588   0.376  0.3206 -0.0707  0.3763
  232MPD1    H6 3531   2.443   2.610   0.376 -0.0313 -1.6721  1.3721
  232MPD1    H7 3532   2.587   2.641   0.451 -2.2242  1.5010  0.7957
  233MPD1     C 3533   2.482   2.768   0.989  0.1225 -0.6839 -0.3023
  233MPD1    C1 3534   2.528   2.873   0.921 -0.5822 -0.1230 -0.1519
  233MPD1    C2 3535   2.658   2.882   0.879  0.2975 -0.4093  0.9720
  233MPD1    C3 3536   2.741   2.793   0.935  0.5414 -0.2656  0.1466
  233MPD1    C4 3537   2.699   2.685   1.020 -0.5176 -0.5200 -0.3035
  233MPD1    C5 3538   2.564   2.670   1.032 -0.1054 -0.0082 -0.3400
  233MPD1     H 3539   2.689   2.969   0.822 -0.0347 -0.3458  0.8818
  233MPD1    H1 3540   2.765   2.606   1.054 -0.0724 -0.9407 -2.1406
  233MPD1    H2 3541   2.376   2.756   1.007  0.8054 -1.3615  3.2575
  233MPD1    H3 3542   2.528   2.585   1.089  1.8163 -1.2610 -0.9944
  233MPD1     N 3543   2.878   2.793   0.912 -0.4693  0.4724  0.2555
  233MPD1    H5 3544   2.929   2.730   0.973 -0.8221 -0.5175 -0.4732
  233MPD1    N1 3545   2.434   2.973   0.883 -0.1373 -0.2896  0.2687
  233MPD1    H6 3546   2.349   2.986   0.937 -0.2218 -0.2087  0.1155
  233MPD1    H7 3547   2.480   3.064   0.881  0.5303 -0.6218  0.3425
  234MPD1     C 3548   0.249   3.388   9.330 -0.7619  0.2236 -0.2335
  234MPD1    C1 3549   0.250   3.445   9.457 -0.0652  0.4309 -0.0113
  234MPD1    C2 3550   0.198   3.570   9.480 -0.4462 -0.0034 -0.0081
  234MPD1    C3 3551   0.145   3.646   9.384 -0.3962  0.2196 -0.1630
  234MPD1    C4 3552   0.138   3.588   9.256  0.2106  0.3232  0.0984
  234MPD1    C5 3553   0.185   3.460   9.234  0.0550 -0.5211  0.7190
  234MPD1     H 3554   0.203   3.612   9.580  1.1183  0.1216 -0.1392
  234MPD1    H1 3555   0.077   3.629   9.176 -1.4228 -2.8931 -0.3052
  234MPD1    H2 3556   0.291   3.289   9.321 -1.3445 -0.1809  1.5756
  234MPD1    H3 3557   0.163   3.404   9.144  1.9342  1.7101 -1.1444
  234MPD1     N 3558   0.112   3.779   9.418  0.6155  0.0536  0.2374
  234MPD1    H5 3559   0.140   3.807   9.511 -1.4393 -2.2234  1.5113
  234MPD1    N1 3560   0.329   3.393   9.556 -0.5356  0.8053 -0.8709
  234MPD1    H6 3561   0.306   3.417   9.652 -1.2437 -0.3765 -0.7445
  234MPD1    H7 3562   0.341   3.292   9.556 -0.3712  0.8234 -0.5446
  235MPD1     C 3563   1.737   1.231  10.201  0.6575 -0.6720 -0.5673
  235MPD1    C1 3564   1.687   1.223  10.071  0.1663 -0.2633 -0.3129
  235MPD1    C2 3565   1.735   1.306   9.977 -0.2020 -0.4360  0.1974
  235MPD1    C3 3566   1.816   1.413  10.018  0.3881 -0.4726 -0.2435
  235MPD1    C4 3567   1.858   1.419  10.145 -0.0638  0.4288  0.1096
  235MPD1    C5 3568   1.822   1.326  10.235 -0.4533  0.3131 -0.2565
  235MPD1     H 3569   1.696   1.299   9.876 -1.3900 -0.9979  0.6970
  235MPD1    H1 3570   1.938   1.485  10.178  0.2082 -0.5853  1.4769
  235MPD1    H2 3571   1.697   1.164  10.276 -2.1046  0.7677 -0.7984
  235MPD1    H3 3572   1.867   1.328  10.333  2.3791 -0.7039 -1.5363
  235MPD1     N 3573   1.857   1.506   9.918  0.0894 -1.6558 -0.0346
  235MPD1    H5 3574   1.819   1.500   9.824 -1.3692  1.0489  0.3851
  235MPD1    N1 3575   1.598   1.114  10.037 -0.2282  0.4861  0.3681
  235MPD1    H6 3576   1.541   1.148   9.959 -1.8441 -2.6844  0.1702
  235MPD1    H7 3577   1.530   1.092  10.109  0.0461  0.0820  0.5008
  236MPD1     C 3578   0.807   2.431   9.526  0.2659 -0.7263 -0.5102
  236MPD1    C1 3579   0.854   2.306   9.487 -0.2689  0.0163  0.7665
  236MPD1    C2 3580   0.953   2.256   9.564 -0.3673  0.1487  0.5322
  236MPD1    C3 3581   1.020   2.321   9.662 -0.2013  0.3223 -0.5185
  236MPD1    C4 3582   0.998   2.455   9.673 -0.1885  0.1894  0.2430
  236MPD1    C5 3583   0.883   2.509   9.615  0.0903 -0.7517 -0.0017
  236MPD1     H 3584   0.982   2.152   9.552  1.0481  0.6381 -0.1584
  236MPD1    H1 3585   1.051   2.519   9.743 -1.3023  0.6732  0.6522
  236MPD1    H2 3586   0.716   2.481   9.494  1.9695  2.0496 -0.9832
  236MPD1    H3 3587   0.854   2.609   9.646 -0.4129 -0.9187  0.0544
  236MPD1     N 3588   1.125   2.263   9.737 -0.1870 -0.4871  0.1624
  236MPD1    H5 3589   1.165   2.337   9.794 -1.1257 -1.7015  2.3985
  236MPD1    N1 3590   0.787   2.224   9.397 -0.2075  0.0568  0.0523
  236MPD1    H6 3591   0.751   2.266   9.312 -0.3538  1.0170  0.5848
  236MPD1    H7 3592   0.855   2.156   9.362  1.2224  1.8077 -0.5651
  237MPD1     C 3593   0.899   0.531  15.862  0.2689 -0.4067 -0.1046
  237MPD1    C1 3594   0.909   0.454  15.754 -0.3695 -0.1348  0.3191
  237MPD1    C2 3595   0.816   0.477  15.652 -0.5083 -0.3919  0.3345
  237MPD1    C3 3596   0.726   0.581  15.659 -0.4355 -0.4015  0.4529
  237MPD1    C4 3597   0.721   0.662  15.777  0.1679 -0.5103  0.1398
  237MPD1    C5 3598   0.806   0.628  15.882 -0.2070  0.4260  0.8412
  237MPD1     H 3599   0.800   0.407  15.570 -1.3592  0.4679 -0.2278
  237MPD1    H1 3600   0.661   0.752  15.783 -1.4929 -1.5858 -0.4326
  237MPD1    H2 3601   0.952   0.514  15.955 -1.4089 -2.7437  0.4366
  237MPD1    H3 3602   0.808   0.699  15.964 -2.1196  0.8737  0.4996
  237MPD1     N 3603   0.636   0.609  15.551  0.4764  0.0464 -0.8154
  237MPD1    H5 3604   0.573   0.687  15.570  1.6176  1.7646 -4.0442
  237MPD1    N1 3605   0.975   0.325  15.769 -0.6665  0.3216 -0.3761
  237MPD1    H6 3606   1.046   0.336  15.842 -1.4572 -0.7716  0.5551
  237MPD1    H7 3607   1.015   0.279  15.688  1.2239  1.5019 -0.1168
  238MPD1     C 3608   1.974   0.122  15.535 -0.0431 -0.0880  0.1664
  238MPD1    C1 3609   1.869   0.057  15.591  0.9246 -0.5962 -0.2651
  238MPD1    C2 3610   1.811   4.667  15.518  0.5938  0.5807 -0.3380
  238MPD1    C3 3611   1.862   4.625  15.397  0.2891  0.4200 -0.1155
  238MPD1    C4 3612   1.963   4.700  15.345 -0.2244 -0.4082 -0.4759
  238MPD1    C5 3613   2.012   0.086  15.413 -0.2233 -0.4746 -0.4212
  238MPD1     H 3614   1.746   4.593  15.563  2.3703 -1.0898 -0.5524
  238MPD1    H1 3615   2.010   4.677  15.250 -0.6225 -0.9788 -0.5383
  238MPD1    H2 3616   2.017   0.203  15.592  0.1484  1.0735 -1.6185
  238MPD1    H3 3617   2.103   0.136  15.382 -0.3317  0.2245  0.3627
  238MPD1     N 3618   1.823   4.510  15.329  1.2893  0.1920  0.0809
  238MPD1    H5 3619   1.866   4.503  15.238  0.4112 -0.4197 -0.2870
  238MPD1    N1 3620   1.827   0.076  15.724  0.2394  0.1517 -0.4821
  238MPD1    H6 3621   1.741   0.025  15.744  0.4519 -0.9383 -2.3811
  238MPD1    H7 3622   1.902   0.054  15.789  0.0402  2.5561  0.5560
  239MPD1     C 3623   2.792   0.410  15.087 -0.9057  0.2806  0.5825
  239MPD1    C1 3624   2.871   0.357  14.990 -0.4594  0.5085 -0.2000
  239MPD1    C2 3625   2.800   0.304  14.881 -0.7321  0.5762  0.0953
  239MPD1    C3 3626   2.659   0.313  14.871  0.5736  0.2220 -0.2189
  239MPD1    C4 3627   2.592   0.377  14.972 -0.3714  0.3251 -0.1426
  239MPD1    C5 3628   2.658   0.420  15.081  0.1542 -0.0357  0.0577
  239MPD1     H 3629   2.861   0.266  14.799 -1.7731 -1.5054  0.3004
  239MPD1    H1 3630   2.485   0.390  14.963 -0.4516 -0.2900 -0.0590
  239MPD1    H2 3631   2.837   0.469  15.166 -0.9914  2.7232 -1.1636
  239MPD1    H3 3632   2.601   0.459  15.165 -1.6545 -1.2864 -0.5781
  239MPD1     N 3633   2.581   0.287  14.759 -0.2045  0.3599 -0.0753
  239MPD1    H5 3634   2.480   0.276  14.765 -0.1397  0.5170  1.2527
  239MPD1    N1 3635   3.010   0.342  15.005  0.6773 -0.5079  0.0822
  239MPD1    H6 3636   3.055   0.327  14.915 -0.0529  0.1736 -0.3966
  239MPD1    H7 3637   3.051   0.425  15.047  3.3755 -1.0951 -1.4186
  240MPD1     C 3638   1.415   0.518  14.815  0.6354 -0.1236  0.7847
  240MPD1    C1 3639   1.444   0.506  14.679 -0.5025 -0.8482 -0.1000
  240MPD1    C2 3640   1.470   0.383  14.633 -0.3145 -0.0783  1.5313
  240MPD1    C3 3641   1.473   0.271  14.721  0.0647  0.5694  0.1850
  240MPD1    C4 3642   1.446   0.287  14.853 -0.6293 -0.9159  0.5256
  240MPD1    C5 3643   1.417   0.414  14.898 -0.1988  0.2852  0.8215
  240MPD1     H 3644   1.481   0.366  14.527  2.1388 -2.1383  2.1053
  240MPD1    H1 3645   1.440   0.205  14.923  1.6057 -0.5692  1.1282
  240MPD1    H2 3646   1.403   0.621  14.847  0.5507  0.0321  0.2526
  240MPD1    H3 3647   1.380   0.424  14.999  0.7450  0.1907  1.1731
  240MPD1     N 3648   1.517   0.143  14.671 -0.2191  0.0794  0.4474
  240MPD1    H5 3649   1.572   0.148  14.585  1.3106  1.6680  1.5233
  240MPD1    N1 3650   1.419   0.608  14.589  0.3423 -0.0175 -0.2484
  240MPD1    H6 3651   1.474   0.596  14.504  0.4284  1.0470 -0.3466
  240MPD1    H7 3652   1.452   0.699  14.623 -0.4580 -0.4829  1.8120
  241MPD1     C 3653   2.378   0.015  14.409 -0.1128  0.5180  0.0435
  241MPD1    C1 3654   2.284   0.038  14.317 -0.4165 -0.0261 -0.4275
  241MPD1    C2 3655   2.153   0.002  14.344 -0.0736 -0.0110 -0.6081
  241MPD1    C3 3656   2.119   0.006  14.478 -0.2925 -0.2063  0.1548
  241MPD1    C4 3657   2.214   0.019  14.572  0.3803  0.1708 -1.2682
  241MPD1    C5 3658   2.346   0.011  14.542  0.3941 -0.0977  0.6368
  241MPD1     H 3659   2.079   4.716  14.265 -1.2784  1.2414  0.4045
  241MPD1    H1 3660   2.179   0.020  14.675 -0.7436 -1.1660 -1.6232
  241MPD1    H2 3661   2.482   0.003  14.383  0.3563 -0.3702  2.3036
  241MPD1    H3 3662   2.423   0.018  14.619  0.2853  1.5415  0.6076
  241MPD1     N 3663   1.985   4.710  14.520  0.2736 -0.7660 -0.7576
  241MPD1    H5 3664   1.971   0.008  14.618 -2.5765 -0.7366 -1.1560
  241MPD1    N1 3665   2.322   0.051  14.184 -0.1272  0.5159  0.2715
  241MPD1    H6 3666   2.412   0.096  14.169  1.3720 -2.3730  0.4824
  241MPD1    H7 3667   2.251   0.089  14.122 -1.3467  0.5907  1.7234
  242MPD1     C 3668   1.445   2.847  15.965 -0.1342 -0.0639 -0.5165
  242MPD1    C1 3669   1.352   2.781  15.890 -0.0012 -0.5555 -0.1573
  242MPD1    C2 3670   1.373   2.769  15.751 -0.1437  0.3925 -0.5731
  242MPD1    C3 3671   1.484   2.837  15.693  0.1237 -0.6921  0.1739
  242MPD1    C4 3672   1.576   2.900  15.773 -0.1353 -0.0586 -0.3319
  242MPD1    C5 3673   1.562   2.898  15.909 -0.6705 -0.3964  0.0987
  242MPD1     H 3674   1.300   2.716  15.692  0.8700 -0.0652 -1.4100
  242MPD1    H1 3675   1.664   2.948  15.734  0.6444  0.3425  1.9442
  242MPD1    H2 3676   1.422   2.867  16.070  0.4721  0.1185 -0.4207
  242MPD1    H3 3677   1.639   2.950  15.964  3.1530 -4.6001 -1.2611
  242MPD1     N 3678   1.516   2.836  15.552 -0.6326  0.0527  0.3815
  242MPD1    H5 3679   1.605   2.869  15.514 -0.2207 -1.3546  0.1355
  242MPD1    N1 3680   1.268   2.693  15.958 -0.0605  0.1252 -0.2387
  242MPD1    H6 3681   1.219   2.743  16.031 -0.7055  0.6768 -1.0491
  242MPD1    H7 3682   1.195   2.673  15.889  2.5904 -1.8416 -2.4865
  243MPD1     C 3683   2.819   0.620  17.415  0.4071  0.2256 -0.1257
  243MPD1    C1 3684   2.941   0.566  17.451 -0.8550  0.1138 -0.3774
  243MPD1    C2 3685   3.046   0.579  17.364  0.7984  0.4590  0.0149
  243MPD1    C3 3686   3.031   0.641  17.239 -0.1577 -0.0520 -0.0820
  243MPD1    C4 3687   2.910   0.698  17.204  0.2964 -0.3646 -0.9540
  243MPD1    C5 3688   2.800   0.686  17.291  0.5542  0.0338 -0.6128
  243MPD1     H 3689   3.142   0.534  17.389  0.6816 -0.7308 -1.6772
  243MPD1    H1 3690   2.886   0.766  17.122  0.3306  2.5145  1.4022
  243MPD1    H2 3691   2.734   0.606  17.480  0.2282  1.6909 -0.0454
  243MPD1    H3 3692   2.706   0.732  17.263  0.5138  0.8554  0.8949
  243MPD1     N 3693   3.146   0.672  17.170 -0.4607  0.4048 -0.2067
  243MPD1    H5 3694   3.231   0.628  17.203 -1.4941  0.7688  2.8885
  243MPD1    N1 3695   2.963   0.486  17.563  0.2823 -0.6430 -0.2082
  243MPD1    H6 3696   3.055   0.442  17.568  0.0486 -1.2281 -0.9371
  243MPD1    H7 3697   2.897   0.408  17.572 -0.4439  0.1719  1.5597
  244MPD1     C 3698   4.063   0.479  17.273 -0.6112  0.1640 -0.2215
  244MPD1    C1 3699   4.080   0.573  17.175 -0.1374 -0.2942  0.5241
  244MPD1    C2 3700   3.972   0.619  17.101 -0.2285 -0.3560 -0.2058
  244MPD1    C3 3701   3.842   0.598  17.147 -0.5315 -0.3144  0.0837
  244MPD1    C4 3702   3.831   0.527  17.264  0.3881 -0.3759 -0.1005
  244MPD1    C5 3703   3.941   0.457  17.320 -0.3041 -0.6655 -0.0673
  244MPD1     H 3704   3.982   0.666  17.003 -0.7570  1.5090  0.6312
  244MPD1    H1 3705   3.736   0.518  17.316  1.3895  1.3663  2.0170
  244MPD1    H2 3706   4.139   0.425  17.328 -0.4523  1.7660  1.1297
  244MPD1    H3 3707   3.929   0.378  17.394  0.0173 -1.4435 -0.8333
  244MPD1     N 3708   3.735   0.653  17.079  0.8369  0.0488 -0.3380
  244MPD1    H5 3709   3.752   0.730  17.016  0.6404  0.0153 -0.4331
  244MPD1    N1 3710   4.210   0.598  17.132  0.1127 -0.0800  0.2354
  244MPD1    H6 3711   4.279   0.585  17.206 -0.4072  0.1912  0.7621
  244MPD1    H7 3712   4.219   0.691  17.091 -1.7983 -0.7041 -1.5887
  245MPD1     C 3713   0.269   2.052  13.390 -0.3159  0.5707 -0.3603
  245MPD1    C1 3714   0.342   2.083  13.495  0.2675 -1.0461 -0.6425
  245MPD1    C2 3715   0.397   2.210  13.506 -0.9430  0.8634 -0.0846
  245MPD1    C3 3716   0.371   2.301  13.406 -0.0512  0.8743  0.1358
  245MPD1    C4 3717   0.282   2.267  13.314  0.7305 -0.1481  0.1744
  245MPD1    C5 3718   0.236   2.142  13.295  1.0533  0.2922 -0.1088
  245MPD1     H 3719   0.468   2.240  13.582  0.8111 -0.0575 -1.3488
  245MPD1    H1 3720   0.252   2.339  13.239  2.1590  0.2219 -0.0419
  245MPD1    H2 3721   0.224   1.954  13.375  2.2110 -0.5304 -0.6807
  245MPD1    H3 3722   0.170   2.133  13.209 -0.2063 -2.2019  1.1169
  245MPD1     N 3723   0.425   2.429  13.423  0.6052 -0.5321  1.0322
  245MPD1    H5 3724   0.484   2.448  13.503  0.9307 -0.5463  0.7946
  245MPD1    N1 3725   0.387   1.982  13.589 -0.1478 -0.4966 -0.1995
  245MPD1    H6 3726   0.330   1.898  13.585 -0.6873 -0.1746  0.5948
  245MPD1    H7 3727   0.481   1.952  13.567  0.1207 -1.4708  2.2561
  246MPD1     C 3728   1.881   2.851   8.947 -0.1682  0.0312 -0.1120
  246MPD1    C1 3729   1.765   2.856   8.877 -0.1255  0.3793 -0.4413
  246MPD1    C2 3730   1.714   2.981   8.863  0.8953  0.0025  0.0328
  246MPD1    C3 3731   1.756   3.090   8.935 -0.3086  0.0869 -0.4641
  246MPD1    C4 3732   1.866   3.082   9.016 -0.1870 -0.3404 -0.4752
  246MPD1    C5 3733   1.926   2.959   9.012  0.1281 -0.4337 -0.5164
  246MPD1     H 3734   1.632   2.998   8.795  2.7416  1.7661 -1.7454
  246MPD1    H1 3735   1.917   3.169   9.057 -0.0643 -0.0276 -1.3010
  246MPD1    H2 3736   1.942   2.762   8.951  0.6846  0.6968  1.9262
  246MPD1    H3 3737   2.027   2.950   9.051 -0.2494 -1.1394  0.3170
  246MPD1     N 3738   1.693   3.211   8.902 -0.4441 -0.8560  0.2199
  246MPD1    H5 3739   1.628   3.205   8.824 -0.9425  1.7486  0.4526
  246MPD1    N1 3740   1.733   2.750   8.796  0.2109 -0.5505  0.0264
  246MPD1    H6 3741   1.792   2.673   8.827  0.7808  0.4066  1.2935
  246MPD1    H7 3742   1.636   2.722   8.808 -0.5659  1.2372 -2.1178
  247MPD1     C 3743   4.123   2.127  16.838  0.1708 -0.8782  0.2680
  247MPD1    C1 3744   4.136   2.173  16.708  0.0265  0.4565 -1.0838
  247MPD1    C2 3745   4.196   2.092  16.611  0.0019 -1.6954  0.5428
  247MPD1    C3 3746   4.235   1.966  16.645  0.3597 -0.2602 -0.5904
  247MPD1    C4 3747   4.218   1.911  16.769  0.1723 -0.4684  0.1622
  247MPD1    C5 3748   4.157   1.992  16.865  0.7229 -0.3487 -0.0415
  247MPD1     H 3749   4.207   2.133  16.512  0.5794 -0.4101  1.1439
  247MPD1    H1 3750   4.245   1.809  16.793  2.7245  0.1375 -0.0678
  247MPD1    H2 3751   4.060   2.173  16.913 -0.5721  0.7696 -1.3713
  247MPD1    H3 3752   4.145   1.946  16.963 -0.0211 -0.7917 -0.3474
  247MPD1     N 3753   4.304   1.882  16.543 -1.0872  0.8803 -0.1640
  247MPD1    H5 3754   4.324   1.787  16.570 -1.4054  0.6055 -0.8874
  247MPD1    N1 3755   4.068   2.291  16.675  0.3614 -0.7255 -1.1379
  247MPD1    H6 3756   4.086   2.362  16.745 -1.2525  0.1373 -1.6015
  247MPD1    H7 3757   4.100   2.327  16.586 -0.2479  2.3867 -0.0882
  248MPD1     C 3758   0.341   1.045   0.234 -0.5045  0.5927 -0.0541
  248MPD1    C1 3759   0.333   1.161   0.164 -0.7477 -0.3074  0.5697
  248MPD1    C2 3760   0.210   1.195   0.114 -0.9347  0.1394 -0.8987
  248MPD1    C3 3761   0.106   1.103   0.104 -0.1028 -0.3853  0.2994
  248MPD1    C4 3762   0.114   0.977   0.160 -0.2089 -0.6149  0.9263
  248MPD1    C5 3763   0.234   0.955   0.230 -0.4879  0.0435 -0.6420
  248MPD1     H 3764   0.194   1.295   0.075 -0.1645  0.5394 -0.2037
  248MPD1    H1 3765   0.039   0.898   0.156 -1.3821  0.5752 -0.5106
  248MPD1    H2 3766   0.427   1.018   0.293  0.8911  0.9164 -1.9600
  248MPD1    H3 3767   0.242   0.865   0.290 -1.1395  2.3164  2.8932
  248MPD1     N 3768   4.711   1.146   0.035 -0.5984 -0.3450  0.8271
  248MPD1    H5 3769   0.002   1.237  17.674 -0.2464 -0.9252 -0.3166
  248MPD1    N1 3770   0.441   1.246   0.182 -0.0175 -0.4798  0.3047
  248MPD1    H6 3771   0.534   1.206   0.186  1.1511  1.8305 -3.7425
  248MPD1    H7 3772   0.444   1.317   0.109 -1.2006  0.5500  1.2533
  249MPD1     C 3773   2.259   0.624   9.985  1.3925 -0.1769  0.4373
  249MPD1    C1 3774   2.329   0.733  10.029 -0.4326 -0.1666 -0.1797
  249MPD1    C2 3775   2.415   0.798   9.944  0.9341 -0.1791  0.6479
  249MPD1    C3 3776   2.436   0.753   9.814 -0.0323  0.3166  0.2375
  249MPD1    C4 3777   2.362   0.646   9.767 -1.0438  0.1163  0.1393
  249MPD1    C5 3778   2.275   0.585   9.853 -0.2718 -0.2872  0.1719
  249MPD1     H 3779   2.471   0.887   9.969 -0.1861  0.5596  0.4769
  249MPD1    H1 3780   2.369   0.620   9.662  2.6369 -0.2927  0.5006
  249MPD1    H2 3781   2.184   0.572  10.043  0.6303 -0.8232 -1.1469
  249MPD1    H3 3782   2.221   0.504   9.805  1.2178  0.3820 -2.6808
  249MPD1     N 3783   2.529   0.830   9.729  0.1090 -0.0566 -0.6785
  249MPD1    H5 3784   2.598   0.889   9.775  0.4108 -0.8046 -0.1848
  249MPD1    N1 3785   2.333   0.754  10.169 -0.3492 -0.5502  0.3370
  249MPD1    H6 3786   2.249   0.715  10.211 -0.2823 -0.7234  0.3073
  249MPD1    H7 3787   2.408   0.698  10.207 -0.2572  0.5124  1.7006
  250MPD2     C 3788   3.221   0.777  12.910 -0.3560  0.3220 -0.3819
  250MPD2    C1 3789   3.193   0.795  12.771 -0.2476 -0.5333 -1.0107
  250MPD2    C2 3790   3.107   0.709  12.711  0.1582  0.4092 -0.1877
  250MPD2    C3 3791   3.046   0.614  12.787 -0.2670 -0.3864 -0.0978
  250MPD2    C4 3792   3.082   0.583  12.912  0.0825 -0.2199  0.3126
  250MPD2    C5 3793   3.177   0.666  12.973 -0.9156  0.2542 -0.0856
  250MPD2     H 3794   3.078   0.720  12.607  1.7634  1.5975 -0.4911
  250MPD2    H1 3795   3.032   0.505  12.968 -2.4635  1.8097  0.8624
  250MPD2    H2 3796   3.295   0.841  12.955 -0.9787 -0.8204  2.2529
  250MPD2    H3 3797   3.198   0.660  13.079 -0.6770 -0.5038 -0.1753
  250MPD2     N 3798   2.936   0.539  12.734 -0.1985 -0.2315  0.3158
  250MPD2    H5 3799   2.898   0.459  12.782 -1.4519  1.5970  2.3763
  250MPD2    N1 3800   3.242   0.899  12.700  0.0290  0.3440 -0.8519
  250MPD2    H7 3801   3.277   0.977  12.754 -1.9689  0.6662 -0.0047
  251TMC3    C1 3802   3.327   1.019  12.523 -0.1788  0.1514  0.4056
  251TMC3    C2 3803   3.306   1.136  12.589 -0.1639 -0.1692 -0.3056
  251TMC3    C3 3804   3.404   1.225  12.570 -0.0957 -0.0933 -0.0869
  251TMC3    C4 3805   3.428   1.003  12.438 -0.8149 -0.3089 -0.3277
  251TMC3    C5 3806   3.515   1.101  12.415  0.4405  0.2069  0.5775
  251TMC3    C6 3807   3.511   1.211  12.492  0.2861 -0.8784  0.6970
  251TMC3     C 3808   3.257   0.895  12.567 -0.0628  0.0569  0.2944
  251TMC3     O 3809   3.255   0.803  12.485 -0.2683 -0.2568 -0.0238
  251TMC3     H 3810   3.214   1.165  12.637 -0.4393  0.9807 -1.5051
  251TMC3    H1 3811   3.427   0.913  12.378  0.6811  0.7467 -1.9751
  251TMC3    H2 3812   3.599   1.270  12.516 -0.4819  0.5043  0.1445
  251TMC3    C7 3813   3.641   1.062  12.357 -0.0931 -0.2786  0.2160
  251TMC3    C8 3814   3.390   1.342  12.650 -0.3800 -0.0852 -0.2362
  251TMC3    O1 3815   3.655   0.947  12.318 -1.0389 -0.4089  0.2040
  251TMC3    O2 3816   3.305   1.335  12.738  0.2074  0.2148 -0.2268
  252TMC3    C1 3817   4.526   1.581   9.343 -1.0183  0.2679  0.8729
  252TMC3    C2 3818   4.600   1.696   9.349  0.0127 -0.2878  0.2094
  252TMC3    C3 3819   4.540   1.809   9.405  0.4480  0.4376  0.9922
  252TMC3    C4 3820   4.393   1.579   9.373  0.0391 -0.0690 -0.4054
  252TMC3    C5 3821   4.333   1.693   9.399  0.0382 -0.5200 -0.5743
  252TMC3    C6 3822   4.405   1.813   9.418  0.3452  0.9224  0.6074
  252TMC3     C 3823   4.597   1.458   9.310  0.0022 -0.0462 -0.3604
  252TMC3     O 3824   4.700   1.462   9.242  0.0651  0.4653 -0.2930
  252TMC3     H 3825   4.706   1.676   9.341  0.4284  2.2258 -0.4969
  252TMC3    H1 3826   4.345   1.485   9.346 -0.5319 -0.3526  1.6482
  252TMC3    H2 3827   4.353   1.903   9.450 -0.5962  0.1388  1.2465
  252TMC3    C7 3828   4.193   1.701   9.427  0.0567  0.2505 -0.2596
  252TMC3    C8 3829   4.632   1.907   9.461  0.4385  0.3031 -0.3038
  252TMC3    O1 3830   4.136   1.805   9.412  0.0108  0.2835 -0.9191
  252TMC3    O2 3831   0.030   1.899   9.427  0.0986 -0.4348 -0.1689
  253MPD2     C 3832   4.318   0.230  15.252 -0.3837 -0.0296  0.0058
  253MPD2    C1 3833   4.209   0.290  15.304  0.5011 -0.1753 -0.3434
  253MPD2    C2 3834   4.223   0.420  15.345  0.1330 -0.2059 -0.3728
  253MPD2    C3 3835   4.337   0.497  15.348 -0.2530  0.7113 -0.4090
  253MPD2    C4 3836   4.445   0.440  15.290  0.6168  0.3315  0.4292
  253MPD2    C5 3837   4.432   0.306  15.237 -0.3940 -0.0642 -0.2248
  253MPD2     H 3838   4.131   0.470  15.372  0.2819 -0.7334  1.1137
  253MPD2    H1 3839   4.539   0.492  15.295  1.7950 -1.7070 -0.4201
  253MPD2    H2 3840   4.313   0.137  15.197  0.1708  0.0159 -0.1191
  253MPD2    H3 3841   4.519   0.266  15.187  0.7059 -0.0129  1.6204
  253MPD2     N 3842   4.348   0.626  15.415 -0.2598  0.0862  0.1509
  253MPD2    H5 3843   4.423   0.683  15.376 -1.9216  1.7731 -0.5486
  253MPD2    N1 3844   4.088   0.225  15.323  0.0192 -0.4620  0.0944
  253MPD2    H7 3845   4.031   0.288  15.378  0.1421 -0.2342 -0.0416
  254TMC3    C1 3846   4.296   0.795  15.568  0.2539 -0.3314  0.5475
  254TMC3    C2 3847   4.201   0.862  15.647  0.1133  0.1819 -0.8536
  254TMC3    C3 3848   4.244   0.960  15.725  0.2873  0.0513  0.0451
  254TMC3    C4 3849   4.430   0.831  15.572 -0.4446 -0.1576 -0.3705
  254TMC3    C5 3850   4.464   0.934  15.657  0.1397 -0.1944 -0.3579
  254TMC3    C6 3851   4.373   0.999  15.739 -0.3290 -0.4873  0.0926
  254TMC3     C 3852   4.253   0.673  15.506 -0.5640  0.4868 -0.6323
  254TMC3     O 3853   4.138   0.640  15.528 -0.3867 -0.3543 -0.3470
  254TMC3     H 3854   4.095   0.839  15.648 -0.0057  0.7894  0.9749
  254TMC3    H1 3855   4.507   0.768  15.528 -0.0161  0.4350 -0.4699
  254TMC3    H2 3856   4.397   1.078  15.810  1.0078 -1.3915  0.6310
  254TMC3    C7 3857   4.600   0.935  15.688 -0.7758  0.1318  0.1183
  254TMC3    C8 3858   4.144   1.014  15.810 -0.0616  0.2028  0.4712
  254TMC3    O1 3859   4.680   0.937  15.596  0.2862 -0.4090  0.7416
  254TMC3    O2 3860   4.073   0.941  15.879  0.0859 -0.6006 -0.2762
  255MPD2     C 3861   2.957   2.528   9.984 -0.3995  0.6188  0.6598
  255MPD2    C1 3862   2.963   2.662  10.007  0.1935 -0.3785 -0.4346
  255MPD2    C2 3863   3.091   2.722  10.009  0.8838 -0.2038 -0.2464
  255MPD2    C3 3864   3.202   2.645   9.991 -0.4820 -0.2358 -0.1272
  255MPD2    C4 3865   3.194   2.507   9.969 -0.0280  0.5413 -0.8447
  255MPD2    C5 3866   3.070   2.448   9.965 -0.0558 -0.2734  0.0083
  255MPD2     H 3867   3.103   2.830  10.019 -1.8157 -0.1394  2.1509
  255MPD2    H1 3868   3.282   2.444   9.966 -0.1155  0.3679  0.3960
  255MPD2    H2 3869   2.861   2.481   9.970  1.2953 -1.6724 -3.2664
  255MPD2    H3 3870   3.065   2.342   9.944 -0.4409 -0.0556 -0.9946
  255MPD2     N 3871   3.328   2.711   9.986 -0.5467 -0.3995  0.3012
  255MPD2    H5 3872   3.319   2.810  10.004  0.6936  0.3575 -3.2773
  255MPD2    N1 3873   2.839   2.728  10.021  0.3979 -0.5167  0.1510
  255MPD2    H7 3874   2.761   2.663  10.018 -1.1917  1.3288  1.4991
  256TMC3    C1 3875   2.696   2.910   9.999 -0.7057  0.0759 -0.4913
  256TMC3    C2 3876   2.701   3.045   9.980 -0.7785 -0.3609 -0.0360
  256TMC3    C3 3877   2.625   3.097   9.876  0.4128  0.2997  0.5203
  256TMC3    C4 3878   2.626   2.830   9.911 -0.9551  0.7396 -0.0036
  256TMC3    C5 3879   2.563   2.890   9.804 -0.2658 -0.2886  0.0685
  256TMC3    C6 3880   2.552   3.022   9.783 -0.2440 -0.4048  0.4202
  256TMC3     C 3881   2.825   2.862  10.052 -0.5197 -0.5444 -0.0683
  256TMC3     O 3882   2.910   2.945  10.072  0.2969  0.0466 -0.2994
  256TMC3     H 3883   2.753   3.112  10.049 -1.5579  1.8406 -1.5906
  256TMC3    H1 3884   2.602   2.727   9.934  1.0572 -0.3188 -2.5916
  256TMC3    H2 3885   2.528   3.065   9.686 -0.6413 -1.6581 -0.0351
  256TMC3    C7 3886   2.616   2.816   9.686 -0.1660  0.4561 -0.2262
  256TMC3    C8 3887   2.580   3.234   9.891 -0.3804  0.0152  0.0300
  256TMC3    O1 3888   2.573   2.864   9.584 -0.5886 -0.3025 -0.1326
  256TMC3    O2 3889   2.471   3.260   9.840 -0.5438 -0.1073 -0.0304
  257MPD2     C 3890   2.278   1.077  12.918  0.7483 -0.1208  0.0830
  257MPD2    C1 3891   2.232   0.994  12.817 -0.4887 -0.4204 -0.0120
  257MPD2    C2 3892   2.212   0.860  12.856  0.5427  0.1671  0.2830
  257MPD2    C3 3893   2.250   0.808  12.978 -0.6905 -0.4262  0.5998
  257MPD2    C4 3894   2.302   0.895  13.070 -0.5794  0.4562 -0.9255
  257MPD2    C5 3895   2.317   1.026  13.039 -0.0206 -0.1856 -0.4894
  257MPD2     H 3896   2.191   0.780  12.786 -1.3453  0.2599  0.7594
  257MPD2    H1 3897   2.318   0.858  13.171  2.1024 -0.2649 -1.5966
  257MPD2    H2 3898   2.279   1.184  12.902  0.3448 -0.2913 -1.0999
  257MPD2    H3 3899   2.345   1.094  13.119 -2.2086  1.4958 -1.1586
  257MPD2     N 3900   2.246   0.669  12.992 -0.4053 -0.0514  0.5426
  257MPD2    H5 3901   2.195   0.618  12.920  0.2371  0.8485 -0.5545
  257MPD2    N1 3902   2.223   1.034  12.683  0.1450 -0.1031  0.2625
  257MPD2    H7 3903   2.262   1.126  12.665 -0.3565 -0.0052 -0.3134
  258TMC3    C1 3904   2.263   0.457  13.095  1.0838  0.1853  0.0505
  258TMC3    C2 3905   2.177   0.406  12.996 -0.1460  0.7397  0.4345
  258TMC3    C3 3906   2.109   0.294  13.026 -0.5438  0.9820 -0.3038
  258TMC3    C4 3907   2.281   0.383  13.209 -0.1715 -0.5327 -0.0792
  258TMC3    C5 3908   2.195   0.277  13.234 -1.0586  0.3785  0.1761
  258TMC3    C6 3909   2.109   0.228  13.144 -0.5001  0.1542  0.6136
  258TMC3     C 3910   2.289   0.602  13.102 -0.2092 -0.4071  0.2161
  258TMC3     O 3911   2.346   0.637  13.202  0.3221  0.3525 -0.0169
  258TMC3     H 3912   2.169   0.463  12.904 -2.4394  0.9517  0.7769
  258TMC3    H1 3913   2.342   0.420  13.290  0.4232 -2.4117  0.3075
  258TMC3    H2 3914   2.047   0.140  13.159  2.4309 -1.4971  2.9787
  258TMC3    C7 3915   2.170   0.239  13.371  0.6662 -1.3122 -0.2007
  258TMC3    C8 3916   1.988   0.273  12.942  0.1571  0.2187  0.1994
  258TMC3    O1 3917   2.058   0.194  13.392 -0.4975  0.0490  0.4130
  258TMC3    O2 3918   1.988   0.327  12.829 -0.4037 -0.3607 -0.2831
  259MPD2     C 3919   0.662   1.674   0.267  0.3396  0.5460  0.0157
  259MPD2    C1 3920   0.774   1.723   0.337  0.1937  0.0223 -0.0776
  259MPD2    C2 3921   0.896   1.747   0.266 -1.1688 -0.0908 -0.1683
  259MPD2    C3 3922   0.904   1.716   0.133  0.0002 -0.5066  0.0243
  259MPD2    C4 3923   0.794   1.666   0.067  0.2416 -0.5233 -0.3298
  259MPD2    C5 3924   0.677   1.643   0.134  0.0518 -0.7236 -0.4596
  259MPD2     H 3925   0.985   1.800   0.299 -1.6302  1.3540 -1.2520
  259MPD2    H1 3926   0.789   1.651  17.641 -0.4255  2.3525 -0.7016
  259MPD2    H2 3927   0.563   1.661   0.308  0.9671 -1.1049  1.0043
  259MPD2    H3 3928   0.596   1.612   0.068 -0.9764  1.2232 -0.1020
  259MPD2     N 3929   1.031   1.740   0.067  0.0215 -0.1682  0.2410
  259MPD2    H5 3930   1.101   1.795   0.115 -1.1087  1.4557  0.0155
  259MPD2    N1 3931   0.754   1.750   0.476 -0.1268  0.0943  0.0466
  259MPD2    H7 3932   0.659   1.735   0.508 -0.0970 -1.3031 -0.5179
  260TMC3    C1 3933   1.200   1.733  17.584  0.1256 -0.5623 -0.8615
  260TMC3    C2 3934   1.271   1.841  17.640  0.1642  0.0018 -0.3971
  260TMC3    C3 3935   1.389   1.880  17.583 -0.3980  0.4910 -0.5923
  260TMC3    C4 3936   1.256   1.669  17.471 -0.1806 -1.0398 -0.1340
  260TMC3    C5 3937   1.370   1.717  17.412  0.0370  0.2509  0.1015
  260TMC3    C6 3938   1.438   1.821  17.475 -0.5235 -0.0762  0.1817
  260TMC3     C 3939   1.066   1.698  17.621 -0.7747  0.0911 -0.3164
  260TMC3     O 3940   0.994   1.641  17.537  0.1280  0.5962  0.0933
  260TMC3     H 3941   1.222   1.898   0.037  1.5292 -0.8279  1.0761
  260TMC3    H1 3942   1.194   1.591  17.428 -0.8001 -0.2370 -0.7036
  260TMC3    H2 3943   1.531   1.852  17.428 -0.1683 -1.1540  0.1731
  260TMC3    C7 3944   1.400   1.669  17.284  0.3392 -0.1252  0.3709
  260TMC3    C8 3945   1.460   1.987  17.649 -0.1602 -0.0282  0.3617
  260TMC3    O1 3946   1.364   1.556  17.256 -0.2357  0.1091  0.2737
  260TMC3    O2 3947   1.392   2.063   0.036  0.0246  0.3121 -0.3284
  261MPD2     C 3948   2.360   0.734  12.165  0.8374 -0.3252 -0.2218
  261MPD2    C1 3949   2.486   0.760  12.217 -0.0282 -0.1467 -0.4450
  261MPD2    C2 3950   2.559   0.870  12.197 -0.1737 -0.6732  0.0544
  261MPD2    C3 3951   2.505   0.963  12.109  0.3413  0.4444  0.1788
  261MPD2    C4 3952   2.375   0.946  12.063  0.6104  0.1205  0.1354
  261MPD2    C5 3953   2.306   0.834  12.092 -0.6237  0.5161  0.1084
  261MPD2     H 3954   2.654   0.888  12.247  0.1724 -1.4775 -0.3169
  261MPD2    H1 3955   2.336   1.018  11.992  1.7296  0.4632 -0.1291
  261MPD2    H2 3956   2.301   0.646  12.187 -1.9929  1.6072 -0.0807
  261MPD2    H3 3957   2.210   0.814  12.046 -0.5060  0.3940 -0.0827
  261MPD2     N 3958   2.583   1.063  12.053 -0.0412 -0.3331  0.3770
  261MPD2    H5 3959   2.545   1.131  11.989  0.4002 -0.1413  0.3168
  261MPD2    N1 3960   2.555   0.664  12.293 -0.0094  0.1595  0.4939
  261MPD2    H7 3961   2.651   0.684  12.318  0.1923 -0.9732  0.5974
  262TMC3    C1 3962   2.786   1.167  11.975  0.1040  0.8182 -0.0358
  262TMC3    C2 3963   2.727   1.287  11.944 -0.2070 -0.1280 -0.3451
  262TMC3    C3 3964   2.798   1.372  11.867 -0.5202 -0.4793 -0.3688
  262TMC3    C4 3965   2.903   1.122  11.916 -0.2471 -0.3082  0.7273
  262TMC3    C5 3966   2.962   1.204  11.828  0.3280  0.0484 -0.2846
  262TMC3    C6 3967   2.912   1.329  11.805 -0.2986 -0.1581 -0.5793
  262TMC3     C 3968   2.726   1.063  12.057 -0.0770  0.2974 -0.6658
  262TMC3     O 3969   2.806   0.989  12.113  0.2664  0.0204 -0.6602
  262TMC3     H 3970   2.633   1.313  11.991  0.6315  0.1528  1.1856
  262TMC3    H1 3971   2.934   1.019  11.914 -3.7750 -1.3366 -1.2666
  262TMC3    H2 3972   2.967   1.391  11.735 -1.5066  0.2099 -1.1992
  262TMC3    C7 3973   3.028   1.131  11.715  0.5584  0.2014 -0.2779
  262TMC3    C8 3974   2.736   1.487  11.815  0.7646 -0.0939 -1.1553
  262TMC3    O1 3975   3.087   1.028  11.748 -1.0316 -0.3756  0.2459
  262TMC3    O2 3976   2.808   1.566  11.756 -0.1479 -0.2361  0.8469
  263MPD2     C 3977   3.731   0.298  11.407  0.0238 -0.2087 -0.6087
  263MPD2    C1 3978   3.865   0.276  11.392 -0.6177 -0.0290  0.0972
  263MPD2    C2 3979   3.941   0.345  11.295  0.4208  1.0509 -0.7990
  263MPD2    C3 3980   3.884   0.447  11.219  0.1668  1.1312  0.2337
  263MPD2    C4 3981   3.753   0.480  11.248  0.3875  0.1516 -0.2783
  263MPD2    C5 3982   3.677   0.398  11.332  0.4735  0.5885 -0.8700
  263MPD2     H 3983   4.046   0.335  11.270 -0.0829 -3.4990 -1.0304
  263MPD2    H1 3984   3.683   0.545  11.196 -0.9349 -0.6473  0.5148
  263MPD2    H2 3985   3.670   0.237  11.473  1.1842 -0.8986 -0.1751
  263MPD2    H3 3986   3.570   0.418  11.331  0.3262 -0.0801  1.4930
  263MPD2     N 3987   3.960   0.509  11.113  1.2656  0.2249  0.3170
  263MPD2    H5 3988   4.054   0.474  11.094  1.7338  1.0745  1.0616
  263MPD2    N1 3989   3.929   0.181  11.484  0.1550  0.6284  0.0017
  263MPD2    H7 3990   3.873   0.142  11.560 -1.4702  1.8141 -0.5728
  264TMC3    C1 3991   3.984   0.660  10.920 -0.1285 -1.3196  0.1042
  264TMC3    C2 3992   3.921   0.771  10.865 -0.6466 -0.2609  0.2102
  264TMC3    C3 3993   3.975   0.808  10.747  0.9108 -0.0420 -0.9119
  264TMC3    C4 3994   4.083   0.584  10.862  0.5576  0.3792  0.5493
  264TMC3    C5 3995   4.118   0.618  10.736 -0.1218 -0.6251 -0.2079
  264TMC3    C6 3996   4.057   0.722  10.678 -0.3258  0.1272 -0.2364
  264TMC3     C 3997   3.920   0.620  11.045  0.8838  0.9668 -0.4665
  264TMC3     O 3998   3.826   0.693  11.071 -0.2353  0.2487  0.2227
  264TMC3     H 3999   3.856   0.836  10.922  0.0536 -0.0429  0.7629
  264TMC3    H1 4000   4.141   0.502  10.905 -0.7392 -1.0706 -0.4561
  264TMC3    H2 4001   4.076   0.744  10.574  0.9647 -2.9585 -0.6507
  264TMC3    C7 4002   4.262   0.613  10.713  0.0404  0.1787 -0.1394
  264TMC3    C8 4003   4.025   0.944  10.747  0.4191  0.2796  0.2925
  264TMC3    O1 4004   4.328   0.528  10.769 -0.5389 -0.1148  0.0756
  264TMC3    O2 4005   4.110   0.951  10.663 -0.2457 -0.5281  0.4883
  265MPD2     C 4006   1.289   0.347  15.754 -0.3262 -0.1003  0.1027
  265MPD2    C1 4007   1.306   0.440  15.659  0.3207  0.2996 -0.3423
  265MPD2    C2 4008   1.361   0.409  15.538  0.0430  0.6335  0.0200
  265MPD2    C3 4009   1.400   0.282  15.513  0.6399 -0.2572 -0.1953
  265MPD2    C4 4010   1.407   0.192  15.621 -0.3475 -0.0719 -0.4282
  265MPD2    C5 4011   1.342   0.221  15.734  0.2436  0.0541  0.1106
  265MPD2     H 4012   1.383   0.492  15.471 -2.5351  0.6417 -0.8440
  265MPD2    H1 4013   1.445   0.093  15.599  0.6803  0.6618 -1.9690
  265MPD2    H2 4014   1.239   0.370  15.847  1.6317  3.6699  0.1963
  265MPD2    H3 4015   1.327   0.143  15.809 -1.3180 -0.1963 -0.4746
  265MPD2     N 4016   1.460   0.237  15.400  0.4399  0.0381 -0.2250
  265MPD2    H5 4017   1.486   0.139  15.405  0.2528  0.0926  1.9616
  265MPD2    N1 4018   1.266   0.578  15.680  0.2537  0.0568  0.0043
  265MPD2    H7 4019   1.277   0.637  15.598  0.0495  0.1749  0.0623
  266TMC3    C1 4020   1.162   0.755  15.791 -0.1989 -0.5682  0.3835
  266TMC3    C2 4021   1.196   0.836  15.899  0.1320  0.6794  0.6576
  266TMC3    C3 4022   1.162   0.964  15.904 -0.6835 -0.8354  0.0973
  266TMC3    C4 4023   1.080   0.796  15.688 -0.2763  0.0832 -0.2110
  266TMC3    C5 4024   1.044   0.926  15.697 -0.0584  0.4907 -0.4323
  266TMC3    C6 4025   1.080   1.013  15.806 -0.0936 -0.7499 -0.2263
  266TMC3     C 4026   1.220   0.626  15.799 -0.3152 -0.2171  0.7002
  266TMC3     O 4027   1.219   0.578  15.912  0.3596 -0.2863  0.3574
  266TMC3     H 4028   1.265   0.791  15.970 -0.8931 -1.2227  0.4559
  266TMC3    H1 4029   1.053   0.743  15.598 -1.6061 -1.0509  0.8491
  266TMC3    H2 4030   1.058   1.119  15.803 -0.2987 -0.7734  0.6415
  266TMC3    C7 4031   0.952   0.980  15.594 -0.3518  0.5918 -0.2865
  266TMC3    C8 4032   1.271   1.041  15.963  0.2960 -1.3776  0.1007
  266TMC3    O1 4033   0.879   0.899  15.537  0.1293 -0.4537  0.2206
  266TMC3    O2 4034   1.368   0.979  16.005 -0.5201  0.2055  0.0358
  267MPD2     C 4035   3.139   2.443  17.265 -0.6004  0.1895 -0.2890
  267MPD2    C1 4036   3.166   2.313  17.306 -0.0492  0.3793 -0.2891
  267MPD2    C2 4037   3.209   2.216  17.216  0.4260 -0.2126 -0.0713
  267MPD2    C3 4038   3.229   2.253  17.083 -0.4087 -0.2652 -0.6180
  267MPD2    C4 4039   3.203   2.382  17.043  0.4114  0.4761  0.2529
  267MPD2    C5 4040   3.156   2.469  17.132  0.5913 -0.2200 -0.3030
  267MPD2     H 4041   3.230   2.116  17.255 -0.7245 -0.4478 -0.0649
  267MPD2    H1 4042   3.214   2.418  16.942  1.0376 -0.4807 -0.0288
  267MPD2    H2 4043   3.120   2.526  17.332  1.1170  0.1698  0.2223
  267MPD2    H3 4044   3.131   2.569  17.099  0.9664 -0.1925 -0.4930
  267MPD2     N 4045   3.274   2.146  16.995 -1.1086  0.8931  0.1058
  267MPD2    H5 4046   3.278   2.054  17.038  0.2689  1.1013  0.4170
  267MPD2    N1 4047   3.154   2.291  17.447 -0.8904 -0.5714 -0.1976
  267MPD2    H7 4048   3.151   2.370  17.512 -3.6958  0.7115 -1.8647
  268TMC3    C1 4049   3.150   2.182  17.667 -0.3423 -0.0344 -0.3406
  268TMC3    C2 4050   3.156   2.304   0.044 -0.0170 -0.5245  0.0439
  268TMC3    C3 4051   3.172   2.314   0.178  0.0653  0.4652  0.3600
  268TMC3    C4 4052   3.133   2.068   0.064  0.1780 -0.2269  0.7219
  268TMC3    C5 4053   3.139   2.084   0.199 -0.0221  0.2029 -0.0835
  268TMC3    C6 4054   3.166   2.201   0.257 -0.4027 -0.4780 -0.5234
  268TMC3     C 4055   3.138   2.168  17.513  0.0003 -0.9698  0.4493
  268TMC3     O 4056   3.119   2.062  17.458  0.2170  0.5164 -0.2521
  268TMC3     H 4057   3.150   2.398  17.672 -3.6233 -0.8191 -0.0829
  268TMC3    H1 4058   3.110   1.977   0.009 -0.0725  1.1647 -1.4547
  268TMC3    H2 4059   3.184   2.205   0.364  1.5659 -0.0413 -0.8774
  268TMC3    C7 4060   3.150   1.966   0.282 -0.5525  0.5973 -0.3912
  268TMC3    C8 4061   3.205   2.442   0.235  0.2338 -1.1423 -0.1722
  268TMC3    O1 4062   3.185   1.987   0.399  0.8388  0.3064  0.2045
  268TMC3    O2 4063   3.160   2.473   0.346 -0.1618  0.3942 -0.1257
  269MPD2     C 4064   3.844   1.010  15.624 -0.6901  0.2816  0.2878
  269MPD2    C1 4065   3.724   1.062  15.674  0.3006 -0.4076 -0.4750
  269MPD2    C2 4066   3.699   1.197  15.668 -0.1543  0.3064  0.6487
  269MPD2    C3 4067   3.788   1.287  15.613 -0.4744  0.0498  0.5036
  269MPD2    C4 4068   3.903   1.239  15.564 -0.0992 -0.6457 -0.1457
  269MPD2    C5 4069   3.926   1.102  15.568 -0.9715  0.7207 -0.3621
  269MPD2     H 4070   3.604   1.235  15.703  0.3445  2.0007  0.2079
  269MPD2    H1 4071   3.974   1.303  15.514 -0.3533 -0.2376  0.0181
  269MPD2    H2 4072   3.887   0.913  15.645  1.3710  0.9297 -0.9333
  269MPD2    H3 4073   4.023   1.071  15.531 -0.8808  0.5240  0.0441
  269MPD2     N 4074   3.753   1.423  15.610 -0.0318 -0.0269  0.4192
  269MPD2    H5 4075   3.658   1.439  15.643 -0.1972 -0.2251  0.0351
  269MPD2    N1 4076   3.636   0.966  15.735 -0.0972 -0.2252  0.1355
  269MPD2    H7 4077   3.669   0.870  15.738  1.4188  0.3162  1.4327
  270TMC3    C1 4078   3.433   0.848  15.755  0.1709  0.4798 -0.8631
  270TMC3    C2 4079   3.328   0.845  15.671  0.4768 -0.2989  0.0845
  270TMC3    C3 4080   3.300   0.723  15.618 -0.2021 -0.3863 -0.8780
  270TMC3    C4 4081   3.499   0.737  15.797  0.3690 -0.4258 -0.0752
  270TMC3    C5 4082   3.454   0.611  15.755 -0.3500  0.0639  0.4117
  270TMC3    C6 4083   3.351   0.606  15.661 -1.0048  0.1064 -0.1320
  270TMC3     C 4084   3.501   0.982  15.767 -0.1203 -0.2590 -0.3716
  270TMC3     O 4085   3.432   1.080  15.744 -0.0021  0.3291  1.1089
  270TMC3     H 4086   3.289   0.939  15.632 -0.3833 -0.0849  1.4387
  270TMC3    H1 4087   3.588   0.736  15.859  0.2321 -2.9030  0.1008
  270TMC3    H2 4088   3.327   0.515  15.607 -1.4119  0.6404 -0.8426
  270TMC3    C7 4089   3.549   0.503  15.765 -0.4091 -0.1499  0.2088
  270TMC3    C8 4090   3.231   0.726  15.482 -0.1235 -0.7469  0.4928
  270TMC3    O1 4091   3.669   0.531  15.771 -0.4712  0.3691  0.2105
  270TMC3    O2 4092   3.153   0.818  15.466  0.1314  0.2182 -0.0489
  271MPD2     C 4093   2.997   0.799  13.734  0.2186  1.0199 -0.4217
  271MPD2    C1 4094   2.890   0.721  13.786 -0.0235  0.0003  0.0156
  271MPD2    C2 4095   2.765   0.767  13.813  0.0062 -0.2669  0.2310
  271MPD2    C3 4096   2.745   0.900  13.788 -0.1821  0.0706  0.1656
  271MPD2    C4 4097   2.849   0.983  13.751  0.0988 -0.1104  0.0034
  271MPD2    C5 4098   2.970   0.932  13.718  0.4080 -0.0214  0.2094
  271MPD2     H 4099   2.692   0.704  13.863 -0.6821  0.6797  0.4317
  271MPD2    H1 4100   2.825   1.088  13.737 -4.1262 -0.8765  1.4553
  271MPD2    H2 4101   3.096   0.768  13.703 -1.5079 -1.9067 -3.0075
  271MPD2    H3 4102   3.047   0.995  13.675  1.2002 -0.4897  0.9309
  271MPD2     N 4103   2.616   0.952  13.795  0.0517  0.1016  0.5703
  271MPD2    H5 4104   2.600   1.052  13.803  0.4830  0.2836 -0.9884
  271MPD2    N1 4105   2.910   0.585  13.818 -0.6968  0.1070 -1.1508
  271MPD2    H7 4106   2.839   0.548  13.880  1.4465  0.4471  1.5106
  272TMC3    C1 4107   3.012   0.416  13.934  0.1051  0.4561 -0.5801
  272TMC3    C2 4108   3.127   0.345  13.942  0.0472  0.5511 -0.6286
  272TMC3    C3 4109   3.181   0.324  14.064  0.0485  0.0033 -0.0862
  272TMC3    C4 4110   2.934   0.441  14.045  0.4750  0.2654  0.8879
  272TMC3    C5 4111   2.984   0.409  14.165  0.1638  0.3652 -1.0567
  272TMC3    C6 4112   3.112   0.353  14.179  0.1917 -0.9136 -0.2087
  272TMC3     C 4113   3.029   0.524  13.840  0.0929  0.7269 -0.6135
  272TMC3     O 4114   3.138   0.553  13.794  0.1885  0.2719  0.2283
  272TMC3     H 4115   3.201   0.343  13.862 -0.2470 -1.9499 -0.8312
  272TMC3    H1 4116   2.832   0.478  14.041 -0.1489 -1.4519  0.6826
  272TMC3    H2 4117   3.151   0.339  14.279  1.2804  0.3277 -0.4642
  272TMC3    C7 4118   2.914   0.461  14.281  0.2207  0.2326 -0.6069
  272TMC3    C8 4119   3.324   0.341  14.075 -0.0233  0.5880 -0.4080
  272TMC3    O1 4120   2.793   0.475  14.274 -0.7276  0.8917 -0.1297
  272TMC3    O2 4121   3.383   0.390  13.975  0.0437 -0.1241  0.0379
  273MPD2     C 4122   4.639   3.488  12.127 -0.2160 -0.4286 -0.1901
  273MPD2    C1 4123   0.019   3.566  12.079  0.2120 -0.2112  0.1032
  273MPD2    C2 4124   0.025   3.590  11.941  0.1378 -0.2293 -0.0416
  273MPD2    C3 4125   4.637   3.569  11.861 -0.0066 -0.4033  0.7612
  273MPD2    C4 4126   4.531   3.499  11.922 -1.0064 -0.0327 -0.3237
  273MPD2    C5 4127   4.531   3.460  12.050 -0.0976 -0.2497 -0.0168
  273MPD2     H 4128   0.120   3.623  11.898  0.2444  1.9823  1.9122
  273MPD2    H1 4129   4.451   3.456  11.864 -0.1609  0.4575 -1.8449
  273MPD2    H2 4130   4.629   3.472  12.234  0.5728  1.1792  0.1132
  273MPD2    H3 4131   4.447   3.405  12.091  0.9882 -2.0204 -0.2000
  273MPD2     N 4132   4.626   3.603  11.723 -0.5140 -0.6762  0.7195
  273MPD2    H5 4133   4.538   3.584  11.675  0.1194  0.3939 -0.8658
  273MPD2    N1 4134   0.123   3.601  12.169 -0.0598  0.2689 -0.5558
  273MPD2    H7 4135   0.116   3.577  12.268  0.1747  0.0655 -0.5873
  274TMC3    C1 4136   4.683   3.734  11.533 -0.0273  0.1823 -0.4267
  274TMC3    C2 4137   4.585   3.675  11.460  0.1941 -0.5768 -0.1164
  274TMC3    C3 4138   4.521   3.766  11.373  0.0015  1.1369  0.3491
  274TMC3    C4 4139   4.718   3.858  11.529 -0.0153  0.5368 -0.4914
  274TMC3    C5 4140   4.652   3.945  11.443 -0.2441  0.6009 -0.7345
  274TMC3    C6 4141   4.571   3.892  11.346 -0.2445  0.1746 -0.3985
  274TMC3     C 4142   0.009   3.670  11.655  0.1857 -0.0661 -0.8817
  274TMC3     O 4143   0.124   3.683  11.688 -0.0978  0.0571 -0.2573
  274TMC3     H 4144   4.552   3.574  11.480 -0.4660  0.0299  1.8234
  274TMC3    H1 4145   0.064   3.894  11.607 -0.8950 -0.9982  0.9513
  274TMC3    H2 4146   4.516   3.971  11.295  0.6562  0.9054 -0.2439
  274TMC3    C7 4147   4.614   4.071  11.505  0.0513  0.1635 -0.1992
  274TMC3    C8 4148   4.435   3.718  11.273  0.1184 -0.1972 -0.3313
  274TMC3    O1 4149   4.496   4.099  11.486  0.4693 -0.0588  0.4946
  274TMC3    O2 4150   4.347   3.642  11.308 -0.6249  0.7344  0.2485
  275MPD2     C 4151   3.993   1.364  14.651  0.0158  0.3848 -0.5434
  275MPD2    C1 4152   4.075   1.290  14.565 -0.0041 -0.5981  0.6141
  275MPD2    C2 4153   4.039   1.269  14.432 -0.4770  0.5876 -0.2820
  275MPD2    C3 4154   3.931   1.341  14.380 -0.1729 -0.7670 -0.4441
  275MPD2    C4 4155   3.854   1.415  14.466 -0.1255 -0.1087 -0.7155
  275MPD2    C5 4156   3.882   1.415  14.601 -0.4263  0.1237 -0.3988
  275MPD2     H 4157   4.095   1.195  14.375  0.1405  0.6876  0.1988
  275MPD2    H1 4158   3.758   1.453  14.434 -0.7325  1.1569  2.5515
  275MPD2    H2 4159   3.998   1.351  14.758  0.3290  2.0252 -0.3583
  275MPD2    H3 4160   3.805   1.454  14.667 -1.9912  0.0238 -2.1675
  275MPD2     N 4161   3.883   1.329  14.250 -0.0250  0.2652 -0.2565
  275MPD2    H5 4162   3.800   1.383  14.224 -0.1026  0.3136  0.0812
  275MPD2    N1 4163   4.197   1.227  14.608 -0.3105 -0.1388  0.3204
  275MPD2    H7 4164   4.247   1.179  14.533  1.0949  1.8974 -0.0678
  276TMC3    C1 4165   4.377   1.182  14.751  0.2590  0.7150 -0.2176
  276TMC3    C2 4166   4.380   1.044  14.741 -0.4731 -0.0443  0.1047
  276TMC3    C3 4167   4.482   0.988  14.805  0.4022  0.2717 -0.3448
  276TMC3    C4 4168   4.464   1.251  14.833  0.1283  0.7489 -1.3955
  276TMC3    C5 4169   4.555   1.180  14.915  0.1459  0.0991 -0.1188
  276TMC3    C6 4170   4.568   1.050  14.898  0.4623 -0.1161 -0.6250
  276TMC3     C 4171   4.244   1.235  14.736 -0.0217 -0.1542 -0.1588
  276TMC3     O 4172   4.209   1.300  14.831  0.8636 -0.5104  0.2532
  276TMC3     H 4173   4.307   0.988  14.683 -0.7868  0.7223 -0.2494
  276TMC3    H1 4174   4.446   1.355  14.856  3.7787  0.9356  0.6249
  276TMC3    H2 4175   4.628   0.991  14.966 -0.1296  0.9898  0.8483
  276TMC3    C7 4176   4.650   1.258  14.988  0.0286  0.9591 -0.4982
  276TMC3    C8 4177   4.499   0.844  14.801 -0.8073 -0.1381  0.7169
  276TMC3    O1 4178   4.614   1.371  15.005 -0.7032  0.1407  0.0262
  276TMC3    O2 4179   4.617   0.804  14.821 -1.0025 -0.0150  0.3095
  277MPD2     C 4180   1.485   0.682  13.189  0.3161  0.4556  0.7040
  277MPD2    C1 4181   1.355   0.723  13.187 -1.0442 -0.3434  0.2679
  277MPD2    C2 4182   1.264   0.661  13.269  0.4882 -0.9296 -0.1410
  277MPD2    C3 4183   1.299   0.548  13.339 -0.3382 -0.8058  0.1352
  277MPD2    C4 4184   1.427   0.500  13.333 -0.4705  0.0132  0.0178
  277MPD2    C5 4185   1.521   0.575  13.262  0.4076 -0.0576 -0.3018
  277MPD2     H 4186   1.158   0.685  13.270  0.1788 -2.2387 -2.0669
  277MPD2    H1 4187   1.463   0.414  13.389 -0.3548 -0.5082 -0.8592
  277MPD2    H2 4188   1.567   0.723  13.131  0.5865 -0.4555  0.4284
  277MPD2    H3 4189   1.621   0.532  13.253  0.3508 -0.8148  2.7522
  277MPD2     N 4190   1.196   0.488  13.414 -0.1922 -0.1744 -0.2985
  277MPD2    H5 4191   1.116   0.551  13.415 -1.6551 -2.0235 -0.2048
  277MPD2    N1 4192   1.322   0.822  13.092 -0.9333 -0.2701  0.2070
  277MPD2    H7 4193   1.397   0.845  13.028 -1.0361 -0.8574 -0.1292
  278TMC3    C1 4194   1.068   0.330  13.528 -0.0307  0.3938 -0.2240
  278TMC3    C2 4195   1.036   0.203  13.560  0.3193 -0.0938  0.2567
  278TMC3    C3 4196   0.914   0.164  13.617  0.0294 -0.4580  0.2901
  278TMC3    C4 4197   0.996   0.431  13.583  0.0395 -0.0201 -0.3160
  278TMC3    C5 4198   0.879   0.399  13.642  0.5568  0.2833 -0.3147
  278TMC3    C6 4199   0.834   0.270  13.658  0.2991 -0.1171 -0.4969
  278TMC3     C 4200   1.195   0.358  13.459  0.7216 -0.5820  0.9974
  278TMC3     O 4201   1.283   0.272  13.446  0.1774 -0.1773 -0.0400
  278TMC3     H 4202   1.108   0.125  13.539 -1.2779 -1.5591  0.2371
  278TMC3    H1 4203   1.027   0.534  13.590  0.7365 -0.3648  1.7360
  278TMC3    H2 4204   0.751   0.246  13.723 -0.0763 -1.3628 -1.4191
  278TMC3    C7 4205   0.835   0.487  13.746 -0.5149 -0.3191  0.2548
  278TMC3    C8 4206   0.868   0.029  13.594 -0.2848  0.8748  0.9266
  278TMC3    O1 4207   0.923   0.553  13.802 -0.1488 -0.2245 -0.0751
  278TMC3    O2 4208   0.940   4.653  13.615  0.0261  0.0665  0.4512
  279MPD2     C 4209   0.523   0.344   0.105  1.0618  0.9874 -0.1986
  279MPD2    C1 4210   0.491   0.454   0.017  0.1788 -0.1270  0.1901
  279MPD2    C2 4211   0.572   0.477  17.590 -0.1507  0.3830 -0.9362
  279MPD2    C3 4212   0.682   0.399  17.560 -0.0559  0.2299 -0.0310
  279MPD2    C4 4213   0.720   0.292  17.641 -0.7643 -0.0678 -0.0040
  279MPD2    C5 4214   0.638   0.272   0.073 -0.3926  0.7071  0.2613
  279MPD2     H 4215   0.541   0.551  17.518 -1.6248  0.3582 -0.3304
  279MPD2    H1 4216   0.809   0.233  17.622 -1.0525 -0.2544 -0.7433
  279MPD2    H2 4217   0.449   0.314   0.179  2.3808 -2.2538 -0.1894
  279MPD2    H3 4218   0.673   0.203   0.149 -1.0623  0.9960  0.8341
  279MPD2     N 4219   0.754   0.430  17.445  0.3067 -0.4362 -0.0555
  279MPD2    H5 4220   0.734   0.522  17.406  0.6610 -0.1954  0.3394
  279MPD2    N1 4221   0.371   0.524   0.038 -0.2995  0.2543 -0.2878
  279MPD2    H7 4222   0.299   0.485   0.098 -0.1562  0.5285  0.0590
  280TMC3    C1 4223   0.205   0.696   0.004 -0.2101  0.7088 -0.4950
  280TMC3    C2 4224   0.123   0.643   0.100  0.4775  0.3842  0.9010
  280TMC3    C3 4225   4.704   0.653   0.094 -0.0281  0.6790  0.5717
  280TMC3    C4 4226   0.149   0.767  17.582  0.5151 -0.2684  0.2300
  280TMC3    C5 4227   0.012   0.778  17.580 -0.4957 -0.2409  0.4618
  280TMC3    C6 4228   4.652   0.727  17.679  0.9515 -0.1347  0.5908
  280TMC3     C 4229   0.341   0.647  17.663  0.6567  0.4387  0.2576
  280TMC3     O 4230   0.396   0.700  17.569  0.3651 -0.1451  0.2938
  280TMC3     H 4231   0.169   0.596   0.187  0.5616  0.2844  0.8043
  280TMC3    H1 4232   0.209   0.812  17.504 -1.5484  1.1297 -0.5457
  280TMC3    H2 4233   4.544   0.731  17.672  1.0298 -0.8764 -1.0815
  280TMC3    C7 4234   4.672   0.865  17.476 -0.1340 -0.2495  0.4876
  280TMC3    C8 4235   4.621   0.626   0.214 -0.1252 -0.2896 -0.0065
  280TMC3    O1 4236   0.028   0.910  17.388 -0.2818 -0.1879 -0.1265
  280TMC3    O2 4237   4.516   0.689   0.226  0.1418  0.0443 -0.0242
  281TMC3    C1 4238   4.197   0.701  12.809  0.3276  0.3220  0.5610
  281TMC3    C2 4239   4.213   0.733  12.674  0.3332 -0.6603 -0.6252
  281TMC3    C3 4240   4.116   0.687  12.588 -0.8731  0.0332  0.4406
  281TMC3    C4 4241   4.089   0.638  12.858 -0.1222 -0.1606 -0.6680
  281TMC3    C5 4242   3.999   0.586  12.766  0.2158  0.5218  0.0681
  281TMC3    C6 4243   4.015   0.609  12.638  0.1199 -0.1657  0.0389
  281TMC3     C 4244   4.253   0.797  12.905  0.4691 -0.4262 -0.3089
  281TMC3     O 4245   4.305   0.751  13.007  0.2334  0.2624  0.1475
  281TMC3     H 4246   4.298   0.790  12.639 -2.1473  2.5328 -1.5455
  281TMC3    H1 4247   4.081   0.636  12.966 -0.5440 -1.4546 -0.7299
  281TMC3    H2 4248   3.943   0.574  12.565  0.2551 -1.4307  0.5197
  281TMC3    C7 4249   3.870   0.552  12.806 -0.5680 -0.4461 -0.1004
  281TMC3    C8 4250   4.065   0.781  12.490  0.0455 -0.1622  0.3886
  281TMC3    O1 4251   3.779   0.579  12.727 -0.0380  0.5426 -0.6349
  281TMC3    O2 4252   3.971   0.750  12.416  0.2958 -0.1412 -0.3056
  282MPD2     C 4253   1.263   2.283  15.182 -0.2085 -0.6088 -0.4567
  282MPD2    C1 4254   1.135   2.261  15.202 -0.0104 -0.6274 -0.7485
  282MPD2    C2 4255   1.047   2.252  15.091 -0.1626 -0.1894  0.0210
  282MPD2    C3 4256   1.091   2.265  14.964 -0.5481 -0.3302 -0.1951
  282MPD2    C4 4257   1.229   2.281  14.946 -0.3151 -0.2633 -0.5673
  282MPD2    C5 4258   1.313   2.300  15.057 -0.0062  0.5328 -0.9797
  282MPD2     H 4259   0.941   2.233  15.091  0.1558 -2.0281 -0.4170
  282MPD2    H1 4260   1.273   2.302  14.849 -0.0751  0.5343 -0.2821
  282MPD2    H2 4261   1.328   2.292  15.268 -1.4050  2.8287  0.0927
  282MPD2    H3 4262   1.416   2.322  15.034 -0.3964  1.9758 -1.3242
  282MPD2     N 4263   1.004   2.266  14.852  0.5528  0.5800 -0.4416
  282MPD2    H5 4264   0.903   2.263  14.868  0.4910  0.8654 -0.7775
  282MPD2    N1 4265   1.087   2.251  15.337  0.2168 -0.0867  0.2391
  282MPD2    H7 4266   1.148   2.282  15.412  0.3555  1.8889 -0.6800
  283TMC3    C1 4267   0.939   2.208  15.527 -0.1898  0.3639 -0.0332
  283TMC3    C2 4268   1.001   2.306  15.601  1.0658 -0.4225 -0.4199
  283TMC3    C3 4269   0.960   2.318  15.735  0.3311 -0.1834 -0.1065
  283TMC3    C4 4270   0.869   2.110  15.592  0.5039  0.5675  0.3472
  283TMC3    C5 4271   0.844   2.108  15.728 -0.7215  0.2111  0.3655
  283TMC3    C6 4272   0.878   2.223  15.797  0.1111 -0.1394  0.1673
  283TMC3     C 4273   0.972   2.190  15.383  0.1297 -0.0788  0.5182
  283TMC3     O 4274   0.896   2.128  15.313  0.1962 -0.7506  0.4852
  283TMC3     H 4275   1.043   2.383  15.537  1.6197  0.2517  0.7481
  283TMC3    H1 4276   0.832   2.031  15.529 -0.7964 -0.9376  3.0010
  283TMC3    H2 4277   0.848   2.232  15.900  1.3946 -2.3090  0.7425
  283TMC3    C7 4278   0.750   2.021  15.791 -0.0547  0.6090  0.5244
  283TMC3    C8 4279   0.954   2.443  15.798  0.1908 -0.1824 -0.0299
  283TMC3    O1 4280   0.709   2.042  15.908  0.1734  0.5419 -0.4789
  283TMC3    O2 4281   0.927   2.433  15.918 -0.3161  0.6877 -0.4036
  284MPD2     C 4282   4.205   1.761  11.806 -0.8282 -0.2750 -0.5437
  284MPD2    C1 4283   4.293   1.660  11.775  0.1003 -0.5489 -0.3299
  284MPD2    C2 4284   4.259   1.536  11.732 -0.7321 -0.0957  0.0723
  284MPD2    C3 4285   4.124   1.512  11.714  0.1764  0.0185  0.1798
  284MPD2    C4 4286   4.028   1.610  11.753 -0.8757  0.3127  0.3031
  284MPD2    C5 4287   4.067   1.729  11.803 -0.2961  0.4801 -0.8716
  284MPD2     H 4288   4.330   1.458  11.706 -1.1374 -0.2182 -0.6750
  284MPD2    H1 4289   3.921   1.595  11.743 -1.0354  1.1728  0.7150
  284MPD2    H2 4290   4.237   1.854  11.851 -1.2037 -0.5524  0.2972
  284MPD2    H3 4291   3.994   1.799  11.841  0.8924  0.1364  2.0099
  284MPD2     N 4292   4.082   1.398  11.642  0.3236 -0.6141  0.2171
  284MPD2    H5 4293   3.981   1.392  11.640  0.2708  0.3162  0.4074
  284MPD2    N1 4294   4.430   1.685  11.782  0.1197  0.0613 -0.6867
  284MPD2    H7 4295   4.497   1.613  11.755  1.5315  0.6715  1.2312
  285TMC3    C1 4296   4.633   1.812  11.764  0.7305  0.0164 -0.0023
  285TMC3    C2 4297   4.694   1.713  11.691 -0.2744  0.1023  0.2758
  285TMC3    C3 4298   0.110   1.725  11.668 -0.0043 -0.7997  0.1410
  285TMC3    C4 4299   4.690   1.930  11.790  0.5984  0.5979 -0.1335
  285TMC3    C5 4300   0.102   1.942  11.760 -0.3347 -0.4785 -0.5639
  285TMC3    C6 4301   0.176   1.843  11.705 -0.1719 -0.7127  0.0309
  285TMC3     C 4302   4.483   1.812  11.786  0.2890  0.3720  0.1227
  285TMC3     O 4303   4.435   1.919  11.811  1.0754  0.2008 -0.1073
  285TMC3     H 4304   4.638   1.635  11.641 -1.5711  2.3265 -1.6917
  285TMC3    H1 4305   4.636   2.017  11.826 -1.1321 -0.0336 -1.1777
  285TMC3    H2 4306   0.281   1.857  11.684 -0.2899 -1.4489 -1.0274
  285TMC3    C7 4307   0.151   2.080  11.750 -0.0840 -0.4511 -0.5771
  285TMC3    C8 4308   0.156   1.667  11.545  0.4012  0.1401  0.5995
  285TMC3    O1 4309   0.068   2.169  11.735 -0.2089 -0.0551  0.0245
  285TMC3    O2 4310   0.087   1.575  11.506 -0.0856  0.4678  1.1197
  286MPD2     C 4311   4.589   4.616   1.832  0.0211 -0.1180  0.8638
  286MPD2    C1 4312   4.504   4.519   1.779 -0.2120 -0.2073 -0.3671
  286MPD2    C2 4313   4.571   4.404   1.732 -0.3977 -0.0213  0.9570
  286MPD2    C3 4314   4.712   4.384   1.738  0.5582 -0.2188  0.5550
  286MPD2    C4 4315   0.068   4.486   1.790 -0.0072 -0.9329 -0.4374
  286MPD2    C5 4316   0.005   4.595   1.843  0.1244 -0.8413 -0.2327
  286MPD2     H 4317   4.515   4.319   1.696  0.1085 -0.2009  0.5911
  286MPD2    H1 4318   0.175   4.483   1.806  0.3592  3.1193 -2.0710
  286MPD2    H2 4319   4.544   4.705   1.872  0.0969 -0.6709  2.1632
  286MPD2    H3 4320   0.066   4.673   1.886  0.5091 -0.2273 -1.8966
  286MPD2     N 4321   0.066   4.272   1.684 -0.7695  0.1082  0.2770
  286MPD2    H5 4322   0.167   4.273   1.683 -0.8029  0.7163 -1.0196
  286MPD2    N1 4323   4.361   4.523   1.792 -0.2617  0.3753 -0.4158
  286MPD2    H7 4324   4.302   4.447   1.761 -0.9396 -0.1642  2.1628
  287TMC3    C1 4325   0.116   4.082   1.559  0.2361 -0.0731 -0.0358
  287TMC3    C2 4326   0.082   4.033   1.436  0.8177 -0.1183  0.5966
  287TMC3    C3 4327   0.175   4.015   1.339  0.8734 -0.0455  0.0188
  287TMC3    C4 4328   0.247   4.104   1.590  0.3720 -0.0978  0.0321
  287TMC3    C5 4329   0.338   4.078   1.492 -0.4295 -0.4315  0.2562
  287TMC3    C6 4330   0.310   4.026   1.367 -0.4845 -0.4393 -0.0714
  287TMC3     C 4331   0.009   4.168   1.617 -0.0513 -0.3185 -0.0625
  287TMC3     O 4332   4.611   4.145   1.583 -0.4428 -0.0410 -0.4910
  287TMC3     H 4333   4.697   4.024   1.408  0.8265  1.4634  0.0664
  287TMC3    H1 4334   0.279   4.148   1.684  0.6266  0.6357 -0.3983
  287TMC3    H2 4335   0.385   4.022   1.288 -2.3864 -0.2222 -1.8887
  287TMC3    C7 4336   0.457   4.162   1.497  0.5925  0.2966 -0.2739
  287TMC3    C8 4337   0.130   4.011   1.201  0.3929  0.6608 -0.1268
  287TMC3    O1 4338   0.446   4.273   1.555 -0.0169  0.3616 -0.1877
  287TMC3    O2 4339   0.012   3.988   1.189 -0.1971  0.3619 -0.1558
  288TMC3    C1 4340   1.121   0.079  14.693  0.3878  0.0397 -0.2876
  288TMC3    C2 4341   1.160   0.022  14.811 -0.7800 -0.1650  0.4815
  288TMC3    C3 4342   1.167   0.102  14.920  0.1796 -0.0306  0.7055
  288TMC3    C4 4343   1.069   0.205  14.690 -0.5252  0.4209  0.1486
  288TMC3    C5 4344   1.058   0.276  14.805  0.2755  0.2376  0.3270
  288TMC3    C6 4345   1.114   0.227  14.924  0.5764 -0.0138  0.3456
  288TMC3     C 4346   1.175   0.020  14.579  0.0171  0.1036  0.4274
  288TMC3     O 4347   1.229   4.632  14.588 -0.0478  0.4370  0.0469
  288TMC3     H 4348   1.217   4.650  14.801 -0.8731 -0.2771  0.9753
  288TMC3    H1 4349   1.033   0.250  14.597  1.9344  1.7928 -0.1352
  288TMC3    H2 4350   1.111   0.274  15.022 -0.5829 -1.6352  1.0853
  288TMC3    C7 4351   1.052   0.419  14.788 -0.6545 -0.1017  0.4180
  288TMC3    C8 4352   1.171   0.024  15.039 -0.5010 -0.1299  0.0940
  288TMC3    O1 4353   1.031   0.470  14.677  0.1071 -0.4732 -0.2823
  288TMC3    O2 4354   1.203   0.079  15.142  0.1539 -0.2947  0.4431
  289MPD2     C 4355   1.424   4.053  14.671  0.1075 -0.5634  0.0624
  289MPD2    C1 4356   1.419   4.150  14.570 -0.0895  0.0614 -0.0744
  289MPD2    C2 4357   1.355   4.119  14.445  0.4145  0.1633 -0.4033
  289MPD2    C3 4358   1.284   4.001  14.440 -0.0010  0.6865  0.3348
  289MPD2    C4 4359   1.296   3.909  14.548 -0.0082  0.1056  0.1285
  289MPD2    C5 4360   1.380   3.932  14.653  0.1688 -0.5257 -0.2031
  289MPD2     H 4361   1.346   4.192  14.366  0.9422  0.2943 -0.3468
  289MPD2    H1 4362   1.228   3.825  14.555  0.6133 -0.4142 -0.0298
  289MPD2    H2 4363   1.492   4.071  14.754 -1.6770 -3.2880  2.1358
  289MPD2    H3 4364   1.387   3.846  14.719 -0.1272 -0.8259 -0.5616
  289MPD2     N 4365   1.185   3.972  14.344  0.4484  0.4682  0.1178
  289MPD2    H5 4366   1.123   3.904  14.386  1.8540 -0.0239  1.3917
  289MPD2    N1 4367   1.490   4.268  14.584  0.5960 -0.3511 -0.2387
  289MPD2    H7 4368   1.538   4.277  14.673  1.5826 -1.5355 -0.6448
  290TMC3    C1 4369   1.040   3.992  14.157 -0.2077  0.0388  0.4245
  290TMC3    C2 4370   0.992   4.088  14.075 -0.5200  0.4330  0.8312
  290TMC3    C3 4371   0.859   4.081  14.046 -0.7066 -0.4640  0.0136
  290TMC3    C4 4372   0.969   3.887  14.213 -0.5227  0.6536 -0.0593
  290TMC3    C5 4373   0.840   3.890  14.189  0.5969 -0.0120  0.4333
  290TMC3    C6 4374   0.782   3.988  14.106 -0.2426  0.1213  0.8186
  290TMC3     C 4375   1.150   4.054  14.235 -0.4692 -0.3104 -0.0768
  290TMC3     O 4376   1.191   4.168  14.207 -0.2261  0.8449  0.4276
  290TMC3     H 4377   1.056   4.159  14.023  0.9061 -0.3439  1.5216
  290TMC3    H1 4378   1.017   3.809  14.272  1.1056  1.1385 -0.7490
  290TMC3    H2 4379   0.674   3.988  14.099 -0.0567 -1.7998 -2.0349
  290TMC3    C7 4380   0.743   3.794  14.243 -0.5000 -0.0745  0.1194
  290TMC3    C8 4381   0.796   4.210  14.056 -0.0969 -0.5046 -0.5988
  290TMC3    O1 4382   0.624   3.810  14.236  0.3353  0.3670 -0.5882
  290TMC3    O2 4383   0.691   4.211  14.122  0.2474 -0.5140 -0.1559
  291MPD2     C 4384   4.658   3.612   0.248 -0.2754  0.0568 -0.0758
  291MPD2    C1 4385   4.667   3.542   0.132  0.0536 -0.4343  0.4844
  291MPD2    C2 4386   0.075   3.518   0.083  0.3408 -1.0781  0.1922
  291MPD2    C3 4387   0.191   3.586   0.135  0.1098 -0.1443  0.2804
  291MPD2    C4 4388   0.173   3.651   0.259 -0.6402 -0.4205 -0.2637
  291MPD2    C5 4389   0.043   3.662   0.308 -0.4816 -0.1771 -0.2052
  291MPD2     H 4390   0.081   3.467  17.669 -0.5267 -1.0764  0.1358
  291MPD2    H1 4391   0.253   3.702   0.312 -1.1295  0.7556 -0.6756
  291MPD2    H2 4392   4.560   3.639   0.286 -0.1751 -1.2394  1.1291
  291MPD2    H3 4393   0.025   3.709   0.404 -0.8428  1.3122 -1.0045
  291MPD2     N 4394   0.328   3.581   0.090 -0.2441 -0.0771  0.8536
  291MPD2    H5 4395   0.403   3.615   0.149 -0.6102  0.3638  1.0675
  291MPD2    N1 4396   4.563   3.492   0.052 -0.2653 -0.5582  0.0181
  291MPD2    H7 4397   4.598   3.423  17.668 -1.9020 -0.3173 -1.1205
  292TMC3    C1 4398   4.349   3.443  17.658  0.0934  0.0919  0.1930
  292TMC3    C2 4399   4.219   3.432   0.015 -0.1801 -0.0944 -0.1425
  292TMC3    C3 4400   4.147   3.339  17.634 -0.1762  0.0658  0.8474
  292TMC3    C4 4401   4.405   3.365  17.560  1.1969  0.2485  0.6579
  292TMC3    C5 4402   4.327   3.267  17.499 -0.2520  0.1984  0.3589
  292TMC3    C6 4403   4.194   3.262  17.529  0.0605  0.8450 -0.3650
  292TMC3     C 4404   4.431   3.516   0.071  0.0069  0.0205 -0.2077
  292TMC3     O 4405   4.373   3.605   0.134  0.5608 -0.4151  0.6994
  292TMC3     H 4406   4.181   3.481   0.103 -0.1583 -0.1561 -0.0988
  292TMC3    H1 4407   4.507   3.371  17.524  0.2689 -0.5263 -2.0366
  292TMC3    H2 4408   4.132   3.199  17.465  0.1358  1.2329 -0.8187
  292TMC3    C7 4409   4.381   3.177  17.403  0.3075  0.5992  0.3114
  292TMC3    C8 4410   4.010   3.321  17.678  0.2387 -0.4920 -0.1132
  292TMC3    O1 4411   4.302   3.113  17.330 -0.3530 -0.3507  0.1433
  292TMC3    O2 4412   3.949   3.422   0.036 -0.2968  0.0503  0.4534
  293MPD2     C 4413   2.373   0.669  12.621  0.3416  0.2267  0.4335
  293MPD2    C1 4414   2.380   0.539  12.679  0.3878 -0.4002  0.0382
  293MPD2    C2 4415   2.471   0.525  12.785 -0.1607 -0.0797  0.2485
  293MPD2    C3 4416   2.546   0.624  12.839 -0.5985 -0.1007  0.1109
  293MPD2    C4 4417   2.537   0.748  12.779 -0.7230 -0.6868 -0.2756
  293MPD2    C5 4418   2.455   0.772  12.671 -0.4637 -0.0615 -0.2793
  293MPD2     H 4419   2.479   0.428  12.834  2.2543  0.0384  0.1226
  293MPD2    H1 4420   2.584   0.837  12.819  1.0165 -0.9027 -1.8310
  293MPD2    H2 4421   2.320   0.682  12.528  2.2096  0.7523 -0.5698
  293MPD2    H3 4422   2.442   0.871  12.628 -1.0634  0.5464  1.3081
  293MPD2     N 4423   2.612   0.603  12.962 -0.1800 -0.2244 -0.3580
  293MPD2    H5 4424   2.592   0.513  13.004 -0.3843 -0.8121 -1.7357
  293MPD2    N1 4425   2.307   0.430  12.618  0.0515 -0.3652  0.5302
  293MPD2    H7 4426   2.232   0.451  12.553  0.0697  0.7207  0.8697
  294TMC3    C1 4427   2.283   0.209  12.538  0.4623 -0.3482  0.7023
  294TMC3    C2 4428   2.157   0.252  12.506  0.7804  0.4026  1.1263
  294TMC3    C3 4429   2.101   0.206  12.386 -0.0445  0.7177 -0.2072
  294TMC3    C4 4430   2.364   0.151  12.439 -0.4333  0.6193 -0.4471
  294TMC3    C5 4431   2.305   0.118  12.319 -0.5104  0.1145  0.3797
  294TMC3    C6 4432   2.175   0.135  12.286 -0.0746  0.0255  0.4673
  294TMC3     C 4433   2.355   0.301  12.624  0.4761  0.3240 -0.1547
  294TMC3     O 4434   2.461   0.265  12.673  0.0512 -0.7649 -0.1021
  294TMC3     H 4435   2.100   0.299  12.586  0.0777 -2.2922  2.1927
  294TMC3    H1 4436   2.468   0.127  12.456 -0.9737 -2.4842 -1.5302
  294TMC3    H2 4437   2.128   0.111  12.191  1.4981  1.8322 -0.7691
  294TMC3    C7 4438   2.375   0.033  12.229  0.1161 -0.9442  0.2210
  294TMC3    C8 4439   1.953   0.202  12.392  0.6552 -0.4577  0.3695
  294TMC3    O1 4440   2.453   4.665  12.274 -0.1616 -0.7155  0.1500
  294TMC3    O2 4441   1.900   0.285  12.469  0.4917  0.0971  0.8442
  295MPD2     C 4442   3.639   3.834   0.453  0.4822  0.0961 -0.8012
  295MPD2    C1 4443   3.538   3.815   0.360 -0.2762  0.1991  0.0396
  295MPD2    C2 4444   3.436   3.736   0.387  0.4173  0.2615 -0.5267
  295MPD2    C3 4445   3.420   3.684   0.516 -1.1747 -0.6354 -0.4764
  295MPD2    C4 4446   3.518   3.710   0.611 -0.2773 -1.0239 -0.3494
  295MPD2    C5 4447   3.620   3.789   0.581  0.7528  0.2533 -0.8518
  295MPD2     H 4448   3.354   3.731   0.317  0.3574  0.9118 -0.5099
  295MPD2    H1 4449   3.511   3.669   0.711  0.2915 -1.0065 -0.3059
  295MPD2    H2 4450   3.728   3.894   0.443 -1.0271  2.5001  0.3090
  295MPD2    H3 4451   3.690   3.820   0.658  0.2531 -1.3280  0.2403
  295MPD2     N 4452   3.309   3.612   0.550  0.2634 -0.4062 -0.2622
  295MPD2    H5 4453   3.307   3.578   0.646  1.1013 -0.5167 -0.2891
  295MPD2    N1 4454   3.536   3.876   0.232  0.1093 -0.2045  0.0726
  295MPD2    H7 4455   3.470   3.853   0.158 -0.4203  1.6096 -0.0137
  296TMC3    C1 4456   3.114   3.482   0.547  0.1862  0.6043  0.6154
  296TMC3    C2 4457   3.162   3.421   0.657 -0.3422 -0.1184  0.1455
  296TMC3    C3 4458   3.080   3.322   0.706  0.1332 -0.3115  0.1188
  296TMC3    C4 4459   2.994   3.452   0.483 -0.2576 -0.3271  0.3711
  296TMC3    C5 4460   2.922   3.348   0.533  0.5842  0.3388 -0.2463
  296TMC3    C6 4461   2.952   3.289   0.650 -0.1406  0.2165  0.2434
  296TMC3     C 4462   3.202   3.565   0.473  0.1272 -0.4669  0.5081
  296TMC3     O 4463   3.194   3.576   0.353  0.4978 -0.1583  0.0867
  296TMC3     H 4464   3.243   3.459   0.718 -1.2833  0.3019  1.1235
  296TMC3    H1 4465   2.970   3.499   0.389 -1.7357  1.0311  1.4097
  296TMC3    H2 4466   2.901   3.202   0.688 -1.9015  1.3817  0.5316
  296TMC3    C7 4467   2.826   3.285   0.443 -0.3362 -0.0623 -0.9419
  296TMC3    C8 4468   3.125   3.255   0.829  0.4937 -0.4543  0.1359
  296TMC3    O1 4469   2.849   3.298   0.325 -0.0940  0.0644  0.2903
  296TMC3    O2 4470   3.246   3.255   0.860 -1.0147 -0.0033 -0.2593
  297MPD2     C 4471   0.124   1.147  16.604 -0.1075 -0.9499 -0.3101
  297MPD2    C1 4472   0.071   1.197  16.487 -0.4167  0.4094 -0.8257
  297MPD2    C2 4473   0.147   1.271  16.397  0.4160  0.8488 -0.2596
  297MPD2    C3 4474   0.281   1.293  16.426 -0.0514  0.2767 -0.0887
  297MPD2    C4 4475   0.332   1.242  16.538  0.2984  0.3154 -0.4856
  297MPD2    C5 4476   0.258   1.172  16.625  0.6095  0.1928 -0.2798
  297MPD2     H 4477   0.092   1.308  16.311  0.8307 -2.3620 -1.9233
  297MPD2    H1 4478   0.438   1.253  16.556  0.0201  1.6125  0.3986
  297MPD2    H2 4479   0.078   1.079  16.675 -1.4296  0.2766  0.0093
  297MPD2    H3 4480   0.300   1.129  16.716 -0.8420 -0.4029  0.1044
  297MPD2     N 4481   0.352   1.382  16.341 -0.4215 -0.4250  0.6710
  297MPD2    H5 4482   0.297   1.421  16.266 -1.5978  2.0556  2.8027
  297MPD2    N1 4483   4.660   1.171  16.439  0.1312  0.3844 -0.7366
  297MPD2    H7 4484   4.638   1.221  16.353  1.1150  2.5365  0.2474
  298TMC3    C1 4485   4.438   1.094  16.434  0.3124  0.0606  0.2776
  298TMC3    C2 4486   4.449   1.111  16.298  0.2898 -1.0131  0.3840
  298TMC3    C3 4487   4.340   1.147  16.233  0.5916  0.3156 -0.5723
  298TMC3    C4 4488   4.326   1.114  16.508 -0.0917  0.1688 -0.0912
  298TMC3    C5 4489   4.220   1.158  16.432 -0.1167 -0.7888 -0.1646
  298TMC3    C6 4490   4.222   1.166  16.296 -1.1766  0.4648  0.3075
  298TMC3     C 4491   4.561   1.103  16.510 -0.2803  0.0754 -0.4614
  298TMC3     O 4492   4.576   1.045  16.617  0.3414 -0.2976 -0.0001
  298TMC3     H 4493   4.545   1.085  16.254  0.0730 -1.7206  0.3177
  298TMC3    H1 4494   4.325   1.138  16.614 -2.1625 -0.1542 -0.0289
  298TMC3    H2 4495   4.132   1.193  16.243 -0.7321  0.2213 -0.5723
  298TMC3    C7 4496   4.155   1.279  16.489 -0.2003 -0.5569  0.1061
  298TMC3    C8 4497   4.345   1.225  16.111 -0.4344 -0.1255 -0.7502
  298TMC3    O1 4498   4.136   1.281  16.612 -0.3348 -0.0981  0.4874
  298TMC3    O2 4499   4.272   1.318  16.121 -0.0372 -0.4661 -0.8817
  299MPD2     C 4500   1.109   1.332   9.750 -0.1324  0.0412 -0.4924
  299MPD2    C1 4501   1.111   1.437   9.831  0.8871 -0.1440  0.0639
  299MPD2    C2 4502   0.996   1.518   9.838  0.2613 -0.3021  0.0192
  299MPD2    C3 4503   0.881   1.498   9.767 -0.2675 -0.2130 -0.1647
  299MPD2    C4 4504   0.882   1.389   9.681 -0.0111 -0.0123  0.3850
  299MPD2    C5 4505   0.997   1.307   9.673 -0.7671 -0.1866 -0.0742
  299MPD2     H 4506   1.006   1.602   9.906  1.2579 -2.5020  2.5873
  299MPD2    H1 4507   0.802   1.361   9.613 -1.1364  0.5131  1.4904
  299MPD2    H2 4508   1.197   1.270   9.739  0.7630  0.8851  1.6809
  299MPD2    H3 4509   0.991   1.228   9.599  0.7189  0.3949 -0.8061
  299MPD2     N 4510   0.766   1.574   9.778 -0.1621 -0.5437 -0.4150
  299MPD2    H5 4511   0.691   1.537   9.720 -1.7013 -1.6469  2.2683
  299MPD2    N1 4512   1.219   1.481   9.909  0.4305  0.0891  0.6665
  299MPD2    H7 4513   1.213   1.569   9.959 -0.9969 -0.0034  0.6529
  300TMC3    C1 4514   0.608   1.707   9.888 -0.0807  0.4381 -0.0002
  300TMC3    C2 4515   0.588   1.804   9.983  0.2111  0.1651  0.3699
  300TMC3    C3 4516   0.472   1.801  10.043  0.4523  0.2497  0.0456
  300TMC3    C4 4517   0.513   1.615   9.861 -0.1033 -0.0268  0.6853
  300TMC3    C5 4518   0.391   1.622   9.921  0.2204 -0.1420 -0.8777
  300TMC3    C6 4519   0.368   1.719  10.014  0.0896 -0.2043 -0.3168
  300TMC3     C 4520   0.750   1.678   9.864 -0.0984  0.5841 -0.4356
  300TMC3     O 4521   0.829   1.741   9.934 -0.4426  0.1110  0.1257
  300TMC3     H 4522   0.666   1.869  10.021 -1.1184  1.7275  0.3879
  300TMC3    H1 4523   0.517   1.547   9.776 -0.2898  0.5761  0.1939
  300TMC3    H2 4524   0.280   1.738  10.075  1.0445 -0.0923  1.0085
  300TMC3    C7 4525   0.346   1.489   9.958 -0.0051  0.6822  0.5479
  300TMC3    C8 4526   0.441   1.906  10.139 -0.4545  0.1603 -0.1016
  300TMC3    O1 4527   0.346   1.407   9.868  0.7430  0.5861 -0.3274
  300TMC3    O2 4528   0.325   1.945  10.141  0.4367  0.4679  0.4526
  301MPD2     C 4529   1.743   1.868   1.445 -0.2381 -0.1872 -0.3083
  301MPD2    C1 4530   1.768   1.872   1.315  0.2508 -0.2399 -0.7554
  301MPD2    C2 4531   1.885   1.823   1.267  0.3089 -0.6872  0.1693
  301MPD2    C3 4532   1.982   1.772   1.359  0.0996  0.0227  0.2680
  301MPD2    C4 4533   1.954   1.767   1.490 -0.1987  0.6330  0.3878
  301MPD2    C5 4534   1.839   1.822   1.534 -0.1934  0.6256  1.1875
  301MPD2     H 4535   1.895   1.834   1.159 -1.1481  0.1556  0.1294
  301MPD2    H1 4536   2.027   1.723   1.557  1.1906  2.0085 -0.2086
  301MPD2    H2 4537   1.649   1.909   1.482  0.0593 -0.2781  0.5322
  301MPD2    H3 4538   1.827   1.828   1.642  0.4155 -1.0948  1.3689
  301MPD2     N 4539   2.106   1.721   1.314 -0.1595 -0.2640  0.3485
  301MPD2    H5 4540   2.170   1.684   1.384 -2.2058 -1.4727  1.5899
  301MPD2    N1 4541   1.675   1.924   1.222 -0.4158  0.1568 -0.0126
  301MPD2    H7 4542   1.694   1.904   1.124  1.4554  1.5082  0.0717
  302TMC3    C1 4543   2.281   1.670   1.161  0.1941 -0.5024 -1.1688
  302TMC3    C2 4544   2.296   1.540   1.195 -0.0018  0.0427  0.4639
  302TMC3    C3 4545   2.418   1.482   1.163 -0.4870 -0.0970  0.0310
  302TMC3    C4 4546   2.375   1.741   1.092  0.1410  0.2304  0.1642
  302TMC3    C5 4547   2.492   1.674   1.054  0.0988  0.0147  0.9371
  302TMC3    C6 4548   2.513   1.548   1.101 -0.1282 -0.2488  1.0621
  302TMC3     C 4549   2.151   1.737   1.187 -0.3601 -0.7018 -0.1147
  302TMC3     O 4550   2.112   1.817   1.101  0.2199  0.2096 -0.1182
  302TMC3     H 4551   2.212   1.491   1.243 -0.6954  1.7947  1.0507
  302TMC3    H1 4552   2.351   1.840   1.055  0.4058 -0.3254 -1.4799
  302TMC3    H2 4553   2.600   1.496   1.061  0.5460  0.2721  1.8420
  302TMC3    C7 4554   2.519   1.691   0.912 -0.0608 -0.7089 -0.3659
  302TMC3    C8 4555   2.424   1.341   1.146 -0.7293  0.3033  0.2915
  302TMC3    O1 4556   2.635   1.676   0.873  0.1575 -0.2123 -0.3469
  302TMC3    O2 4557   2.516   1.289   1.094 -0.0189  0.0604 -0.1140
  303MPD2     C 4558   2.938   0.722  10.577  0.1719  0.5709 -0.5718
  303MPD2    C1 4559   2.804   0.741  10.548  0.2140 -0.4692  0.5724
  303MPD2    C2 4560   2.762   0.713  10.423 -0.2001  0.3463  0.4834
  303MPD2    C3 4561   2.854   0.687  10.322  0.1493  0.4927 -0.8717
  303MPD2    C4 4562   2.987   0.695  10.347  0.4895 -0.2543 -0.6433
  303MPD2    C5 4563   3.026   0.716  10.475  0.3625  0.0739  0.4925
  303MPD2     H 4564   2.656   0.693  10.407  0.4617 -2.1698 -0.6283
  303MPD2    H1 4565   3.063   0.666  10.275  2.2479 -0.0677  1.1595
  303MPD2    H2 4566   2.986   0.755  10.668 -0.2984  1.1011 -0.5168
  303MPD2    H3 4567   3.132   0.722  10.496  0.9238 -0.7932 -2.0032
  303MPD2     N 4568   2.814   0.660  10.188 -0.0460  0.0255  0.0576
  303MPD2    H5 4569   2.887   0.668  10.119 -0.0546  1.9994  0.2570
  303MPD2    N1 4570   2.716   0.755  10.656 -0.1283  0.4000  0.2866
  303MPD2    H7 4571   2.754   0.747  10.749  1.0627 -0.0157 -0.2451
  304TMC3    C1 4572   2.500   0.748  10.755 -0.0650  0.0566  0.6584
  304TMC3    C2 4573   2.367   0.797  10.756 -0.3913  0.0036 -0.7682
  304TMC3    C3 4574   2.277   0.746  10.838 -0.3312 -0.7477 -1.1644
  304TMC3    C4 4575   2.532   0.626  10.813  0.1897  0.8764  0.3546
  304TMC3    C5 4576   2.437   0.572  10.893  0.2631  0.1867  0.0177
  304TMC3    C6 4577   2.318   0.641  10.920 -0.8133 -0.0750  0.1972
  304TMC3     C 4578   2.579   0.784  10.635 -1.1722  0.3552 -0.0298
  304TMC3     O 4579   2.528   0.830  10.534  0.3283 -0.1672  0.1918
  304TMC3     H 4580   2.349   0.882  10.691 -0.9637 -0.4000 -1.1325
  304TMC3    H1 4581   2.628   0.579  10.794 -0.2455  0.1363  0.0111
  304TMC3    H2 4582   2.247   0.603  10.993 -1.0765  0.4786  0.2361
  304TMC3    C7 4583   2.399   0.436  10.870 -0.1311  0.0087  0.2374
  304TMC3    C8 4584   2.143   0.732  10.778  0.3390  0.6093  0.6229
  304TMC3    O1 4585   2.279   0.413  10.869  0.2785 -0.3378 -0.3388
  304TMC3    O2 4586   2.089   0.833  10.742  0.1059  0.8617  0.1637
  305MPD2     C 4587   1.159   2.631  13.769 -0.4607 -0.9888  0.1342
  305MPD2    C1 4588   1.135   2.493  13.797 -0.5272 -0.7957 -0.1811
  305MPD2    C2 4589   1.120   2.405  13.689 -0.4536  0.2382  0.0669
  305MPD2    C3 4590   1.146   2.448  13.557  0.2335  1.0515 -1.1802
  305MPD2    C4 4591   1.183   2.581  13.534 -0.1896  0.2650 -0.3122
  305MPD2    C5 4592   1.185   2.667  13.640 -0.1437 -0.3857  1.1695
  305MPD2     H 4593   1.081   2.306  13.708  0.5256  0.2023  1.9742
  305MPD2    H1 4594   1.200   2.618  13.433  3.4049  1.2435  0.6602
  305MPD2    H2 4595   1.169   2.703  13.849  1.8794 -3.2776  1.9080
  305MPD2    H3 4596   1.218   2.770  13.631 -2.0474 -0.0914 -2.2561
  305MPD2     N 4597   1.129   2.361  13.443  0.6904 -0.3597  0.4826
  305MPD2    H5 4598   1.156   2.403  13.355 -0.5200 -1.4659 -0.4087
  305MPD2    N1 4599   1.125   2.455  13.935 -0.3909  0.5291  0.6024
  305MPD2    H7 4600   1.121   2.528  14.006  1.0796  0.4345  0.7831
  306TMC3    C1 4601   1.148   2.322  14.129 -0.2775 -0.4305  0.2659
  306TMC3    C2 4602   1.238   2.229  14.184  0.3823  0.5148  0.1847
  306TMC3    C3 4603   1.288   2.248  14.306 -0.2404 -0.4546 -0.4879
  306TMC3    C4 4604   1.112   2.427  14.206 -0.8657 -0.4292  1.0768
  306TMC3    C5 4605   1.157   2.434  14.337  0.6535  0.4702  0.1008
  306TMC3    C6 4606   1.252   2.353  14.382 -0.0381 -0.1888 -0.2206
  306TMC3     C 4607   1.158   2.327  13.981 -0.3406  0.6154  0.3651
  306TMC3     O 4608   1.205   2.232  13.922  0.3945  0.1050  0.6203
  306TMC3     H 4609   1.264   2.138  14.133  0.5331 -0.3446  1.7857
  306TMC3    H1 4610   1.030   2.495  14.182  2.0073  2.1582 -1.3253
  306TMC3    H2 4611   1.290   2.362  14.483  0.9545  0.8167 -0.6996
  306TMC3    C7 4612   1.098   2.525  14.425  0.3342 -0.4498  0.0028
  306TMC3    C8 4613   1.404   2.168  14.345 -0.7879  0.1212  0.5179
  306TMC3    O1 4614   0.974   2.538  14.423  0.0872 -0.2522 -0.1854
  306TMC3    O2 4615   1.493   2.146  14.268 -0.2873  0.3168 -0.6287
  307MPD2     C 4616   1.629   3.763   1.021 -0.1430  0.6197  1.0539
  307MPD2    C1 4617   1.707   3.776   0.906 -0.5754  0.1010  0.7825
  307MPD2    C2 4618   1.686   3.882   0.826  0.2449  0.0385  0.1421
  307MPD2    C3 4619   1.598   3.986   0.858  0.4425 -0.0981 -0.7506
  307MPD2    C4 4620   1.529   3.974   0.979 -0.6970  0.0820 -0.4563
  307MPD2    C5 4621   1.543   3.866   1.057 -0.1871  0.0058 -0.2386
  307MPD2     H 4622   1.723   3.890   0.725  2.1378 -1.0061  0.7387
  307MPD2    H1 4623   1.464   4.053   1.014 -1.1674 -0.2359 -0.6065
  307MPD2    H2 4624   1.650   3.685   1.093  1.9104 -1.1195 -1.4340
  307MPD2    H3 4625   1.493   3.858   1.153 -0.9559  0.8769 -0.5678
  307MPD2     N 4626   1.604   4.094   0.770  0.8069 -0.6697  0.0769
  307MPD2    H5 4627   1.674   4.089   0.697 -0.9832  2.4695 -1.9083
  307MPD2    N1 4628   1.819   3.700   0.867  0.1435  0.5091 -0.2785
  307MPD2    H7 4629   1.875   3.741   0.792 -1.2017 -3.2868 -3.3861
  308TMC3    C1 4630   1.728   4.386   0.539  0.4078  0.1110  0.3516
  308TMC3    C2 4631   1.730   4.512   0.589  0.2027  0.7402  0.1298
  308TMC3    C3 4632   1.666   4.536   0.705 -0.1341 -0.5991 -0.2703
  308TMC3    C4 4633   1.657   4.287   0.604 -0.4555  1.0192 -0.4389
  308TMC3    C5 4634   1.592   4.313   0.723 -0.3478  0.6396 -0.1557
  308TMC3    C6 4635   1.598   4.439   0.777  0.4389 -0.2044  0.0478
  308TMC3     C 4636   1.761   4.367   0.399 -0.4721  0.7888 -0.1668
  308TMC3     O 4637   1.741   4.253   0.351  0.4413  0.0364 -0.0227
  308TMC3     H 4638   1.777   4.603   0.552  2.0275 -0.9315 -1.6462
  308TMC3    H1 4639   1.636   4.194   0.552  0.7971  0.7691 -0.4915
  308TMC3    H2 4640   1.557   4.464   0.874 -1.8583 -1.1171 -0.6710
  308TMC3    C7 4641   1.540   4.211   0.802  0.0868 -0.3152 -0.2056
  308TMC3    C8 4642   1.707   4.649   0.784  0.6459 -0.6021 -0.6669
  308TMC3    O1 4643   1.471   4.244   0.899  0.3283 -0.3350 -0.2516
  308TMC3    O2 4644   1.617   4.704   0.854 -0.2585  0.2892 -0.3791
  309MPD2     C 4645   2.836   0.705  16.776 -0.0760  0.0619 -0.5707
  309MPD2    C1 4646   2.783   0.793  16.681 -0.2388 -0.0014  0.0864
  309MPD2    C2 4647   2.652   0.827  16.685  0.4090 -0.5366  0.4649
  309MPD2    C3 4648   2.568   0.786  16.781  0.0164  0.8205  0.3012
  309MPD2    C4 4649   2.613   0.699  16.875 -0.2066 -0.4613  0.4422
  309MPD2    C5 4650   2.744   0.662  16.873 -0.4672  0.2649 -0.4126
  309MPD2     H 4651   2.626   0.894  16.604  1.8521  0.3566  0.7341
  309MPD2    H1 4652   2.550   0.676  16.960 -1.4700 -1.0344 -0.6503
  309MPD2    H2 4653   2.939   0.671  16.780  0.0698  0.2420 -2.6178
  309MPD2    H3 4654   2.780   0.602  16.957  0.0354 -0.0602 -0.8583
  309MPD2     N 4655   2.437   0.831  16.784 -0.0923 -0.3538  0.3549
  309MPD2    H5 4656   2.383   0.813  16.868 -0.2314  3.0664  0.9706
  309MPD2    N1 4657   2.852   0.843  16.566 -0.0588  0.2825 -0.0980
  309MPD2    H7 4658   2.798   0.864  16.483  0.3075  0.3354 -0.3188
  310TMC3    C1 4659   3.038   0.870  16.413 -0.2758 -0.1230  0.4120
  310TMC3    C2 4660   2.976   0.957  16.326 -0.5449  0.2836  0.0626
  310TMC3    C3 4661   3.044   1.005  16.215 -0.9567  0.0918  0.1503
  310TMC3    C4 4662   3.168   0.835  16.397  0.5594 -0.3091  0.2272
  310TMC3    C5 4663   3.224   0.871  16.272 -0.1109 -0.5741 -0.4940
  310TMC3    C6 4664   3.165   0.951  16.183 -0.8941 -0.4942 -0.0113
  310TMC3     C 4665   2.989   0.850  16.549 -0.4289 -0.7026  0.2783
  310TMC3     O 4666   3.075   0.831  16.638 -0.2350  0.3746 -0.2270
  310TMC3     H 4667   2.873   0.984  16.344 -0.0992  0.3961  2.5319
  310TMC3    H1 4668   3.226   0.762  16.454  1.8973  0.5611 -0.0238
  310TMC3    H2 4669   3.201   0.975  16.083 -1.2028  0.0174 -0.0035
  310TMC3    C7 4670   3.331   0.780  16.227 -0.6020 -0.3890 -0.4315
  310TMC3    C8 4671   2.974   1.089  16.120  0.0044  0.0245  0.0177
  310TMC3    O1 4672   3.316   0.670  16.281  0.0124 -0.4289 -0.4860
  310TMC3    O2 4673   2.999   1.066  16.001 -0.2653 -0.6566  0.0131
  311MPD2     C 4674   0.176   2.079  12.466 -0.8478 -0.8822 -0.1851
  311MPD2    C1 4675   0.174   2.190  12.543  0.1449 -0.5505  0.3636
  311MPD2    C2 4676   0.056   2.228  12.609 -0.5378  0.1411  0.6299
  311MPD2    C3 4677   4.661   2.144  12.597 -0.5958 -0.0495  0.6070
  311MPD2    C4 4678   4.663   2.029  12.515  0.1970  0.2968  0.5401
  311MPD2    C5 4679   0.065   2.002  12.453 -0.2992  0.2741  0.3189
  311MPD2     H 4680   0.046   2.318  12.668  1.6521  1.1713 -0.5513
  311MPD2    H1 4681   4.577   1.966  12.496  1.1381 -1.5714  2.4232
  311MPD2    H2 4682   0.259   2.039  12.409 -0.1422  1.3208 -0.7254
  311MPD2    H3 4683   0.079   1.909  12.399 -0.2296  1.4362 -1.6627
  311MPD2     N 4684   4.551   2.187  12.667  0.3818 -0.4876 -0.2625
  311MPD2    H5 4685   4.563   2.275  12.716  0.3839 -0.1543 -0.8678
  311MPD2    N1 4686   0.299   2.264  12.564 -0.0852 -0.0944  0.0954
  311MPD2    H7 4687   0.292   2.336  12.635 -1.1329  1.1705 -1.3111
  312TMC3    C1 4688   4.357   2.173  12.782  0.3767  0.8598 -0.2924
  312TMC3    C2 4689   4.227   2.186  12.762  0.0119 -0.0800  0.2636
  312TMC3    C3 4690   4.157   2.254  12.857  0.2574  0.3574 -0.2022
  312TMC3    C4 4691   4.423   2.211  12.898 -0.2487 -0.2488 -0.0518
  312TMC3    C5 4692   4.345   2.264  12.994  0.0394 -0.1434  0.5459
  312TMC3    C6 4693   4.219   2.295  12.974  0.1916  0.4346  0.5859
  312TMC3     C 4694   4.433   2.126  12.667  0.1407  0.2937  0.3195
  312TMC3     O 4695   4.387   2.037  12.592  0.7071  0.5156  0.4891
  312TMC3     H 4696   4.180   2.171  12.665  2.7761  1.2626 -1.2996
  312TMC3    H1 4697   4.529   2.201  12.916 -0.5341 -0.3911  1.5812
  312TMC3    H2 4698   4.162   2.347  13.050 -0.3913  1.5632 -0.6333
  312TMC3    C7 4699   4.412   2.344  13.094 -0.0661  0.0866 -0.0782
  312TMC3    C8 4700   4.030   2.316  12.829  0.3361  0.5379 -0.1719
  312TMC3    O1 4701   4.370   2.458  13.118 -0.6165 -0.2708  0.7247
  312TMC3    O2 4702   4.020   2.426  12.885  0.4653 -0.2170  0.0240
  313MPD2     C 4703   0.068   1.812  10.477  0.3092 -0.2959  0.1957
  313MPD2    C1 4704   4.708   1.712  10.527 -0.1813  0.7375  0.6983
  313MPD2    C2 4705   4.665   1.613  10.438 -0.3804  0.0612  0.3363
  313MPD2    C3 4706   4.701   1.610  10.303 -0.0966  0.7337  0.4291
  313MPD2    C4 4707   0.071   1.709  10.263 -0.3112  0.2839  0.1790
  313MPD2    C5 4708   0.117   1.808  10.345  0.6713 -0.5196  0.1019
  313MPD2     H 4709   4.592   1.542  10.476  0.2022 -1.2396 -0.9635
  313MPD2    H1 4710   0.098   1.714  10.158  1.8216  0.4804  0.7385
  313MPD2    H2 4711   0.096   1.899  10.536  1.2089 -1.1515  1.0229
  313MPD2    H3 4712   0.180   1.886  10.306  0.7648 -0.4538  0.3815
  313MPD2     N 4713   4.656   1.500  10.229  0.3278  0.1836 -0.5493
  313MPD2    H5 4714   4.601   1.438  10.287 -0.1271  1.2306  0.1207
  313MPD2    N1 4715   4.651   1.719  10.657  0.3047 -0.1286 -0.3133
  313MPD2    H7 4716   4.561   1.674  10.664  0.8373 -1.2154 -0.2859
  314TMC3    C1 4717   4.587   1.810  10.863  0.4184  0.5518 -0.8063
  314TMC3    C2 4718   4.630   1.857  10.990  0.8456 -0.0495 -0.0416
  314TMC3    C3 4719   4.531   1.916  11.068  0.1842  0.0456 -0.9542
  314TMC3    C4 4720   4.462   1.833  10.815 -0.1726 -0.5859 -0.0864
  314TMC3    C5 4721   4.373   1.879  10.901  0.0970 -0.0903  0.0113
  314TMC3    C6 4722   4.405   1.926  11.027  0.3927 -0.1009 -0.0759
  314TMC3     C 4723   4.690   1.796  10.760  0.3000 -0.5243 -0.3321
  314TMC3     O 4724   0.077   1.844  10.769 -0.1045  0.6449 -0.7190
  314TMC3     H 4725   0.016   1.862  11.016  0.7502 -0.3051  0.3944
  314TMC3    H1 4726   4.425   1.809  10.716 -2.1551  0.7878  0.3208
  314TMC3    H2 4727   4.329   1.973  11.089  1.8195  3.2810 -0.9301
  314TMC3    C7 4728   4.251   1.944  10.846 -0.4772  0.1340 -0.4382
  314TMC3    C8 4729   4.568   2.039  11.118 -0.0052 -0.6524  0.4733
  314TMC3    O1 4730   4.140   1.921  10.892 -0.1020  0.0752  0.0119
  314TMC3    O2 4731   4.522   2.138  11.063  0.1318  0.3565  0.2793
  315MPD2     C 4732   3.854   0.285   0.092  0.0893 -0.0022 -0.2473
  315MPD2    C1 4733   3.971   0.347   0.051  0.1668 -0.0306 -0.9731
  315MPD2    C2 4734   3.956   0.468   0.001 -0.0639 -0.0964  0.1828
  315MPD2    C3 4735   3.837   0.540  17.664 -0.9461  0.3675 -0.2517
  315MPD2    C4 4736   3.724   0.483   0.038 -0.1176 -0.0065  0.4746
  315MPD2    C5 4737   3.733   0.352   0.085 -0.2551 -0.1839  0.1616
  315MPD2     H 4738   4.040   0.530  17.655 -0.6323  0.4865 -0.2697
  315MPD2    H1 4739   3.627   0.530   0.029  0.3155  0.8402  0.2214
  315MPD2    H2 4740   3.852   0.187   0.138 -0.8372  0.8253  1.4921
  315MPD2    H3 4741   3.639   0.311   0.120  0.8639 -2.6060  0.3243
  315MPD2     N 4742   3.841   0.671  17.604 -0.2303 -0.0224 -0.7531
  315MPD2    H5 4743   3.929   0.710  17.570  0.1984 -0.7193 -0.4407
  315MPD2    N1 4744   4.100   0.315   0.096 -0.0384 -0.1786 -0.3489
  315MPD2    H7 4745   4.169   0.378   0.057  0.2367  0.7202  1.5663
  316TMC3    C1 4746   3.765   0.868  17.496  0.9906 -0.9126 -0.0482
  316TMC3    C2 4747   3.852   0.854  17.386  0.4171 -0.0566  0.1647
  316TMC3    C3 4748   3.865   0.960  17.304 -0.1595  0.1180 -0.3683
  316TMC3    C4 4749   3.692   0.976  17.518  0.3847  0.5490  0.6572
  316TMC3    C5 4750   3.712   1.083  17.434  0.0605  0.5254  0.1990
  316TMC3    C6 4751   3.797   1.080  17.324  0.2259  0.2103  0.3089
  316TMC3     C 4752   3.736   0.756  17.589  0.1140  0.4507 -0.1461
  316TMC3     O 4753   3.637   0.760  17.657 -0.6563  0.0863 -0.5204
  316TMC3     H 4754   3.892   0.755  17.370 -0.9227 -0.4216 -0.8686
  316TMC3    H1 4755   3.626   0.974  17.604 -1.6664 -1.2110 -0.9564
  316TMC3    H2 4756   3.814   1.166  17.261 -2.3356  1.0595  0.8071
  316TMC3    C7 4757   3.656   1.207  17.476 -0.3622  0.2608  0.6512
  316TMC3    C8 4758   3.994   0.987  17.240  0.7008  0.2940  0.3565
  316TMC3    O1 4759   3.562   1.207  17.555  0.5260  0.6641 -0.3037
  316TMC3    O2 4760   3.994   1.063  17.147 -0.0347  0.5704  0.5487
  317MPD2     C 4761   0.976   4.025  12.950  0.2694  0.2091  0.6941
  317MPD2    C1 4762   0.995   3.882  12.956  0.8726 -0.3600 -0.5687
  317MPD2    C2 4763   1.048   3.824  13.069 -0.7565 -0.4600 -0.3008
  317MPD2    C3 4764   1.086   3.907  13.177 -0.2315 -0.4192 -0.6948
  317MPD2    C4 4765   1.061   4.041  13.172 -0.1066  0.3314 -0.6961
  317MPD2    C5 4766   1.004   4.089  13.063  0.0499  0.5191 -0.1545
  317MPD2     H 4767   1.059   3.717  13.083 -1.0401 -0.7999 -2.6478
  317MPD2    H1 4768   1.072   4.115  13.250  0.2625 -2.1519  1.5807
  317MPD2    H2 4769   0.921   4.067  12.866 -0.7368 -0.3886  1.0619
  317MPD2    H3 4770   0.991   4.197  13.061  0.9024  0.6500  1.2533
  317MPD2     N 4771   1.136   3.835  13.292 -0.2403 -0.2538 -0.4286
  317MPD2    H5 4772   1.135   3.734  13.289 -0.2804 -0.2481 -0.6266
  317MPD2    N1 4773   0.952   3.800  12.850  0.6774  0.0893 -0.2649
  317MPD2    H7 4774   0.988   3.706  12.864  1.7879  0.7431  1.3644
  318TMC3    C1 4775   1.246   3.801  13.498 -0.5332 -0.3067 -0.7535
  318TMC3    C2 4776   1.188   3.676  13.499 -0.0177  0.0746  0.3193
  318TMC3    C3 4777   1.258   3.570  13.555  0.0106  0.3369  0.1944
  318TMC3    C4 4778   1.374   3.824  13.529  0.6173 -1.0488  0.0406
  318TMC3    C5 4779   1.445   3.711  13.575  0.7213 -0.4065  1.1978
  318TMC3    C6 4780   1.389   3.588  13.596  0.3302 -0.3850  0.6015
  318TMC3     C 4781   1.191   3.896  13.404  0.2706 -0.6526  0.0193
  318TMC3     O 4782   1.225   4.012  13.419 -0.3016 -0.3813  0.4863
  318TMC3     H 4783   1.079   3.674  13.495 -0.0118  3.6468 -2.3807
  318TMC3    H1 4784   1.414   3.925  13.526 -0.6847 -0.5442 -0.5358
  318TMC3    H2 4785   1.455   3.505  13.618 -0.8340 -1.5930 -0.4844
  318TMC3    C7 4786   1.587   3.710  13.579 -0.4276  0.1073 -0.1367
  318TMC3    C8 4787   1.212   3.437  13.550  0.0411  0.8964 -0.8083
  318TMC3    O1 4788   1.641   3.621  13.643  0.1556  0.0994 -0.1325
  318TMC3    O2 4789   1.291   3.343  13.569 -0.0272  0.3392  0.1585
  319MPD2     C 4790   2.434   0.311  15.896  0.2289  0.8705  0.5715
  319MPD2    C1 4791   2.362   0.304  16.013  0.6270 -0.2344  0.2742
  319MPD2    C2 4792   2.224   0.295  16.002 -0.2386  0.8455 -0.0504
  319MPD2    C3 4793   2.156   0.296  15.880  0.4706 -0.1567 -0.0953
  319MPD2    C4 4794   2.232   0.287  15.766 -0.5602 -0.0805 -0.6659
  319MPD2    C5 4795   2.370   0.287  15.777  0.5451  0.3612  1.0170
  319MPD2     H 4796   2.166   0.317  16.091  1.5578 -1.9776  1.7856
  319MPD2    H1 4797   2.184   0.277  15.670 -3.2534  1.7884  0.4950
  319MPD2    H2 4798   2.540   0.332  15.882  0.3285  0.4293  0.6687
  319MPD2    H3 4799   2.421   0.273  15.682  2.2666 -1.1095  2.1718
  319MPD2     N 4800   2.019   0.315  15.875  0.3438  0.8039  0.6791
  319MPD2    H5 4801   1.983   0.335  15.782 -1.2398 -0.5809  1.0037
  319MPD2    N1 4802   2.415   0.318  16.139 -0.4964 -0.8638  0.3166
  319MPD2    H7 4803   2.343   0.319  16.211 -0.2561 -0.8695  0.5587
  320TMC3    C1 4804   1.792   0.321  15.956  0.2503  0.1122 -0.0477
  320TMC3    C2 4805   1.756   0.424  15.874  0.5881 -0.5152 -0.5641
  320TMC3    C3 4806   1.632   0.475  15.874 -0.4227 -0.5361 -0.0329
  320TMC3    C4 4807   1.703   0.257  16.038  0.4449 -0.1852  0.3472
  320TMC3    C5 4808   1.575   0.312  16.042 -0.4319  0.5576 -0.7164
  320TMC3    C6 4809   1.543   0.418  15.966  0.7833  0.7034  0.2587
  320TMC3     C 4810   1.932   0.303  15.984 -0.4124  0.5083 -0.0108
  320TMC3     O 4811   1.953   0.276  16.100  0.4683 -0.1769 -0.2753
  320TMC3     H 4812   1.836   0.475  15.822  0.2229  0.8128  0.1753
  320TMC3    H1 4813   1.744   0.174  16.094  1.7819  0.4237  0.2649
  320TMC3    H2 4814   1.444   0.460  15.975 -0.4216 -2.0404  0.0144
  320TMC3    C7 4815   1.462   0.248  16.105 -0.1270 -0.3257  0.2743
  320TMC3    C8 4816   1.600   0.597  15.802 -0.4015  0.3268 -0.1770
  320TMC3    O1 4817   1.353   0.302  16.106  0.1072 -0.1787  0.4603
  320TMC3    O2 4818   1.541   0.687  15.858  0.1434  0.0719 -0.2212
  321TMC3    C1 4819   2.558   0.371  16.314 -1.0079  0.2056  0.3622
  321TMC3    C2 4820   2.450   0.391  16.399 -0.3879  0.0940 -1.1932
  321TMC3    C3 4821   2.487   0.454  16.512  0.5103  0.5135 -0.2012
  321TMC3    C4 4822   2.686   0.393  16.355 -0.4165  0.4237  0.6073
  321TMC3    C5 4823   2.715   0.462  16.466  0.0507  0.4075 -0.5480
  321TMC3    C6 4824   2.610   0.501  16.542  0.9565  0.4598  0.2915
  321TMC3     C 4825   2.546   0.332  16.173 -0.7627 -0.0092 -0.7394
  321TMC3     O 4826   2.637   0.354  16.097  0.2983  0.1735 -0.0549
  321TMC3     H 4827   2.345   0.370  16.381 -0.4860 -0.0660 -0.4188
  321TMC3    H1 4828   2.771   0.363  16.295  1.0458 -0.3356  3.0293
  321TMC3    H2 4829   2.636   0.546  16.638  0.3546 -0.7742  1.0364
  321TMC3    C7 4830   2.805   0.398  16.560 -0.0552 -0.4485  0.8993
  321TMC3    C8 4831   2.406   0.418  16.628  0.3404 -0.3928 -0.5051
  321TMC3    O1 4832   2.760   0.339  16.650 -0.8104 -0.5765 -0.3714
  321TMC3    O2 4833   2.285   0.446  16.626 -0.3308  0.7852  0.9263
  322MPD2     C 4834   1.116   1.807  13.475  1.3186 -0.3835 -0.3932
  322MPD2    C1 4835   1.140   1.709  13.573  0.0319  0.6411  0.1016
  322MPD2    C2 4836   1.153   1.576  13.535 -0.2818 -0.3922 -0.0112
  322MPD2    C3 4837   1.165   1.536  13.409 -0.0628  0.7782  0.4629
  322MPD2    C4 4838   1.155   1.635  13.316 -0.8603  0.2492 -1.1167
  322MPD2    C5 4839   1.129   1.769  13.340 -0.5080 -0.1952 -0.2626
  322MPD2     H 4840   1.159   1.491  13.603  0.0546  0.1166  0.5956
  322MPD2    H1 4841   1.155   1.612  13.210 -1.3017 -0.8860 -0.8655
  322MPD2    H2 4842   1.102   1.913  13.495  1.1962 -0.6857  1.1155
  322MPD2    H3 4843   1.114   1.839  13.258  1.0634  1.5398  0.9233
  322MPD2     N 4844   1.185   1.397  13.388  0.8836  0.7749  0.4480
  322MPD2    H5 4845   1.185   1.332  13.466 -0.8703  0.1786 -0.0549
  322MPD2    N1 4846   1.152   1.757  13.705 -0.0398  0.5990  0.3996
  322MPD2    H7 4847   1.144   1.857  13.722 -0.5766  0.6173  0.0624
  323TMC3    C1 4848   1.234   1.755  13.919  0.5742  0.2776  0.0318
  323TMC3    C2 4849   1.285   1.880  13.893  0.3513 -0.5529 -0.6340
  323TMC3    C3 4850   1.361   1.943  13.995  0.7954  0.5305  0.4047
  323TMC3    C4 4851   1.255   1.689  14.039 -0.1819  0.1907  0.1670
  323TMC3    C5 4852   1.341   1.754  14.128 -0.5173  0.2322 -0.2298
  323TMC3    C6 4853   1.386   1.879  14.110 -0.2418  0.0787  0.0570
  323TMC3     C 4854   1.186   1.681  13.808  0.5689  0.6300  0.6541
  323TMC3     O 4855   1.176   1.559  13.819 -0.4171 -0.2853 -0.0735
  323TMC3     H 4856   1.289   1.925  13.795 -3.6612 -0.3803 -0.7139
  323TMC3    H1 4857   1.222   1.589  14.063  0.5166 -0.4064 -1.3756
  323TMC3    H2 4858   1.449   1.933  14.180 -0.6701 -3.5703  3.2693
  323TMC3    C7 4859   1.444   1.665  14.172 -0.7659 -0.1665 -0.4170
  323TMC3    C8 4860   1.476   2.027  13.954  1.1629  0.5402  0.6774
  323TMC3    O1 4861   1.434   1.549  14.142  0.0699 -0.4657 -0.0128
  323TMC3    O2 4862   1.583   1.974  13.980 -0.6026 -0.0604  0.6927
  324MPD2     C 4863   2.588   3.134  14.767 -0.2554  0.3324  0.5521
  324MPD2    C1 4864   2.588   3.134  14.624 -0.5462  0.2174  1.0707
  324MPD2    C2 4865   2.470   3.145  14.552  0.2658  0.4915 -0.0706
  324MPD2    C3 4866   2.348   3.167  14.618 -0.5840  0.3200 -0.6147
  324MPD2    C4 4867   2.345   3.183  14.752  0.2171 -0.5591 -0.5735
  324MPD2    C5 4868   2.462   3.161  14.823  0.2447  0.4691 -0.0092
  324MPD2     H 4869   2.484   3.143  14.445 -0.8533  0.3534 -0.2115
  324MPD2    H1 4870   2.254   3.210  14.803  0.0869 -0.4049 -0.8893
  324MPD2    H2 4871   2.678   3.124  14.827 -0.3108 -0.8572  0.4429
  324MPD2    H3 4872   2.449   3.154  14.930 -0.3995  1.3400 -0.0324
  324MPD2     N 4873   2.225   3.176  14.554 -0.7524 -0.0796 -0.2343
  324MPD2    H5 4874   2.145   3.199  14.613 -1.2912 -1.4632 -0.4037
  324MPD2    N1 4875   2.707   3.101  14.549  0.2633 -0.1351 -0.8506
  324MPD2    H7 4876   2.703   3.076  14.451 -1.4409 -1.1907 -0.5164
  325TMC3    C1 4877   2.051   3.148  14.392 -0.6495 -0.3409  0.7651
  325TMC3    C2 4878   2.010   3.042  14.322 -1.2592 -0.5907 -0.5730
  325TMC3    C3 4879   1.873   3.018  14.310 -0.2763  0.0528  0.4187
  325TMC3    C4 4880   1.962   3.239  14.457  0.4416 -0.9417 -0.6100
  325TMC3    C5 4881   1.836   3.211  14.448  0.5605  0.0575  0.0552
  325TMC3    C6 4882   1.785   3.098  14.382 -0.1920  0.2618  1.0747
  325TMC3     C 4883   2.190   3.156  14.413  0.0124  0.1442 -0.1437
  325TMC3     O 4884   2.266   3.117  14.325  0.3605  0.0180  0.0004
  325TMC3     H 4885   2.084   2.980  14.273 -0.1234  1.2273 -1.1539
  325TMC3    H1 4886   1.998   3.329  14.505  0.0204 -1.4361  0.6247
  325TMC3    H2 4887   1.678   3.088  14.368 -0.1661  1.5350 -0.0234
  325TMC3    C7 4888   1.747   3.320  14.450  0.3016 -0.5063  0.1712
  325TMC3    C8 4889   1.823   2.962  14.187  0.0576 -0.2411 -0.1747
  325TMC3    O1 4890   1.649   3.314  14.378 -0.6452  0.5191  0.3262
  325TMC3    O2 4891   1.904   2.952  14.095  0.5098  0.0645 -0.0234
  326MPD2     C 4892   3.897   4.115  11.400  0.1094 -0.4765  0.5412
  326MPD2    C1 4893   3.962   4.081  11.281 -0.4127 -0.2879 -0.1820
  326MPD2    C2 4894   4.086   4.142  11.258 -0.0473 -0.2471  0.1798
  326MPD2    C3 4895   4.137   4.236  11.339 -0.0774 -0.4585  0.0325
  326MPD2    C4 4896   4.065   4.265  11.453  0.2065 -0.4780 -0.2859
  326MPD2    C5 4897   3.952   4.203  11.485  0.7657  0.0066  1.3576
  326MPD2     H 4898   4.141   4.109  11.171 -0.2588 -3.0496  1.1199
  326MPD2    H1 4899   4.105   4.339  11.521  1.0441 -0.2422 -1.0399
  326MPD2    H2 4900   3.802   4.074  11.431  0.8151 -2.1236  0.5156
  326MPD2    H3 4901   3.896   4.234  11.573 -3.7099  1.8348 -2.0887
  326MPD2     N 4902   4.266   4.292  11.323 -0.1242  0.2048 -0.2677
  326MPD2    H5 4903   4.307   4.354  11.393 -0.8637 -0.7959  1.0535
  326MPD2    N1 4904   3.904   4.003  11.179 -0.1404  0.0302  0.3301
  326MPD2    H7 4905   3.951   3.980  11.091  0.9126 -0.1289  0.9360
  327TMC3    C1 4906   3.746   3.888  11.044 -0.5315 -0.8105  0.4006
  327TMC3    C2 4907   3.644   3.921  10.958  0.0269 -0.2442  0.2237
  327TMC3    C3 4908   3.641   3.860  10.833 -0.2915  0.2112  0.9850
  327TMC3    C4 4909   3.845   3.801  11.009  0.6340  0.4178  0.3885
  327TMC3    C5 4910   3.837   3.748  10.884  0.1587 -1.0320  0.1145
  327TMC3    C6 4911   3.742   3.776  10.797 -0.1119 -0.3573  0.1003
  327TMC3     C 4912   3.769   3.970  11.157  0.1433 -0.3376 -0.6931
  327TMC3     O 4913   3.676   4.016  11.220  0.2186 -0.6992  0.2028
  327TMC3     H 4914   3.569   3.994  10.986  1.2839  0.6263  1.3157
  327TMC3    H1 4915   3.928   3.778  11.074  0.1573 -0.1515  0.7859
  327TMC3    H2 4916   3.747   3.733  10.698  2.1005 -0.5085  0.2832
  327TMC3    C7 4917   3.960   3.691  10.823 -0.0889 -0.3448  0.4200
  327TMC3    C8 4918   3.579   3.941  10.732  0.8989 -0.3715  0.6745
  327TMC3    O1 4919   3.970   3.687  10.699 -0.3477 -0.5217 -1.0755
  327TMC3    O2 4920   3.637   3.969  10.628  0.8153 -0.2163 -0.4387
  328MPD2     C 4921   1.908   3.476  16.797  0.7162  0.8242  0.2555
  328MPD2    C1 4922   1.787   3.439  16.745 -0.1702 -0.4489  0.5429
  328MPD2    C2 4923   1.679   3.529  16.761  0.7101 -0.1286  0.2138
  328MPD2    C3 4924   1.690   3.640  16.839  0.1751  0.1884  0.3434
  328MPD2    C4 4925   1.813   3.668  16.904  0.3995 -0.1841  0.0731
  328MPD2    C5 4926   1.919   3.594  16.869 -0.9994  1.7994 -0.1636
  328MPD2     H 4927   1.584   3.509  16.713  0.2545  1.0039  0.6521
  328MPD2    H1 4928   1.829   3.761  16.957 -1.4916  0.8620 -1.1942
  328MPD2    H2 4929   2.002   3.425  16.786  0.5313  1.3051 -3.6236
  328MPD2    H3 4930   2.017   3.629  16.900 -0.8757  0.0243  1.4296
  328MPD2     N 4931   1.582   3.732  16.856 -0.0200 -0.2215  0.0755
  328MPD2    H5 4932   1.593   3.811  16.919 -0.3070  2.1434 -2.8394
  328MPD2    N1 4933   1.783   3.324  16.662  0.5826 -0.3739  0.4452
  328MPD2    H7 4934   1.866   3.294  16.612  0.3719 -0.0617 -0.0968
  329TMC3    C1 4935   1.575   3.252  16.766 -0.3493  0.6730 -0.0442
  329TMC3    C2 4936   1.438   3.288  16.753 -0.1408  0.1225 -0.5833
  329TMC3    C3 4937   1.377   3.326  16.865  0.3402  0.0829  0.0315
  329TMC3    C4 4938   1.637   3.210  16.880  0.2658  0.0712  0.4558
  329TMC3    C5 4939   1.560   3.244  16.989 -0.3491  0.4040 -0.1805
  329TMC3    C6 4940   1.433   3.299  16.987 -0.7110 -0.1793  0.4488
  329TMC3     C 4941   1.659   3.262  16.646  0.2627 -0.4852 -0.1959
  329TMC3     O 4942   1.633   3.179  16.560 -0.2833 -0.6762  0.3739
  329TMC3     H 4943   1.391   3.304  16.657 -0.1716  0.0377 -0.5825
  329TMC3    H1 4944   1.740   3.178  16.887 -0.3208 -1.1439  3.3446
  329TMC3    H2 4945   1.383   3.313  17.082 -0.0155  1.0056  0.6462
  329TMC3    C7 4946   1.639   3.271  17.105 -0.5620 -0.4416 -0.2190
  329TMC3    C8 4947   1.239   3.365  16.853  0.0636  0.3100 -0.3438
  329TMC3    O1 4948   1.739   3.206  17.129  0.0920 -0.0511  0.2415
  329TMC3    O2 4949   1.190   3.354  16.742 -0.0140 -0.2190 -0.1845
  330TMC3    C1 4950   0.054   3.374   9.805 -0.3519 -0.1300  0.6866
  330TMC3    C2 4951   4.708   3.331   9.695 -0.0241  0.6542 -0.7172
  330TMC3    C3 4952   4.684   3.196   9.692 -0.1774 -0.2735  1.1180
  330TMC3    C4 4953   0.091   3.289   9.907  0.4910 -0.0157  0.4549
  330TMC3    C5 4954   0.062   3.159   9.899 -0.3661 -0.0392  0.5173
  330TMC3    C6 4955   0.003   3.106   9.790  0.4338  0.0820  0.2844
  330TMC3     C 4956   0.039   3.521   9.838  0.5215  0.3749  0.5090
  330TMC3     O 4957   0.058   3.561   9.951  0.7009 -0.3474  0.0399
  330TMC3     H 4958   4.679   3.386   9.607 -1.2953  0.2329 -0.5685
  330TMC3    H1 4959   0.130   3.325  10.001  0.9638 -2.7258  1.2777
  330TMC3    H2 4960   4.703   2.999   9.789 -0.7431  0.3405 -3.1200
  330TMC3    C7 4961   0.143   3.062   9.970  0.1650 -0.1315  0.7416
  330TMC3    C8 4962   4.640   3.140   9.569  0.0636  0.1512 -0.4829
  330TMC3    O1 4963   0.120   2.948   9.939 -0.4318  0.0836  0.3022
  330TMC3    O2 4964   4.624   3.217   9.476 -0.8408  0.0595  0.2876
  331MPD2     C 4965   2.014   2.584  12.764  0.0977 -0.2413 -0.2914
  331MPD2    C1 4966   2.137   2.607  12.701  0.2338 -0.3338 -0.0495
  331MPD2    C2 4967   2.176   2.520  12.599  0.1379 -0.0541 -0.0501
  331MPD2    C3 4968   2.106   2.402  12.579  0.5058 -0.6572 -0.6136
  331MPD2    C4 4969   1.987   2.383  12.646 -0.1542  0.4240  0.0177
  331MPD2    C5 4970   1.940   2.473  12.733 -0.3677  0.0239 -0.0693
  331MPD2     H 4971   2.262   2.536  12.535  0.3613 -0.6670  0.0978
  331MPD2    H1 4972   1.923   2.299  12.621  0.1461  0.4147 -0.7410
  331MPD2    H2 4973   1.969   2.659  12.829  2.6092  0.7056  0.3694
  331MPD2    H3 4974   1.843   2.456  12.778  0.4847 -0.6430  1.5289
  331MPD2     N 4975   2.143   2.324  12.464  0.2936 -0.0472 -0.2386
  331MPD2    H5 4976   2.231   2.353  12.421  1.0521 -0.9068  0.7377
  331MPD2    N1 4977   2.203   2.727  12.727  0.1668  0.2759  0.5812
  331MPD2    H7 4978   2.151   2.804  12.767 -0.7488  0.5559 -1.1339
  332TMC3    C1 4979   2.173   2.137  12.334  0.8349  0.5953 -0.0508
  332TMC3    C2 4980   2.219   2.211  12.230 -0.9878 -0.1860 -0.1222
  332TMC3    C3 4981   2.325   2.152  12.156  1.0267  0.0648 -0.0183
  332TMC3    C4 4982   2.215   2.013  12.358  0.5955  0.2725  0.3144
  332TMC3    C5 4983   2.331   1.970  12.300 -0.5779  0.1650  0.0366
  332TMC3    C6 4984   2.390   2.038  12.194 -0.0586  0.5589 -1.1478
  332TMC3     C 4985   2.086   2.197  12.429 -0.4120 -0.0484  0.1011
  332TMC3     O 4986   2.005   2.125  12.486  0.2433  0.0360  0.2885
  332TMC3     H 4987   2.180   2.310  12.210  0.0191  0.3196  0.4196
  332TMC3    H1 4988   2.173   1.958  12.442  0.5267  2.6116  1.8253
  332TMC3    H2 4989   2.471   1.994  12.135 -0.3890  0.7474 -1.7408
  332TMC3    C7 4990   2.412   1.878  12.379  0.2352 -0.7588  0.3480
  332TMC3    C8 4991   2.399   2.243  12.069 -0.3727  0.8693 -0.6081
  332TMC3    O1 4992   2.356   1.810  12.466  0.2130 -0.0710  0.3112
  332TMC3    O2 4993   2.516   2.216  12.061  0.5755 -0.3383 -0.3460
  333MPD2     C 4994   2.571   2.553  10.879  0.1302 -0.0084 -0.0194
  333MPD2    C1 4995   2.576   2.480  10.754  0.2778  0.4217 -0.5944
  333MPD2    C2 4996   2.526   2.354  10.748  0.0243 -0.7452 -0.2824
  333MPD2    C3 4997   2.466   2.298  10.854 -0.1424 -0.7192 -0.0719
  333MPD2    C4 4998   2.467   2.364  10.973 -0.6956 -0.2493 -0.8303
  333MPD2    C5 4999   2.515   2.487  10.988  0.0065  0.3956 -0.6315
  333MPD2     H 5000   2.528   2.299  10.655 -1.9306  0.2425 -0.8896
  333MPD2    H1 5001   2.436   2.323  11.068  0.1993  1.9002  0.4037
  333MPD2    H2 5002   2.616   2.648  10.906 -2.4871  1.0798  0.4718
  333MPD2    H3 5003   2.516   2.524  11.090 -1.6394 -0.1195 -0.4255
  333MPD2     N 5004   2.407   2.168  10.838 -0.1921  0.1273 -0.4767
  333MPD2    H5 5005   2.423   2.126  10.746  1.6190  1.3362 -0.7041
  333MPD2    N1 5006   2.639   2.545  10.651 -0.8120 -0.4347 -0.1992
  333MPD2    H7 5007   2.680   2.634  10.676  1.0701 -1.3226 -0.1395
  334TMC3    C1 5008   2.793   2.561  10.477 -0.3626  0.0945  0.4771
  334TMC3    C2 5009   2.900   2.489  10.419 -0.0937 -0.1147  0.5114
  334TMC3    C3 5010   3.009   2.558  10.379  0.5292  0.0807  0.5909
  334TMC3    C4 5011   2.794   2.699  10.478  0.3065 -0.1779 -0.1856
  334TMC3    C5 5012   2.903   2.761  10.425  0.0749  0.3409  0.7792
  334TMC3    C6 5013   3.016   2.695  10.389 -0.6229  0.2071  0.3813
  334TMC3     C 5014   2.675   2.489  10.531  0.3435 -0.5624  0.2855
  334TMC3     O 5015   2.662   2.368  10.507  0.2177 -0.3700 -0.5165
  334TMC3     H 5016   2.900   2.381  10.419  4.1002 -0.1303 -1.5542
  334TMC3    H1 5017   2.710   2.762  10.505  0.1238 -1.5480  2.4982
  334TMC3    H2 5018   3.079   2.759  10.328 -0.8908 -0.6532 -0.8115
  334TMC3    C7 5019   2.892   2.906  10.392  0.3707 -0.3795 -1.0199
  334TMC3    C8 5020   3.123   2.475  10.344 -0.3440  0.4103  0.3576
  334TMC3    O1 5021   2.996   2.971  10.387 -0.1256  0.2509 -0.2570
  334TMC3    O2 5022   3.104   2.364  10.295 -0.1767  0.0516  0.1668
  335TMC3    C1 5023   2.460   4.081   0.004 -0.3123 -0.1202 -0.0587
  335TMC3    C2 5024   2.412   4.025  17.565 -0.3274  0.0420 -0.0702
  335TMC3    C3 5025   2.447   4.093  17.447  0.6754  0.1334  0.0557
  335TMC3    C4 5026   2.544   4.189   0.004  0.2813  0.0734 -0.4003
  335TMC3    C5 5027   2.566   4.253  17.567  0.2557 -0.6407  0.0934
  335TMC3    C6 5028   2.521   4.209  17.444  0.0723  0.3416 -0.0661
  335TMC3     C 5029   2.408   4.045   0.136 -0.5621  0.6295 -0.6000
  335TMC3     O 5030   2.426   4.126   0.228 -0.1495 -0.3951  0.0207
  335TMC3     H 5031   2.324   3.961  17.567 -0.2594 -0.0479  0.0421
  335TMC3    H1 5032   2.594   4.224   0.094  0.2279 -0.8520 -0.0085
  335TMC3    H2 5033   2.557   4.245  17.348  0.6694  0.5591  0.2415
  335TMC3    C7 5034   2.679   4.340  17.566  0.3801 -0.5722 -1.1490
  335TMC3    C8 5035   2.434   4.024  17.324  0.1143 -0.5156 -0.4846
  335TMC3    O1 5036   2.778   4.298  17.627  0.3330  0.0209 -0.4909
  335TMC3    O2 5037   2.470   4.084  17.225  0.2523 -0.1696 -0.0771
  336MPD2     C 5038   2.260   1.573  16.034 -0.1260  0.7522 -0.0407
  336MPD2    C1 5039   2.245   1.503  15.915 -0.2175  0.0851 -0.4112
  336MPD2    C2 5040   2.273   1.363  15.909 -0.2171  0.3646  0.4339
  336MPD2    C3 5041   2.312   1.298  16.026  0.2644 -0.4322  0.6182
  336MPD2    C4 5042   2.322   1.371  16.143 -0.2906 -0.4272 -0.3007
  336MPD2    C5 5043   2.311   1.510  16.147  0.2651  0.3353 -0.5551
  336MPD2     H 5044   2.254   1.305  15.819  0.1284  1.0865 -0.1092
  336MPD2    H1 5045   2.335   1.321  16.238 -0.6631 -2.2911 -1.2442
  336MPD2    H2 5046   2.237   1.678  16.047  2.4193  1.0947  1.6690
  336MPD2    H3 5047   2.317   1.568  16.239 -0.6249  0.1662 -0.3897
  336MPD2     N 5048   2.335   1.162  16.021 -0.4570  0.2628  0.2853
  336MPD2    H5 5049   2.316   1.113  15.934 -1.9244  2.0168 -0.3953
  336MPD2    N1 5050   2.173   1.557  15.808 -0.1410 -0.3930 -0.1306
  336MPD2    H7 5051   2.148   1.499  15.729  1.6760 -0.5945 -0.5384
  337TMC3    C1 5052   2.050   1.700  15.666  0.7408  0.2068 -0.2515
  337TMC3    C2 5053   2.019   1.601  15.576 -0.4247 -0.1214  0.2114
  337TMC3    C3 5054   1.920   1.629  15.485 -0.4742  0.1092  0.3834
  337TMC3    C4 5055   1.976   1.822  15.668  0.2016 -0.3833 -0.1222
  337TMC3    C5 5056   1.869   1.839  15.586 -0.5626  0.7186 -0.3558
  337TMC3    C6 5057   1.843   1.745  15.489  0.3812  0.2118  0.2434
  337TMC3     C 5058   2.123   1.682  15.790 -0.6463 -0.3700  0.5392
  337TMC3     O 5059   2.128   1.775  15.867  0.1354  0.0619 -0.3902
  337TMC3     H 5060   2.082   1.513  15.576 -0.5992 -0.2447 -0.0229
  337TMC3    H1 5061   1.973   1.881  15.759  1.6268 -0.1131 -0.2546
  337TMC3    H2 5062   1.756   1.760  15.426  0.8159 -3.7710 -1.3357
  337TMC3    C7 5063   1.799   1.966  15.570 -0.1898 -0.1120 -0.0263
  337TMC3    C8 5064   1.868   1.518  15.421 -0.6584  0.0957  0.4251
  337TMC3    O1 5065   1.686   1.957  15.530 -0.0758 -0.3561 -0.1379
  337TMC3    O2 5066   1.914   1.414  15.465  0.0086  0.2319 -0.3516
  338MPD2     C 5067   2.396   0.473   0.444 -0.4204  0.6336 -0.2747
  338MPD2    C1 5068   2.338   0.557   0.348  0.1999 -0.7289 -0.0183
  338MPD2    C2 5069   2.340   0.691   0.382 -0.3154 -0.6096 -0.5623
  338MPD2    C3 5070   2.398   0.737   0.491  0.0851  0.4577 -0.7307
  338MPD2    C4 5071   2.468   0.653   0.573  0.2213 -0.2175 -0.6424
  338MPD2    C5 5072   2.464   0.517   0.555  0.1402 -0.0469 -0.0715
  338MPD2     H 5073   2.301   0.752   0.302  1.8307 -0.8297 -1.7863
  338MPD2    H1 5074   2.535   0.691   0.649  0.2757 -0.3425 -0.6273
  338MPD2    H2 5075   2.393   0.365   0.434 -0.0244  0.6494 -0.6137
  338MPD2    H3 5076   2.521   0.442   0.609 -1.2965 -2.1130 -1.3919
  338MPD2     N 5077   2.398   0.870   0.515  0.2254  0.2757  0.0620
  338MPD2    H5 5078   2.348   0.927   0.448 -0.8432 -0.1107  0.5186
  338MPD2    N1 5079   2.279   0.512   0.227 -0.4599 -0.3800 -0.2808
  338MPD2    H7 5080   2.221   0.578   0.176  2.4121  2.0749 -0.4016
  339TMC3    C1 5081   2.397   1.069   0.639 -0.0318 -0.5790  0.1863
  339TMC3    C2 5082   2.347   1.134   0.750 -0.5683  0.4617  0.4049
  339TMC3    C3 5083   2.354   1.271   0.756  1.2469  0.0201 -0.2223
  339TMC3    C4 5084   2.442   1.137   0.531 -0.1459 -0.1785  0.0222
  339TMC3    C5 5085   2.441   1.278   0.539 -0.6433 -0.4053  0.0129
  339TMC3    C6 5086   2.390   1.347   0.650  0.2265  0.0271  0.2339
  339TMC3     C 5087   2.416   0.929   0.642  0.3201 -0.7784  0.1883
  339TMC3     O 5088   2.443   0.876   0.747 -0.6537 -0.2179 -0.1489
  339TMC3     H 5089   2.322   1.070   0.833 -0.1722 -0.8520 -0.4959
  339TMC3    H1 5090   2.483   1.088   0.444 -2.8110 -1.2887 -0.6178
  339TMC3    H2 5091   2.399   1.455   0.654 -0.8260  0.1954 -1.8141
  339TMC3    C7 5092   2.438   1.348   0.413 -0.1356 -1.0470  0.1325
  339TMC3    C8 5093   2.257   1.343   0.841  0.4521  0.6465 -0.5023
  339TMC3    O1 5094   2.486   1.457   0.416  0.3204  0.0953  0.4995
  339TMC3    O2 5095   2.286   1.462   0.858  0.6560 -0.3080  0.1560
  340MPD2     C 5096   3.018   2.600   9.442 -0.5425 -0.2605  0.2282
  340MPD2    C1 5097   2.888   2.621   9.399 -0.3763  0.7825 -0.5202
  340MPD2    C2 5098   2.795   2.679   9.483 -0.1510  0.4996 -0.3056
  340MPD2    C3 5099   2.829   2.715   9.613  0.7971 -0.1621 -0.2749
  340MPD2    C4 5100   2.960   2.695   9.652  0.2176 -0.5196 -1.1582
  340MPD2    C5 5101   3.056   2.647   9.563 -0.1670 -0.3281 -0.1625
  340MPD2     H 5102   2.690   2.685   9.456 -0.2262  2.3180  0.4180
  340MPD2    H1 5103   2.999   2.721   9.750 -0.7400  1.0612 -1.1803
  340MPD2    H2 5104   3.097   2.560   9.378 -0.6337  1.6429 -1.0711
  340MPD2    H3 5105   3.159   2.636   9.595  0.9480  1.6097 -3.1198
  340MPD2     N 5106   2.740   2.760   9.712  0.0008 -0.0436 -0.7148
  340MPD2    H5 5107   2.777   2.766   9.807 -2.2488  1.5723  0.0579
  340MPD2    N1 5108   2.856   2.568   9.272 -0.1216  0.3938 -0.2262
  340MPD2    H7 5109   2.932   2.511   9.236 -1.2027 -1.0353 -0.2171
  341TMC3    C1 5110   2.733   2.513   9.078  0.0287  0.2064  0.2572
  341TMC3    C2 5111   2.630   2.548   8.985 -0.3427 -1.1513  0.4988
  341TMC3    C3 5112   2.600   2.461   8.885  0.3402 -1.0051 -0.0221
  341TMC3    C4 5113   2.804   2.400   9.056 -0.6770 -0.3273  0.1044
  341TMC3    C5 5114   2.786   2.331   8.937 -0.8917 -0.6921 -0.3932
  341TMC3    C6 5115   2.683   2.360   8.853 -0.1502 -0.5224 -0.4906
  341TMC3     C 5116   2.745   2.594   9.193  0.3809 -0.3652 -0.2383
  341TMC3     O 5117   2.659   2.682   9.212 -0.1045 -0.2027 -0.2294
  341TMC3     H 5118   2.562   2.626   9.018  0.7077 -0.6271  1.4368
  341TMC3    H1 5119   2.884   2.372   9.123 -1.9782 -0.3264  1.6476
  341TMC3    H2 5120   2.660   2.301   8.765 -3.7145  0.5459 -0.2944
  341TMC3    C7 5121   2.882   2.227   8.899  0.5997  0.2374 -0.7423
  341TMC3    C8 5122   2.473   2.477   8.808 -0.5021 -0.0803  0.4265
  341TMC3    O1 5123   2.855   2.154   8.804  0.2153 -0.4750  1.0360
  341TMC3    O2 5124   2.451   2.396   8.719 -0.4128  0.1386 -0.1239
  342MPD2     C 5125   0.210   2.144  16.960  0.0754 -0.4788  0.0389
  342MPD2    C1 5126   0.331   2.139  17.025  0.0015 -0.0009  0.4745
  342MPD2    C2 5127   0.387   2.258  17.055  0.0029 -0.6925 -0.3567
  342MPD2    C3 5128   0.328   2.384  17.044 -0.3815 -1.4200  0.4144
  342MPD2    C4 5129   0.204   2.382  16.987  0.1717 -0.6013  0.0933
  342MPD2    C5 5130   0.152   2.260  16.948  0.0871 -0.1386 -0.2133
  342MPD2     H 5131   0.480   2.252  17.111 -0.9955  0.8562  1.4570
  342MPD2    H1 5132   0.157   2.478  16.966 -0.1502 -0.3784  1.8533
  342MPD2    H2 5133   0.164   2.055  16.919 -0.1610  0.0480 -0.8192
  342MPD2    H3 5134   0.057   2.259  16.895  0.7688 -1.9091 -1.3838
  342MPD2     N 5135   0.372   2.511  17.084  0.5448  0.8827  0.6805
  342MPD2    H5 5136   0.333   2.600  17.056  0.8947  0.9875  0.5206
  342MPD2    N1 5137   0.415   2.020  17.030  0.4517 -0.3504 -0.2204
  342MPD2    H7 5138   0.508   2.048  17.061  0.3007  1.5049 -1.4594
  343TMC3    C1 5139   0.471   1.793  17.009 -0.5293  0.4363 -0.3247
  343TMC3    C2 5140   0.601   1.823  16.988 -1.1470 -0.2834 -0.8742
  343TMC3    C3 5141   0.685   1.715  16.960  0.2432  0.2929 -0.4280
  343TMC3    C4 5142   0.428   1.663  16.993 -0.0278 -0.7891  0.0332
  343TMC3    C5 5143   0.506   1.561  16.956 -1.1664 -0.1636  0.6484
  343TMC3    C6 5144   0.640   1.587  16.945  1.0007 -0.3074  0.0617
  343TMC3     C 5145   0.367   1.895  16.999  0.0783 -0.2541  0.4521
  343TMC3     O 5146   0.257   1.854  16.969  0.2278  0.3770  0.4578
  343TMC3     H 5147   0.632   1.925  16.969 -1.3677 -0.0657 -0.0851
  343TMC3    H1 5148   0.328   1.642  17.029  0.5329  1.1177  2.7111
  343TMC3    H2 5149   0.696   1.511  16.892 -0.8828  0.7366 -3.4084
  343TMC3    C7 5150   0.445   1.430  16.949 -0.2449  0.6648  0.5238
  343TMC3    C8 5151   0.822   1.755  16.917 -0.8154  0.5243  0.0193
  343TMC3    O1 5152   0.322   1.427  16.933 -0.4774 -0.8679 -0.3615
  343TMC3    O2 5153   0.861   1.861  16.964  0.2247 -0.0733  0.0976
  344MPD2     C 5154   1.711   2.029   9.924 -0.3058 -0.5015 -0.3738
  344MPD2    C1 5155   1.612   1.953   9.857  0.6747 -0.5843 -0.8156
  344MPD2    C2 5156   1.555   1.989   9.735 -0.7152  0.1446 -0.0920
  344MPD2    C3 5157   1.585   2.115   9.692 -0.8609 -0.1029  1.3173
  344MPD2    C4 5158   1.677   2.187   9.764  0.2814 -1.1411  0.3787
  344MPD2    C5 5159   1.743   2.147   9.872  0.8521  0.4453  0.6311
  344MPD2     H 5160   1.479   1.933   9.682  1.6255 -0.2438 -3.0235
  344MPD2    H1 5161   1.695   2.285   9.722 -0.7890 -1.1281 -0.0327
  344MPD2    H2 5162   1.757   1.993  10.015 -0.8891  0.4404  0.3005
  344MPD2    H3 5163   1.821   2.214   9.907  1.7441  0.3661 -1.1842
  344MPD2     N 5164   1.541   2.168   9.567 -0.8990 -0.1763  0.0535
  344MPD2    H5 5165   1.598   2.244   9.530 -3.2377  1.8337  0.6053
  344MPD2    N1 5166   1.573   1.823   9.910  0.5880  0.5885  0.3701
  344MPD2    H7 5167   1.533   1.758   9.844 -1.5188 -0.3746  2.6015
  345TMC3    C1 5168   1.457   2.187   9.364  0.9815 -0.5527 -0.7076
  345TMC3    C2 5169   1.586   2.222   9.342 -0.3357 -0.0790 -0.3707
  345TMC3    C3 5170   1.618   2.346   9.310 -0.6496 -0.2545 -0.2624
  345TMC3    C4 5171   1.351   2.276   9.349  0.3272 -0.2269 -0.1659
  345TMC3    C5 5172   1.391   2.402   9.306  0.1690  0.8033 -0.0910
  345TMC3    C6 5173   1.523   2.438   9.291 -0.7300 -0.8854 -0.5081
  345TMC3     C 5174   1.450   2.108   9.482 -0.1878 -0.1247  0.5117
  345TMC3     O 5175   1.364   2.024   9.497  0.4840 -0.4568  0.3376
  345TMC3     H 5176   1.659   2.150   9.375 -0.8505 -0.0321  0.8596
  345TMC3    H1 5177   1.255   2.261   9.397  0.3542  0.9587  0.2648
  345TMC3    H2 5178   1.548   2.541   9.269 -1.4895 -0.5491  0.1990
  345TMC3    C7 5179   1.303   2.521   9.322  0.4399 -0.3590 -0.7843
  345TMC3    C8 5180   1.726   2.396   9.387 -0.2618 -0.4997 -0.4313
  345TMC3    O1 5181   1.345   2.617   9.387  0.2117 -0.5901  0.3099
  345TMC3    O2 5182   1.739   2.350   9.501 -0.0009 -0.3489 -0.2073
  346MPD2     C 5183   1.197   3.368  14.648 -0.2893  0.7755 -0.0364
  346MPD2    C1 5184   1.318   3.366  14.578  0.2547 -0.4463 -0.5141
  346MPD2    C2 5185   1.434   3.408  14.647 -0.0034 -0.4502  0.9702
  346MPD2    C3 5186   1.434   3.452  14.775  0.6531 -0.3141  0.1109
  346MPD2    C4 5187   1.311   3.460  14.838  1.1128  0.1628  0.2221
  346MPD2    C5 5188   1.193   3.415  14.776  0.4643 -0.9183 -0.1250
  346MPD2     H 5189   1.531   3.412  14.599 -0.4147  0.8218  0.2237
  346MPD2    H1 5190   1.309   3.490  14.943  0.4969 -1.7096  0.7586
  346MPD2    H2 5191   1.105   3.329  14.607 -0.8369  1.1720  0.8249
  346MPD2    H3 5192   1.104   3.403  14.835 -1.3162 -0.4482 -2.7108
  346MPD2     N 5193   1.549   3.504  14.835  0.3435 -0.0533  0.0299
  346MPD2    H5 5194   1.634   3.517  14.782 -0.2463  0.7192 -0.7259
  346MPD2    N1 5195   1.334   3.331  14.441 -0.5416 -0.5182  0.2741
  346MPD2    H7 5196   1.425   3.342  14.398 -0.0660 -0.9764  1.1546
  347TMC3    C1 5197   1.684   3.616  14.997  0.6554 -0.0950  0.1461
  347TMC3    C2 5198   1.703   3.712  14.899  0.0304 -0.4689 -0.1506
  347TMC3    C3 5199   1.827   3.767  14.885 -0.2561 -0.0341 -0.2372
  347TMC3    C4 5200   1.788   3.577  15.078 -0.3956  0.3886 -0.4182
  347TMC3    C5 5201   1.910   3.638  15.069 -0.0703 -0.0801 -0.2582
  347TMC3    C6 5202   1.927   3.733  14.968  0.2675  0.0819  0.3210
  347TMC3     C 5203   1.571   3.523  14.977 -0.7289  0.2940  0.3830
  347TMC3     O 5204   1.518   3.473  15.074  0.0890  0.0505 -0.3028
  347TMC3     H 5205   1.619   3.761  14.852  0.8832 -0.2758 -1.4657
  347TMC3    H1 5206   1.769   3.501  15.153 -0.6464  1.0886  0.2364
  347TMC3    H2 5207   2.026   3.772  14.947  1.0611 -1.1122  1.8848
  347TMC3    C7 5208   2.001   3.615  15.182 -0.0627  0.2020 -0.1537
  347TMC3    C8 5209   1.846   3.890  14.811 -0.6282  0.7086  0.1839
  347TMC3    O1 5210   1.978   3.514  15.246  0.3252  0.3596  0.3671
  347TMC3    O2 5211   1.910   3.977  14.869 -0.0589  0.1652  0.2946
  348MPD2     C 5212   0.028   3.054  11.988  0.2601 -0.8551 -0.3472
  348MPD2    C1 5213   0.158   3.074  11.959 -0.0969  0.2289  0.1996
  348MPD2    C2 5214   0.182   3.158  11.850  0.2284 -0.4126  0.3652
  348MPD2    C3 5215   0.082   3.214  11.773  0.3781 -0.5214 -0.0203
  348MPD2    C4 5216   4.673   3.203  11.818 -0.2875  0.1494  0.4872
  348MPD2    C5 5217   4.642   3.128  11.930 -0.1456  0.2019 -0.2892
  348MPD2     H 5218   0.284   3.188  11.827  0.2068 -1.3571 -0.9570
  348MPD2    H1 5219   4.587   3.243  11.765  0.4906 -0.6861 -1.4210
  348MPD2    H2 5220   4.718   2.983  12.064 -0.4031  0.8729  1.0113
  348MPD2    H3 5221   4.540   3.114  11.964 -0.7220  1.4526 -1.5357
  348MPD2     N 5222   0.121   3.291  11.660  0.3666  0.4650 -0.1188
  348MPD2    H5 5223   0.221   3.286  11.643  0.4854  2.1083  0.1762
  348MPD2    N1 5224   0.279   3.022  12.021 -0.4468 -0.6973 -0.0927
  348MPD2    H7 5225   0.368   3.044  11.977 -0.5055  0.6310  0.4758
  349TMC3    C1 5226   0.419   2.884  12.163 -0.5404 -0.2445  0.4477
  349TMC3    C2 5227   0.413   2.748  12.168 -0.4955 -0.7322 -1.1268
  349TMC3    C3 5228   0.532   2.684  12.164 -0.9769  0.3138 -1.1535
  349TMC3    C4 5229   0.533   2.956  12.128 -0.0422 -0.1318  0.0143
  349TMC3    C5 5230   0.642   2.888  12.112  0.0071  0.5944  0.3110
  349TMC3    C6 5231   0.648   2.754  12.134 -0.1231 -0.4664  0.5652
  349TMC3     C 5232   0.284   2.931  12.126  0.0712 -0.7962  0.0237
  349TMC3     O 5233   0.194   2.870  12.184 -0.2297  0.0671  0.3775
  349TMC3     H 5234   0.322   2.689  12.171 -1.1518  0.2968 -0.8613
  349TMC3    H1 5235   0.533   3.064  12.124 -1.5727 -0.0986  0.7856
  349TMC3    H2 5236   0.745   2.706  12.130 -0.4267 -0.9072 -1.4505
  349TMC3    C7 5237   0.770   2.957  12.093  0.0407  0.2364 -0.3072
  349TMC3    C8 5238   0.533   2.543  12.165 -0.0127 -0.0189 -0.2361
  349TMC3    O1 5239   0.863   2.930  12.169 -0.6984  0.2249  1.0136
  349TMC3    O2 5240   0.438   2.491  12.229 -0.0142 -0.3406 -0.0745
  350MPD2     C 5241   3.847   1.206   9.906 -0.3619  0.8173  0.2399
  350MPD2    C1 5242   3.910   1.094   9.957  0.0251  0.3866 -0.0176
  350MPD2    C2 5243   4.047   1.086   9.946 -0.2657 -0.8836  0.2492
  350MPD2    C3 5244   4.119   1.192   9.899 -0.1904 -0.2470  0.0255
  350MPD2    C4 5245   4.050   1.312   9.863  0.0177 -0.0541  0.0177
  350MPD2    C5 5246   3.915   1.313   9.862 -0.2781 -0.2370  0.6258
  350MPD2     H 5247   4.093   0.994   9.980  1.1633 -0.7372 -1.3334
  350MPD2    H1 5248   4.092   1.405   9.827  0.0041  0.7019  1.9520
  350MPD2    H2 5249   3.740   1.217   9.897 -0.3543  0.8590  0.2007
  350MPD2    H3 5250   3.856   1.393   9.819  0.0999 -0.2666  0.0721
  350MPD2     N 5251   4.260   1.171   9.879  0.6775 -0.0282  0.6739
  350MPD2    H5 5252   4.299   1.084   9.915  1.3485  0.2883  0.7140
  350MPD2    N1 5253   3.843   0.976  10.003 -0.6335  0.7324  0.1096
  350MPD2    H7 5254   3.906   0.899  10.023 -0.6756  0.2699 -1.5532
  351TMC3    C1 5255   3.685   0.813  10.050 -0.4908 -0.1072  0.4446
  351TMC3    C2 5256   3.790   0.729  10.073 -0.2652 -0.3030  0.4509
  351TMC3    C3 5257   3.783   0.595  10.048  0.8880  0.3778 -0.1581
  351TMC3    C4 5258   3.570   0.764   9.989  0.0696 -0.5904  0.4332
  351TMC3    C5 5259   3.571   0.625   9.956  0.3892  0.4600  0.2624
  351TMC3    C6 5260   3.674   0.538   9.987 -0.6569  0.0035  0.5813
  351TMC3     C 5261   3.705   0.952  10.013 -0.4537  0.2019  0.0696
  351TMC3     O 5262   3.607   1.021   9.992  0.0844 -0.3384  0.3552
  351TMC3     H 5263   3.873   0.774  10.127 -0.9380  2.1976 -0.5814
  351TMC3    H1 5264   3.480   0.824   9.978  0.4537  0.1171  1.1975
  351TMC3    H2 5265   3.693   0.442   9.940 -1.8001 -0.4484  1.0535
  351TMC3    C7 5266   3.457   0.572   9.873  0.0577  0.3465 -0.1284
  351TMC3    C8 5267   3.897   0.514  10.083  0.0999  0.3097  0.1427
  351TMC3    O1 5268   3.393   0.653   9.806  0.1902 -0.0981 -0.0193
  351TMC3    O2 5269   3.994   0.574  10.124 -0.0104  0.3580  0.2609
  352MPD2     C 5270   1.081   2.601   0.617  0.4418  0.4618  0.0806
  352MPD2    C1 5271   1.216   2.603   0.658 -0.4323 -0.2047  0.6715
  352MPD2    C2 5272   1.272   2.498   0.727  0.5139  0.5081 -0.6534
  352MPD2    C3 5273   1.190   2.395   0.768  0.6672  0.3382 -0.7856
  352MPD2    C4 5274   1.056   2.394   0.725 -0.6575  0.7005  0.0348
  352MPD2    C5 5275   1.005   2.498   0.652 -0.8523  0.9604 -0.0349
  352MPD2     H 5276   1.378   2.497   0.752  0.4442  0.4102 -0.3609
  352MPD2    H1 5277   0.994   2.314   0.764  0.1899  1.1931  2.4429
  352MPD2    H2 5278   1.041   2.666   0.540 -0.1089  0.6622  0.5357
  352MPD2    H3 5279   0.910   2.484   0.601 -1.1150 -1.3789  1.0936
  352MPD2     N 5280   1.226   2.285   0.843  0.3580 -0.2068  0.5504
  352MPD2    H5 5281   1.156   2.212   0.848 -1.3767  1.3752 -0.4688
  352MPD2    N1 5282   1.284   2.725   0.631 -0.0855 -0.4041  0.1184
  352MPD2    H7 5283   1.227   2.787   0.574 -1.9013 -2.9499 -0.8271
  353TMC3    C1 5284   1.360   2.143   0.985 -0.4021 -0.2232  0.2226
  353TMC3    C2 5285   1.424   2.134   1.104 -0.2704  0.5259  0.8990
  353TMC3    C3 5286   1.481   2.009   1.126 -0.2912 -0.3721 -0.6919
  353TMC3    C4 5287   1.354   2.036   0.897 -0.1510  0.2904 -0.7671
  353TMC3    C5 5288   1.397   1.909   0.934  0.2509 -0.1261  0.2004
  353TMC3    C6 5289   1.463   1.893   1.049 -0.0968  0.3509 -0.5296
  353TMC3     C 5290   1.342   2.277   0.922 -0.8305 -0.9354 -0.2928
  353TMC3     O 5291   1.429   2.361   0.950 -0.1713  0.1480  0.1433
  353TMC3     H 5292   1.446   2.222   1.164  0.9428  1.6909 -1.2691
  353TMC3    H1 5293   1.299   2.056   0.806 -1.3495  1.1416  0.1459
  353TMC3    H2 5294   1.493   1.800   1.096  1.4326  1.0466 -0.0916
  353TMC3    C7 5295   1.397   1.798   0.838 -0.2584 -0.2444  0.2380
  353TMC3    C8 5296   1.563   1.996   1.246 -0.0810  0.7257 -0.4852
  353TMC3    O1 5297   1.360   1.830   0.723 -0.0510  0.4137 -0.5830
  353TMC3    O2 5298   1.513   2.041   1.352  0.1070 -0.1152 -0.0120
  354TMC3    C1 5299   3.722   4.015  13.358 -0.0982 -0.4652 -0.1168
  354TMC3    C2 5300   3.707   4.151  13.337 -0.6335  0.2420 -0.6866
  354TMC3    C3 5301   3.690   4.192  13.211  0.3534  0.4091  0.4150
  354TMC3    C4 5302   3.721   3.932  13.250 -0.0407 -0.1611  1.6682
  354TMC3    C5 5303   3.709   3.982  13.123  0.2769 -0.9762  0.2512
  354TMC3    C6 5304   3.691   4.112  13.099 -0.9731  0.5364  0.3807
  354TMC3     C 5305   3.706   3.967  13.492 -0.2549 -0.0129 -0.9651
  354TMC3     O 5306   3.687   3.847  13.507  0.0376 -0.6753 -0.1963
  354TMC3     H 5307   3.687   4.225  13.413 -2.4858 -0.8441 -0.0927
  354TMC3    H1 5308   3.758   3.832  13.273  3.4473  1.0379  1.2310
  354TMC3    H2 5309   3.669   4.159  13.004 -0.2379  0.7145  0.3019
  354TMC3    C7 5310   3.816   3.938  13.040 -0.1884 -0.2233 -0.3955
  354TMC3    C8 5311   3.706   4.329  13.178 -0.2714 -0.5193  0.1547
  354TMC3    O1 5312   3.839   3.818  13.054 -0.3683 -0.0982 -0.3892
  354TMC3    O2 5313   3.618   4.390  13.125  0.3125  0.1283  0.2661
  355MPD2     C 5314   4.451   0.301  12.088  0.4492  0.6731 -0.2870
  355MPD2    C1 5315   4.443   0.336  11.951  0.4952 -0.0742 -0.4535
  355MPD2    C2 5316   4.559   0.373  11.889  0.3056 -0.9108 -0.2864
  355MPD2    C3 5317   4.681   0.379  11.961  1.2462  0.0840  0.5027
  355MPD2    C4 5318   4.683   0.366  12.095 -0.6956 -0.1767  0.6399
  355MPD2    C5 5319   4.567   0.323  12.156  0.0484 -0.1941  0.4861
  355MPD2     H 5320   4.554   0.406  11.785 -0.5079 -0.3956 -0.0808
  355MPD2    H1 5321   0.051   0.376  12.159 -0.6184  0.7667  0.3943
  355MPD2    H2 5322   4.358   0.266  12.133 -0.8062  0.4336 -3.0411
  355MPD2    H3 5323   4.562   0.296  12.261 -0.7039 -0.9469  0.2503
  355MPD2     N 5324   0.081   0.425  11.909  0.0064  0.8949  0.3342
  355MPD2    H5 5325   0.155   0.435  11.978  0.4404 -0.0605 -0.0008
  355MPD2    N1 5326   4.321   0.349  11.889 -0.2281  0.0877  0.5723
  355MPD2    H7 5327   4.242   0.366  11.951 -0.7121 -2.0458  0.5497
  356TMC3    C1 5328   0.209   0.560  11.785  0.6495  0.1095  0.2102
  356TMC3    C2 5329   0.266   0.561  11.658 -0.0406  0.0855  0.2423
  356TMC3    C3 5330   0.395   0.611  11.659  0.0630 -0.4771  0.2789
  356TMC3    C4 5331   0.259   0.617  11.895 -0.3646 -0.4125  0.6433
  356TMC3    C5 5332   0.381   0.680  11.885 -0.0890  0.3140  0.5176
  356TMC3    C6 5333   0.447   0.672  11.768 -0.5976 -0.4095  0.2909
  356TMC3     C 5334   0.085   0.491  11.791  0.1106 -0.1832 -0.2815
  356TMC3     O 5335   0.008   0.519  11.701  0.0177 -0.0721  0.2375
  356TMC3     H 5336   0.225   0.513  11.570  1.3596 -1.4288  0.4209
  356TMC3    H1 5337   0.199   0.620  11.986 -2.3032  0.8374 -0.6704
  356TMC3    H2 5338   0.540   0.728  11.760 -0.2463 -1.0735 -0.3189
  356TMC3    C7 5339   0.372   0.815  11.934 -0.6642 -0.1082  0.6033
  356TMC3    C8 5340   0.436   0.666  11.529  0.4929  0.4951  0.3529
  356TMC3    O1 5341   0.439   0.891  11.865 -0.2414 -0.2397 -0.0449
  356TMC3    O2 5342   0.430   0.582  11.437  0.1383 -0.5409  0.2374
  357MPD2     C 5343   3.492   3.390   0.365 -0.2280 -0.0993 -0.5233
  357MPD2    C1 5344   3.563   3.331   0.466 -0.1335  0.1347  0.1816
  357MPD2    C2 5345   3.501   3.228   0.533 -0.3584 -0.2912 -0.9945
  357MPD2    C3 5346   3.384   3.182   0.498  0.4748 -0.0873  0.2769
  357MPD2    C4 5347   3.317   3.232   0.394  0.0254 -0.6717  0.4872
  357MPD2    C5 5348   3.369   3.339   0.328  0.7750  0.4833  0.1512
  357MPD2     H 5349   3.544   3.197   0.628 -0.5236  0.9575 -0.5150
  357MPD2    H1 5350   3.220   3.193   0.366  0.4416 -1.3255 -0.0565
  357MPD2    H2 5351   3.525   3.476   0.309 -0.1120  1.1606  1.4975
  357MPD2    H3 5352   3.324   3.381   0.239 -0.3238 -0.7212  0.1302
  357MPD2     N 5353   3.321   3.069   0.557 -0.0475  0.4986 -0.0761
  357MPD2    H5 5354   3.232   3.049   0.513 -0.4492 -1.5355  1.6666
  357MPD2    N1 5355   3.691   3.394   0.499 -0.6258 -0.3703  0.0319
  357MPD2    H7 5356   3.713   3.481   0.451  1.9732 -0.4731  1.0577
  358TMC3    C1 5357   3.872   3.450   0.633  0.0894  0.0969 -0.5386
  358TMC3    C2 5358   3.876   3.573   0.567 -0.3624  0.3726  0.0197
  358TMC3    C3 5359   3.953   3.668   0.625  0.5822 -0.1582  0.1768
  358TMC3    C4 5360   3.957   3.419   0.733 -0.4187 -0.0775 -0.1185
  358TMC3    C5 5361   4.022   3.525   0.789  0.7089 -0.2876 -0.0074
  358TMC3    C6 5362   4.014   3.653   0.744 -0.3153 -0.6566  0.0349
  358TMC3     C 5363   3.765   3.354   0.607  1.1318  0.7481  0.0605
  358TMC3     O 5364   3.766   3.251   0.672  0.4597  0.0543 -0.0832
  358TMC3     H 5365   3.807   3.607   0.491  0.4682 -0.6451 -1.1812
  358TMC3    H1 5366   3.958   3.319   0.776 -1.1320 -0.2867 -0.5704
  358TMC3    H2 5367   4.082   3.728   0.783 -0.9064  0.7719 -1.6850
  358TMC3    C7 5368   4.073   3.518   0.930  0.4908 -0.2347  0.1904
  358TMC3    C8 5369   4.006   3.774   0.536  0.2150  0.4169 -0.2938
  358TMC3    O1 5370   4.135   3.611   0.977  0.6139  0.5528 -0.2904
  358TMC3    O2 5371   4.057   3.870   0.595  0.5927  0.5710 -0.0532
  359MPD2     C 5372   4.431   4.057  12.233 -0.5453  0.8542 -0.0184
  359MPD2    C1 5373   4.487   3.942  12.292  0.4036  1.0933  0.2645
  359MPD2    C2 5374   4.401   3.834  12.317 -0.4936 -0.4711 -0.2677
  359MPD2    C3 5375   4.267   3.847  12.286 -0.4110  0.4339  0.5124
  359MPD2    C4 5376   4.217   3.967  12.241  0.6409 -0.4978  0.5422
  359MPD2    C5 5377   4.300   4.073  12.218  0.0747  0.0657  0.5117
  359MPD2     H 5378   4.440   3.735  12.338  0.7103 -0.1622 -1.0768
  359MPD2    H1 5379   4.117   3.981  12.202 -0.1581 -0.3462  2.6906
  359MPD2    H2 5380   4.500   4.135  12.203  0.1740  0.5652  0.9067
  359MPD2    H3 5381   4.248   4.155  12.170 -0.8320 -1.0912 -0.4863
  359MPD2     N 5382   4.170   3.745  12.295  0.0699 -0.4582  0.0944
  359MPD2    H5 5383   4.076   3.764  12.263  0.3643  0.3168 -0.3117
  359MPD2    N1 5384   4.619   3.924  12.315  0.1541 -0.2401  0.5885
  359MPD2    H7 5385   4.642   3.833  12.354 -0.5520 -1.1157 -1.0223
  360TMC3    C1 5386   0.130   3.948  12.337 -0.2013  0.1503 -0.5634
  360TMC3    C2 5387   0.231   4.034  12.306  0.0431 -0.7464  0.6547
  360TMC3    C3 5388   0.341   3.981  12.242  0.6426  0.2835 -0.7014
  360TMC3    C4 5389   0.140   3.808  12.324  0.0208 -0.2109 -0.3138
  360TMC3    C5 5390   0.255   3.754  12.265 -0.4385  0.0156 -0.5579
  360TMC3    C6 5391   0.357   3.840  12.231 -0.4346 -0.1032 -0.5389
  360TMC3     C 5392   0.005   4.010  12.299  0.2735 -0.3389  0.6382
  360TMC3     O 5393   0.005   4.119  12.240  0.1605  0.0471 -0.0848
  360TMC3     H 5394   0.219   4.138  12.281  0.9207 -0.8589 -0.2134
  360TMC3    H1 5395   0.065   3.740  12.361 -1.4098  1.0490 -0.9142
  360TMC3    H2 5396   0.444   3.800  12.181 -0.0020  1.7258 -1.2124
  360TMC3    C7 5397   0.219   3.687  12.144 -0.1006  0.2571  0.6451
  360TMC3    C8 5398   0.435   4.069  12.181 -0.2004 -0.1002 -0.5547
  360TMC3    O1 5399   0.267   3.726  12.039 -0.4478 -0.1391 -0.1062
  360TMC3    O2 5400   0.434   4.188  12.216  0.4795  0.0557  0.4913
  361MPD2     C 5401   1.674   2.888  17.178  0.1010 -0.1530 -0.0454
  361MPD2    C1 5402   1.607   2.815  17.079  0.0433 -0.1843  0.4504
  361MPD2    C2 5403   1.671   2.711  17.016  0.2202 -0.0056  0.2097
  361MPD2    C3 5404   1.802   2.667  17.063  0.3265 -0.1107  0.6018
  361MPD2    C4 5405   1.867   2.737  17.160  0.3608  0.1511 -0.4023
  361MPD2    C5 5406   1.801   2.849  17.210  1.1612 -0.4816 -0.0798
  361MPD2     H 5407   1.615   2.666  16.934  1.4605 -1.2554  0.0447
  361MPD2    H1 5408   1.967   2.714  17.194 -0.3385 -0.9415  0.9089
  361MPD2    H2 5409   1.631   2.966  17.240 -2.1635 -1.7947  0.4452
  361MPD2    H3 5410   1.850   2.911  17.284  0.9344 -0.5045  0.0888
  361MPD2     N 5411   1.864   2.546  17.021 -0.5296 -0.0337 -0.3057
  361MPD2    H5 5412   1.948   2.516  17.069 -1.5869 -1.4596  0.6336
  361MPD2    N1 5413   1.471   2.839  17.043 -0.3592 -0.2295  0.6292
  361MPD2    H7 5414   1.426   2.796  16.963 -1.3102 -0.4262  1.2649
  362TMC3    C1 5415   1.251   2.941  17.056 -0.3005  0.2651  0.8914
  362TMC3    C2 5416   1.154   2.980  17.150  0.4332  0.2545 -1.1048
  362TMC3    C3 5417   1.033   3.022  17.101  0.0246 -0.6440 -0.2456
  362TMC3    C4 5418   1.228   2.942  16.921 -0.0918 -0.3408 -0.2718
  362TMC3    C5 5419   1.110   2.997  16.880 -0.2346 -0.4875 -0.6595
  362TMC3    C6 5420   1.006   3.026  16.966  0.2060 -0.0390 -0.4035
  362TMC3     C 5421   1.384   2.927  17.110 -0.8616 -0.0942 -0.2588
  362TMC3     O 5422   1.409   2.999  17.209  0.2278 -0.5130 -0.7031
  362TMC3     H 5423   1.181   2.986  17.254  2.7853  2.0864 -1.8063
  362TMC3    H1 5424   1.309   2.922  16.852  1.1958 -2.4040  1.8391
  362TMC3    H2 5425   0.915   3.075  16.933  1.0751  1.2155 -0.9241
  362TMC3    C7 5426   1.086   3.024  16.740 -0.4339 -1.0302 -0.3211
  362TMC3    C8 5427   0.955   3.106  17.186  0.3201  0.1529 -0.6614
  362TMC3    O1 5428   0.982   3.081  16.719 -0.2937 -0.8685  0.6256
  362TMC3    O2 5429   1.025   3.157  17.276  0.4931 -0.2976 -0.3617
  363TMC3    C1 5430   0.650   0.710   9.915 -0.3732  0.2828 -0.0284
  363TMC3    C2 5431   0.588   0.621   9.996  0.1206 -0.3035 -0.0021
  363TMC3    C3 5432   0.456   0.644  10.021  0.9804  0.8846  0.1769
  363TMC3    C4 5433   0.587   0.826   9.874  0.4290 -0.2618  0.2079
  363TMC3    C5 5434   0.446   0.840   9.894  0.5675  0.6579  0.3776
  363TMC3    C6 5435   0.383   0.750   9.977 -0.5130  0.0451 -0.8572
  363TMC3     C 5436   0.794   0.704   9.878 -0.4057  0.3083  0.6051
  363TMC3     O 5437   0.844   0.790   9.818 -0.0191  0.3972 -0.3977
  363TMC3     H 5438   0.634   0.532  10.036  0.9160  0.0464 -0.1466
  363TMC3    H1 5439   0.635   0.881   9.794 -2.2729 -0.4892 -1.5712
  363TMC3    H2 5440   0.277   0.747  10.003 -0.1915 -0.4100  0.4334
  363TMC3    C7 5441   0.377   0.959   9.834 -0.1109 -0.3718 -0.2976
  363TMC3    C8 5442   0.380   0.530  10.079 -0.4593  0.1991  0.1486
  363TMC3    O1 5443   0.446   1.054   9.808  0.1674 -0.2960  0.4522
  363TMC3    O2 5444   0.291   0.557  10.165 -0.0358 -0.2468 -0.0627
  364MPD2     C 5445   3.174   4.192  10.545 -0.9351  0.0765  0.1597
  364MPD2    C1 5446   3.304   4.196  10.499  0.0708  0.1085 -0.7880
  364MPD2    C2 5447   3.396   4.120  10.566  0.5812  0.6202  0.2313
  364MPD2    C3 5448   3.360   4.047  10.681  0.1620  0.0038  0.4696
  364MPD2    C4 5449   3.225   4.044  10.717  0.2996 -0.8008  0.0249
  364MPD2    C5 5450   3.138   4.118  10.654 -0.5985  0.6988 -0.0385
  364MPD2     H 5451   3.499   4.127  10.532  0.5746 -0.7526 -0.0602
  364MPD2    H1 5452   3.196   3.993  10.809  0.7283 -0.5490  0.3022
  364MPD2    H2 5453   3.104   4.265  10.505 -0.0652 -0.4795 -2.4190
  364MPD2    H3 5454   3.031   4.121  10.672 -0.3170  0.6427  1.7189
  364MPD2     N 5455   3.447   3.976  10.765 -0.4502  0.4297 -0.0020
  364MPD2    H5 5456   3.412   3.942  10.854 -0.4199  0.2338 -0.0639
  364MPD2    N1 5457   3.329   4.274  10.382  0.6267  0.3698 -0.5835
  364MPD2    H7 5458   3.248   4.313  10.335  0.1924  0.1033 -0.0636
  365TMC3    C1 5459   3.449   4.393  10.215 -0.3376 -0.2580  0.0892
  365TMC3    C2 5460   3.550   4.392  10.120 -0.3175 -0.9518 -0.0434
  365TMC3    C3 5461   3.556   4.501  10.032 -0.2867  0.0507 -0.3513
  365TMC3    C4 5462   3.378   4.514  10.236  0.6226 -0.0616 -0.0670
  365TMC3    C5 5463   3.392   4.619  10.147  0.1070  0.3970  0.1273
  365TMC3    C6 5464   3.474   4.615  10.040 -0.0560 -0.4025 -0.8540
  365TMC3     C 5465   3.448   4.285  10.315  0.5434 -0.1452  0.0246
  365TMC3     O 5466   3.549   4.217  10.316 -0.0219 -0.0036 -0.1204
  365TMC3     H 5467   3.615   4.306  10.117  3.0334  1.5480  1.9721
  365TMC3    H1 5468   3.318   4.528  10.325  0.2985  1.8212 -0.5830
  365TMC3    H2 5469   3.490   4.696   9.970 -0.9853 -0.3522 -1.0179
  365TMC3    C7 5470   3.319   0.028  10.152 -0.1701  0.3553  0.4631
  365TMC3    C8 5471   3.692   4.535   9.978 -0.1540  0.0150  0.0523
  365TMC3    O1 5472   3.323   0.097  10.056 -0.5670  0.6535  0.4071
  365TMC3    O2 5473   3.713   4.646   9.939  1.0573 -0.0940  0.5407
  366MPD2     C 5474   1.524   1.073  14.853  0.0631  0.0424 -0.2582
  366MPD2    C1 5475   1.655   1.109  14.835 -0.2338  0.0078 -0.6676
  366MPD2    C2 5476   1.764   1.026  14.861 -0.3087 -0.9447  0.2462
  366MPD2    C3 5477   1.732   0.904  14.916 -0.0914 -0.1489 -0.0395
  366MPD2    C4 5478   1.606   0.861  14.931  0.0071  0.0918  0.0506
  366MPD2    C5 5479   1.500   0.949  14.908 -0.0128  0.3474 -0.2784
  366MPD2     H 5480   1.866   1.062  14.849 -0.3526 -1.4227 -1.6251
  366MPD2    H1 5481   1.578   0.766  14.976  2.0153 -0.7077 -0.4149
  366MPD2    H2 5482   1.436   1.134  14.837 -0.3363  0.1003  2.1852
  366MPD2    H3 5483   1.399   0.917  14.928 -0.3068  0.5725 -1.4218
  366MPD2     N 5484   1.842   0.830  14.954 -0.6515  0.3280  0.2066
  366MPD2    H5 5485   1.932   0.869  14.925 -0.6296 -0.8391 -1.2606
  366MPD2    N1 5486   1.687   1.235  14.793 -0.7585  0.2684 -0.2004
  366MPD2    H7 5487   1.784   1.259  14.776 -0.7871  1.1377  0.9323
  367TMC3    C1 5488   1.667   1.469  14.772 -0.2338 -0.0574  0.0334
  367TMC3    C2 5489   1.785   1.476  14.842 -0.1432 -0.8383  0.5233
  367TMC3    C3 5490   1.808   1.596  14.903 -0.2187  0.1256  0.2285
  367TMC3    C4 5491   1.589   1.571  14.760  0.1388 -0.3670 -0.3973
  367TMC3    C5 5492   1.605   1.685  14.833  0.2489 -0.3879 -0.0613
  367TMC3    C6 5493   1.723   1.700  14.904  0.0286  0.3866 -0.8624
  367TMC3     C 5494   1.602   1.338  14.773  0.1926  0.1442 -0.3707
  367TMC3     O 5495   1.477   1.342  14.769 -0.1632 -0.3040  0.5024
  367TMC3     H 5496   1.863   1.403  14.852  1.5890  1.0516  0.8406
  367TMC3    H1 5497   1.495   1.558  14.706 -1.0053  2.0342  0.9950
  367TMC3    H2 5498   1.726   1.778  14.979 -2.4126 -0.1495 -0.2149
  367TMC3    C7 5499   1.489   1.730  14.904  0.3817 -0.1037  0.2427
  367TMC3    C8 5500   1.934   1.589  14.990 -0.5985 -0.2578  0.4121
  367TMC3    O1 5501   1.488   1.725  15.024  0.3564 -0.5445 -0.7233
  367TMC3    O2 5502   1.996   1.482  15.006 -0.1788 -0.0062  0.1041
  368MPD2     C 5503   2.494   3.365  13.156  0.4369  0.5877 -0.5392
  368MPD2    C1 5504   2.522   3.470  13.071  0.5818 -0.4680  0.4804
  368MPD2    C2 5505   2.653   3.486  13.017  0.8247  0.4675  0.1314
  368MPD2    C3 5506   2.751   3.395  13.053  0.9436 -0.0536  0.4955
  368MPD2    C4 5507   2.716   3.289  13.146  0.2524 -0.6136 -0.7463
  368MPD2    C5 5508   2.592   3.274  13.195  0.3453 -0.1678 -0.1237
  368MPD2     H 5509   2.662   3.574  12.954 -1.3716  0.3432 -0.3910
  368MPD2    H1 5510   2.780   3.209  13.180  0.7812  0.2144  0.2124
  368MPD2    H2 5511   2.394   3.366  13.197  0.0948 -0.0194 -1.3671
  368MPD2    H3 5512   2.573   3.194  13.265  1.2717 -0.4240 -0.1665
  368MPD2     N 5513   2.881   3.400  13.001  0.8996 -0.3033  0.4922
  368MPD2    H5 5514   2.884   3.472  12.929  3.7357 -2.1869 -1.2845
  368MPD2    N1 5515   2.420   3.564  13.053  0.1755 -0.4243 -0.5503
  368MPD2    H7 5516   2.331   3.543  13.098 -0.3700  1.6733 -0.6935
  369TMC3    C1 5517   2.301   3.722  12.928 -0.1078 -0.0441  0.0885
  369TMC3    C2 5518   2.311   3.774  12.801  0.2503 -0.0474  0.1722
  369TMC3    C3 5519   2.239   3.707  12.704 -0.1614 -0.7625  0.3181
  369TMC3    C4 5520   2.201   3.635  12.959 -0.3175 -0.1411  0.2790
  369TMC3    C5 5521   2.133   3.576  12.859 -0.3696  0.3640 -0.7486
  369TMC3    C6 5522   2.151   3.603  12.727 -0.0229  0.0135  0.1126
  369TMC3     C 5523   2.430   3.675  12.975  0.0322 -1.0001 -0.0328
  369TMC3     O 5524   2.517   3.737  12.918 -0.1251 -0.4660  0.2777
  369TMC3     H 5525   2.385   3.849  12.775  0.9242 -0.2957  1.3581
  369TMC3    H1 5526   2.165   3.614  13.059  0.8036 -2.6612  0.1457
  369TMC3    H2 5527   2.093   3.558  12.647 -0.1266 -0.9282  0.7087
  369TMC3    C7 5528   2.050   3.467  12.904 -0.0260  1.0719  0.4487
  369TMC3    C8 5529   2.320   3.694  12.585  0.3457  0.1739 -0.6980
  369TMC3    O1 5530   2.089   3.406  13.001 -0.3257  0.5260  0.7851
  369TMC3    O2 5531   2.262   3.654  12.485 -0.5168 -0.2450  0.1709
  370TMC3    C1 5532   2.706   3.490  16.446  0.1250 -0.3818  0.1296
  370TMC3    C2 5533   2.653   3.438  16.558  0.0935  0.2910 -0.1422
  370TMC3    C3 5534   2.561   3.334  16.536 -0.2209  0.5150 -0.7915
  370TMC3    C4 5535   2.684   3.433  16.325  0.4462  0.0366 -0.0465
  370TMC3    C5 5536   2.595   3.329  16.308  0.4447 -0.2241  0.1527
  370TMC3    C6 5537   2.530   3.285  16.419  0.2290 -0.1369 -0.2866
  370TMC3     C 5538   2.769   3.617  16.454 -0.0443 -0.6250 -0.0684
  370TMC3     O 5539   2.803   3.659  16.565 -0.2976 -0.6232  0.8751
  370TMC3     H 5540   2.670   3.489  16.652  1.3207 -0.2722 -0.0531
  370TMC3    H1 5541   2.744   3.458  16.239  0.7653  2.5020  0.8942
  370TMC3    H2 5542   2.468   3.196  16.412  0.8100 -0.4177 -1.8254
  370TMC3    C7 5543   2.621   3.240  16.201  1.0591 -0.2084  0.3969
  370TMC3    C8 5544   2.543   3.239  16.647  0.4044 -0.5114 -0.7370
  370TMC3    O1 5545   2.730   3.238  16.143  0.6675 -0.1401  0.0670
  370TMC3    O2 5546   2.505   3.126  16.629  0.7842 -0.2168 -0.3486
  371TMC3    C1 5547   3.758   1.655  15.543  0.8751  0.7343 -0.1819
  371TMC3    C2 5548   3.652   1.681  15.624  0.1518  0.1406 -0.4516
  371TMC3    C3 5549   3.606   1.806  15.645 -1.3092  0.0903  0.4739
  371TMC3    C4 5550   3.824   1.762  15.489 -0.3991  0.2286  0.0960
  371TMC3    C5 5551   3.772   1.889  15.510 -0.3761  0.1023  0.2145
  371TMC3    C6 5552   3.665   1.914  15.588  0.3769 -0.4428 -0.1784
  371TMC3     C 5553   3.822   1.526  15.548  0.1000  0.6259 -0.5358
  371TMC3     O 5554   3.933   1.522  15.497  0.5057 -0.2871 -0.4235
  371TMC3     H 5555   3.599   1.599  15.672 -1.2592  0.5615 -1.2876
  371TMC3    H1 5556   3.904   1.746  15.418  0.3897  0.2394  0.9840
  371TMC3    H2 5557   3.604   2.002  15.574  1.8205  0.7376  1.0165
  371TMC3    C7 5558   3.809   2.000  15.429 -0.0985  0.3869  0.7798
  371TMC3    C8 5559   3.465   1.807  15.668 -0.6170 -0.4417  0.0286
  371TMC3    O1 5560   3.727   2.087  15.411  0.0502 -0.3536  0.0580
  371TMC3    O2 5561   3.394   1.707  15.652 -0.1973 -0.6129 -0.0453
  372MPD2     C 5562   3.760   3.005  13.400 -0.2674  0.0646  0.1072
  372MPD2    C1 5563   3.803   2.934  13.507  0.1006 -0.3975 -0.7138
  372MPD2    C2 5564   3.732   2.822  13.542  0.1145 -0.1386  0.0032
  372MPD2    C3 5565   3.621   2.778  13.469  0.1646  0.4300  0.0859
  372MPD2    C4 5566   3.579   2.848  13.352  0.0782  0.3840 -0.2159
  372MPD2    C5 5567   3.649   2.963  13.327  1.1963 -0.0054  0.0937
  372MPD2     H 5568   3.771   2.767  13.627 -0.1274  0.7115  0.6625
  372MPD2    H1 5569   3.495   2.817  13.292 -0.7097  1.5093  0.3086
  372MPD2    H2 5570   3.811   3.097  13.376 -1.2348  0.4673 -0.4185
  372MPD2    H3 5571   3.619   3.035  13.252  0.3332  0.3244  0.7606
  372MPD2     N 5572   3.558   2.656  13.509 -0.5379 -0.5448 -0.0205
  372MPD2    H5 5573   3.586   2.612  13.596  0.0306  1.4066  0.7587
  372MPD2    N1 5574   3.921   2.969  13.584  0.0558 -0.9340  0.5006
  372MPD2    H7 5575   3.933   2.917  13.670  2.8037 -1.8752 -0.4543
  373TMC3    C1 5576   3.471   2.453  13.499  0.4567  0.5947  0.3455
  373TMC3    C2 5577   3.457   2.430  13.633 -0.4702  0.0486  0.6323
  373TMC3    C3 5578   3.473   2.306  13.689 -0.5250 -0.6901 -0.3846
  373TMC3    C4 5579   3.496   2.353  13.415  0.2004 -0.5554 -0.6423
  373TMC3    C5 5580   3.512   2.229  13.467 -0.1441 -0.3550 -0.0601
  373TMC3    C6 5581   3.508   2.207  13.607  0.3598 -0.0554  0.4222
  373TMC3     C 5582   3.475   2.582  13.437  0.0044 -0.7002  0.8497
  373TMC3     O 5583   3.442   2.593  13.321  0.3812  0.2426 -0.2760
  373TMC3     H 5584   3.415   2.508  13.696  1.9325  1.4327  0.5346
  373TMC3    H1 5585   3.519   2.369  13.310  0.1631  1.8668 -0.2683
  373TMC3    H2 5586   3.508   2.105  13.643  0.1688 -0.6598 -1.2832
  373TMC3    C7 5587   3.582   2.123  13.388  0.0631 -0.0261  0.3015
  373TMC3    C8 5588   3.498   2.286  13.833  0.7146 -0.0710 -0.2873
  373TMC3    O1 5589   3.566   2.123  13.266  0.2166  0.0912  0.9773
  373TMC3    O2 5590   3.561   2.185  13.854  1.3421  0.1562 -0.3632
  374TMC3    C1 5591   4.181   2.848   9.528  0.2577 -0.0916 -1.0374
  374TMC3    C2 5592   4.166   2.987   9.535  0.0415 -0.4127  0.2256
  374TMC3    C3 5593   4.217   3.057   9.430  0.0836  0.3286  0.1736
  374TMC3    C4 5594   4.237   2.791   9.413  0.3673  0.3808  0.1318
  374TMC3    C5 5595   4.281   2.869   9.307 -0.1246 -0.9696  0.1785
  374TMC3    C6 5596   4.282   3.002   9.318 -0.0945  0.2290 -0.2035
  374TMC3     C 5597   4.119   2.757   9.617 -0.5329 -0.0330 -0.2337
  374TMC3     O 5598   4.107   2.644   9.573  0.2195 -0.1029  0.1237
  374TMC3     H 5599   4.104   3.027   9.614  0.3322 -1.0145  0.7638
  374TMC3    H1 5600   4.247   2.683   9.409 -1.5201  0.2399 -0.4522
  374TMC3    H2 5601   4.312   3.071   9.240  0.8822  0.5597  0.4580
  374TMC3    C7 5602   4.327   2.811   9.182 -0.1177 -0.0869  0.3617
  374TMC3    C8 5603   4.261   3.188   9.475 -0.4824 -0.0240  0.0759
  374TMC3    O1 5604   4.384   2.889   9.107  0.4311  0.6274 -0.4679
  374TMC3    O2 5605   4.285   3.270   9.391 -0.4754  0.5728  0.4511
  375MPD2     C 5606   3.866   4.328  16.848 -0.5491  0.0766  0.8727
  375MPD2    C1 5607   3.779   4.234  16.821  0.2455  0.5894 -0.3752
  375MPD2    C2 5608   3.815   4.152  16.716 -0.2337 -0.2784 -0.1717
  375MPD2    C3 5609   3.952   4.146  16.670 -0.2766 -0.6775  0.0990
  375MPD2    C4 5610   4.031   4.250  16.702 -1.3995  0.1378  0.4021
  375MPD2    C5 5611   3.983   4.352  16.782  0.2690 -0.0797  1.0199
  375MPD2     H 5612   3.740   4.076  16.697 -3.7348  2.8898  0.9370
  375MPD2    H1 5613   4.129   4.249  16.656 -1.4130  1.0244  0.3502
  375MPD2    H2 5614   3.846   4.398  16.929 -0.0785  1.5579 -0.2918
  375MPD2    H3 5615   4.040   4.439  16.812 -0.5684  0.7347  0.2391
  375MPD2     N 5616   4.004   4.055  16.574  0.3148  0.5183 -0.0278
  375MPD2    H5 5617   4.103   4.069  16.555  0.3751  0.6663  0.3948
  375MPD2    N1 5618   3.653   4.217  16.895  0.5198 -0.1160  0.3575
  375MPD2    H7 5619   3.596   4.135  16.876  0.4049 -0.3337  1.6427
  376TMC3    C1 5620   4.013   3.912  16.383 -0.1203 -0.1877  0.5147
  376TMC3    C2 5621   4.151   3.923  16.392  0.5582  0.1756 -0.0979
  376TMC3    C3 5622   4.219   3.935  16.275  0.1676  0.1513  0.0738
  376TMC3    C4 5623   3.952   3.899  16.263 -0.3248 -0.3673 -0.4429
  376TMC3    C5 5624   4.026   3.902  16.148  0.5586 -0.1510 -0.2158
  376TMC3    C6 5625   4.163   3.918  16.150 -0.0556  0.8529 -0.5735
  376TMC3     C 5626   3.933   3.970  16.496 -0.1553 -0.1097  0.4580
  376TMC3     O 5627   3.812   3.963  16.477  0.0372  0.3642 -1.1530
  376TMC3     H 5628   4.199   3.923  16.489 -0.5614  0.4320  0.4553
  376TMC3    H1 5629   3.845   3.883  16.256 -0.3425 -0.5574  0.1976
  376TMC3    H2 5630   4.227   3.916  16.062  0.0158  0.2187 -0.5037
  376TMC3    C7 5631   3.972   3.842  16.023  0.4801  0.8122  0.5995
  376TMC3    C8 5632   4.355   3.894  16.274  1.3281 -0.1875 -0.1964
  376TMC3    O1 5633   4.033   3.884  15.924 -0.4084 -0.5020 -0.2738
  376TMC3    O2 5634   4.429   3.944  16.191 -0.2818  0.4702  0.3357
  377MPD2     C 5635   1.658   3.406  12.148 -0.0097  0.6195 -0.2591
  377MPD2    C1 5636   1.726   3.344  12.252 -0.5780 -0.4577 -0.0098
  377MPD2    C2 5637   1.647   3.279  12.345 -0.3663  0.0754  0.5716
  377MPD2    C3 5638   1.507   3.270  12.337  0.3036  0.0505  0.3596
  377MPD2    C4 5639   1.443   3.344  12.243 -0.2263  1.0376  0.2435
  377MPD2    C5 5640   1.521   3.410  12.144  1.0519 -0.1681 -0.3627
  377MPD2     H 5641   1.694   3.229  12.429  0.4770 -2.4810 -1.4260
  377MPD2    H1 5642   1.335   3.358  12.240 -0.3032  0.3916  0.0160
  377MPD2    H2 5643   1.711   3.466  12.074 -0.7514  1.1375 -0.3736
  377MPD2    H3 5644   1.465   3.464  12.068  1.9038  0.2424 -0.7027
  377MPD2     N 5645   1.428   3.197  12.431  0.6918  1.0295  0.7508
  377MPD2    H5 5646   1.329   3.216  12.443  0.9594  2.0453  1.2895
  377MPD2    N1 5647   1.861   3.368  12.270  0.3835  0.3148  0.5536
  377MPD2    H7 5648   1.903   3.433  12.205  3.1754 -2.6166 -0.5407
  378TMC3    C1 5649   2.254   3.387  12.180 -0.2579 -0.0488  0.4953
  378TMC3    C2 5650   2.123   3.361  12.207 -0.1545  0.4641  0.1573
  378TMC3    C3 5651   2.080   3.347  12.338 -0.3842 -0.2536  0.0399
  378TMC3    C4 5652   2.352   3.393  12.276  0.3214  1.2320 -0.2675
  378TMC3    C5 5653   2.305   3.377  12.409  0.7740 -0.1158  0.0157
  378TMC3    C6 5654   2.170   3.357  12.441  0.8156 -0.0427 -0.2731
  378TMC3     C 5655   2.287   3.396  12.037  0.6841 -0.0877  0.2462
  378TMC3     O 5656   2.204   3.428  11.959  0.1319  0.2435  0.3858
  378TMC3     H 5657   2.049   3.354  12.128 -0.2761  0.1223  0.3022
  378TMC3    H1 5658   2.453   3.422  12.249  0.4216  1.8323  0.7436
  378TMC3    H2 5659   2.142   3.341  12.544 -0.0188 -2.3270 -0.8644
  378TMC3    C7 5660   2.403   3.355  12.510  0.5772  0.2561 -0.4702
  378TMC3    C8 5661   1.944   3.324  12.376  0.0620  0.3399  0.2220
  378TMC3    O1 5662   2.354   3.311  12.612 -0.5856  0.3790  0.0148
  378TMC3    O2 5663   1.915   3.282  12.490  0.3675 -0.0010 -0.2073
  379MPD2     C 5664   2.665   1.486  16.042  0.5087  0.3648 -0.3432
  379MPD2    C1 5665   2.725   1.406  15.952 -0.0281  0.0588 -1.2387
  379MPD2    C2 5666   2.797   1.294  15.996 -0.6769 -0.5719 -0.2773
  379MPD2    C3 5667   2.809   1.268  16.133  0.5004  0.4505 -0.7135
  379MPD2    C4 5668   2.743   1.347  16.219 -0.3042 -0.5556  0.3067
  379MPD2    C5 5669   2.666   1.450  16.175 -0.3270 -0.2361  0.8324
  379MPD2     H 5670   2.842   1.218  15.932 -1.0968 -0.2988 -0.8937
  379MPD2    H1 5671   2.742   1.326  16.325  1.3469  1.4704  0.7467
  379MPD2    H2 5672   2.616   1.578  16.011 -0.5966 -0.0643  0.1318
  379MPD2    H3 5673   2.614   1.514  16.245 -1.4854  0.3783 -0.5940
  379MPD2     N 5674   2.891   1.174  16.188 -0.4997 -0.0253 -0.0003
  379MPD2    H5 5675   2.897   1.186  16.289 -0.1475  0.2220 -0.0515
  379MPD2    N1 5676   2.692   1.438  15.818  0.9035 -0.2428  0.3658
  379MPD2    H7 5677   2.629   1.517  15.806  1.8525  0.4056 -0.3345
  380TMC3    C1 5678   2.671   1.402  15.575  0.3517 -0.5905  0.4474
  380TMC3    C2 5679   2.733   1.378  15.456  0.0241  0.5229  0.4555
  380TMC3    C3 5680   2.681   1.413  15.337  0.5309 -0.5284 -0.1103
  380TMC3    C4 5681   2.549   1.456  15.582  0.1760 -0.1210 -0.8030
  380TMC3    C5 5682   2.503   1.508  15.465  0.3628 -0.2351  0.5879
  380TMC3    C6 5683   2.565   1.481  15.344  0.1139 -0.3886 -0.8466
  380TMC3     C 5684   2.737   1.370  15.703  0.0499  0.1103 -0.7356
  380TMC3     O 5685   2.834   1.293  15.700  0.1428 -0.1623 -0.0611
  380TMC3     H 5686   2.820   1.314  15.449  1.0081  1.7652  1.2046
  380TMC3    H1 5687   2.496   1.479  15.674  0.1410 -0.8859 -0.6365
  380TMC3    H2 5688   2.527   1.522  15.251  2.2919  1.2611 -1.0240
  380TMC3    C7 5689   2.390   1.597  15.470  0.4901 -0.6108 -0.4653
  380TMC3    C8 5690   2.767   1.440  15.220 -0.2143  0.2006 -0.7090
  380TMC3    O1 5691   2.371   1.668  15.564 -0.1321  0.0555  0.3454
  380TMC3    O2 5692   2.885   1.431  15.235  0.1223 -0.2249  0.7088
  381TMC3    C1 5693   2.487   2.437  16.294  0.6174  0.4865 -0.6990
  381TMC3    C2 5694   2.565   2.548  16.266  0.1713  0.7263  0.4479
  381TMC3    C3 5695   2.611   2.630  16.362  0.7618  0.3934  0.5070
  381TMC3    C4 5696   2.472   2.401  16.428 -0.4355 -0.6083  0.1940
  381TMC3    C5 5697   2.521   2.484  16.522  0.3470  0.3510  0.0029
  381TMC3    C6 5698   2.591   2.600  16.497 -1.1136 -0.0101  0.2077
  381TMC3     C 5699   2.480   2.333  16.194 -0.2889  0.1541 -0.1335
  381TMC3     O 5700   2.477   2.373  16.076 -0.0770  0.4526  0.0865
  381TMC3     H 5701   2.590   2.567  16.162  0.0778  0.9548  0.4674
  381TMC3    H1 5702   2.388   2.340  16.461 -1.7962  1.1813  0.0672
  381TMC3    H2 5703   2.649   2.642  16.578  0.4255  0.6962 -1.2675
  381TMC3    C7 5704   2.476   2.459  16.661  0.1672 -0.0826 -0.2175
  381TMC3    C8 5705   2.690   2.735  16.316 -0.4519 -0.1949  0.8534
  381TMC3    O1 5706   2.459   2.339  16.687 -0.0750 -0.0455  0.2767
  381TMC3    O2 5707   2.732   2.733  16.199 -0.4432 -0.1036 -0.5279
  382MPD2     C 5708   1.249   0.430  17.516  0.1841  0.7601 -0.6870
  382MPD2    C1 5709   1.350   0.403  17.424 -0.3350 -0.0141 -0.4252
  382MPD2    C2 5710   1.371   0.272  17.387 -0.1004  0.7235 -0.1825
  382MPD2    C3 5711   1.305   0.165  17.452 -0.0722  0.0530 -0.7616
  382MPD2    C4 5712   1.207   0.195  17.537 -0.2625  0.3242  0.5905
  382MPD2    C5 5713   1.180   0.323  17.569 -0.0264 -0.3053  0.4652
  382MPD2     H 5714   1.441   0.249  17.307 -0.6372  2.3203 -1.1171
  382MPD2    H1 5715   1.152   0.112  17.580  1.3306 -1.6381 -1.1713
  382MPD2    H2 5716   1.221   0.529  17.550 -0.2900  1.2056 -2.3468
  382MPD2    H3 5717   1.086   0.339  17.621 -0.3379  2.0646 -0.8675
  382MPD2     N 5718   1.324   0.033  17.420  0.0677 -0.0065  0.2026
  382MPD2    H5 5719   1.265   4.681  17.461 -0.4590  1.4429  1.9897
  382MPD2    N1 5720   1.445   0.495  17.372  0.1652 -0.2165 -0.0781
  382MPD2    H7 5721   1.497   0.460  17.292  1.2475  0.9032  0.1560
  383TMC3    C1 5722   1.394   4.565  17.314  0.8187  0.1188 -0.8169
  383TMC3    C2 5723   1.263   4.522  17.280 -0.8458 -0.4199  0.4866
  383TMC3    C3 5724   1.254   4.399  17.220  0.2402  0.4650  0.4209
  383TMC3    C4 5725   1.502   4.487  17.308  0.4425  0.4882  0.4491
  383TMC3    C5 5726   1.485   4.365  17.251  0.9190 -0.0098  0.4261
  383TMC3    C6 5727   1.362   4.319  17.205 -0.0745 -0.1797 -0.4805
  383TMC3     C 5728   1.421   4.702  17.345 -0.6367  0.1031  0.8039
  383TMC3     O 5729   1.527   0.034  17.317 -0.3164 -0.1496  0.2901
  383TMC3     H 5730   1.187   4.599  17.272 -2.7083 -2.1369  1.9467
  383TMC3    H1 5731   1.593   4.523  17.354  1.3777  0.3469 -1.2957
  383TMC3    H2 5732   1.358   4.229  17.145  2.3235 -0.9752  0.5387
  383TMC3    C7 5733   1.597   4.279  17.222  0.0375 -0.8427  0.3081
  383TMC3    C8 5734   1.120   4.341  17.219 -0.0806  0.1485  0.0127
  383TMC3    O1 5735   1.571   4.163  17.187 -0.8704  0.3227 -0.2208
  383TMC3    O2 5736   1.014   4.404  17.223 -0.0277  0.0737 -0.0761
  384MPD2     C 5737   3.064   1.560  11.580  0.2644  0.4064 -0.9103
  384MPD2    C1 5738   3.137   1.570  11.696  0.2856  0.3097  0.3562
  384MPD2    C2 5739   3.252   1.494  11.700  0.1410 -0.9875 -0.2339
  384MPD2    C3 5740   3.301   1.418  11.592  0.3130 -0.2299  0.1072
  384MPD2    C4 5741   3.234   1.432  11.472  0.2131  0.0736  0.1314
  384MPD2    C5 5742   3.113   1.491  11.469 -0.4042 -0.0692  0.5724
  384MPD2     H 5743   3.309   1.496  11.792 -1.3612 -0.3189  0.6704
  384MPD2    H1 5744   3.268   1.377  11.384 -1.0226  1.5287 -1.2562
  384MPD2    H2 5745   2.968   1.608  11.569 -0.6562 -1.3561 -0.4237
  384MPD2    H3 5746   3.066   1.484  11.371 -1.1275  1.4361  0.8209
  384MPD2     N 5747   3.424   1.347  11.615  0.6761 -0.0772  0.0636
  384MPD2    H5 5748   3.454   1.342  11.712 -0.0141 -3.3668  0.1270
  384MPD2    N1 5749   3.083   1.642  11.809  0.0606 -0.2523  0.5588
  384MPD2    H7 5750   2.984   1.659  11.794  0.4106  1.2192 -0.0795
  385TMC3    C1 5751   3.574   1.177  11.580 -0.7921 -0.7255  0.0508
  385TMC3    C2 5752   3.549   1.047  11.556 -0.5430 -0.2374  0.0861
  385TMC3    C3 5753   3.566   0.952  11.652  0.3652  0.2344 -0.2981
  385TMC3    C4 5754   3.597   1.212  11.710 -0.9901  0.3388 -0.7962
  385TMC3    C5 5755   3.599   1.114  11.813  1.7295  0.0996  0.5092
  385TMC3    C6 5756   3.590   0.984  11.782  0.0177  0.3792  0.1054
  385TMC3     C 5757   3.488   1.274  11.514  0.4848  0.3570 -0.3503
  385TMC3     O 5758   3.486   1.282  11.389  0.1557 -0.1993  0.8283
  385TMC3     H 5759   3.511   1.023  11.457  0.2623 -0.6224 -0.1308
  385TMC3    H1 5760   3.628   1.311  11.741 -0.2430 -0.6817  1.7058
  385TMC3    H2 5761   3.602   0.910  11.861 -1.3826  1.1378  1.0237
  385TMC3    C7 5762   3.516   1.154  11.920  0.3371  0.6592 -0.1461
  385TMC3    C8 5763   3.514   0.817  11.630  0.0251 -0.0294 -0.0183
  385TMC3    O1 5764   3.472   1.264  11.910 -0.2315 -0.1877 -0.4104
  385TMC3    O2 5765   3.481   0.768  11.737  0.2315  0.3619  0.3708
  386TMC3    C1 5766   3.633   3.285  11.309  0.8228  0.5212 -0.2988
  386TMC3    C2 5767   3.620   3.350  11.188  0.4542 -0.7791 -0.0355
  386TMC3    C3 5768   3.500   3.415  11.164 -0.0325 -0.3183  0.3587
  386TMC3    C4 5769   3.531   3.287  11.404 -0.0824  0.5123  0.2100
  386TMC3    C5 5770   3.415   3.351  11.376 -0.3097 -0.4347  1.3184
  386TMC3    C6 5771   3.400   3.422  11.256  0.1389  0.8476 -0.3495
  386TMC3     C 5772   3.741   3.193  11.324  0.0711  0.6115  0.0436
  386TMC3     O 5773   3.811   3.178  11.225  0.1172 -0.0751  0.0388
  386TMC3     H 5774   3.698   3.354  11.114 -0.4241 -0.9565 -0.9676
  386TMC3    H1 5775   3.537   3.245  11.504  1.1371  1.8136  0.6750
  386TMC3    H2 5776   3.305   3.466  11.229  1.0123  1.4958 -2.3460
  386TMC3    C7 5777   3.313   3.381  11.477 -0.4771 -0.6985 -0.5037
  386TMC3    C8 5778   3.464   3.487  11.043  0.4504 -0.2264 -0.1444
  386TMC3    O1 5779   3.201   3.408  11.431  0.0383 -0.1716 -0.6195
  386TMC3    O2 5780   3.357   3.552  11.047  0.0742  1.1019 -0.1404
  387MPD2     C 5781   0.787   3.995   9.372 -0.1615  0.2803  0.3482
  387MPD2    C1 5782   0.913   3.968   9.430  0.5870 -0.1983 -0.3639
  387MPD2    C2 5783   0.977   3.850   9.388 -0.0306  0.1242  0.3266
  387MPD2    C3 5784   0.916   3.753   9.312  0.2339 -0.7109  0.0899
  387MPD2    C4 5785   0.790   3.779   9.264  0.2179 -0.3997  0.2817
  387MPD2    C5 5786   0.730   3.896   9.299 -0.1128 -0.3443 -0.0791
  387MPD2     H 5787   1.073   3.826   9.432  1.3034  1.1198 -2.0321
  387MPD2    H1 5788   0.729   3.716   9.200  0.1640 -0.5266  0.4600
  387MPD2    H2 5789   0.737   4.090   9.388 -2.2179 -0.8271  0.5158
  387MPD2    H3 5790   0.628   3.908   9.264  0.6108 -0.0629 -2.1401
  387MPD2     N 5791   0.989   3.631   9.290  0.4849 -0.2541 -0.3910
  387MPD2    H5 5792   1.080   3.631   9.335 -0.1033  1.2701  0.8307
  387MPD2    N1 5793   0.971   4.047   9.532  0.3298  0.3210 -0.4105
  387MPD2    H7 5794   1.063   4.016   9.561 -1.0183 -0.7018  2.8135
  388TMC3    C1 5795   0.970   4.162   9.743 -0.4864 -0.6590 -0.1371
  388TMC3    C2 5796   0.911   4.261   9.824 -0.0150  0.7786 -0.3416
  388TMC3    C3 5797   0.942   4.247   9.958  0.1013 -0.3012 -0.5188
  388TMC3    C4 5798   1.041   4.059   9.788 -0.4637  0.3371 -0.7722
  388TMC3    C5 5799   1.053   4.045   9.927 -0.9832  0.0975 -0.0451
  388TMC3    C6 5800   1.011   4.141  10.010 -0.1982 -0.2711  0.1270
  388TMC3     C 5801   0.911   4.145   9.609 -0.2873  0.5349 -0.7688
  388TMC3     O 5802   0.812   4.211   9.581  0.3586  0.0324  0.2256
  388TMC3     H 5803   0.847   4.335   9.779 -1.1938  0.3456  0.6016
  388TMC3    H1 5804   1.096   3.988   9.728  1.8256  0.3823  1.2570
  388TMC3    H2 5805   1.014   4.136  10.118  0.6258  1.5362  0.1859
  388TMC3    C7 5806   1.108   3.921   9.996 -0.6460  0.4724 -0.1539
  388TMC3    C8 5807   0.877   4.336  10.052 -0.0986  0.0998 -0.1023
  388TMC3    O1 5808   1.195   3.930  10.084 -0.5046 -0.2261  0.1023
  388TMC3    O2 5809   0.820   4.289  10.151 -0.0289  0.1688  0.2406
  389MPD2     C 5810   0.662   1.663  11.416 -0.1322 -0.1512 -0.7142
  389MPD2    C1 5811   0.688   1.613  11.296 -0.2859 -0.0258 -0.3457
  389MPD2    C2 5812   0.616   1.501  11.253 -0.8203 -0.0964 -0.2505
  389MPD2    C3 5813   0.521   1.446  11.333 -0.8916  0.5080 -0.3919
  389MPD2    C4 5814   0.495   1.501  11.456 -0.5945  1.2910  0.0877
  389MPD2    C5 5815   0.562   1.614  11.493  0.0821 -0.5091 -0.2515
  389MPD2     H 5816   0.631   1.463  11.153  4.0287  2.0570 -0.3335
  389MPD2    H1 5817   0.420   1.455  11.519  1.1113  0.5955  1.5928
  389MPD2    H2 5818   0.719   1.749  11.450 -0.1399  0.5120 -2.4196
  389MPD2    H3 5819   0.540   1.662  11.588  2.0854  1.6549 -0.8664
  389MPD2     N 5820   0.446   1.328  11.300  0.0392 -0.0572 -0.5782
  389MPD2    H5 5821   0.372   1.313  11.368  2.6495  2.4540  2.8162
  389MPD2    N1 5822   0.778   1.681  11.212  0.4485  0.1703 -0.3723
  389MPD2    H7 5823   0.804   1.776  11.239  0.4026 -0.6341  2.4852
  390TMC3    C1 5824   0.356   1.142  11.194  0.5246 -0.1651  0.5378
  390TMC3    C2 5825   0.333   1.086  11.315 -0.4285  0.4600 -0.2203
  390TMC3    C3 5826   0.262   0.971  11.310  0.1235  1.1478  0.0749
  390TMC3    C4 5827   0.318   1.094  11.071 -0.1770 -0.1586 -0.7042
  390TMC3    C5 5828   0.261   0.970  11.077  0.1823 -0.4822 -0.2871
  390TMC3    C6 5829   0.229   0.910  11.194 -0.6321 -0.0612  0.0639
  390TMC3     C 5830   0.450   1.253  11.185 -0.1967  0.1212  0.7579
  390TMC3     O 5831   0.527   1.257  11.090  0.1874  0.3332 -0.1401
  390TMC3     H 5832   0.360   1.137  11.406  0.6182 -4.3818  2.1835
  390TMC3    H1 5833   0.345   1.141  10.977 -1.8541 -0.6694 -1.4369
  390TMC3    H2 5834   0.168   0.822  11.184 -2.4269  1.1524  0.3103
  390TMC3    C7 5835   0.149   0.947  10.988  0.2241  0.6478 -0.0033
  390TMC3    C8 5836   0.207   0.904  11.430 -0.7101 -0.2982  0.3128
  390TMC3    O1 5837   0.160   0.861  10.900 -0.4471  0.8022 -0.2099
  390TMC3    O2 5838   0.140   0.804  11.399 -0.2655  0.3463 -0.6587
  391MPD2     C 5839   4.609   3.067  11.017  0.4433  0.2894  0.4512
  391MPD2    C1 5840   4.712   3.156  11.002 -0.2832  0.8230 -0.0268
  391MPD2    C2 5841   0.010   3.209  10.877  0.0763 -0.3904 -0.1261
  391MPD2    C3 5842   4.643   3.180  10.774  0.4569 -0.3142  0.4804
  391MPD2    C4 5843   4.546   3.081  10.794  0.2323  0.8940  0.0701
  391MPD2    C5 5844   4.522   3.029  10.918 -0.9005  0.1157  0.5956
  391MPD2     H 5845   0.064   3.302  10.867  1.9756 -1.3274  1.4630
  391MPD2    H1 5846   4.473   3.037  10.728 -0.4731  0.9832  0.7822
  391MPD2    H2 5847   4.603   3.015  11.112 -0.4783  0.0241  0.2417
  391MPD2    H3 5848   4.451   2.949  10.936 -2.1327  0.7383 -1.5825
  391MPD2     N 5849   4.658   3.243  10.651 -0.1555  0.0134  0.8999
  391MPD2    H5 5850   0.026   3.293  10.643 -1.2797  2.1467  1.7798
  391MPD2    N1 5851   0.063   3.192  11.120  0.2767 -0.5952  0.2083
  391MPD2    H7 5852   0.025   3.152  11.205 -1.1915  1.0988  0.3604
  392TMC3    C1 5853   4.632   3.278  10.418  0.1673 -0.0932 -0.3171
  392TMC3    C2 5854   4.556   3.268  10.309  0.2632 -0.6015 -0.5361
  392TMC3    C3 5855   4.568   3.357  10.208 -0.2816  0.2673  0.0980
  392TMC3    C4 5856   0.010   3.370  10.419 -0.4930 -0.8815 -0.0547
  392TMC3    C5 5857   0.028   3.460  10.316 -0.2780  0.0458 -1.0610
  392TMC3    C6 5858   4.658   3.458  10.213 -0.8220  0.3375 -0.2250
  392TMC3     C 5859   4.583   3.210  10.540 -0.6367  0.1923 -0.6386
  392TMC3     O 5860   4.468   3.160  10.542 -0.1386 -0.4651 -0.2638
  392TMC3     H 5861   4.487   3.185  10.297 -1.3822  0.3025  2.6593
  392TMC3    H1 5862   0.077   3.373  10.505 -0.2053 -0.5579 -0.2885
  392TMC3    H2 5863   4.657   3.532  10.133  2.3751  0.8824  0.2475
  392TMC3    C7 5864   0.122   3.570  10.339 -0.4107  0.7932 -0.1186
  392TMC3    C8 5865   4.500   3.321  10.085 -0.1114 -0.0794 -0.0211
  392TMC3    O1 5866   0.184   3.584  10.444 -0.0574  0.3040 -0.2848
  392TMC3    O2 5867   4.485   3.205  10.056  0.4564  0.5551 -0.1543
  393TMC3    C1 5868   3.692   1.370  10.517  0.2467  0.4355  0.1746
  393TMC3    C2 5869   3.567   1.346  10.545 -0.2171 -1.1048  0.4863
  393TMC3    C3 5870   3.524   1.219  10.516 -0.1697 -0.0916  0.2210
  393TMC3    C4 5871   3.788   1.275  10.480 -0.8282 -0.1094  0.1495
  393TMC3    C5 5872   3.745   1.144  10.466  0.4438  0.4315 -0.0156
  393TMC3    C6 5873   3.617   1.113  10.483  0.3440  0.4415 -0.0677
  393TMC3     C 5874   3.707   1.508  10.471 -0.4219  0.4609 -0.4142
  393TMC3     O 5875   3.604   1.570  10.441  0.0449  0.4214 -1.4808
  393TMC3     H 5876   3.504   1.429  10.576 -1.7391 -2.2208  0.3489
  393TMC3    H1 5877   3.884   1.314  10.449  0.7083 -1.4938  3.1463
  393TMC3    H2 5878   3.565   1.020  10.460  2.0219 -0.8714  1.4170
  393TMC3    C7 5879   3.831   1.048  10.411 -0.3655 -0.7361 -0.2782
  393TMC3    C8 5880   3.417   1.231  10.426 -0.7620  0.0620  0.7954
  393TMC3    O1 5881   3.778   0.942  10.381  0.1377 -0.2627 -0.3201
  393TMC3    O2 5882   3.429   1.183  10.315  0.2898 -0.5835 -0.3872
  394TMC3    C1 5883   0.872   1.754  11.022 -0.1332  0.4520 -0.6041
  394TMC3    C2 5884   0.776   1.855  11.011  0.1418 -0.6127 -0.2644
  394TMC3    C3 5885   0.785   1.945  10.904  0.2551  0.6375 -0.5707
  394TMC3    C4 5886   0.962   1.737  10.924  0.0906  1.1556 -0.4550
  394TMC3    C5 5887   0.975   1.835  10.831  0.5200 -0.7643 -0.5320
  394TMC3    C6 5888   0.889   1.937  10.816  0.1785  0.3625  0.3357
  394TMC3     C 5889   0.832   1.636  11.091  0.1433  0.2729 -0.2299
  394TMC3     O 5890   0.812   1.529  11.031  0.1852  0.3135 -0.1861
  394TMC3     H 5891   0.689   1.850  11.076  0.7289  1.3327  0.6541
  394TMC3    H1 5892   1.034   1.656  10.925 -0.6892  0.4593 -0.4380
  394TMC3    H2 5893   0.892   2.006  10.733 -0.1524 -0.8866 -0.7252
  394TMC3    C7 5894   1.063   1.828  10.717 -0.4612 -0.1826  0.0927
  394TMC3    C8 5895   0.663   1.990  10.833 -0.2261 -0.0311 -0.1540
  394TMC3    O1 5896   1.110   1.928  10.670  0.2622 -0.6062 -0.1358
  394TMC3    O2 5897   0.579   2.046  10.902  0.1936  0.0861 -0.1046
  395TMC3    C1 5898   4.516   3.614  14.421  0.0166  0.2913  0.7667
  395TMC3    C2 5899   4.395   3.651  14.480 -0.4846  0.1071  0.0466
  395TMC3    C3 5900   4.371   3.771  14.540 -0.3156  0.0578  0.1058
  395TMC3    C4 5901   4.612   3.714  14.414 -0.1810  0.6071 -0.4176
  395TMC3    C5 5902   4.597   3.827  14.493 -0.1912  0.9450  0.5822
  395TMC3    C6 5903   4.477   3.865  14.546 -0.2487 -0.2154  0.0252
  395TMC3     C 5904   4.569   3.506  14.501 -0.1822 -0.7425 -0.3821
  395TMC3     O 5905   4.509   3.481  14.605 -0.7644  0.1920  0.8488
  395TMC3     H 5906   4.315   3.578  14.476 -0.5111  0.1807 -0.8155
  395TMC3    H1 5907   4.705   3.688  14.364 -0.2715  0.2918 -0.4210
  395TMC3    H2 5908   4.476   3.947  14.616  0.3364 -0.6342  0.5337
  395TMC3    C7 5909   4.708   3.857  14.586  1.3651  0.0467  0.2167
  395TMC3    C8 5910   4.295   3.765  14.661 -0.1720  0.0962 -0.4984
  395TMC3    O1 5911   4.697   3.960  14.653  0.1300  0.4092 -0.1945
  395TMC3    O2 5912   4.242   3.865  14.705 -0.2481 -0.2123  0.0594
  396MPD2     C 5913   4.493   0.271  17.095  0.9692 -0.4635 -0.5314
  396MPD2    C1 5914   4.632   0.279  17.095  0.0370 -0.4384  0.7650
  396MPD2    C2 5915   4.696   0.347  16.989  0.0568  0.7464  0.1907
  396MPD2    C3 5916   4.622   0.418  16.888 -0.3266 -0.3574  0.5148
  396MPD2    C4 5917   4.483   0.402  16.892 -0.4775 -0.5144 -1.0760
  396MPD2    C5 5918   4.429   0.325  16.995  0.2077  0.3767  0.1052
  396MPD2     H 5919   0.084   0.349  16.990  0.0598  0.0552  1.7907
  396MPD2    H1 5920   4.411   0.436  16.818 -1.8530 -3.0036 -0.8730
  396MPD2    H2 5921   4.430   0.228  17.173  1.7894  1.6375  1.2997
  396MPD2    H3 5922   4.321   0.320  17.001  0.2014 -2.3789 -2.3312
  396MPD2     N 5923   4.702   0.481  16.790 -0.3073  0.1091 -0.9630
  396MPD2    H5 5924   0.082   0.464  16.787 -0.3415 -0.2398 -0.2878
  396MPD2    N1 5925   4.702   0.186  17.177 -0.1575 -0.7170  0.2085
  396MPD2    H7 5926   4.648   0.123  17.235 -0.8548  1.0142  1.4306
  397TMC3    C1 5927   0.171   0.080  17.274  0.1195 -0.6132  0.5898
  397TMC3    C2 5928   0.268   4.719  17.220 -0.2385 -0.0604 -0.1241
  397TMC3    C3 5929   0.246   4.584  17.209 -0.2918 -0.0103 -0.6028
  397TMC3    C4 5930   0.076   0.017  17.347 -0.5247 -0.2480 -0.1834
  397TMC3    C5 5931   0.074   4.599  17.354 -0.1398 -0.4705  0.7298
  397TMC3    C6 5932   0.156   4.515  17.277 -0.5138 -0.6546  0.4387
  397TMC3     C 5933   0.123   0.177  17.179 -0.1333  0.0054  0.2643
  397TMC3     O 5934   0.211   0.221  17.110  0.0172 -0.1569  0.3122
  397TMC3     H 5935   0.346   0.044  17.160  1.3493 -0.7804  1.3602
  397TMC3    H1 5936   0.017   0.074  17.418 -0.0745 -0.8856  0.6996
  397TMC3    H2 5937   0.147   4.409  17.255 -1.9277 -0.5185  0.3949
  397TMC3    C7 5938   4.665   4.544  17.397 -0.5701 -0.3056  0.4979
  397TMC3    C8 5939   0.282   4.525  17.083  0.8011 -0.7776  0.2752
  397TMC3    O1 5940   4.571   4.613  17.353 -0.3293 -0.5141 -0.4274
  397TMC3    O2 5941   0.206   4.435  17.041  0.0076  0.3405 -0.8969
  398MPD2     C 5942   2.889   0.336   0.602 -0.2886  0.6827 -0.6687
  398MPD2    C1 5943   2.775   0.265   0.563  1.3103 -0.0541 -0.4959
  398MPD2    C2 5944   2.717   0.164   0.634  0.1737  0.4604 -0.1493
  398MPD2    C3 5945   2.786   0.124   0.748 -0.7325  0.1222 -0.0055
  398MPD2    C4 5946   2.910   0.180   0.784 -0.1363  0.2532  0.2456
  398MPD2    C5 5947   2.961   0.288   0.707 -0.6823  0.3754 -0.3034
  398MPD2     H 5948   2.627   0.114   0.600 -0.0133  1.0023 -0.4489
  398MPD2    H1 5949   2.973   0.151   0.867  0.0734  0.5921  0.2069
  398MPD2    H2 5950   2.938   0.420   0.554  1.1884  0.3112  0.1716
  398MPD2    H3 5951   3.060   0.318   0.738 -1.0404  0.6706  0.5664
  398MPD2     N 5952   2.733   0.018   0.819  0.0056  0.3270  0.2760
  398MPD2    H5 5953   2.660   4.690   0.768  0.5793 -1.6780  1.3467
  398MPD2    N1 5954   2.725   0.285   0.430  0.5049  0.0160  0.0622
  398MPD2    H7 5955   2.654   0.216   0.407  1.5684 -0.8333 -0.6363
  399TMC3    C1 5956   2.726   0.361   0.204  0.2040 -0.4267 -0.2034
  399TMC3    C2 5957   2.703   0.475   0.130 -0.1455 -0.7384  0.5242
  399TMC3    C3 5958   2.634   0.456   0.012 -0.2661 -0.1226 -0.0194
  399TMC3    C4 5959   2.697   0.234   0.160  0.4992  0.5501 -0.7275
  399TMC3    C5 5960   2.628   0.221   0.041  0.0542 -0.2455 -0.0618
  399TMC3    C6 5961   2.594   0.331  17.647 -0.4564  0.8412 -0.3870
  399TMC3     C 5962   2.774   0.379   0.343 -0.1599 -0.3758  0.1687
  399TMC3     O 5963   2.838   0.485   0.360  0.2070  0.5699 -0.5072
  399TMC3     H 5964   2.746   0.568   0.167  0.6598 -0.1029 -1.9797
  399TMC3    H1 5965   2.704   0.148   0.227 -2.0308  1.3798  0.5989
  399TMC3    H2 5966   2.526   0.322  17.563 -0.0512  1.6511 -0.8011
  399TMC3    C7 5967   2.559   0.093   0.017  0.1465 -0.2252 -0.1602
  399TMC3    C8 5968   2.556   0.565  17.638  0.2051  0.1647 -0.1052
  399TMC3    O1 5969   2.562   0.012   0.111  0.1821 -0.1824  0.1118
  399TMC3    O2 5970   2.474   0.542  17.549  0.0042 -0.9195 -0.6327
  400TMC3    C1 5971   1.377   3.836  16.841  0.4093 -0.2309 -0.4303
  400TMC3    C2 5972   1.246   3.818  16.799  0.7075 -0.3586 -0.1065
  400TMC3    C3 5973   1.184   3.932  16.752 -0.0467  0.0161 -0.4467
  400TMC3    C4 5974   1.445   3.955  16.850  0.7736 -0.3822  0.1911
  400TMC3    C5 5975   1.379   4.062  16.797 -0.2948 -0.6899 -0.5436
  400TMC3    C6 5976   1.253   4.053  16.757 -0.5550  0.2212  0.4362
  400TMC3     C 5977   1.451   3.717  16.822  0.5110  0.7972 -0.7718
  400TMC3     O 5978   1.400   3.629  16.754  0.9828 -0.3622 -0.3872
  400TMC3     H 5979   1.192   3.726  16.817 -3.3372  1.5719 -2.4076
  400TMC3    H1 5980   1.549   3.964  16.882  1.5036  1.4048 -2.6659
  400TMC3    H2 5981   1.219   4.137  16.698  1.9015  0.8892 -0.0041
  400TMC3    C7 5982   1.442   4.185  16.822 -0.8870 -0.9560 -0.0625
  400TMC3    C8 5983   1.042   3.930  16.714 -0.1243  0.3042  0.0462
  400TMC3    O1 5984   1.563   4.200  16.816  0.4635 -0.4622  0.3107
  400TMC3    O2 5985   0.973   4.025  16.736 -0.3602 -0.5405 -0.1296
  401MPD2     C 5986   3.513   2.107   0.100 -0.2142 -0.5902 -0.0197
  401MPD2    C1 5987   3.562   2.100   0.232  0.0018 -0.0395 -0.5550
  401MPD2    C2 5988   3.561   1.979   0.301  0.0398 -0.3412  0.0040
  401MPD2    C3 5989   3.516   1.866   0.233 -0.2531  0.5869  0.6583
  401MPD2    C4 5990   3.475   1.870   0.096  0.2887 -0.4341 -0.0153
  401MPD2    C5 5991   3.468   1.991   0.035 -0.1243  0.1681  0.1372
  401MPD2     H 5992   3.593   1.986   0.404  0.6303  1.9278 -0.3358
  401MPD2    H1 5993   3.440   1.781   0.046 -1.4569 -0.1757  0.7769
  401MPD2    H2 5994   3.520   2.197   0.040  0.0025 -0.9179 -0.4859
  401MPD2    H3 5995   3.421   1.999  17.620  1.5597  0.0173 -0.6964
  401MPD2     N 5996   3.512   1.741   0.309  0.1017 -0.0364 -0.7456
  401MPD2    H5 5997   3.510   1.752   0.410 -0.7471 -1.2322 -0.6344
  401MPD2    N1 5998   3.620   2.215   0.288 -0.0793  0.0836  0.1050
  401MPD2    H7 5999   3.649   2.203   0.384  0.4917 -2.2615 -0.3736
  402TMC3    C1 6000   3.514   1.502   0.348  0.5798  0.3147 -0.0393
  402TMC3    C2 6001   3.557   1.525   0.477 -0.3622  0.5140 -0.4011
  402TMC3    C3 6002   3.614   1.421   0.547  0.1558  0.1001 -0.0259
  402TMC3    C4 6003   3.509   1.379   0.294 -0.2412  0.3445  0.0576
  402TMC3    C5 6004   3.559   1.278   0.371 -0.6332 -0.6423 -0.6391
  402TMC3    C6 6005   3.615   1.292   0.500 -0.0560  0.0558 -0.3537
  402TMC3     C 6006   3.517   1.615   0.256 -0.3640  0.1671  0.0136
  402TMC3     O 6007   3.554   1.577   0.147 -0.4202  0.1272  0.3728
  402TMC3     H 6008   3.555   1.626   0.515  0.2968 -0.1078  1.2593
  402TMC3    H1 6009   3.484   1.365   0.189  0.8173  3.8314 -0.6709
  402TMC3    H2 6010   3.665   1.208   0.546 -1.6094 -0.6792 -0.0167
  402TMC3    C7 6011   3.589   1.148   0.307  0.1835  0.1751  0.1130
  402TMC3    C8 6012   3.710   1.450   0.652  0.0810  0.0667  0.5198
  402TMC3    O1 6013   3.544   1.052   0.366  0.3340  0.1871 -0.3500
  402TMC3    O2 6014   3.794   1.363   0.666  0.1863 -0.2532 -0.0973
  403MPD2     C 6015   2.759   1.272  13.484  0.6569  0.4243  0.2655
  403MPD2    C1 6016   2.840   1.159  13.460  0.0519 -0.1471  1.6644
  403MPD2    C2 6017   2.980   1.169  13.468 -0.0280 -1.2905  0.1477
  403MPD2    C3 6018   3.044   1.291  13.497  0.0816  0.1446  0.4613
  403MPD2    C4 6019   2.961   1.395  13.529 -0.1780 -0.2124 -0.4735
  403MPD2    C5 6020   2.823   1.385  13.525  0.0744  0.2949  0.3109
  403MPD2     H 6021   3.048   1.089  13.444  0.4164 -0.9808  0.3877
  403MPD2    H1 6022   2.994   1.496  13.547 -1.9676  0.0904  1.0856
  403MPD2    H2 6023   2.651   1.267  13.474  0.5264  0.5194  1.6595
  403MPD2    H3 6024   2.764   1.474  13.540  1.4446  0.9883  1.4718
  403MPD2     N 6025   3.189   1.295  13.499  0.0193 -0.0986 -0.1009
  403MPD2    H5 6026   3.239   1.210  13.476 -1.5911 -1.1166  0.1785
  403MPD2    N1 6027   2.779   1.037  13.442 -0.3689  0.5626 -0.9695
  403MPD2    H7 6028   2.678   1.032  13.444 -0.4372  1.8741 -0.6492
  404TMC3    C1 6029   2.745   0.804  13.372 -0.5866  0.2838  0.5907
  404TMC3    C2 6030   2.704   0.701  13.454 -0.2671  0.4889  0.2917
  404TMC3    C3 6031   2.651   0.596  13.387  0.0785  0.2872 -0.1160
  404TMC3    C4 6032   2.773   0.786  13.241 -0.7090  0.5151  0.8731
  404TMC3    C5 6033   2.723   0.672  13.175 -0.1080 -0.4655 -0.3545
  404TMC3    C6 6034   2.651   0.579  13.249  0.1565 -0.2486 -0.6536
  404TMC3     C 6035   2.832   0.912  13.415 -0.5219 -0.4475  0.1700
  404TMC3     O 6036   2.951   0.879  13.399 -0.1700 -0.1066 -0.0467
  404TMC3     H 6037   2.730   0.710  13.558  0.3372  0.1200  0.1760
  404TMC3    H1 6038   2.805   0.873  13.184  1.0758 -0.5329  0.2790
  404TMC3    H2 6039   2.582   0.513  13.198 -0.9681  0.2211  0.2534
  404TMC3    C7 6040   2.688   0.692  13.034 -0.5298  0.7452  0.3034
  404TMC3    C8 6041   2.616   0.474  13.466  0.1159 -0.3007  0.3148
  404TMC3    O1 6042   2.741   0.792  12.986  0.7574  1.0603  0.0774
  404TMC3    O2 6043   2.604   0.367  13.410 -0.6167  0.3170 -0.1871
  405MPD2     C 6044   3.174   2.206  14.261  0.2616 -0.1120 -0.0919
  405MPD2    C1 6045   3.176   2.122  14.153 -0.3842  0.1049  0.2162
  405MPD2    C2 6046   3.108   2.166  14.036 -0.4819  0.2469  0.0732
  405MPD2    C3 6047   3.058   2.297  14.026  0.5554  0.1893  0.6891
  405MPD2    C4 6048   3.067   2.379  14.138 -0.6303 -0.1954 -0.1013
  405MPD2    C5 6049   3.125   2.330  14.255 -0.3804 -0.2227  0.4025
  405MPD2     H 6050   3.095   2.104  13.948  1.5215 -0.7536  0.4812
  405MPD2    H1 6051   3.027   2.480  14.138  1.5571  0.6666 -1.1497
  405MPD2    H2 6052   3.213   2.168  14.354  1.2292  1.9584  0.3583
  405MPD2    H3 6053   3.144   2.387  14.345 -1.9176 -1.8771  1.7627
  405MPD2     N 6054   2.975   2.318  13.917  0.2673  0.7375  0.1925
  405MPD2    H5 6055   2.968   2.243  13.848  2.7630  2.3303 -1.8096
  405MPD2    N1 6056   3.237   2.000  14.168  0.2230  0.5621  0.1241
  405MPD2    H7 6057   3.285   1.980  14.255  1.4119  2.1949 -0.1610
  406TMC3    C1 6058   2.583   2.400  13.766  0.2981 -0.4673  0.1285
  406TMC3    C2 6059   2.589   2.277  13.703 -0.1081  0.4848  0.7099
  406TMC3    C3 6060   2.709   2.222  13.677 -1.0441 -0.5615 -0.5001
  406TMC3    C4 6061   2.693   2.458  13.822  0.1133  0.4800 -0.0724
  406TMC3    C5 6062   2.812   2.403  13.788 -0.4239  0.0402  0.3059
  406TMC3    C6 6063   2.819   2.281  13.724 -0.2429  0.9607  0.0557
  406TMC3     C 6064   2.460   2.423  13.834  0.1123 -1.1019 -0.1313
  406TMC3     O 6065   2.417   2.536  13.845  0.8571 -0.6656 -0.0977
  406TMC3     H 6066   2.499   2.222  13.681  0.4392  0.3436 -1.1791
  406TMC3    H1 6067   2.680   2.549  13.879 -0.8337  0.2238  0.1240
  406TMC3    H2 6068   2.913   2.235  13.694 -0.3745  0.6518  0.1210
  406TMC3    C7 6069   2.918   2.439  13.878  0.7178 -0.3682 -0.0190
  406TMC3    C8 6070   2.709   2.081  13.645  0.3050  0.0724  1.0064
  406TMC3    O1 6071   2.950   2.554  13.905 -0.3809 -0.1101  1.4760
  406TMC3    O2 6072   2.600   2.040  13.610 -0.1071  0.2929 -0.1154
  407MPD2     C 6073   0.370   3.035   9.362 -0.6983 -0.7784 -0.1600
  407MPD2    C1 6074   0.499   3.048   9.336  0.2768 -0.1598 -0.6008
  407MPD2    C2 6075   0.578   3.097   9.439  0.3297  0.3380 -0.2636
  407MPD2    C3 6076   0.531   3.112   9.567 -0.3576 -0.3626  1.1067
  407MPD2    C4 6077   0.401   3.082   9.589 -0.1921 -0.1104  0.7549
  407MPD2    C5 6078   0.319   3.047   9.491 -0.5179  0.0686  0.3021
  407MPD2     H 6079   0.682   3.107   9.413  0.2022  1.9431 -0.1887
  407MPD2    H1 6080   0.367   3.082   9.692 -1.6336  1.4063  0.2637
  407MPD2    H2 6081   0.297   2.985   9.299 -0.1127  1.3481 -2.5191
  407MPD2    H3 6082   0.223   3.002   9.513  0.5699 -3.3045 -1.9293
  407MPD2     N 6083   0.609   3.156   9.677  0.7829 -0.5395 -0.2196
  407MPD2    H5 6084   0.563   3.184   9.763  2.2001  0.2777  0.2795
  407MPD2    N1 6085   0.548   3.026   9.209 -0.0753 -0.2067 -0.4933
  407MPD2    H7 6086   0.641   3.059   9.184  0.2802 -0.1574  0.9069
  408TMC3    C1 6087   0.548   2.966   8.970  0.4721  0.7933  0.3230
  408TMC3    C2 6088   0.591   2.853   8.912  0.3236 -0.0766  0.6924
  408TMC3    C3 6089   0.678   2.848   8.806  0.1391  0.5671  0.6446
  408TMC3    C4 6090   0.584   3.086   8.913  0.9359  0.0553  0.0981
  408TMC3    C5 6091   0.680   3.087   8.810  0.3353 -0.3173 -0.1272
  408TMC3    C6 6092   0.731   2.967   8.756 -0.4297  0.3364  0.4864
  408TMC3     C 6093   0.488   2.952   9.107  1.1650 -0.9512  0.0292
  408TMC3     O 6094   0.390   2.876   9.110 -0.0922  0.4045 -0.2086
  408TMC3     H 6095   0.553   2.761   8.954 -0.5851  0.3680  0.8620
  408TMC3    H1 6096   0.565   3.171   8.977 -1.8953  0.8284 -1.8018
  408TMC3    H2 6097   0.805   2.971   8.676 -0.6917 -1.0988  0.1636
  408TMC3    C7 6098   0.780   3.191   8.811  0.3880 -0.5354  0.6818
  408TMC3    C8 6099   0.779   2.746   8.820 -0.7140  0.0327 -0.2367
  408TMC3    O1 6100   0.894   3.151   8.811 -0.1666  0.3237 -0.2507
  408TMC3    O2 6101   0.739   2.629   8.807 -0.3204  0.1581  0.5921
  409MPD2     C 6102   4.626   3.608  16.707  0.1433  0.4950 -0.1949
  409MPD2    C1 6103   0.009   3.593  16.790 -0.4076 -0.5611 -0.1313
  409MPD2    C2 6104   0.108   3.688  16.795 -0.0793 -0.6475 -0.7371
  409MPD2    C3 6105   0.090   3.816  16.744  0.0213  0.8472  0.0319
  409MPD2    C4 6106   4.697   3.831  16.667  0.5726 -0.1526  0.0010
  409MPD2    C5 6107   4.604   3.728  16.648 -0.1404  0.5072  0.3202
  409MPD2     H 6108   0.197   3.668  16.853  1.3482  0.4821 -2.5216
  409MPD2    H1 6109   4.689   3.920  16.605 -0.2229 -0.4144 -0.2734
  409MPD2    H2 6110   4.541   3.542  16.690  0.6763  0.2384 -1.7958
  409MPD2    H3 6111   4.512   3.753  16.596 -0.3535 -0.7485  0.0926
  409MPD2     N 6112   0.192   3.916  16.752  0.1373  0.0756  0.7483
  409MPD2    H5 6113   0.168   4.000  16.700  1.1014  0.0471  0.2655
  409MPD2    N1 6114   0.024   3.477  16.867 -0.5245 -0.3694  0.6612
  409MPD2    H7 6115   0.109   3.464  16.921  0.2243 -1.3486 -0.7463
  410TMC3    C1 6116   0.405   4.012  16.795  0.3460 -0.3312 -0.6045
  410TMC3    C2 6117   0.501   4.040  16.888  0.8933 -0.5431  0.1432
  410TMC3    C3 6118   0.588   4.141  16.849 -0.6662  0.4211  0.6294
  410TMC3    C4 6119   0.401   4.065  16.669 -0.0329  0.0814  0.9124
  410TMC3    C5 6120   0.491   4.168  16.643  0.3307  1.1757  0.1602
  410TMC3    C6 6121   0.586   4.216  16.734 -0.3645  0.6432  0.7431
  410TMC3     C 6122   0.315   3.903  16.821  0.2006  0.0817 -0.0987
  410TMC3     O 6123   0.357   3.807  16.885  0.2921 -0.2680 -0.2091
  410TMC3     H 6124   0.487   4.006  16.990 -0.0891 -1.2415 -0.2274
  410TMC3    H1 6125   0.338   4.030  16.588  1.0220  0.8563 -0.2441
  410TMC3    H2 6126   0.642   4.309  16.724 -0.5170  0.5735 -0.6983
  410TMC3    C7 6127   0.447   4.256  16.535  0.2539 -0.3081 -0.0143
  410TMC3    C8 6128   0.704   4.158  16.937 -0.6137 -0.3243 -0.1117
  410TMC3    O1 6129   0.327   4.258  16.514 -0.4073 -0.0862 -0.5752
  410TMC3    O2 6130   0.760   4.265  16.926 -0.1495  0.1937 -0.2641
  411MPD2     C 6131   0.944   4.648  14.334  0.1229  0.6881  0.1072
  411MPD2    C1 6132   0.835   4.674  14.418 -0.6504 -0.5252  0.4834
  411MPD2    C2 6133   0.761   4.570  14.456  0.2356 -0.1241 -0.7050
  411MPD2    C3 6134   0.793   4.438  14.427 -0.7888 -0.1000 -0.2325
  411MPD2    C4 6135   0.904   4.413  14.349  0.4045 -0.0015  0.2646
  411MPD2    C5 6136   0.981   4.519  14.306  0.6678 -0.8557  0.8872
  411MPD2     H 6137   0.677   4.587  14.523  2.3077  0.7585  1.6382
  411MPD2    H1 6138   0.948   4.317  14.323  2.1464  0.3618  1.9868
  411MPD2    H2 6139   0.998   0.013  14.292  0.5855  1.2085  1.7462
  411MPD2    H3 6140   1.071   4.497  14.251  0.0190  0.8421 -0.8724
  411MPD2     N 6141   0.717   4.327  14.471 -0.5006  0.2679  0.9751
  411MPD2    H5 6142   0.738   4.245  14.414  2.4654  1.0462  0.9077
  411MPD2    N1 6143   0.796   0.086  14.436  0.0479  0.5638 -0.3230
  411MPD2    H7 6144   0.846   0.157  14.383 -0.7590  0.6742 -0.9360
  412TMC3    C1 6145   0.522   4.230  14.550 -0.0849  0.3262  0.5090
  412TMC3    C2 6146   0.428   4.238  14.644  0.9665  0.3550 -0.6460
  412TMC3    C3 6147   0.302   4.180  14.634 -0.1193  0.4850  0.4949
  412TMC3    C4 6148   0.501   4.153  14.436 -0.1979 -0.3789  0.5993
  412TMC3    C5 6149   0.377   4.082  14.429  0.5502  0.6199 -0.2769
  412TMC3    C6 6150   0.276   4.093  14.525  0.0274  0.2898  0.3121
  412TMC3     C 6151   0.624   4.323  14.569 -0.5029 -0.6307  0.1827
  412TMC3     O 6152   0.606   4.410  14.658 -0.3177 -0.6082 -0.2348
  412TMC3     H 6153   0.440   4.307  14.727 -0.3979  0.2174 -0.3305
  412TMC3    H1 6154   0.568   4.151  14.351 -0.4711  0.1584  0.3693
  412TMC3    H2 6155   0.179   4.050  14.500  0.1715 -1.1162  2.1632
  412TMC3    C7 6156   0.322   4.094  14.296 -0.0993  0.5584  0.1321
  412TMC3    C8 6157   0.196   4.282  14.629  0.3982 -0.9028  0.2705
  412TMC3    O1 6158   0.220   4.163  14.304  0.5447  0.5096  0.6769
  412TMC3    O2 6159   0.247   4.390  14.611 -0.3431 -0.2021  0.1805
  413MPD2     C 6160   2.128   2.863  15.398 -0.7142 -0.8418  0.4241
  413MPD2    C1 6161   2.058   2.772  15.312  0.1653 -0.2627 -0.7989
  413MPD2    C2 6162   2.127   2.667  15.252 -0.3185 -0.5125  0.2209
  413MPD2    C3 6163   2.269   2.661  15.271 -0.7085 -0.2326 -0.4982
  413MPD2    C4 6164   2.338   2.756  15.349  0.1562  0.3861 -0.0540
  413MPD2    C5 6165   2.261   2.857  15.412 -0.5736 -0.1171  0.1836
  413MPD2     H 6166   2.084   2.595  15.185 -1.8030 -0.6262  1.2994
  413MPD2    H1 6167   2.445   2.760  15.366 -0.1518  2.2036  1.3988
  413MPD2    H2 6168   2.085   2.941  15.460  2.4892  0.3191  1.2062
  413MPD2    H3 6169   2.314   2.929  15.473 -1.5955  0.0864  0.8290
  413MPD2     N 6170   2.331   2.554  15.196 -0.2966  0.4798  0.3959
  413MPD2    H5 6171   2.277   2.515  15.119  0.5822  1.1034 -0.5545
  413MPD2    N1 6172   1.922   2.788  15.295  0.5053  0.6193 -0.2072
  413MPD2    H7 6173   1.868   2.848  15.357 -1.0792  0.5738 -1.5368
  414TMC3    C1 6174   2.510   2.452  15.087  0.0256  0.1097 -0.7652
  414TMC3    C2 6175   2.586   2.346  15.125  0.6320 -0.0150  0.8376
  414TMC3    C3 6176   2.617   2.255  15.032 -0.2339 -0.1271 -0.1453
  414TMC3    C4 6177   2.468   2.474  14.962  0.3863  0.1122  0.1502
  414TMC3    C5 6178   2.516   2.388  14.869  0.8870 -0.6707  0.2766
  414TMC3    C6 6179   2.585   2.270  14.901 -0.6039  0.3588 -0.0749
  414TMC3     C 6180   2.466   2.531  15.195  0.5064 -0.1359  0.2822
  414TMC3     O 6181   2.546   2.555  15.282 -0.2033 -0.6814  0.7566
  414TMC3     H 6182   2.598   2.331  15.231 -0.5461 -0.3266  0.9200
  414TMC3    H1 6183   2.399   2.551  14.929  0.2103 -0.2382 -0.3173
  414TMC3    H2 6184   2.627   2.209  14.822 -2.4209  1.5956 -2.0198
  414TMC3    C7 6185   2.465   2.410  14.738 -0.0441 -0.4942 -0.3511
  414TMC3    C8 6186   2.730   2.173  15.060 -0.0628  0.0906 -0.3585
  414TMC3    O1 6187   2.349   2.447  14.728 -0.3065  0.2893  0.3696
  414TMC3    O2 6188   2.757   2.098  14.966 -0.1077 -0.4103 -0.2871
  415TMC3    C1 6189   2.688   0.541  10.030 -0.6272  0.4589  0.1047
  415TMC3    C2 6190   2.765   0.595   9.930 -0.5263 -0.5206  0.0986
  415TMC3    C3 6191   2.750   0.539   9.811  0.8357 -0.1739  0.2386
  415TMC3    C4 6192   2.608   0.430  10.012  0.3821 -0.2822 -0.1490
  415TMC3    C5 6193   2.597   0.370   9.886 -0.0738 -0.1944  0.2110
  415TMC3    C6 6194   2.660   0.434   9.785 -0.4946  0.3967 -0.4492
  415TMC3     C 6195   2.688   0.615  10.149 -0.6517  0.9754 -0.1398
  415TMC3     O 6196   2.585   0.605  10.216  0.2195 -0.0593  0.6286
  415TMC3     H 6197   2.799   0.697   9.940 -0.7599 -0.3552 -0.8265
  415TMC3    H1 6198   2.535   0.394  10.083 -2.5623  0.2215 -2.9708
  415TMC3    H2 6199   2.656   0.393   9.684 -1.8221 -0.7186  0.0635
  415TMC3    C7 6200   2.472   0.297   9.847  0.7007 -0.8879  0.4490
  415TMC3    C8 6201   2.811   0.599   9.688 -0.0307 -0.1888  0.4750
  415TMC3    O1 6202   2.440   0.303   9.729 -0.1688 -0.5890 -0.5739
  415TMC3    O2 6203   2.739   0.583   9.590 -0.2766  0.2403  0.4891
  416MPD2     C 6204   4.645   4.433  11.860 -0.4244  0.2093  0.0813
  416MPD2    C1 6205   4.559   4.421  11.750 -0.4961 -0.2446 -0.1706
  416MPD2    C2 6206   4.582   4.318  11.660  0.5684  0.6707 -0.1167
  416MPD2    C3 6207   4.679   4.226  11.685  0.8039 -0.0216 -0.8215
  416MPD2    C4 6208   0.042   4.234  11.798 -0.1743  0.2089  0.4979
  416MPD2    C5 6209   0.019   4.337  11.884 -0.3200  0.0211 -0.6463
  416MPD2     H 6210   4.528   4.305  11.568  0.1312  1.7110 -0.0084
  416MPD2    H1 6211   0.109   4.153  11.825  0.5841  0.9894  0.9113
  416MPD2    H2 6212   4.652   4.517  11.928 -2.6949 -0.5804  1.2863
  416MPD2    H3 6213   0.091   4.355  11.964 -2.6287 -0.1218  1.4511
  416MPD2     N 6214   4.701   4.112  11.607  0.6221  0.5417 -0.0318
  416MPD2    H5 6215   0.053   4.047  11.640  0.8156  0.0226 -1.4683
  416MPD2    N1 6216   4.443   4.505  11.747  0.1540  0.2289 -0.0943
  416MPD2    H7 6217   4.423   4.571  11.822 -0.7375  0.6384 -0.6920
  417TMC3    C1 6218   4.248   4.609  11.677 -0.8366 -0.4338  0.6248
  417TMC3    C2 6219   4.199   4.626  11.809  0.2141  0.3646  0.1224
  417TMC3    C3 6220   4.099   4.719  11.827 -0.1021 -0.3548 -0.3998
  417TMC3    C4 6221   4.187   4.674  11.572 -0.1588  0.1994 -0.7623
  417TMC3    C5 6222   4.086   0.046  11.593 -0.6042 -0.4596 -0.7131
  417TMC3    C6 6223   4.047   0.085  11.721 -0.0748  0.3634  0.5187
  417TMC3     C 6224   4.347   4.515  11.649 -0.1604 -0.2365  0.6407
  417TMC3     O 6225   4.341   4.460  11.539  0.6411 -0.3880 -0.0570
  417TMC3     H 6226   4.220   4.544  11.876 -1.1461  0.1031  0.2220
  417TMC3    H1 6227   4.232   4.661  11.474  1.1015  1.0256 -0.2911
  417TMC3    H2 6228   3.966   0.154  11.741 -0.8642 -0.7288  1.0931
  417TMC3    C7 6229   4.062   0.134  11.473  0.0511 -0.6179 -0.4198
  417TMC3    C8 6230   4.063   0.037  11.961  0.5351  0.0757 -0.1673
  417TMC3    O1 6231   4.141   0.142  11.380 -0.4035 -0.1201  0.5395
  417TMC3    O2 6232   3.964   0.104  11.983  0.0116  0.0920 -0.5523
  418TMC3    C1 6233   2.631   4.381   1.074  0.3795  0.2727 -0.3137
  418TMC3    C2 6234   2.725   4.463   1.022  0.0500 -0.5852 -0.6128
  418TMC3    C3 6235   2.683   4.587   0.974 -0.2132  0.5620 -0.0750
  418TMC3    C4 6236   2.498   4.400   1.054  0.2997 -0.0433 -0.2805
  418TMC3    C5 6237   2.454   4.517   1.005  0.5858 -0.0837  0.1492
  418TMC3    C6 6238   2.545   4.613   0.963 -0.0832  0.8336 -0.3522
  418TMC3     C 6239   2.676   4.248   1.107  0.0883 -0.2883  0.3039
  418TMC3     O 6240   2.787   4.236   1.163 -0.0501  0.4596 -0.0460
  418TMC3     H 6241   2.830   4.441   1.037  0.0981  0.1634  0.1854
  418TMC3    H1 6242   2.427   4.335   1.105  1.2922 -0.2100  0.8945
  418TMC3    H2 6243   2.501   4.702   0.919  0.3522 -1.3456 -5.1735
  418TMC3    C7 6244   2.314   4.537   0.980 -0.2644  0.0088 -0.2054
  418TMC3    C8 6245   2.773   4.695   0.941 -0.4111  0.2536 -0.4304
  418TMC3    O1 6246   2.241   4.437   0.972 -0.1340  0.4115 -0.2892
  418TMC3    O2 6247   2.874   4.706   1.008  0.6586 -0.2380  0.0283
  419MPD2     C 6248   1.336   3.915  12.529 -0.6356  0.3041 -0.4400
  419MPD2    C1 6249   1.345   4.048  12.508 -0.0067 -0.2068 -0.4283
  419MPD2    C2 6250   1.336   4.131  12.618  0.7442 -0.0231 -0.4647
  419MPD2    C3 6251   1.305   4.089  12.745 -0.2668 -0.5133 -0.0588
  419MPD2    C4 6252   1.303   3.947  12.753 -0.4159 -1.0647 -0.4555
  419MPD2    C5 6253   1.323   3.865  12.655 -0.4734 -0.3030  0.4335
  419MPD2     H 6254   1.358   4.237  12.615 -1.3711  0.4878  2.5962
  419MPD2    H1 6255   1.276   3.899  12.846  1.6617 -2.1979 -0.4406
  419MPD2    H2 6256   1.350   3.840  12.451 -0.1215  0.7670 -0.7941
  419MPD2    H3 6257   1.327   3.759  12.675 -1.7073 -0.8951 -2.3632
  419MPD2     N 6258   1.305   4.184  12.843  0.5748  0.3191  1.2186
  419MPD2    H5 6259   1.280   4.276  12.810 -0.9005 -0.9136 -1.1025
  419MPD2    N1 6260   1.372   4.103  12.380  0.2221 -0.5351 -0.1772
  419MPD2    H7 6261   1.376   4.203  12.366  0.1507 -0.7665 -1.8707
  420TMC3    C1 6262   1.323   4.291  13.048  0.0817  0.5756  0.3706
  420TMC3    C2 6263   1.215   4.372  13.023  0.6203 -0.9289 -0.0329
  420TMC3    C3 6264   1.217   4.485  13.098 -0.8203 -0.1135 -0.3876
  420TMC3    C4 6265   1.413   4.304  13.153  0.6058  0.2834 -0.7628
  420TMC3    C5 6266   1.403   4.410  13.235 -0.0638 -0.7696  1.0566
  420TMC3    C6 6267   1.308   4.501  13.204 -0.1906 -0.3609  0.1587
  420TMC3     C 6268   1.325   4.166  12.975  0.4611  0.2594  0.0695
  420TMC3     O 6269   1.376   4.071  13.033  0.5039  0.1098  0.2221
  420TMC3     H 6270   1.154   4.358  12.934  0.5824  1.5209 -0.3972
  420TMC3    H1 6271   1.488   4.226  13.165  3.1646  2.7713 -0.4049
  420TMC3    H2 6272   1.308   4.589  13.267 -1.5321 -3.2000  4.1245
  420TMC3    C7 6273   1.461   4.402  13.372 -0.1110 -0.0674 -0.3965
  420TMC3    C8 6274   1.153   4.605  13.035 -0.4485 -0.5112 -0.3289
  420TMC3    O1 6275   1.533   4.305  13.395  0.7361 -0.3361 -0.5229
  420TMC3    O2 6276   1.135   4.594  12.913 -0.2036  0.7513 -0.4374
  421TMC3    C1 6277   3.404   1.386  13.548 -0.0313 -0.8726  0.1322
  421TMC3    C2 6278   3.476   1.487  13.604  0.3849  0.8811 -0.3774
  421TMC3    C3 6279   3.612   1.481  13.599  0.2574 -0.0540  0.3826
  421TMC3    C4 6280   3.466   1.279  13.491 -0.0986  0.0099  0.2103
  421TMC3    C5 6281   3.599   1.271  13.495 -0.0928 -0.6393  0.2494
  421TMC3    C6 6282   3.681   1.379  13.540 -0.4202 -0.0866  0.7743
  421TMC3     C 6283   3.261   1.410  13.532 -0.2710  0.3634  0.2653
  421TMC3     O 6284   3.223   1.522  13.562  0.6645 -0.4491  0.7029
  421TMC3     H 6285   3.429   1.547  13.681  1.7505  1.3444  0.0932
  421TMC3    H1 6286   3.415   1.201  13.435  0.3380  0.3676 -0.6961
  421TMC3    H2 6287   3.788   1.390  13.549 -0.1856  0.8494 -2.8212
  421TMC3    C7 6288   3.674   1.145  13.465 -0.3679 -0.6552  0.1109
  421TMC3    C8 6289   3.689   1.546  13.708 -0.1772 -0.4520 -0.6609
  421TMC3    O1 6290   3.792   1.169  13.479  0.3846 -0.1446 -0.0006
  421TMC3    O2 6291   3.805   1.511  13.736  0.5128  0.7418  0.1324
  422TMC3    C1 6292   0.720   2.452  12.478  0.2603  0.0567 -0.1374
  422TMC3    C2 6293   0.679   2.570  12.527 -0.0573 -0.1013 -0.3497
  422TMC3    C3 6294   0.550   2.580  12.571  0.5628 -0.4685  0.5577
  422TMC3    C4 6295   0.641   2.335  12.483 -0.0713  0.4676  0.3266
  422TMC3    C5 6296   0.511   2.354  12.527  0.5639 -0.1163  0.0571
  422TMC3    C6 6297   0.465   2.472  12.575 -0.5568 -0.1982 -0.6573
  422TMC3     C 6298   0.840   2.450  12.399 -0.3916 -0.2773 -0.5441
  422TMC3     O 6299   0.899   2.555  12.381  0.1240 -0.5853  0.1014
  422TMC3     H 6300   0.746   2.655  12.528 -1.4374  0.9530  1.8644
  422TMC3    H1 6301   0.681   2.235  12.469  1.9190  1.3025 -0.0313
  422TMC3    H2 6302   0.363   2.498  12.601 -0.4333 -1.8294  1.4256
  422TMC3    C7 6303   0.416   2.250  12.496  0.0358  0.4613 -0.5869
  422TMC3    C8 6304   0.505   2.707  12.607 -0.4254 -0.0593 -0.5895
  422TMC3    O1 6305   0.452   2.163  12.419  0.3503 -0.0059 -0.2748
  422TMC3    O2 6306   0.593   2.780  12.654  0.0285  0.5218 -0.3052
  423MPD2     C 6307   1.972   3.276   0.609 -0.5556  0.5979 -0.3108
  423MPD2    C1 6308   1.917   3.159   0.554 -0.5576 -0.1744  0.9159
  423MPD2    C2 6309   1.982   3.093   0.452  0.1420  0.0543 -0.2553
  423MPD2    C3 6310   2.109   3.142   0.413 -0.1403  0.4033  0.1932
  423MPD2    C4 6311   2.168   3.249   0.481 -0.6282  0.7206  0.2119
  423MPD2    C5 6312   2.105   3.314   0.583 -0.0023 -0.5180  0.1629
  423MPD2     H 6313   1.941   3.005   0.404 -0.9731  0.0087  0.7872
  423MPD2    H1 6314   2.253   3.300   0.438 -0.3180  0.9720  1.1249
  423MPD2    H2 6315   1.910   3.339   0.672 -1.2936 -1.0033  0.5491
  423MPD2    H3 6316   2.145   3.404   0.628  1.7899  0.0590 -2.5671
  423MPD2     N 6317   2.176   3.089   0.297  0.8231  0.7414 -0.4077
  423MPD2    H5 6318   2.261   3.132   0.262  0.9600  1.5332  0.8856
  423MPD2    N1 6319   1.791   3.105   0.592 -0.0812 -0.1227  0.0463
  423MPD2    H7 6320   1.762   3.012   0.563 -3.2040  1.0809 -0.7066
  424TMC3    C1 6321   1.565   3.101   0.680  0.0324  0.5774 -0.4080
  424TMC3    C2 6322   1.543   2.961   0.675  0.7530 -0.2822 -0.3407
  424TMC3    C3 6323   1.415   2.909   0.673  0.2358  0.1621 -0.3916
  424TMC3    C4 6324   1.461   3.188   0.689 -0.1205 -0.6982  0.4075
  424TMC3    C5 6325   1.336   3.129   0.687 -0.0559 -0.8639 -0.1212
  424TMC3    C6 6326   1.306   2.991   0.669 -0.3003  0.2390  0.1682
  424TMC3     C 6327   1.691   3.171   0.661 -0.0573 -0.1005 -0.2580
  424TMC3     O 6328   1.699   3.284   0.701 -0.3844 -0.1990 -0.1477
  424TMC3     H 6329   1.627   2.895   0.697  2.6594  1.0470 -3.6861
  424TMC3    H1 6330   1.461   3.297   0.698 -0.1174 -0.7732  1.3229
  424TMC3    H2 6331   1.207   2.950   0.686  0.0462  0.0804  1.7597
  424TMC3    C7 6332   1.234   3.219   0.643  0.3040  0.3188  0.1712
  424TMC3    C8 6333   1.398   2.769   0.695  0.2984 -0.0353  0.4528
  424TMC3    O1 6334   1.270   3.310   0.572 -0.4234 -0.1125 -0.0446
  424TMC3    O2 6335   1.476   2.705   0.764 -0.7844  0.3497 -0.7805
  425MPD2     C 6336   1.222   2.755  17.557  0.6207  0.4447  0.4869
  425MPD2    C1 6337   1.199   2.707  17.429  0.0337  0.4159  0.3164
  425MPD2    C2 6338   1.076   2.741  17.358  0.0332  0.7167  0.0724
  425MPD2    C3 6339   0.972   2.800  17.432  0.0615 -0.2350 -0.1738
  425MPD2    C4 6340   0.992   2.843  17.565  0.2424  0.0620 -0.6193
  425MPD2    C5 6341   1.117   2.829  17.618  0.2726  0.5764  0.1028
  425MPD2     H 6342   1.051   2.703  17.259  3.5999  2.2094 -1.3871
  425MPD2    H1 6343   0.925   2.902  17.626 -0.6362 -2.0076  0.4208
  425MPD2    H2 6344   1.313   2.726  17.609  0.2469 -0.6758  0.5062
  425MPD2    H3 6345   1.130   2.872   0.035 -1.2613 -2.4109  1.5932
  425MPD2     N 6346   0.845   2.811  17.386 -0.0302 -0.1295  0.3841
  425MPD2    H5 6347   0.831   2.784  17.290 -1.1920 -0.3455  0.6136
  425MPD2    N1 6348   1.302   2.624  17.373  0.3389  0.9753 -0.6957
  425MPD2    H7 6349   1.383   2.600  17.429  0.7381 -0.0395 -1.7134
  426TMC3    C1 6350   1.404   2.480  17.222  0.1993  0.2378 -0.1130
  426TMC3    C2 6351   1.454   2.466  17.097 -0.3754  0.3187  0.5941
  426TMC3    C3 6352   1.538   2.355  17.073  0.1911 -0.1386  0.0314
  426TMC3    C4 6353   1.426   2.386  17.326  0.0726 -0.2214  0.4010
  426TMC3    C5 6354   1.499   2.272  17.293 -0.3983 -0.0540  0.2378
  426TMC3    C6 6355   1.569   2.267  17.173 -0.2991  0.4399 -0.1240
  426TMC3     C 6356   1.307   2.581  17.245  0.5736  0.8760 -0.0521
  426TMC3     O 6357   1.252   2.628  17.146 -0.5435 -0.0265 -0.4648
  426TMC3     H 6358   1.441   2.539  17.019  2.0081 -1.0152 -1.0682
  426TMC3    H1 6359   1.387   2.402  17.425  0.2556  1.0014  0.2801
  426TMC3    H2 6360   1.636   2.183  17.154 -0.5952  0.1558  0.0875
  426TMC3    C7 6361   1.441   2.144  17.320 -0.0263 -0.5751 -0.4593
  426TMC3    C8 6362   1.512   2.284  16.951  0.1306  0.7116  0.4062
  426TMC3    O1 6363   1.488   2.043  17.273 -0.1015 -0.0981  0.0122
  426TMC3    O2 6364   1.581   2.191  16.914 -0.0170 -0.1932 -0.4436
  427MPD2     C 6365   4.558   0.022  14.607  0.2254  0.4338  0.1440
  427MPD2    C1 6366   4.507   4.668  14.713 -0.4385 -0.0872  0.5414
  427MPD2    C2 6367   4.371   4.675  14.738  0.1160  1.0193  0.2835
  427MPD2    C3 6368   4.289   0.031  14.654 -0.0146 -0.4295 -0.0432
  427MPD2    C4 6369   4.342   0.098  14.543  0.4651  0.4221 -0.3303
  427MPD2    C5 6370   4.475   0.088  14.520  0.4170 -0.2798  0.5763
  427MPD2     H 6371   4.333   4.625  14.826  0.2469 -1.8962 -1.2975
  427MPD2    H1 6372   4.280   0.157  14.476 -0.3015 -0.3806 -0.3304
  427MPD2    H2 6373   4.665   0.022  14.587  0.0307  1.3472 -0.8792
  427MPD2    H3 6374   4.518   0.137  14.433 -0.2135  0.3409  0.6113
  427MPD2     N 6375   4.150   0.036  14.676 -0.1380 -0.5691 -0.2868
  427MPD2    H5 6376   4.097   0.078  14.600  0.2839  2.4128  1.0646
  427MPD2    N1 6377   4.589   4.590  14.798 -0.6743 -0.1763  0.4219
  427MPD2    H7 6378   4.546   4.543  14.877 -0.4257 -1.5109 -0.2332
  428TMC3    C1 6379   0.059   4.505  14.904  0.8418 -0.7877 -0.8137
  428TMC3    C2 6380   0.002   4.383  14.927  0.0561  0.5334  0.7162
  428TMC3    C3 6381   0.061   4.303  15.023 -0.4414  0.8171 -0.5342
  428TMC3    C4 6382   0.189   4.540  14.947  0.4649  0.5537  0.1288
  428TMC3    C5 6383   0.246   4.452  15.037  0.5306  0.1629 -0.5674
  428TMC3    C6 6384   0.182   4.338  15.086  0.1456 -0.1714 -0.5012
  428TMC3     C 6385   0.007   4.576  14.787 -0.1483  0.3598 -0.4710
  428TMC3     O 6386   0.097   4.623  14.718  0.6659  0.0684  0.1040
  428TMC3     H 6387   4.647   4.339  14.861  1.4697  0.1735 -0.6342
  428TMC3    H1 6388   0.225   4.641  14.928 -0.3535  0.3619 -2.4777
  428TMC3    H2 6389   0.226   4.281  15.167 -1.5184 -0.2279  0.3643
  428TMC3    C7 6390   0.365   4.490  15.093 -0.3404 -0.0397  0.7432
  428TMC3    C8 6391   0.041   4.169  15.035 -0.4167 -0.3829 -0.4081
  428TMC3    O1 6392   0.390   4.433  15.201  0.6004 -0.0958  0.2691
  428TMC3    O2 6393   0.142   4.096  15.045  0.0952  0.0494 -0.2148
  429MPD2     C 6394   0.504   4.647  17.612  0.7638 -0.3226  0.4355
  429MPD2    C1 6395   0.553   4.546  17.534 -0.0649  0.1552 -0.0705
  429MPD2    C2 6396   0.594   4.577  17.407 -0.5065  0.0641 -0.0102
  429MPD2    C3 6397   0.586   4.705  17.356 -0.4116 -0.0548 -0.3270
  429MPD2    C4 6398   0.522   0.086  17.429 -0.2598 -1.0021  0.6099
  429MPD2    C5 6399   0.474   0.048  17.557 -0.7141 -0.4834 -0.4871
  429MPD2     H 6400   0.634   4.502  17.339  0.4668 -1.1046  1.8671
  429MPD2    H1 6401   0.521   0.191  17.402  1.4228 -0.6053  2.0885
  429MPD2    H2 6402   0.466   4.624   0.030 -0.3133 -2.1854 -0.4109
  429MPD2    H3 6403   0.425   0.125  17.615  1.1737  1.2230 -1.1896
  429MPD2     N 6404   0.663   0.019  17.242  0.1878  0.0005  0.1675
  429MPD2    H5 6405   0.732   4.667  17.223 -0.5830 -0.8909  0.7140
  429MPD2    N1 6406   0.576   4.421  17.586  0.3666  0.6676  0.3634
  429MPD2    H7 6407   0.644   4.357  17.545  0.2418  0.2518  0.7975
  430TMC3    C1 6408   0.782   0.148  17.091 -0.7400  0.3548  0.0669
  430TMC3    C2 6409   0.772   0.231  16.985  0.4141  0.3670 -0.5679
  430TMC3    C3 6410   0.879   0.261  16.913 -0.5818  0.3241  0.0979
  430TMC3    C4 6411   0.892   0.083  17.122 -1.4619  0.2484 -0.1518
  430TMC3    C5 6412   0.996   0.098  17.037  0.2828  0.2147  0.5043
  430TMC3    C6 6413   0.995   0.186  16.935  0.1301 -0.2466  0.1621
  430TMC3     C 6414   0.674   0.139  17.182 -0.1028 -0.0257 -0.1288
  430TMC3     O 6415   0.598   0.234  17.178  0.1367 -0.1843 -0.0907
  430TMC3     H 6416   0.675   0.279  16.970  0.3557  0.5620  0.4163
  430TMC3    H1 6417   0.896   0.018  17.209 -0.4017  1.5405  0.7727
  430TMC3    H2 6418   1.082   0.188  16.871  0.5081  3.2924  0.7540
  430TMC3    C7 6419   1.085   4.713  16.997  0.2153 -0.6842 -0.2356
  430TMC3    C8 6420   0.860   0.319  16.779 -0.2487 -0.5181 -1.0769
  430TMC3    O1 6421   1.039   4.604  16.980  0.3090  0.0544 -0.2645
  430TMC3    O2 6422   0.948   0.303  16.698  0.1494 -0.5817 -0.4323
  431MPD2     C 6423   1.668   0.118  12.387  0.5194  0.9878  0.3954
  431MPD2    C1 6424   1.765   0.058  12.313  1.4804  0.4318 -0.5063
  431MPD2    C2 6425   1.718   4.668  12.241  0.5801  0.6747 -0.7516
  431MPD2    C3 6426   1.590   4.619  12.250  0.1075  0.0793 -0.4209
  431MPD2    C4 6427   1.496   4.682  12.330 -0.1035  0.4295 -0.1495
  431MPD2    C5 6428   1.541   0.073  12.395  0.3568 -0.2476 -0.8490
  431MPD2     H 6429   1.802   4.639  12.179  0.3758  1.5249 -1.4269
  431MPD2    H1 6430   1.392   4.656  12.345 -0.1050  0.3258 -0.3500
  431MPD2    H2 6431   1.697   0.199  12.454  0.6428 -0.0967  1.6503
  431MPD2    H3 6432   1.485   0.136  12.463  2.5011 -0.8269  1.4490
  431MPD2     N 6433   1.550   4.502  12.182  0.8294 -0.4234 -0.3622
  431MPD2    H5 6434   1.455   4.474  12.207  0.5806  0.2028 -0.6202
  431MPD2    N1 6435   1.896   0.100  12.309 -0.4973 -0.0760 -0.1041
  431MPD2    H7 6436   1.962   0.045  12.254  0.3088 -0.2374  1.0204
  432TMC3    C1 6437   1.543   4.295  12.085  0.4826  0.7428  0.1380
  432TMC3    C2 6438   1.542   4.242  11.962 -0.3631 -0.3192  0.0017
  432TMC3    C3 6439   1.477   4.133  11.930  0.1658 -0.9587 -0.4292
  432TMC3    C4 6440   1.493   4.230  12.190 -0.0800  1.0957  0.6313
  432TMC3    C5 6441   1.434   4.110  12.156 -0.0981 -0.7634 -0.2969
  432TMC3    C6 6442   1.417   4.065  12.028 -0.4394  1.0302  0.5470
  432TMC3     C 6443   1.614   4.423  12.095 -0.1595  0.5899 -0.4956
  432TMC3     O 6444   1.720   4.435  12.037  0.5628  0.7785  0.1646
  432TMC3     H 6445   1.577   4.301  11.878 -1.0168 -2.2408 -1.6382
  432TMC3    H1 6446   1.518   4.280  12.283  1.6568 -0.0082  0.7582
  432TMC3    H2 6447   1.356   3.979  12.002  3.0694 -0.6618 -2.0941
  432TMC3    C7 6448   1.389   4.029  12.265  0.8837  0.2172 -0.0682
  432TMC3    C8 6449   1.451   4.102  11.791 -0.0059  0.4273 -0.1751
  432TMC3    O1 6450   1.369   3.913  12.238  0.2520  0.5360 -0.1164
  432TMC3    O2 6451   1.342   4.051  11.767 -0.0319  0.3258 -0.4336
  433MPD2     C 6452   0.642   3.685  10.625  0.0270  0.6211  0.1841
  433MPD2    C1 6453   0.639   3.570  10.706 -0.3637  0.1708  0.1830
  433MPD2    C2 6454   0.648   3.588  10.842 -0.0498 -0.0091  0.2309
  433MPD2    C3 6455   0.658   3.714  10.901 -0.7702 -0.4367  0.5314
  433MPD2    C4 6456   0.647   3.824  10.822  0.4432  0.9182  0.1332
  433MPD2    C5 6457   0.642   3.813  10.684 -0.1546  0.0745  0.1743
  433MPD2     H 6458   0.664   3.505  10.911  2.4396 -1.1217 -1.6581
  433MPD2    H1 6459   0.667   3.919  10.870  0.5468 -0.0803  2.0632
  433MPD2    H2 6460   0.662   3.684  10.518  3.3801 -1.1891  0.8205
  433MPD2    H3 6461   0.663   3.898  10.619  1.3932 -0.3484  0.1297
  433MPD2     N 6462   0.691   3.709  11.042  0.0942 -0.8086 -0.7942
  433MPD2    H5 6463   0.706   3.619  11.087  1.2191 -0.6017 -0.7758
  433MPD2    N1 6464   0.652   3.446  10.641 -0.1934 -0.0582  0.1485
  433MPD2    H7 6465   0.657   3.457  10.540  0.0011 -0.8633  0.0739
  434TMC3    C1 6466   0.745   3.225  10.616 -0.7914 -0.8949  0.3198
  434TMC3    C2 6467   0.786   3.115  10.681  0.1586  0.1354 -1.1542
  434TMC3    C3 6468   0.846   3.012  10.614 -0.0821  0.0941 -0.4814
  434TMC3    C4 6469   0.758   3.226  10.480  0.2276  0.4089  0.2119
  434TMC3    C5 6470   0.820   3.124  10.410  0.7779  0.3974 -0.0439
  434TMC3    C6 6471   0.856   3.010  10.479  0.3523 -0.0465 -0.3860
  434TMC3     C 6472   0.676   3.324  10.697 -0.1601 -0.8789 -0.2164
  434TMC3     O 6473   0.665   3.299  10.815  0.3810  0.1358  0.2837
  434TMC3     H 6474   0.777   3.098  10.788  0.5275  1.2473 -0.9432
  434TMC3    H1 6475   0.726   3.311  10.421  0.9607  0.7642  0.3266
  434TMC3    H2 6476   0.930   2.943  10.437 -0.1410 -1.2336  0.6704
  434TMC3    C7 6477   0.790   3.118  10.270  0.2727 -0.5647 -0.7058
  434TMC3    C8 6478   0.920   2.919  10.701 -0.4123 -0.5126 -0.3406
  434TMC3    O1 6479   0.760   3.225  10.215  0.1637 -0.4339 -0.3457
  434TMC3    O2 6480   0.891   2.917  10.822 -0.2834  0.0711 -0.2247
  435MPD2     C 6481   2.548   3.170  15.458  0.0568  0.4548 -1.0128
  435MPD2    C1 6482   2.546   3.187  15.593 -0.0836 -0.6101  0.5844
  435MPD2    C2 6483   2.653   3.168  15.668  0.3504 -0.4605  0.0426
  435MPD2    C3 6484   2.779   3.157  15.601  0.2933 -0.1923  0.4084
  435MPD2    C4 6485   2.786   3.147  15.465  0.0096  0.1662 -0.0035
  435MPD2    C5 6486   2.671   3.157  15.390 -0.0795  0.5963 -0.2137
  435MPD2     H 6487   2.653   3.176  15.776  0.8424 -1.6261  0.1282
  435MPD2    H1 6488   2.877   3.154  15.407 -0.6208  0.2783 -0.9680
  435MPD2    H2 6489   2.457   3.185  15.401 -1.7804  0.0018  1.8281
  435MPD2    H3 6490   2.677   3.149  15.282 -0.4425 -0.2228 -0.1797
  435MPD2     N 6491   2.902   3.160  15.684  0.4136 -0.6218  0.3847
  435MPD2    H5 6492   2.873   3.160  15.781 -0.5821 -0.8405  0.0925
  435MPD2    N1 6493   2.428   3.222  15.662  0.2628 -0.7684  0.4369
  435MPD2    H7 6494   2.433   3.234  15.763  1.4867  0.6210  0.2077
  436TMC3    C1 6495   2.142   3.338  15.925 -0.9198  0.2481  0.4622
  436TMC3    C2 6496   2.240   3.313  15.836  0.7364  0.1632 -1.2029
  436TMC3    C3 6497   2.208   3.271  15.709  0.0951  0.0608 -0.3535
  436TMC3    C4 6498   2.014   3.320  15.886  0.1052  0.0794 -0.5223
  436TMC3    C5 6499   1.986   3.295  15.756  0.2834 -0.2575  0.2019
  436TMC3    C6 6500   2.086   3.273  15.667 -0.5377  0.6759  0.2620
  436TMC3     C 6501   2.173   3.366  16.060 -0.1284  0.3436 -0.0961
  436TMC3     O 6502   2.291   3.354  16.090 -0.1882 -0.6369 -0.1564
  436TMC3     H 6503   2.344   3.329  15.863  0.7692 -0.8525 -0.7215
  436TMC3    H1 6504   1.936   3.322  15.961  0.8375  0.9346  0.2125
  436TMC3    H2 6505   2.063   3.250  15.564 -1.8576  0.5396  0.5877
  436TMC3    C7 6506   1.848   3.283  15.708  1.1045  0.3063 -0.2419
  436TMC3    C8 6507   2.303   3.238  15.610  0.0523  0.5297  0.2451
  436TMC3    O1 6508   1.831   3.238  15.597 -0.6728 -0.4808 -0.3537
  436TMC3    O2 6509   2.264   3.249  15.495  0.1207 -0.3124  0.9541
  437TMC3    C1 6510   1.157   0.892  12.542 -0.0929 -0.1449 -0.1497
  437TMC3    C2 6511   1.039   0.957  12.571  0.1834  0.0587  0.3931
  437TMC3    C3 6512   0.989   1.050  12.484 -0.4528 -0.6090 -0.0621
  437TMC3    C4 6513   1.244   0.942  12.445 -0.9679 -0.2308 -0.0815
  437TMC3    C5 6514   1.181   1.029  12.355  0.0269 -0.5437  0.4183
  437TMC3    C6 6515   1.063   1.094  12.383  0.3528  0.4824 -0.0871
  437TMC3     C 6516   1.194   0.804  12.648 -1.0654  0.4508 -0.4344
  437TMC3     O 6517   1.116   0.788  12.741 -0.1367  0.0508 -0.6481
  437TMC3     H 6518   0.959   0.916  12.632  0.1672  1.3418  1.2436
  437TMC3    H1 6519   1.315   0.868  12.408 -2.7804 -1.3514 -1.3201
  437TMC3    H2 6520   1.013   1.151  12.306  1.4240  1.3336 -0.1533
  437TMC3    C7 6521   1.248   1.069  12.235 -0.5830 -0.3211  0.1047
  437TMC3    C8 6522   0.855   1.104  12.508  0.1543 -0.3005  0.0196
  437TMC3    O1 6523   1.183   1.129  12.147  0.3950  0.5916  0.0515
  437TMC3    O2 6524   0.800   1.060  12.610  0.0495 -0.1274  0.0627
  438MPD2     C 6525   3.365   1.469  16.665  0.3951 -0.1529 -0.4336
  438MPD2    C1 6526   3.442   1.367  16.717 -0.1472  0.1048  0.2203
  438MPD2    C2 6527   3.388   1.289  16.813 -0.6683 -0.0613  0.1042
  438MPD2    C3 6528   3.267   1.309  16.874 -0.2662  0.2387  0.2138
  438MPD2    C4 6529   3.193   1.411  16.826 -0.0013 -0.1805  0.4654
  438MPD2    C5 6530   3.238   1.488  16.717 -0.5420 -0.0799  0.3477
  438MPD2     H 6531   3.446   1.200  16.835 -1.2714 -0.5770 -0.3949
  438MPD2    H1 6532   3.100   1.443  16.872 -0.7957  1.5049 -2.3119
  438MPD2    H2 6533   3.401   1.525  16.579  0.6858  1.5485  0.8140
  438MPD2    H3 6534   3.172   1.557  16.667 -1.7631 -0.2598  1.7087
  438MPD2     N 6535   3.214   1.241  16.983 -0.0684 -0.1570 -0.2025
  438MPD2    H5 6536   3.116   1.257  17.002 -0.0747  0.7726 -1.0670
  438MPD2    N1 6537   3.573   1.342  16.677 -0.4353  0.5249 -0.3127
  438MPD2    H7 6538   3.623   1.272  16.731 -2.8533  0.0387  1.3013
  439TMC3    C1 6539   3.767   1.345  16.558  0.2631 -0.1687  0.7778
  439TMC3    C2 6540   3.778   1.320  16.419  0.3318  0.1529  0.0914
  439TMC3    C3 6541   3.828   1.198  16.381 -0.9183 -0.0618  0.4520
  439TMC3    C4 6542   3.796   1.251  16.643  0.1098  0.4856 -0.2278
  439TMC3    C5 6543   3.831   1.125  16.603 -1.0764  0.0645 -0.0091
  439TMC3    C6 6544   3.857   1.099  16.472  0.1174 -0.1246  0.1876
  439TMC3     C 6545   3.648   1.421  16.598  0.8159 -0.4024  0.0826
  439TMC3     O 6546   3.616   1.530  16.555 -0.0318  0.1694 -0.2841
  439TMC3     H 6547   3.722   1.382  16.351  2.1505  0.5302 -1.0724
  439TMC3    H1 6548   3.800   1.269  16.750 -4.3970  1.3073 -0.2115
  439TMC3    H2 6549   3.903   1.007  16.439 -0.2054  0.0213 -0.6733
  439TMC3    C7 6550   3.899   1.050  16.698  1.4208 -0.4373 -0.3936
  439TMC3    C8 6551   3.859   1.181  16.245 -0.2222  0.2642  0.2013
  439TMC3    O1 6552   3.964   1.110  16.783 -0.0436  0.6165 -0.2553
  439TMC3    O2 6553   3.907   1.072  16.214 -0.3159  0.2350 -0.0841
  440MPD2     C 6554   2.731   1.889  14.485  0.1984 -0.2861  0.0072
  440MPD2    C1 6555   2.762   1.947  14.606 -0.1375  0.0796 -0.2005
  440MPD2    C2 6556   2.890   1.974  14.638  0.5094  0.3957 -0.1603
  440MPD2    C3 6557   2.996   1.930  14.554  0.1252  0.5010 -0.0605
  440MPD2    C4 6558   2.960   1.877  14.434  0.2165  0.6672 -0.5507
  440MPD2    C5 6559   2.834   1.862  14.397 -0.2001 -0.0802 -0.1339
  440MPD2     H 6560   2.920   2.033  14.724  1.5101  1.1727 -1.0529
  440MPD2    H1 6561   3.031   1.844  14.359  1.4039  1.4028  0.2492
  440MPD2    H2 6562   2.637   1.855  14.443  0.2340 -1.2489  0.7087
  440MPD2    H3 6563   2.816   1.810  14.304  1.0473 -0.8407  0.0559
  440MPD2     N 6564   3.133   1.919  14.584  0.3461  0.6799  0.0280
  440MPD2    H5 6565   3.194   1.868  14.520 -0.1333  0.6410 -0.3958
  440MPD2    N1 6566   2.665   1.971  14.709 -0.1493 -0.6761 -0.2160
  440MPD2    H7 6567   2.698   1.992  14.803 -1.6334  0.4615  0.0471
  441TMC3    C1 6568   3.311   1.893  14.736 -0.5910  0.0537 -0.0213
  441TMC3    C2 6569   3.356   1.956  14.853  0.1038 -0.6427  0.1679
  441TMC3    C3 6570   3.390   1.879  14.961  0.8409 -0.1180  0.0867
  441TMC3    C4 6571   3.263   1.762  14.748 -0.5623  0.0896  0.2873
  441TMC3    C5 6572   3.286   1.698  14.870  0.1356  0.7455 -0.1807
  441TMC3    C6 6573   3.364   1.748  14.967 -0.3215  0.2818  1.0338
  441TMC3     C 6574   3.188   1.969  14.700 -0.4253  0.3529  0.5909
  441TMC3     O 6575   3.141   2.032  14.795 -0.2405 -0.3476  0.5257
  441TMC3     H 6576   3.368   2.063  14.852 -0.8894 -0.5308 -0.5734
  441TMC3    H1 6577   3.240   1.706  14.658  1.9746  0.7258 -0.7631
  441TMC3    H2 6578   3.372   1.683  15.054  1.6602 -1.3943 -0.4024
  441TMC3    C7 6579   3.172   1.622  14.921  0.2496  0.3179  0.5084
  441TMC3    C8 6580   3.353   1.960  15.077 -0.2184 -0.6156  0.1416
  441TMC3    O1 6581   3.183   1.558  15.027 -0.0512  0.2428  0.1118
  441TMC3    O2 6582   3.412   1.963  15.181 -0.0083 -0.0546  0.2607
  442MPD2     C 6583   0.443   2.381  16.212  0.1135 -0.1533 -0.2757
  442MPD2    C1 6584   0.345   2.292  16.254 -0.1631  0.1356 -0.2666
  442MPD2    C2 6585   0.363   2.157  16.252 -0.3563  0.0045 -0.4943
  442MPD2    C3 6586   0.481   2.110  16.196 -0.0109 -0.1654  0.3371
  442MPD2    C4 6587   0.577   2.195  16.152 -0.1742  0.1684  0.1683
  442MPD2    C5 6588   0.561   2.330  16.162 -0.3031  0.1313 -0.8235
  442MPD2     H 6589   0.282   2.095  16.291 -0.4959  0.4885 -0.0168
  442MPD2    H1 6590   0.667   2.149  16.112 -1.1140  1.1300 -3.0310
  442MPD2    H2 6591   0.452   2.486  16.238  0.8614 -0.0076 -1.1002
  442MPD2    H3 6592   0.649   2.386  16.132  1.1377 -1.6780 -0.0291
  442MPD2     N 6593   0.503   1.970  16.182  0.3425  0.2155 -0.2017
  442MPD2    H5 6594   0.592   1.952  16.136  0.6525  0.6660  0.2247
  442MPD2    N1 6595   0.220   2.341  16.303  0.5683  0.0973  0.0335
  442MPD2    H7 6596   0.155   2.273  16.340 -0.2771  1.1480  0.4647
  443TMC3    C1 6597   0.057   2.515  16.329 -0.5442 -0.3711  0.1283
  443TMC3    C2 6598   4.715   2.614  16.252  0.3359  0.2122  0.0475
  443TMC3    C3 6599   4.596   2.651  16.296 -0.6666  0.6599  0.7277
  443TMC3    C4 6600   0.011   2.452  16.440  1.2969  0.2767 -0.1044
  443TMC3    C5 6601   4.600   2.494  16.472  0.3727  0.2563 -0.8452
  443TMC3    C6 6602   4.545   2.607  16.416  0.1343 -0.2872  0.0044
  443TMC3     C 6603   0.184   2.474  16.277  0.4524 -0.2353  0.4718
  443TMC3     O 6604   0.230   2.541  16.190  0.0111  0.0231 -0.3191
  443TMC3     H 6605   0.040   2.662  16.166 -0.2131  1.0818  0.2406
  443TMC3    H1 6606   0.070   2.389  16.505  0.3469 -0.0432  0.4581
  443TMC3    H2 6607   4.461   2.661  16.460  0.2078  0.5174 -0.8502
  443TMC3    C7 6608   4.544   2.437  16.591  0.3180  0.5110 -0.4525
  443TMC3    C8 6609   4.523   2.761  16.220 -0.6423  0.5535 -0.9118
  443TMC3    O1 6610   4.594   2.341  16.646 -0.5075  0.0163  0.0600
  443TMC3    O2 6611   4.452   2.839  16.282  0.1251 -0.2921 -0.5521
  444MPD2     C 6612   1.101   1.756  16.835 -0.6641 -0.4432 -0.3098
  444MPD2    C1 6613   1.010   1.667  16.784 -0.0536 -0.0716 -0.2052
  444MPD2    C2 6614   1.047   1.570  16.696  0.3561  0.1758 -0.2247
  444MPD2    C3 6615   1.170   1.582  16.636 -0.7115 -0.3152 -0.5738
  444MPD2    C4 6616   1.254   1.688  16.662  0.0117  0.8498 -0.1778
  444MPD2    C5 6617   1.225   1.761  16.776  0.6572 -0.9865  0.6791
  444MPD2     H 6618   0.977   1.496  16.661 -0.3070  0.0526  1.3569
  444MPD2    H1 6619   1.350   1.705  16.614  0.7100  1.0236  1.2833
  444MPD2    H2 6620   1.087   1.824  16.918 -0.3584 -1.0584  0.2449
  444MPD2    H3 6621   1.302   1.828  16.813  0.1048 -0.9332  1.7475
  444MPD2     N 6622   1.207   1.485  16.544  0.5577  0.3952 -0.1631
  444MPD2    H5 6623   1.139   1.414  16.519 -0.5794  0.9876  1.2257
  444MPD2    N1 6624   0.875   1.661  16.828  1.2607 -0.2218  0.2243
  444MPD2    H7 6625   0.817   1.585  16.795  0.8869  0.9571 -1.8209
  445TMC3    C1 6626   1.321   1.354  16.383 -0.0129 -0.2784 -0.0772
  445TMC3    C2 6627   1.205   1.302  16.351 -0.4307 -0.0219 -0.3430
  445TMC3    C3 6628   1.202   1.173  16.305  0.7815 -0.6725  0.1613
  445TMC3    C4 6629   1.439   1.280  16.380 -0.4034 -0.3897 -0.0336
  445TMC3    C5 6630   1.431   1.145  16.341  0.0583  0.2357 -0.4315
  445TMC3    C6 6631   1.309   1.090  16.298 -0.7202  0.1714  0.6817
  445TMC3     C 6632   1.325   1.465  16.480  0.8221  0.2712 -0.3108
  445TMC3     O 6633   1.427   1.523  16.502  0.0225 -0.4428 -0.1713
  445TMC3     H 6634   1.115   1.362  16.342 -0.2375 -0.0985 -2.9823
  445TMC3    H1 6635   1.533   1.314  16.422 -0.5495  0.3178 -0.2911
  445TMC3    H2 6636   1.299   0.997  16.244  1.4052 -0.2616  1.0280
  445TMC3    C7 6637   1.557   1.095  16.307 -0.0056  0.2234  0.2441
  445TMC3    C8 6638   1.071   1.120  16.285 -0.5626  0.0251 -0.3913
  445TMC3    O1 6639   1.663   1.163  16.313  0.8069 -0.3793 -0.0801
  445TMC3    O2 6640   0.973   1.197  16.267 -0.3489  0.0503  0.2216
  446MPD2     C 6641   0.568   3.088  11.270  0.3653 -0.6863  0.0161
  446MPD2    C1 6642   0.573   3.042  11.136  0.1100 -0.5577 -0.6360
  446MPD2    C2 6643   0.688   3.043  11.065  0.6598  0.3488 -0.0002
  446MPD2    C3 6644   0.810   3.091  11.118 -0.4498 -0.1387 -0.1423
  446MPD2    C4 6645   0.800   3.147  11.251 -0.5279  0.5178  0.5566
  446MPD2    C5 6646   0.685   3.146  11.328  0.2901  0.0005  0.1461
  446MPD2     H 6647   0.695   2.984  10.974  1.0800 -0.4432  0.5440
  446MPD2    H1 6648   0.886   3.181  11.308 -1.0838  1.4580  0.8315
  446MPD2    H2 6649   0.473   3.104  11.320  0.3386 -0.7027 -0.0293
  446MPD2    H3 6650   0.685   3.188  11.428 -0.7416  0.9158 -0.2386
  446MPD2     N 6651   0.933   3.074  11.049 -0.2663 -0.0982 -0.9335
  446MPD2    H5 6652   0.924   3.023  10.961 -0.7990 -1.5605 -0.0252
  446MPD2    N1 6653   0.462   2.984  11.073  0.5178 -0.4053 -0.2430
  446MPD2    H7 6654   0.479   2.939  10.984  1.7680  0.6654 -0.5604
  447TMC3    C1 6655   1.161   3.095  10.999 -0.0302 -0.3122  0.0561
  447TMC3    C2 6656   1.126   3.144  10.877 -0.8743 -0.5854  0.4805
  447TMC3    C3 6657   1.229   3.171  10.794  0.3190  0.2758  0.4439
  447TMC3    C4 6658   1.292   3.073  11.038 -0.0768 -0.4449 -0.1392
  447TMC3    C5 6659   1.388   3.086  10.942  0.1742 -0.4014 -0.0446
  447TMC3    C6 6660   1.357   3.133  10.820  0.2922 -0.4585  0.3510
  447TMC3     C 6661   1.061   3.092  11.105  0.3531 -0.0847  0.0757
  447TMC3     O 6662   1.101   3.104  11.222  0.3015 -0.3119  0.0916
  447TMC3     H 6663   1.023   3.165  10.849 -0.7715  0.7178  1.0838
  447TMC3    H1 6664   1.314   3.030  11.135 -0.7440 -1.3882 -0.4093
  447TMC3    H2 6665   1.438   3.145  10.749  1.2789 -2.6896  1.0964
  447TMC3    C7 6666   1.516   3.015  10.957  0.0754  0.3467 -0.5528
  447TMC3    C8 6667   1.192   3.170  10.653  0.0332  0.4030  0.0090
  447TMC3    O1 6668   1.584   2.996  10.855 -0.1576  0.1832  0.1769
  447TMC3    O2 6669   1.092   3.229  10.615 -0.0243  0.2009 -0.2168
  448TMC3    C1 6670   3.847   3.064  17.345  0.1480  0.4508  0.2459
  448TMC3    C2 6671   3.877   2.940  17.287  0.1688  0.0561 -0.1389
  448TMC3    C3 6672   3.807   2.825  17.327  0.2803  0.2563 -0.0887
  448TMC3    C4 6673   3.752   3.073  17.447 -0.0856  0.3773 -0.5203
  448TMC3    C5 6674   3.692   2.959  17.494  0.0519 -0.5901  0.5420
  448TMC3    C6 6675   3.716   2.835  17.430  0.2316 -0.1434 -0.0461
  448TMC3     C 6676   3.893   3.191  17.292 -0.7692 -0.3228 -0.3591
  448TMC3     O 6677   3.838   3.289  17.338 -0.3085  0.1247 -0.4272
  448TMC3     H 6678   3.949   2.944  17.205  0.1373 -0.8650 -0.2189
  448TMC3    H1 6679   3.744   3.171  17.493 -0.7501  0.7598 -1.4512
  448TMC3    H2 6680   3.676   2.741  17.467 -0.1035 -0.1248 -0.3573
  448TMC3    C7 6681   3.593   2.977  17.601  0.1556 -0.1473 -0.6614
  448TMC3    C8 6682   3.805   2.704  17.251 -0.0077 -0.2355 -0.4697
  448TMC3    O1 6683   3.549   3.088  17.629 -0.6967  0.2520  0.1152
  448TMC3    O2 6684   3.782   2.601  17.313  0.4879  0.0559  0.6471
  449MPD2     C 6685   0.736   1.543  13.471 -0.5560 -0.4554 -0.3586
  449MPD2    C1 6686   0.605   1.516  13.432  0.7972  0.0103  0.2912
  449MPD2    C2 6687   0.545   1.413  13.502 -0.3343 -0.2895 -0.1849
  449MPD2    C3 6688   0.618   1.329  13.591  0.1295  0.8071 -0.6812
  449MPD2    C4 6689   0.754   1.347  13.605 -0.3731 -1.2537  0.0303
  449MPD2    C5 6690   0.810   1.459  13.551 -0.1872  0.0962  0.4231
  449MPD2     H 6691   0.439   1.400  13.485 -0.0891 -1.5682 -0.7568
  449MPD2    H1 6692   0.808   1.270  13.659  2.6457  1.2244  0.5932
  449MPD2    H2 6693   0.800   1.623  13.434 -0.1279 -1.3441 -1.5512
  449MPD2    H3 6694   0.916   1.478  13.568 -0.4647  2.3858 -0.5341
  449MPD2     N 6695   0.550   1.220  13.656  0.1420  0.4887  0.0447
  449MPD2    H5 6696   0.448   1.216  13.649  0.2440 -0.5470 -0.8017
  449MPD2    N1 6697   0.521   1.600  13.356 -0.2915  0.1661  0.1348
  449MPD2    H7 6698   0.422   1.582  13.348 -0.4386 -0.4815  3.4753
  450TMC3    C1 6699   0.455   1.750  13.191  0.1104  0.4000  0.7800
  450TMC3    C2 6700   0.493   1.743  13.063 -0.6406 -0.4555 -0.3221
  450TMC3    C3 6701   0.406   1.684  12.974  0.5765 -0.4011  0.1398
  450TMC3    C4 6702   0.337   1.704  13.228  0.2378 -0.2318 -0.2010
  450TMC3    C5 6703   0.257   1.630  13.140  0.0902  0.5537 -0.2187
  450TMC3    C6 6704   0.285   1.624  13.006 -0.0404  0.2521  0.1615
  450TMC3     C 6705   0.566   1.703  13.277 -0.2623  0.4890 -0.0578
  450TMC3     O 6706   0.675   1.742  13.238  0.4244 -0.6295  0.2048
  450TMC3     H 6707   0.588   1.787  13.037  0.2968 -1.3430  1.6155
  450TMC3    H1 6708   0.320   1.737  13.329  0.2440 -1.6333  0.2581
  450TMC3    H2 6709   0.229   1.557  12.943 -0.0177 -0.2516  0.6798
  450TMC3    C7 6710   0.215   1.516  13.206  0.4021 -0.4477  0.1743
  450TMC3    C8 6711   0.465   1.624  12.851 -0.6038 -0.0008 -0.3400
  450TMC3    O1 6712   0.281   1.490  13.303  0.2926 -0.3582  0.1772
  450TMC3    O2 6713   0.390   1.585  12.762 -0.1155 -0.0931  0.1140
  451MPD2     C 6714   1.335   0.193   0.684  0.0570  0.5876 -0.5141
  451MPD2    C1 6715   1.260   0.142   0.788 -0.8240  0.0536  0.1357
  451MPD2    C2 6716   1.235   0.008   0.787  0.5482 -0.3606 -0.0682
  451MPD2    C3 6717   1.281   4.642   0.682  0.1654 -0.4597 -0.3780
  451MPD2    C4 6718   1.366   4.699   0.585  0.3049 -0.0296 -0.1420
  451MPD2    C5 6719   1.397   0.115   0.590 -0.0437  0.0365  0.5868
  451MPD2     H 6720   1.177   4.684   0.868 -1.4225  3.1802  0.4083
  451MPD2    H1 6721   1.411   4.643   0.504 -0.3322  1.0086 -1.2133
  451MPD2    H2 6722   1.346   0.300   0.672 -1.6244  0.6924 -1.0878
  451MPD2    H3 6723   1.455   0.157   0.509 -1.7221  2.4218  0.6315
  451MPD2     N 6724   1.257   4.508   0.676  0.1544  0.5203 -0.2836
  451MPD2    H5 6725   1.298   4.463   0.595 -0.9720  1.1211 -1.1978
  451MPD2    N1 6726   1.210   0.242   0.875  0.3296  0.0785 -0.0102
  451MPD2    H7 6727   1.244   0.336   0.859 -1.5343  0.8798  0.7670
  452TMC3    C1 6728   1.151   4.301   0.722 -0.5776 -0.1413 -0.8134
  452TMC3    C2 6729   1.142   4.228   0.835 -0.2302 -0.5292 -0.9747
  452TMC3    C3 6730   1.202   4.109   0.848 -0.4151 -0.5940 -0.0163
  452TMC3    C4 6731   1.218   4.250   0.615 -0.3662 -0.1435  0.6101
  452TMC3    C5 6732   1.259   4.116   0.627 -0.0518 -0.3033  0.4705
  452TMC3    C6 6733   1.263   4.047   0.745 -0.0496 -0.2256 -0.0472
  452TMC3     C 6734   1.163   4.441   0.749 -0.0379 -0.2165 -0.3023
  452TMC3     O 6735   1.096   4.481   0.846 -0.1036 -0.2538  0.6355
  452TMC3     H 6736   1.102   4.274   0.925 -1.8684 -0.7125 -1.6130
  452TMC3    H1 6737   1.210   4.290   0.514 -1.8112 -1.1943  0.3071
  452TMC3    H2 6738   1.311   3.950   0.755  0.7556  0.2786  0.9437
  452TMC3    C7 6739   1.361   4.085   0.524  0.3827  0.0111  0.1597
  452TMC3    C8 6740   1.149   4.027   0.951  0.1167  0.1092 -0.1368
  452TMC3    O1 6741   1.408   4.176   0.452  0.1240 -0.1319  0.2825
  452TMC3    O2 6742   1.105   4.089   1.048 -0.6117  0.6277  0.1611
  453TMC3    C1 6743   2.741   2.224  11.740  0.1952  0.0707 -0.1568
  453TMC3    C2 6744   2.624   2.157  11.768  0.1233 -0.2582 -0.6570
  453TMC3    C3 6745   2.525   2.163  11.675  0.2583  0.0899 -0.1093
  453TMC3    C4 6746   2.756   2.292  11.620  0.4953 -0.5205 -0.4408
  453TMC3    C5 6747   2.648   2.304  11.533  0.2826  0.1050 -0.0450
  453TMC3    C6 6748   2.531   2.248  11.566  0.1400  0.4351  0.5748
  453TMC3     C 6749   2.845   2.261  11.837 -0.2421 -0.3037 -0.6864
  453TMC3     O 6750   2.945   2.323  11.803  0.5981  0.2563  0.6542
  453TMC3     H 6751   2.619   2.098  11.859 -1.2918 -1.7699 -1.7089
  453TMC3    H1 6752   2.855   2.316  11.581  0.3981  2.0405  0.8961
  453TMC3    H2 6753   2.448   2.246  11.496  0.2343  0.5390  0.4607
  453TMC3    C7 6754   2.693   2.318  11.396  0.1511 -0.1697  0.1170
  453TMC3    C8 6755   2.444   2.043  11.658 -0.0676 -0.8047 -0.9874
  453TMC3    O1 6756   2.638   2.239  11.323  0.3201 -0.1962  0.4168
  453TMC3    O2 6757   2.340   2.049  11.593  0.4119 -0.1383  0.1224
  454MPD2     C 6758   1.867   1.545  15.956  0.5828  1.1210 -0.2549
  454MPD2    C1 6759   1.772   1.610  15.885 -0.3919 -0.2397 -0.5231
  454MPD2    C2 6760   1.720   1.730  15.932 -0.8383 -0.6020  0.2278
  454MPD2    C3 6761   1.745   1.775  16.061  0.0391 -0.6022 -0.6925
  454MPD2    C4 6762   1.844   1.715  16.128  0.0224 -0.1145 -0.4998
  454MPD2    C5 6763   1.904   1.592  16.081  0.0180 -0.2631 -0.1700
  454MPD2     H 6764   1.636   1.770  15.875 -0.3470  1.0676  0.6668
  454MPD2    H1 6765   1.868   1.745  16.230 -0.2448 -2.4555  0.2575
  454MPD2    H2 6766   1.905   1.452  15.916 -0.9112  0.3597  0.1298
  454MPD2    H3 6767   1.978   1.539  16.140  0.4527  0.6298  0.0864
  454MPD2     N 6768   1.651   1.861  16.131  0.4561 -0.4906  0.2909
  454MPD2    H5 6769   1.657   1.875  16.232  0.5099  3.4161 -0.2726
  454MPD2    N1 6770   1.710   1.562  15.765  0.7936  0.1965 -0.1595
  454MPD2    H7 6771   1.646   1.632  15.730  0.0031  0.2005  1.2457
  455TMC3    C1 6772   1.441   1.950  16.154  1.1710 -0.0846  0.0949
  455TMC3    C2 6773   1.472   1.975  16.283  0.7803  0.3453  0.1709
  455TMC3    C3 6774   1.402   1.911  16.379 -0.8273 -0.2360  0.2149
  455TMC3    C4 6775   1.337   1.863  16.120 -0.6573  0.2546 -1.1335
  455TMC3    C5 6776   1.258   1.804  16.215 -0.4304  0.0010 -0.6758
  455TMC3    C6 6777   1.295   1.832  16.345  0.3426 -0.8681  0.1679
  455TMC3     C 6778   1.552   1.927  16.063 -0.0784  0.5248 -0.0627
  455TMC3     O 6779   1.524   1.940  15.945 -0.5577  0.7398 -0.0267
  455TMC3     H 6780   1.532   2.064  16.300 -0.9360  1.3266  1.0446
  455TMC3    H1 6781   1.314   1.845  16.016 -1.4781  0.5548 -1.0070
  455TMC3    H2 6782   1.266   1.773  16.431  0.5685 -0.6971  0.3601
  455TMC3    C7 6783   1.240   1.666  16.191 -0.0728  0.5315  0.3960
  455TMC3    C8 6784   1.411   1.977  16.506 -0.2414  0.1424  0.3709
  455TMC3    O1 6785   1.134   1.619  16.217  0.4527 -0.0989 -0.5579
  455TMC3    O2 6786   1.518   2.017  16.550 -0.4150 -0.1527 -0.1677
  456MPD2     C 6787   4.062   1.565  16.287 -0.6524 -0.4345 -0.4103
  456MPD2    C1 6788   4.074   1.498  16.404 -0.6731 -0.3005  0.5556
  456MPD2    C2 6789   4.019   1.548  16.522 -0.6776  0.3685  0.1227
  456MPD2    C3 6790   3.960   1.670  16.519 -0.3140 -0.2759 -0.0801
  456MPD2    C4 6791   3.941   1.737  16.399  0.4109 -0.1966 -0.2303
  456MPD2    C5 6792   3.988   1.680  16.283 -0.2818  0.0808  0.7879
  456MPD2     H 6793   4.015   1.496  16.617 -0.3108  1.1386  0.5605
  456MPD2    H1 6794   3.904   1.839  16.396  0.4533 -0.0932  3.2794
  456MPD2    H2 6795   4.104   1.537  16.191 -0.5896  1.5484 -0.9826
  456MPD2    H3 6796   3.976   1.727  16.187  0.4305 -0.7029  0.3133
  456MPD2     N 6797   3.913   1.733  16.639  0.2844 -0.1129  0.1847
  456MPD2    H5 6798   3.939   1.684  16.724  0.0720 -0.4031  0.0833
  456MPD2    N1 6799   4.128   1.370  16.389  0.1048  0.1539  0.1396
  456MPD2    H7 6800   4.171   1.351  16.299 -3.1929  2.3662 -1.8996
  457TMC3    C1 6801   3.824   1.893  16.802  0.4039  0.0719 -0.3223
  457TMC3    C2 6802   3.807   2.023  16.835  0.7298 -0.3504 -0.3135
  457TMC3    C3 6803   3.809   2.065  16.964 -0.4177  0.4821  0.6376
  457TMC3    C4 6804   3.829   1.795  16.895 -0.4461  0.3685  0.4886
  457TMC3    C5 6805   3.832   1.840  17.023 -0.8660  0.1370 -0.4733
  457TMC3    C6 6806   3.825   1.971  17.062  0.8962 -0.8700 -0.0519
  457TMC3     C 6807   3.875   1.863  16.662  0.0082 -0.5057 -0.4992
  457TMC3     O 6808   3.863   1.958  16.585 -0.8461 -0.7767 -0.0891
  457TMC3     H 6809   3.794   2.095  16.755  2.7673 -1.0621 -1.2778
  457TMC3    H1 6810   3.825   1.692  16.863  1.6617  0.5462 -0.3852
  457TMC3    H2 6811   3.816   2.001  17.166 -1.4403 -0.9375 -0.2294
  457TMC3    C7 6812   3.828   1.741  17.118  0.8989  0.2187 -0.1478
  457TMC3    C8 6813   3.798   2.196  17.003  0.1431 -0.1308 -0.5830
  457TMC3    O1 6814   3.883   1.633  17.083 -0.4349 -0.3200  0.1063
  457TMC3    O2 6815   3.823   2.219  17.121 -0.5759  0.5612  0.4979
  458MPD2     C 6816   1.668   1.117  11.944  0.2117 -0.5076  0.0578
  458MPD2    C1 6817   1.707   1.100  12.076 -0.8600 -0.4892  0.5757
  458MPD2    C2 6818   1.607   1.082  12.177  0.5271  0.0359  0.3797
  458MPD2    C3 6819   1.468   1.081  12.145  0.3529 -0.0870 -0.5687
  458MPD2    C4 6820   1.435   1.095  12.011  0.4035  0.0247 -0.3071
  458MPD2    C5 6821   1.537   1.108  11.915 -0.5364 -0.4312  0.1194
  458MPD2     H 6822   1.640   1.068  12.279 -0.2549  0.2254  0.6606
  458MPD2    H1 6823   1.338   1.081  11.965  1.3851  0.0192 -2.3755
  458MPD2    H2 6824   1.736   1.125  11.861  0.6486 -0.9173  0.3770
  458MPD2    H3 6825   1.507   1.101  11.811 -1.3080  0.4662  0.2799
  458MPD2     N 6826   1.380   1.053  12.245  0.2827 -0.3529  0.3772
  458MPD2    H5 6827   1.411   1.030  12.339  0.1350  0.3326  0.5961
  458MPD2    N1 6828   1.843   1.097  12.112  0.2293 -0.6110 -0.6411
  458MPD2    H7 6829   1.911   1.120  12.040 -0.0938 -0.2293 -0.8249
  459TMC3    C1 6830   2.026   1.051  12.258  0.3808  0.5410  0.3235
  459TMC3    C2 6831   2.096   1.163  12.217  0.3020 -0.4620 -0.0513
  459TMC3    C3 6832   2.196   1.199  12.301  0.4252 -0.4564  0.0835
  459TMC3    C4 6833   2.051   0.982  12.375 -0.2399 -0.1707 -0.0745
  459TMC3    C5 6834   2.159   1.018  12.451 -0.1159 -0.5552 -0.6924
  459TMC3    C6 6835   2.232   1.130  12.417 -0.1840 -0.1795  0.1619
  459TMC3     C 6836   1.888   1.029  12.217  0.0122 -0.1927 -0.9429
  459TMC3     O 6837   1.824   0.948  12.283  0.1237 -0.6663  0.1255
  459TMC3     H 6838   2.086   1.201  12.116 -0.3147 -1.1939 -0.2620
  459TMC3    H1 6839   1.989   0.901  12.410 -0.7886  0.0959 -0.4392
  459TMC3    H2 6840   2.322   1.167  12.465  0.1452  0.7450 -1.1578
  459TMC3    C7 6841   2.165   0.958  12.585  0.2346  0.0331 -0.0037
  459TMC3    C8 6842   2.297   1.296  12.259  0.4723  0.7425  0.2536
  459TMC3    O1 6843   2.105   0.850  12.600  0.3710 -0.3122  0.0742
  459TMC3    O2 6844   2.417   1.284  12.290 -0.4214  0.0580 -0.8752
  460MPD2     C 6845   1.415   3.063  10.384 -0.5728  0.5100  0.0876
  460MPD2    C1 6846   1.303   3.123  10.435  0.1227 -0.4741  0.2328
  460MPD2    C2 6847   1.204   3.175  10.353  0.1737  0.6840 -0.3058
  460MPD2    C3 6848   1.228   3.164  10.214  0.0733  0.2220 -0.5958
  460MPD2    C4 6849   1.341   3.104  10.160  0.4008  0.4146  0.6865
  460MPD2    C5 6850   1.432   3.058  10.250  0.0251 -0.0765 -0.3076
  460MPD2     H 6851   1.113   3.224  10.385 -0.2479  0.8977 -1.8683
  460MPD2    H1 6852   1.358   3.102  10.053 -1.5723  0.2830  0.3679
  460MPD2    H2 6853   1.494   3.028  10.450 -0.2468  1.8689  0.4233
  460MPD2    H3 6854   1.528   3.027  10.210 -0.2289 -0.4905 -0.5978
  460MPD2     N 6855   1.124   3.219  10.131  0.0793 -0.3376 -0.1394
  460MPD2    H5 6856   1.047   3.268  10.176  0.9293  0.6794  0.2174
  460MPD2    N1 6857   1.289   3.114  10.576  0.3742  0.3503 -0.1401
  460MPD2    H7 6858   1.366   3.066  10.622  0.9262  2.9634  1.6495
  461TMC3    C1 6859   0.989   3.242   9.938 -0.0230  0.3609 -0.1711
  461TMC3    C2 6860   0.929   3.175   9.834  0.3501  0.0212 -0.0726
  461TMC3    C3 6861   0.809   3.227   9.784  0.8082  0.8346  0.0840
  461TMC3    C4 6862   0.933   3.354   9.992 -0.5402  0.5815 -0.3114
  461TMC3    C5 6863   0.803   3.390   9.949 -0.1798  0.2966 -0.3318
  461TMC3    C6 6864   0.748   3.331   9.836 -0.2807  0.4565  0.4822
  461TMC3     C 6865   1.108   3.188  10.003  0.3452 -0.2292  0.2165
  461TMC3     O 6866   1.160   3.096   9.942 -0.5120 -0.1848 -0.2786
  461TMC3     H 6867   0.969   3.087   9.784 -0.0898 -0.1578 -0.1110
  461TMC3    H1 6868   0.996   3.408  10.064 -1.0897 -0.5112  0.9855
  461TMC3    H2 6869   0.668   3.382   9.783 -0.5270  1.4103  1.7928
  461TMC3    C7 6870   0.764   3.530   9.979 -0.1525 -0.2294 -0.9034
  461TMC3    C8 6871   0.750   3.158   9.676 -0.0155 -0.5804 -0.0383
  461TMC3    O1 6872   0.686   3.577   9.895  0.5436 -0.0231  0.0050
  461TMC3    O2 6873   0.821   3.101   9.593 -0.2177  0.0532 -0.2705
  462TMC3    C1 6874   0.736   3.556  17.672  0.4091 -0.1624 -0.4425
  462TMC3    C2 6875   0.765   3.570  17.540  0.5021  0.5186  0.2379
  462TMC3    C3 6876   0.667   3.557  17.450 -0.6158 -0.3169  0.0445
  462TMC3    C4 6877   0.607   3.547   0.036  0.7146 -0.4799 -0.5555
  462TMC3    C5 6878   0.506   3.552  17.623 -0.3468  0.2952  0.4334
  462TMC3    C6 6879   0.537   3.561  17.487 -0.2831 -0.2043 -0.6903
  462TMC3     C 6880   0.832   3.544   0.099  0.4434  0.7694  0.0662
  462TMC3     O 6881   0.782   3.544   0.214 -0.0768  0.4608 -0.6152
  462TMC3     H 6882   0.870   3.580  17.513  0.5466 -0.5131  0.0243
  462TMC3    H1 6883   0.574   3.512   0.133 -2.6402 -1.9965 -2.2309
  462TMC3    H2 6884   0.458   3.541  17.416 -0.9879  1.6159 -0.4042
  462TMC3    C7 6885   0.368   3.528  17.648  0.6713 -0.0952 -0.1111
  462TMC3    C8 6886   0.690   3.546  17.302  0.0727 -0.8905 -0.0512
  462TMC3    O1 6887   0.302   3.479  17.553 -0.0851 -0.1575 -0.0670
  462TMC3    O2 6888   0.595   3.573  17.229  0.0815 -0.3518  0.5080
  463MPD2     C 6889   1.623   3.097   1.051  0.4766  0.3221  0.6402
  463MPD2    C1 6890   1.612   2.956   1.043  0.3359  0.0798 -0.3644
  463MPD2    C2 6891   1.714   2.886   0.987 -0.3106  0.2175  0.0359
  463MPD2    C3 6892   1.831   2.949   0.938  0.0835 -0.0218  0.1046
  463MPD2    C4 6893   1.835   3.087   0.937  0.1804 -0.2579 -0.1073
  463MPD2    C5 6894   1.737   3.158   0.993 -0.0632  0.1329 -0.4445
  463MPD2     H 6895   1.706   2.778   0.990 -0.0926  0.1976 -0.1403
  463MPD2    H1 6896   1.922   3.144   0.906 -0.9296  1.1043 -0.7259
  463MPD2    H2 6897   1.552   3.163   1.099  0.6937  0.5113  0.7047
  463MPD2    H3 6898   1.739   3.267   0.998 -0.4846  0.1163  0.0837
  463MPD2     N 6899   1.942   2.874   0.883  0.3283  0.2183  0.2148
  463MPD2    H5 6900   2.024   2.930   0.863 -0.6778  2.2634  1.8348
  463MPD2    N1 6901   1.503   2.885   1.089 -0.0521  0.7707  0.6470
  463MPD2    H7 6902   1.514   2.784   1.080 -1.7584  0.4969  1.6390
  464TMC3    C1 6903   1.286   2.850   1.192  0.1725  0.1761 -0.7933
  464TMC3    C2 6904   1.160   2.899   1.204  1.2138  0.3035 -0.7103
  464TMC3    C3 6905   1.055   2.814   1.238  0.1416 -0.5842  0.2475
  464TMC3    C4 6906   1.317   2.718   1.218  0.4046 -0.3782 -0.2186
  464TMC3    C5 6907   1.213   2.640   1.255  0.0714  0.1356 -0.3953
  464TMC3    C6 6908   1.080   2.682   1.268 -0.3216  0.1435  0.2286
  464TMC3     C 6909   1.387   2.941   1.137  0.5281 -0.6764  0.8853
  464TMC3     O 6910   1.341   3.052   1.128  0.1956 -0.2290 -0.1520
  464TMC3     H 6911   1.136   3.001   1.180  1.1404  0.4430 -0.0527
  464TMC3    H1 6912   1.417   2.679   1.207  1.2429  1.4958  0.6578
  464TMC3    H2 6913   1.009   2.612   1.309  0.3953 -1.1167 -0.6952
  464TMC3    C7 6914   1.247   2.500   1.276 -0.1485 -0.1202 -0.2025
  464TMC3    C8 6915   0.928   2.866   1.190 -0.0543  0.5826 -0.4315
  464TMC3    O1 6916   1.352   2.467   1.333 -0.2530 -0.2234 -1.1737
  464TMC3    O2 6917   0.917   2.967   1.119 -0.3849 -0.0410 -0.0581
  465MPD2     C 6918   3.465   1.082  16.487 -0.2165  0.4781 -0.9082
  465MPD2    C1 6919   3.351   1.056  16.561 -0.5641 -0.7263 -0.7863
  465MPD2    C2 6920   3.242   1.130  16.534  0.4184  0.4023 -0.0021
  465MPD2    C3 6921   3.242   1.238  16.451  0.3353  0.2028 -0.2465
  465MPD2    C4 6922   3.349   1.258  16.371 -0.5539 -0.8954 -0.0316
  465MPD2    C5 6923   3.458   1.178  16.388 -0.1331  0.7136  0.2315
  465MPD2     H 6924   3.158   1.120  16.602  0.8517  0.2227  0.5093
  465MPD2    H1 6925   3.360   1.336  16.296  0.8632 -1.6629 -0.6185
  465MPD2    H2 6926   3.559   1.031  16.502 -1.1243 -0.9910 -0.1585
  465MPD2    H3 6927   3.544   1.194  16.324 -0.1322  0.8002  0.2546
  465MPD2     N 6928   3.132   1.321  16.446  0.6607  0.1309  1.2288
  465MPD2    H5 6929   3.066   1.305  16.521 -0.6536 -0.2362 -0.0076
  465MPD2    N1 6930   3.347   0.962  16.665  0.3042 -0.1222  0.4382
  465MPD2    H7 6931   3.255   0.958  16.707 -0.3232  2.5275 -0.7186
  466TMC3    C1 6932   2.830   1.560  16.582  0.2167 -0.4938  0.1259
  466TMC3    C2 6933   2.805   1.682  16.530  0.9723 -0.0694  0.1512
  466TMC3    C3 6934   2.878   1.712  16.419 -0.0159 -0.1863  0.6570
  466TMC3    C4 6935   2.922   1.473  16.534  0.0145 -0.3374  0.4054
  466TMC3    C5 6936   2.978   1.502  16.413 -0.0941  0.2680 -0.4106
  466TMC3    C6 6937   2.961   1.623  16.355 -0.6532  0.0381 -0.0811
  466TMC3     C 6938   2.767   1.513  16.705 -0.7993 -0.3466  0.0781
  466TMC3     O 6939   2.837   1.447  16.782 -0.3726 -0.3197 -0.1829
  466TMC3     H 6940   2.729   1.744  16.577 -1.0115 -0.3467 -2.6414
  466TMC3    H1 6941   2.936   1.385  16.595 -0.3018 -0.2184  0.6530
  466TMC3    H2 6942   3.015   1.653  16.266  0.8619 -3.2542 -0.2852
  466TMC3    C7 6943   3.103   1.434  16.374 -0.6775  0.2335  0.1570
  466TMC3    C8 6944   2.867   1.845  16.363 -0.7676  0.2401 -0.0321
  466TMC3    O1 6945   3.174   1.479  16.285  0.2085 -0.4562 -0.3571
  466TMC3    O2 6946   2.886   1.867  16.243 -0.3562  0.2857  0.4089
  467TMC3    C1 6947   3.768   0.232  13.709 -0.1610 -1.4352 -0.2802
  467TMC3    C2 6948   3.736   0.258  13.579 -0.3306 -0.3717 -0.4595
  467TMC3    C3 6949   3.604   0.234  13.545  0.0797  0.0228 -0.2101
  467TMC3    C4 6950   3.683   0.192  13.805  0.0235  0.0944  0.3864
  467TMC3    C5 6951   3.555   0.167  13.760  0.5539  0.5221  0.2347
  467TMC3    C6 6952   3.516   0.184  13.631 -0.1852 -0.3187 -0.8082
  467TMC3     C 6953   3.910   0.259  13.744  0.3924 -0.2382 -0.7559
  467TMC3     O 6954   3.928   0.331  13.838  0.0454  0.3459 -0.4948
  467TMC3     H 6955   3.799   0.324  13.521 -0.5197  2.4987  2.5767
  467TMC3    H1 6956   3.717   0.173  13.906  1.1258 -0.5363 -0.1061
  467TMC3    H2 6957   3.413   0.170  13.599 -0.0243  0.9095 -1.8702
  467TMC3    C7 6958   3.470   0.073  13.832 -0.1529  0.3368 -0.0069
  467TMC3    C8 6959   3.553   0.285  13.414 -0.3373 -0.1512  0.0343
  467TMC3    O1 6960   3.384   0.020  13.761 -0.3251 -0.1044 -1.0344
  467TMC3    O2 6961   3.440   0.325  13.424 -0.6348  1.2340  0.1782
  468MPD2     C 6962   2.590   3.314  10.262  0.4832 -0.0885 -0.0915
  468MPD2    C1 6963   2.720   3.305  10.312  0.3400  0.9951  0.6769
  468MPD2    C2 6964   2.778   3.181  10.328 -0.0219 -0.8948  0.1789
  468MPD2    C3 6965   2.708   3.066  10.311 -0.1598  0.0933  0.9069
  468MPD2    C4 6966   2.578   3.079  10.272 -0.4091  0.0356 -0.2504
  468MPD2    C5 6967   2.518   3.195  10.244 -0.2133  0.7171  0.1588
  468MPD2     H 6968   2.878   3.173  10.370  0.4086  2.2041 -0.2931
  468MPD2    H1 6969   2.519   2.990  10.258 -1.4184  0.5654  0.6003
  468MPD2    H2 6970   2.543   3.407  10.235 -0.4775 -0.9158 -1.2355
  468MPD2    H3 6971   2.415   3.205  10.213 -0.6864 -0.3652  1.3661
  468MPD2     N 6972   2.768   2.937  10.339  0.6143 -0.0643  0.2191
  468MPD2    H5 6973   2.696   2.866  10.332  1.1574 -0.7009  1.1484
  468MPD2    N1 6974   2.792   3.419  10.365  0.3284 -0.6413 -0.6441
  468MPD2    H7 6975   2.885   3.402  10.404  0.6077  0.1877 -0.9503
  469TMC3    C1 6976   2.826   3.647  10.435 -0.6581 -0.1333  0.3449
  469TMC3    C2 6977   2.962   3.641  10.413  0.6031  0.3017  0.7214
  469TMC3    C3 6978   3.043   3.716  10.491  0.6532  0.1811  0.6083
  469TMC3    C4 6979   2.778   3.747  10.512  0.0797  0.2932  0.4447
  469TMC3    C5 6980   2.862   3.818  10.592  0.2890  0.1234  0.0338
  469TMC3    C6 6981   2.998   3.789  10.594 -0.4157  0.2961  0.0807
  469TMC3     C 6982   2.736   3.546  10.384 -1.0092 -0.0518 -0.9322
  469TMC3     O 6983   2.617   3.577  10.371  1.1558 -0.4790 -0.0579
  469TMC3     H 6984   3.013   3.563  10.358 -1.0498 -1.9860  2.4405
  469TMC3    H1 6985   2.671   3.764  10.509 -0.0924 -0.4117  2.6006
  469TMC3    H2 6986   3.070   3.846  10.652 -0.9814  0.3759  0.7035
  469TMC3    C7 6987   2.810   3.886  10.705  0.2294 -0.2671  0.3755
  469TMC3    C8 6988   3.181   3.672  10.484  0.3222 -0.6435 -0.1502
  469TMC3    O1 6989   2.692   3.917  10.699  0.4834  0.4979  0.3757
  469TMC3    O2 6990   3.234   3.645  10.376 -0.2140  0.1964 -0.3302
  470TMC3    C1 6991   0.784   3.841   0.713  0.9953 -0.4423 -0.1735
  470TMC3    C2 6992   0.798   3.938   0.812 -0.1321  0.0078 -0.3085
  470TMC3    C3 6993   0.732   3.913   0.923  0.3534 -0.1768  0.2037
  470TMC3    C4 6994   0.703   3.729   0.725  0.2932  0.0658  0.6738
  470TMC3    C5 6995   0.647   3.706   0.836  0.1563 -0.2715  0.2076
  470TMC3    C6 6996   0.648   3.806   0.935  0.3642  0.2908 -0.4281
  470TMC3     C 6997   0.880   3.831   0.598  0.5255  0.6204  0.2782
  470TMC3     O 6998   0.893   3.725   0.535 -0.7929  0.0811 -0.1172
  470TMC3     H 6999   0.881   4.006   0.825 -1.1827  1.2847 -0.2280
  470TMC3    H1 7000   0.695   3.660   0.642 -0.5169  0.4727  0.4073
  470TMC3    H2 7001   0.593   3.802   1.027 -0.3541  1.5700 -0.8020
  470TMC3    C7 7002   0.530   3.627   0.825 -0.0409  0.8586  0.1283
  470TMC3    C8 7003   0.681   4.027   1.012 -0.3590  0.6794 -0.1451
  470TMC3    O1 7004   0.509   3.578   0.716 -0.0113  0.0986 -0.6911
  470TMC3    O2 7005   0.603   4.008   1.102 -0.6508  0.2015  0.2229
  471MPD2     C 7006   0.547   0.439  16.395 -0.1037  0.1145 -0.3755
  471MPD2    C1 7007   0.680   0.388  16.391  0.1338 -0.2990 -0.5209
  471MPD2    C2 7008   0.741   0.367  16.511 -0.6882  0.6412  0.2976
  471MPD2    C3 7009   0.688   0.413  16.633 -0.4543  0.5974  0.3051
  471MPD2    C4 7010   0.559   0.458  16.634  0.0275 -0.2984 -0.1637
  471MPD2    C5 7011   0.491   0.474  16.518 -0.4721  0.2743 -0.1178
  471MPD2     H 7012   0.840   0.322  16.508 -0.3690  1.4405 -1.1391
  471MPD2    H1 7013   0.502   0.472  16.725 -0.4424  0.4198 -0.5718
  471MPD2    H2 7014   0.489   0.453  16.305  2.1024  2.7858 -1.3521
  471MPD2    H3 7015   0.391   0.516  16.519 -0.8506 -0.6632  1.7821
  471MPD2     N 7016   0.750   0.384  16.761 -0.7116 -0.5184  0.0729
  471MPD2    H5 7017   0.706   0.420  16.845 -0.4106  0.8983 -0.3764
  471MPD2    N1 7018   0.740   0.345  16.272 -0.2042 -0.3127  0.2826
  471MPD2    H7 7019   0.837   0.313  16.278  0.5251  1.4308 -2.0073
  472TMC3    C1 7020   0.761   0.240  16.073  0.4527  0.2326 -0.6727
  472TMC3    C2 7021   0.730   0.228  15.942  0.0950  0.4629  0.9831
  472TMC3    C3 7022   0.744   0.109  15.877 -0.1187  0.0534  0.0640
  472TMC3    C4 7023   0.824   0.132  16.142 -0.2615 -0.3538 -0.1525
  472TMC3    C5 7024   0.848   0.016  16.071 -0.3158  0.4996  0.0136
  472TMC3    C6 7025   0.813   0.002  15.943  1.2082  0.1876 -0.3320
  472TMC3     C 7026   0.682   0.334  16.147  0.3065  0.7027 -0.5215
  472TMC3     O 7027   0.576   0.373  16.107  0.2438  0.7859 -0.2545
  472TMC3     H 7028   0.689   0.315  15.893  2.7086  0.1489 -1.7651
  472TMC3    H1 7029   0.851   0.130  16.246 -2.3097  1.0781  0.4035
  472TMC3    H2 7030   0.830   4.631  15.886 -0.4438 -0.3887  0.0734
  472TMC3    C7 7031   0.812   4.633  16.153  0.7622 -0.8020 -0.2455
  472TMC3    C8 7032   0.618   0.062  15.823 -0.2437 -0.2684  0.0040
  472TMC3    O1 7033   0.867   4.614  16.259  0.6705  0.2667 -0.1195
  472TMC3    O2 7034   0.589   4.666  15.860  0.2919 -0.3835 -0.0398
  473MPD2     C 7035   0.684   2.473  13.883  0.3722  0.2141  0.0418
  473MPD2    C1 7036   0.774   2.568  13.849 -0.5914 -0.2958  0.3108
  473MPD2    C2 7037   0.838   2.631  13.949  0.5996  0.2598 -0.0525
  473MPD2    C3 7038   0.793   2.625  14.086  0.5831  0.4272 -0.1464
  473MPD2    C4 7039   0.686   2.541  14.110  0.0606 -0.3505  0.1930
  473MPD2    C5 7040   0.643   2.462  14.010  0.4625 -0.2817  0.3578
  473MPD2     H 7041   0.888   2.724  13.925  3.4845 -1.2155  0.2754
  473MPD2    H1 7042   0.638   2.533  14.207 -0.7786 -2.5404 -0.4035
  473MPD2    H2 7043   0.635   2.404  13.815  0.1168  0.9206 -0.4925
  473MPD2    H3 7044   0.568   2.388  14.037 -0.5757  0.0789 -1.6057
  473MPD2     N 7045   0.852   2.706  14.183  1.1915  0.2111  0.2143
  473MPD2    H5 7046   0.806   2.715  14.273  0.2521  2.1238 -0.4627
  473MPD2    N1 7047   0.784   2.608  13.714 -0.1591 -0.0264 -0.1410
  473MPD2    H7 7048   0.845   2.687  13.696 -0.9474  0.1306 -2.2073
  474TMC3    C1 7049   0.986   2.854  14.298  0.7476  0.1562 -0.2201
  474TMC3    C2 7050   0.869   2.895  14.364 -0.0284  1.0786  0.0743
  474TMC3    C3 7051   0.897   3.001  14.461 -0.1731 -0.6157 -0.3537
  474TMC3    C4 7052   1.114   2.901  14.318  0.3403 -0.6636 -0.2567
  474TMC3    C5 7053   1.121   2.986  14.426 -0.4727  0.2681 -0.6014
  474TMC3    C6 7054   1.022   3.046  14.491 -0.0746 -0.3876 -0.4140
  474TMC3     C 7055   0.974   2.765  14.180  0.3388  0.0922  0.0929
  474TMC3     O 7056   1.063   2.748  14.096  0.0798  0.0937 -0.0826
  474TMC3     H 7057   0.770   2.865  14.332 -1.1007  0.2324  4.1511
  474TMC3    H1 7058   1.201   2.865  14.265  0.8054 -0.8040  0.5951
  474TMC3    H2 7059   1.050   3.129  14.555 -2.7945 -0.2609  0.5998
  474TMC3    C7 7060   1.254   2.986  14.484  0.1757 -0.8334 -0.1481
  474TMC3    C8 7061   0.787   3.098  14.465  0.0408 -0.4380 -0.0809
  474TMC3    O1 7062   1.348   2.971  14.401 -0.2115  0.0579  0.2706
  474TMC3    O2 7063   0.678   3.049  14.480  0.1287  0.1655 -0.1437
  475MPD2     C 7064   4.264   0.866  10.228  0.2015 -0.6416  0.4654
  475MPD2    C1 7065   4.292   1.001  10.247  0.1643 -0.1766  0.4863
  475MPD2    C2 7066   4.186   1.077  10.299  0.2113  0.0896  0.0515
  475MPD2    C3 7067   4.066   1.014  10.333 -0.3353  0.7007  0.1193
  475MPD2    C4 7068   4.052   0.881  10.332  0.3459  0.0828  0.2454
  475MPD2    C5 7069   4.153   0.813  10.281  0.3779  0.6387 -0.5946
  475MPD2     H 7070   4.199   1.183  10.317 -1.4775 -0.2010  3.0350
  475MPD2    H1 7071   3.967   0.825  10.369 -0.0177  1.8351  2.0496
  475MPD2    H2 7072   4.343   0.803  10.187 -1.1914 -1.3465 -1.1136
  475MPD2    H3 7073   4.150   0.704  10.280  2.1430  0.5730  1.1787
  475MPD2     N 7074   3.961   1.088  10.391  0.1522  0.1738  0.2905
  475MPD2    H5 7075   3.973   1.185  10.418  1.9831 -0.2880  1.1303
  475MPD2    N1 7076   4.406   1.070  10.209 -0.2273  0.5339  0.3184
  475MPD2    H7 7077   4.407   1.168  10.234  0.1615  0.8529 -0.9379
  476TMC3    C1 7078   4.570   1.127  10.062 -0.6285 -0.0159  0.5279
  476TMC3    C2 7079   4.488   1.130   9.951  0.6157  0.0698 -0.0558
  476TMC3    C3 7080   4.468   1.254   9.900 -0.0956 -0.2949  0.3509
  476TMC3    C4 7081   4.628   1.241  10.115 -0.0002  0.3326  0.1818
  476TMC3    C5 7082   4.611   1.361  10.052  0.0805  0.5213 -0.7049
  476TMC3    C6 7083   4.534   1.360   9.943  0.2675 -0.7013  0.1784
  476TMC3     C 7084   4.519   1.019  10.147  1.0697 -0.0634 -0.4668
  476TMC3     O 7085   4.545   0.905  10.111 -0.0514 -0.5551 -0.0606
  476TMC3     H 7086   4.440   1.035   9.928  1.5684 -0.1267 -1.2374
  476TMC3    H1 7087   4.681   1.243  10.210 -0.1966  0.8409  0.2778
  476TMC3    H2 7088   4.516   1.458   9.900 -1.8387 -0.6583  1.1659
  476TMC3    C7 7089   4.664   1.485  10.097 -0.2952 -0.2361  0.3475
  476TMC3    C8 7090   4.338   1.274   9.846 -0.5952  0.0753  0.6508
  476TMC3    O1 7091   4.702   1.565  10.017 -1.0557  0.4778 -0.0978
  476TMC3    O2 7092   4.312   1.377   9.786 -0.5123  0.5002  0.2852
  477MPD2     C 7093   1.847   2.721  11.729  0.0256 -0.6111 -0.0643
  477MPD2    C1 7094   1.773   2.623  11.677 -0.3963  0.0239 -0.2347
  477MPD2    C2 7095   1.783   2.490  11.717 -0.3845  0.3590  0.2276
  477MPD2    C3 7096   1.881   2.456  11.806  0.7909 -0.5451 -0.9392
  477MPD2    C4 7097   1.966   2.552  11.853  0.0467  0.3977 -0.7758
  477MPD2    C5 7098   1.950   2.685  11.815  0.3525 -0.2255  0.1137
  477MPD2     H 7099   1.717   2.414  11.677 -0.7041  2.1047 -2.5047
  477MPD2    H1 7100   2.040   2.529  11.929 -2.9257 -0.6850  1.8318
  477MPD2    H2 7101   1.831   2.826  11.708 -0.9894 -0.5086  1.2171
  477MPD2    H3 7102   2.012   2.766  11.851  1.5405 -2.4070  2.9741
  477MPD2     N 7103   1.879   2.317  11.845  0.2931 -0.5982  0.4797
  477MPD2    H5 7104   1.813   2.259  11.796 -0.6891 -1.6329  3.0189
  477MPD2    N1 7105   1.672   2.673  11.594  0.7801  0.4936 -0.3621
  477MPD2    H7 7106   1.652   2.772  11.596  1.7474  0.6600  0.7652
  478TMC3    C1 7107   1.488   2.666  11.439 -0.9182  0.1182 -0.3434
  478TMC3    C2 7108   1.434   2.769  11.502  0.0193  0.2575 -0.0670
  478TMC3    C3 7109   1.329   2.839  11.434  0.1289 -0.5044 -0.7620
  478TMC3    C4 7110   1.437   2.620  11.318 -0.6973  0.0642  0.2359
  478TMC3    C5 7111   1.342   2.694  11.257 -0.0416  0.0532 -0.5447
  478TMC3    C6 7112   1.284   2.806  11.311 -0.2867  0.3519 -0.0202
  478TMC3     C 7113   1.591   2.597  11.518  0.1308  0.1169  0.5860
  478TMC3     O 7114   1.619   2.480  11.476  0.0681 -0.2662 -0.2105
  478TMC3     H 7115   1.464   2.787  11.605  0.2952 -0.9407  0.0571
  478TMC3    H1 7116   1.475   2.532  11.268 -0.7803  1.0563 -1.5819
  478TMC3    H2 7117   1.204   2.856  11.259 -0.9577 -0.9656 -0.2527
  478TMC3    C7 7118   1.366   2.698  11.112  0.1513 -0.0748 -0.8659
  478TMC3    C8 7119   1.247   2.912  11.524  0.6991  0.6426  0.1204
  478TMC3    O1 7120   1.475   2.661  11.080  0.3338 -0.4614 -0.4287
  478TMC3    O2 7121   1.270   2.881  11.639  0.0832  0.3779  0.0033
  479MPD2     C 7122   0.597   0.027  14.951  0.0818 -0.2765 -0.1862
  479MPD2    C1 7123   0.548   4.661  15.045 -0.1919  0.0293  0.5077
  479MPD2    C2 7124   0.601   4.661  15.173 -0.1701  0.6148 -0.3192
  479MPD2    C3 7125   0.711   0.024  15.207  0.0365  0.2420 -0.1259
  479MPD2    C4 7126   0.769   0.096  15.110 -0.9380  0.4127 -0.8954
  479MPD2    C5 7127   0.703   0.101  14.992  0.1685  0.0797  0.3964
  479MPD2     H 7128   0.558   4.594  15.246  1.9670 -1.9587 -1.4474
  479MPD2    H1 7129   0.852   0.163  15.130  0.2823 -0.1615 -4.1554
  479MPD2    H2 7130   0.558   0.043  14.851 -0.7132  0.6256  0.2655
  479MPD2    H3 7131   0.756   0.169  14.926 -1.3147 -0.4409 -1.3243
  479MPD2     N 7132   0.776   0.048  15.331  0.3403  0.1661 -0.0967
  479MPD2    H5 7133   0.863   0.100  15.326  1.2294 -1.1327  1.4016
  479MPD2    N1 7134   0.430   4.585  15.011  0.0112  0.4137 -0.4591
  479MPD2    H7 7135   0.389   4.600  14.919 -1.4724 -0.0187  0.1497
  480TMC3    C1 7136   0.425   4.582  15.581 -0.1010 -0.1717 -0.7638
  480TMC3    C2 7137   0.323   4.649  15.513 -0.6385  0.2182 -0.4549
  480TMC3    C3 7138   0.363   0.038  15.441  0.5051 -0.2561 -0.3722
  480TMC3    C4 7139   0.557   4.604  15.558 -0.7537 -0.4039  0.1496
  480TMC3    C5 7140   0.594   4.700  15.471 -0.5591 -0.0901 -0.3937
  480TMC3    C6 7141   0.495   0.066  15.410 -0.5630 -0.5156  0.1837
  480TMC3     C 7142   0.397   4.455  15.649 -0.6854  0.2323  0.2389
  480TMC3     O 7143   0.490   4.376  15.658  0.1336  0.2494  0.2740
  480TMC3     H 7144   0.221   4.616  15.525  0.2562 -2.8735 -1.3254
  480TMC3    H1 7145   0.640   4.548  15.599  0.5480  1.4794  0.1312
  480TMC3    H2 7146   0.526   0.154  15.354 -1.3088  0.5059  1.3666
  480TMC3    C7 7147   0.736   4.714  15.450  0.4774 -0.0578  0.3159
  480TMC3    C8 7148   0.258   0.075  15.346 -0.4494  0.2293  0.5479
  480TMC3    O1 7149   0.803   4.713  15.554  0.6714  0.5431 -0.0500
  480TMC3    O2 7150   0.145   0.037  15.376  0.3225 -0.0554  0.3216
  481MPD2     C 7151   2.111   4.383  14.525  0.2626 -0.3593 -0.4922
  481MPD2    C1 7152   1.992   4.314  14.522  0.1365 -0.8683 -0.2985
  481MPD2    C2 7153   1.923   4.289  14.641 -0.2207 -0.0943  0.1433
  481MPD2    C3 7154   1.963   4.356  14.756  0.4526 -0.7501  0.1104
  481MPD2    C4 7155   2.077   4.429  14.761 -0.2514 -0.2783 -0.4578
  481MPD2    C5 7156   2.158   4.432  14.644 -0.5657 -0.7229 -0.1357
  481MPD2     H 7157   1.839   4.220  14.639  1.1940 -1.7909 -0.9122
  481MPD2    H1 7158   2.123   4.474  14.849 -0.0305  1.1422 -1.2955
  481MPD2    H2 7159   2.168   4.403  14.435  0.1144  1.1896 -0.2414
  481MPD2    H3 7160   2.255   4.481  14.647 -1.0093  0.1212  0.6478
  481MPD2     N 7161   1.893   4.338  14.884 -0.0632 -0.0424  0.2336
  481MPD2    H5 7162   1.944   4.366  14.967  0.8474 -1.4360  0.1483
  481MPD2    N1 7163   1.940   4.264  14.401  0.1144  0.5924  0.8768
  481MPD2    H7 7164   1.974   4.319  14.322  4.5885 -0.8979  1.7761
  482TMC3    C1 7165   1.778   4.171  14.250 -0.0188 -0.6373  0.2471
  482TMC3    C2 7166   1.710   4.053  14.222  0.3240 -0.8064  0.2255
  482TMC3    C3 7167   1.649   4.053  14.101 -0.1528 -1.2602  0.6923
  482TMC3    C4 7168   1.783   4.283  14.172  0.5287 -0.1384  0.0782
  482TMC3    C5 7169   1.717   4.270  14.053  0.0920  0.8328  0.6356
  482TMC3    C6 7170   1.643   4.162  14.016  0.0790 -0.4490 -0.1147
  482TMC3     C 7171   1.838   4.174  14.385 -0.4186 -0.1607 -0.4357
  482TMC3     O 7172   1.798   4.093  14.468  0.1333  0.3323  0.0951
  482TMC3     H 7173   1.712   3.964  14.284  2.0752  0.1529  1.5715
  482TMC3    H1 7174   1.849   4.367  14.189  0.7507 -0.0504 -1.1561
  482TMC3    H2 7175   1.594   4.156  13.919  0.3054  0.2380 -0.2679
  482TMC3    C7 7176   1.698   4.396  13.986 -0.1067 -0.3621 -0.5631
  482TMC3    C8 7177   1.559   3.945  14.080 -0.2672 -0.7925 -0.7842
  482TMC3    O1 7178   1.716   4.499  14.053 -0.0257 -0.2398  0.0977
  482TMC3    O2 7179   1.613   3.834  14.095 -0.2600 -0.6266 -0.2863
  483TMC3    C1 7180   3.740   2.421   0.323 -0.6462  0.0936  0.1893
  483TMC3    C2 7181   3.751   2.558   0.299  0.4107 -0.1491  0.5524
  483TMC3    C3 7182   3.865   2.625   0.333  0.1507  0.5423 -0.0771
  483TMC3    C4 7183   3.843   2.350   0.385  0.0476 -0.5939  0.3577
  483TMC3    C5 7184   3.958   2.418   0.400  0.1114 -0.1198  0.1131
  483TMC3    C6 7185   3.972   2.552   0.369  0.2131 -0.0878 -0.1601
  483TMC3     C 7186   3.642   2.344   0.243  0.7545  0.2375 -0.0019
  483TMC3     O 7187   3.604   2.400   0.142 -0.0992  0.0591 -0.0188
  483TMC3     H 7188   3.678   2.611   0.238  0.5662 -1.4437 -0.7585
  483TMC3    H1 7189   3.844   2.242   0.390  0.7087 -0.5392  1.5608
  483TMC3    H2 7190   4.062   2.613   0.381  0.2466 -0.1676 -0.0079
  483TMC3    C7 7191   4.065   2.362   0.485 -0.2561  1.0695 -1.2322
  483TMC3    C8 7192   3.893   2.742   0.256 -0.3009 -0.2047  0.2345
  483TMC3    O1 7193   4.176   2.412   0.473  0.2913 -0.0695  0.1630
  483TMC3    O2 7194   4.000   2.754   0.200 -0.7392  0.3417 -0.6766
  484MPD2     C 7195   2.253   1.611  12.065  0.2582  0.3044 -0.1011
  484MPD2    C1 7196   2.319   1.510  12.132  0.1902 -0.1452 -0.3642
  484MPD2    C2 7197   2.454   1.533  12.163  0.0976 -0.2338 -0.5286
  484MPD2    C3 7198   2.523   1.645  12.118  0.4924  0.1437 -0.1631
  484MPD2    C4 7199   2.456   1.740  12.048  0.4567  0.3253  0.9187
  484MPD2    C5 7200   2.323   1.720  12.024 -0.5760  0.4844  0.4463
  484MPD2     H 7201   2.496   1.460  12.231  1.4085  1.4386  0.4689
  484MPD2    H1 7202   2.511   1.822  12.005  0.7858 -0.3019  0.1513
  484MPD2    H2 7203   2.154   1.589  12.027  0.1054  0.2300  0.3387
  484MPD2    H3 7204   2.276   1.787  11.952  0.2182  0.0154 -0.5125
  484MPD2     N 7205   2.668   1.660  12.128  0.4141 -0.0958 -0.2694
  484MPD2    H5 7206   2.718   1.741  12.093 -0.3996  0.3170 -0.4857
  484MPD2    N1 7207   2.237   1.395  12.181  0.1119 -0.3979  0.0470
  484MPD2    H7 7208   2.140   1.379  12.156  0.6696 -1.9185 -1.1374
  485TMC3    C1 7209   2.889   1.584  12.159 -0.1239 -0.7640 -0.0807
  485TMC3    C2 7210   2.972   1.510  12.235  0.3622 -0.7347  0.3062
  485TMC3    C3 7211   3.108   1.544  12.238  0.7804 -0.5905 -0.1274
  485TMC3    C4 7212   2.948   1.651  12.052 -0.4609 -0.7280 -0.1176
  485TMC3    C5 7213   3.079   1.693  12.055 -0.0120 -0.0556  0.4504
  485TMC3    C6 7214   3.166   1.647  12.157 -0.6608 -0.3055  0.1442
  485TMC3     C 7215   2.749   1.558  12.175  0.0729  1.0258 -0.5069
  485TMC3     O 7216   2.716   1.444  12.194 -0.7900  0.2324 -0.8614
  485TMC3     H 7217   2.926   1.429  12.289 -1.0432 -0.1030  0.0468
  485TMC3    H1 7218   2.883   1.680  11.970 -1.3741 -0.0121  0.8722
  485TMC3    H2 7219   3.273   1.664  12.156 -0.4893 -1.3543  0.7854
  485TMC3    C7 7220   3.150   1.666  11.928  0.3701  0.1938 -0.2051
  485TMC3    C8 7221   3.208   1.441  12.269  0.6123 -0.2011  0.1396
  485TMC3    O1 7222   3.272   1.669  11.941  0.3037  0.3525  0.1335
  485TMC3    O2 7223   3.322   1.460  12.237 -0.1272  0.1337  0.3115
  486MPD2     C 7224   4.709   0.269  12.660 -0.0784  0.2428  0.0947
  486MPD2    C1 7225   4.574   0.259  12.673 -0.5796 -0.6951 -0.2500
  486MPD2    C2 7226   4.495   0.335  12.590  0.3709  0.6177 -0.4091
  486MPD2    C3 7227   4.550   0.420  12.503  0.7806  0.0015 -0.6070
  486MPD2    C4 7228   4.681   0.430  12.486 -0.4554  0.3793 -0.1405
  486MPD2    C5 7229   0.043   0.355  12.562  0.2170 -0.2756 -0.1292
  486MPD2     H 7230   4.387   0.333  12.596  0.5591  0.9780  3.0204
  486MPD2    H1 7231   0.008   0.497  12.415  1.9699 -0.8366  0.2963
  486MPD2    H2 7232   0.053   0.215  12.729 -1.0326 -0.0413  0.7558
  486MPD2    H3 7233   0.150   0.369  12.567  0.2934 -0.0258 -2.4415
  486MPD2     N 7234   4.465   0.494  12.423  0.4273 -0.2249  0.8370
  486MPD2    H5 7235   4.365   0.479  12.426  0.1786  1.0115 -1.0663
  486MPD2    N1 7236   4.530   0.165  12.770  0.5645  0.1453 -0.5323
  486MPD2    H7 7237   4.599   0.109  12.818 -0.2998  0.4401  1.0559
  487TMC3    C1 7238   4.387   0.025  12.887 -0.4242 -0.7316 -0.4250
  487TMC3    C2 7239   4.323   4.636  12.829  0.2834 -0.3584 -0.0795
  487TMC3    C3 7240   4.337   4.513  12.893 -0.0153  0.3735 -0.2155
  487TMC3    C4 7241   4.477   0.010  12.985 -0.2423  0.1274  1.2781
  487TMC3    C5 7242   4.493   4.609  13.046  0.8464 -0.4136  0.6458
  487TMC3    C6 7243   4.415   4.506  13.004  0.3511  0.0770  0.2869
  487TMC3     C 7244   4.398   0.142  12.801 -0.5672  0.4131  0.5064
  487TMC3     O 7245   4.299   0.200  12.764 -0.0381 -0.2511  0.2736
  487TMC3     H 7246   4.257   4.656  12.745 -1.7588 -0.5531  1.4605
  487TMC3    H1 7247   4.534   0.094  13.023 -0.2918  1.1223 -0.8826
  487TMC3    H2 7248   4.386   4.427  13.072  1.5980 -0.4357  0.2287
  487TMC3    C7 7249   4.537   4.599  13.187  0.6655  0.1387 -0.5926
  487TMC3    C8 7250   4.242   4.402  12.862  0.2767  1.1337 -0.1659
  487TMC3    O1 7251   4.563   4.700  13.253  0.4571 -0.1563 -0.0915
  487TMC3    O2 7252   4.137   4.417  12.804 -0.2725  0.0422  0.3486
  488MPD2     C 7253   0.025   1.660  16.545 -0.5533  0.5961 -0.2430
  488MPD2    C1 7254   4.685   1.782  16.527 -0.0582  0.2174  0.1247
  488MPD2    C2 7255   4.615   1.835  16.627  0.4201  0.2763  0.0192
  488MPD2    C3 7256   4.599   1.761  16.744 -0.1663 -0.5370 -0.2514
  488MPD2    C4 7257   4.640   1.620  16.751  1.1139  0.6767 -0.3490
  488MPD2    C5 7258   4.712   1.575  16.648 -0.7460 -0.4988 -0.0306
  488MPD2     H 7259   4.586   1.939  16.635 -4.0777 -1.1863  2.7382
  488MPD2    H1 7260   4.619   1.555  16.835 -0.6477  1.4666 -0.1734
  488MPD2    H2 7261   0.068   1.607  16.461  1.5698  1.1884  0.4781
  488MPD2    H3 7262   0.035   1.476  16.635 -0.0197 -0.3228  0.9854
  488MPD2     N 7263   4.540   1.827  16.858  0.2812  0.0617  0.3765
  488MPD2    H5 7264   4.501   1.921  16.853  0.5930  0.1581 -0.2898
  488MPD2    N1 7265   4.694   1.850  16.403  0.4012  0.5091  0.5174
  488MPD2    H7 7266   4.674   1.949  16.410  0.4198  0.4755  1.0041
  489TMC3    C1 7267   4.454   1.866  17.065 -0.4368  0.2221  0.6148
  489TMC3    C2 7268   4.472   2.000  17.045  0.7757  0.0202  0.4522
  489TMC3    C3 7269   4.406   2.090  17.124 -0.3413  0.8124 -0.0990
  489TMC3    C4 7270   4.373   1.820  17.162 -0.1379  0.0520  0.2643
  489TMC3    C5 7271   4.305   1.921  17.239  0.0842  0.2257 -0.5161
  489TMC3    C6 7272   4.331   2.055  17.229  0.2838  0.6729 -0.7967
  489TMC3     C 7273   4.518   1.775  16.983  0.2298  0.3619 -0.0200
  489TMC3     O 7274   4.542   1.665  17.032 -0.3155  0.2258  0.0302
  489TMC3     H 7275   4.552   2.029  16.977  0.7178  0.3296  0.5153
  489TMC3    H1 7276   4.357   1.713  17.171  0.7721 -0.0127  1.1461
  489TMC3    H2 7277   4.292   2.128  17.299 -0.8140 -1.0153  0.3817
  489TMC3    C7 7278   4.202   1.881  17.336  0.1704 -0.5187 -0.8953
  489TMC3    C8 7279   4.437   2.229  17.085 -0.2381 -0.4021 -0.5626
  489TMC3    O1 7280   4.221   1.768  17.385 -0.1128 -0.0647 -0.0411
  489TMC3    O2 7281   4.546   2.249  17.036 -0.0916  0.8683 -0.4861
  490MPD2     C 7282   1.475   0.451  16.906  0.6737 -0.2976 -0.7132
  490MPD2    C1 7283   1.388   0.556  16.933  0.6019 -0.4078  0.2256
  490MPD2    C2 7284   1.408   0.677  16.867  0.3495 -0.3469 -0.6942
  490MPD2    C3 7285   1.508   0.699  16.776  0.1913 -0.1414  0.1248
  490MPD2    C4 7286   1.592   0.593  16.751 -0.1078 -0.6584  0.3362
  490MPD2    C5 7287   1.573   0.472  16.818 -0.2222 -0.7995  0.0943
  490MPD2     H 7288   1.342   0.761  16.885  2.8865  2.0947 -2.8772
  490MPD2    H1 7289   1.671   0.590  16.677 -1.1185  0.1695 -0.7877
  490MPD2    H2 7290   1.469   0.349  16.943 -1.1707 -0.2603 -0.9303
  490MPD2    H3 7291   1.644   0.395  16.790  1.6676  1.6838 -1.9892
  490MPD2     N 7292   1.535   0.824  16.713  0.6742 -0.2497  0.2403
  490MPD2    H5 7293   1.630   0.827  16.678  0.4394 -3.4664 -0.6910
  490MPD2    N1 7294   1.278   0.548  17.015 -0.5339 -0.0502  0.5394
  490MPD2    H7 7295   1.222   0.633  17.013  1.5668  1.3463  1.0826
  491TMC3    C1 7296   1.097   0.459  17.117  0.2088  0.2574  0.2327
  491TMC3    C2 7297   1.048   0.399  17.232  0.3310 -0.1975  0.4782
  491TMC3    C3 7298   0.917   0.434  17.268 -0.0865  0.3750  0.7621
  491TMC3    C4 7299   1.038   0.561  17.051  0.2836 -0.0443  0.1354
  491TMC3    C5 7300   0.904   0.581  17.095  0.2720 -0.7119  0.3766
  491TMC3    C6 7301   0.847   0.522  17.202 -0.0073 -0.4266 -0.3987
  491TMC3     C 7302   1.231   0.436  17.078  0.1942  0.7367  0.4224
  491TMC3     O 7303   1.261   0.317  17.074 -0.3985  0.3298  0.7475
  491TMC3     H 7304   1.106   0.333  17.295  1.7214  0.8587  0.2952
  491TMC3    H1 7305   1.066   0.590  16.951 -0.1030 -1.1932 -0.3111
  491TMC3    H2 7306   0.741   0.525  17.219 -0.4312 -0.2788 -3.0288
  491TMC3    C7 7307   0.809   0.626  16.992 -0.3877 -0.4108  0.3378
  491TMC3    C8 7308   0.857   0.362  17.381 -0.2787  0.9016  0.9067
  491TMC3    O1 7309   0.701   0.568  16.979  0.0189  0.2084  0.5032
  491TMC3    O2 7310   0.918   0.260  17.412  0.4931  0.0167 -0.0418
  492MPD2     C 7311   1.725   1.596  10.635  0.2012  0.1972  0.1971
  492MPD2    C1 7312   1.626   1.509  10.586 -0.5669 -0.1132  0.4950
  492MPD2    C2 7313   1.582   1.411  10.664 -0.7193 -0.4151  0.1867
  492MPD2    C3 7314   1.636   1.397  10.797  0.4609 -0.5790  0.5675
  492MPD2    C4 7315   1.729   1.482  10.844 -0.7094  0.3703  0.1990
  492MPD2    C5 7316   1.776   1.579  10.765  0.0457  0.5304  0.1771
  492MPD2     H 7317   1.515   1.332  10.632 -2.2059  1.1774 -0.6201
  492MPD2    H1 7318   1.762   1.471  10.947  1.4077  0.5723 -0.4397
  492MPD2    H2 7319   1.775   1.670  10.574 -0.7738  0.0937 -0.7293
  492MPD2    H3 7320   1.842   1.655  10.804  0.4113  0.3927 -0.1713
  492MPD2     N 7321   1.571   1.309  10.889 -0.1847 -1.0627 -0.5223
  492MPD2    H5 7322   1.575   1.325  10.989 -1.3515  1.9066 -0.9607
  492MPD2    N1 7323   1.584   1.525  10.451  0.4330 -0.1637 -0.2241
  492MPD2    H7 7324   1.626   1.603  10.401 -0.7451  2.0551  2.2061
  493TMC3    C1 7325   1.483   1.502  10.246  0.5030 -0.1096  0.3540
  493TMC3    C2 7326   1.550   1.618  10.210 -0.1207  0.0821  0.5813
  493TMC3    C3 7327   1.548   1.660  10.081  0.2877  0.3303  0.7894
  493TMC3    C4 7328   1.414   1.432  10.154 -0.1132 -0.3936 -0.5162
  493TMC3    C5 7329   1.416   1.476  10.023  0.1567 -0.3011  0.3667
  493TMC3    C6 7330   1.490   1.582   9.986  0.0596 -0.5959  0.5561
  493TMC3     C 7331   1.501   1.442  10.379  0.6327 -0.3260 -0.2996
  493TMC3     O 7332   1.446   1.338  10.413  0.5485  0.4714 -0.1213
  493TMC3     H 7333   1.587   1.687  10.285  0.4637 -0.4523  0.7875
  493TMC3    H1 7334   1.360   1.341  10.180  1.1059 -1.1512 -0.6250
  493TMC3    H2 7335   1.488   1.597   9.878  0.1233  2.8458  1.0485
  493TMC3    C7 7336   1.334   1.405   9.934 -0.5016 -0.2834  0.0654
  493TMC3    C8 7337   1.587   1.791  10.044 -0.4027  0.3662 -0.3196
  493TMC3    O1 7338   1.342   1.285   9.918 -0.1186  0.3113  0.3551
  493TMC3    O2 7339   1.606   1.863  10.143  0.1161 -0.0222  0.0361
  494TMC3    C1 7340   1.365   2.862   0.310 -0.7932 -0.0323 -0.5808
  494TMC3    C2 7341   1.381   2.721   0.329 -0.0703  0.5952  0.7662
  494TMC3    C3 7342   1.507   2.670   0.295 -0.5062 -0.5896 -0.1014
  494TMC3    C4 7343   1.462   2.943   0.254  0.0198  0.1823 -0.2282
  494TMC3    C5 7344   1.586   2.891   0.237 -0.2128  0.4153  0.0276
  494TMC3    C6 7345   1.611   2.752   0.247 -0.4594 -0.8811  0.0970
  494TMC3     C 7346   1.226   2.908   0.313 -0.2319 -0.0108 -0.5055
  494TMC3     O 7347   1.154   2.846   0.392  0.2009 -0.6073 -0.6306
  494TMC3     H 7348   1.292   2.660   0.344  0.6678 -0.7419 -0.3185
  494TMC3    H1 7349   1.441   3.047   0.233  0.9122 -0.0674 -2.3180
  494TMC3    H2 7350   1.713   2.721   0.228 -0.2810 -0.3266  0.1396
  494TMC3    C7 7351   1.683   2.970   0.172  0.3483  0.4053  0.1066
  494TMC3    C8 7352   1.541   2.525   0.301 -0.3018 -0.0593 -0.7848
  494TMC3    O1 7353   1.764   2.907   0.105  0.1903  0.1008 -0.1684
  494TMC3    O2 7354   1.637   2.488   0.240  0.1467 -0.1606 -0.4348
  495TMC3    C1 7355   0.670   0.277  14.505  0.4627 -0.0213  0.5984
  495TMC3    C2 7356   0.596   0.304  14.394 -0.0373  0.1604  0.0226
  495TMC3    C3 7357   0.480   0.377  14.407  0.6267 -0.1955  0.4463
  495TMC3    C4 7358   0.632   0.309  14.630 -0.3847  0.0290 -0.6146
  495TMC3    C5 7359   0.505   0.366  14.644  0.1911 -0.1239 -0.4107
  495TMC3    C6 7360   0.426   0.396  14.532 -0.3196  0.4796  0.5463
  495TMC3     C 7361   0.692   0.137  14.514 -0.2656 -0.4628 -0.2378
  495TMC3     O 7362   0.625   0.077  14.598  0.3169  0.0186  0.5038
  495TMC3     H 7363   0.629   0.265  14.298 -1.9720 -0.6741 -0.2876
  495TMC3    H1 7364   0.685   0.272  14.717  0.2597 -1.2605 -1.5628
  495TMC3    H2 7365   0.339   0.459  14.549 -0.0847  2.2596 -4.8566
  495TMC3    C7 7366   0.451   0.352  14.783  0.5343  0.0496  0.0212
  495TMC3    C8 7367   0.380   0.372  14.296 -0.3255 -0.7940 -0.5578
  495TMC3    O1 7368   0.532   0.365  14.872  0.0091  0.1835 -0.0433
  495TMC3    O2 7369   0.263   0.370  14.335 -0.6167  0.3106  0.6763
  496MPD2     C 7370   2.831   0.187  15.454 -0.6051 -0.4916 -0.6830
  496MPD2    C1 7371   2.743   0.127  15.378  0.7437  1.2312  0.2977
  496MPD2    C2 7372   2.633   0.066  15.432 -0.2058  0.8074  0.5189
  496MPD2    C3 7373   2.608   0.071  15.569 -0.1615  0.0385  0.0991
  496MPD2    C4 7374   2.694   0.146  15.645  0.0876  1.2438 -0.1222
  496MPD2    C5 7375   2.796   0.211  15.583 -0.4923  0.7309 -0.2337
  496MPD2     H 7376   2.572   0.000  15.371  0.4128 -2.3215  3.3103
  496MPD2    H1 7377   2.683   0.162  15.751  0.4560 -3.2302  0.6206
  496MPD2    H2 7378   2.915   0.245  15.419 -0.2976  0.0921  1.0301
  496MPD2    H3 7379   2.858   0.279  15.640  1.1727 -0.2504 -0.8749
  496MPD2     N 7380   2.489   0.016  15.624 -0.0100  0.0876 -0.4383
  496MPD2    H5 7381   2.480   0.023  15.725 -0.7237  0.0055 -0.4935
  496MPD2    N1 7382   2.791   0.086  15.255 -0.0338  0.1248 -0.7127
  496MPD2    H7 7383   2.890   0.089  15.233  1.0270  0.6574  4.1967
  497TMC3    C1 7384   2.282   4.612  15.641 -0.0827  0.8682  0.1627
  497TMC3    C2 7385   2.204   4.510  15.587  0.8851 -0.1365  0.0809
  497TMC3    C3 7386   2.113   4.444  15.668  0.3265  0.8747 -0.0030
  497TMC3    C4 7387   2.278   4.642  15.774  0.0422 -0.2935  0.2821
  497TMC3    C5 7388   2.176   4.577  15.843 -0.0123 -0.0520  0.2712
  497TMC3    C6 7389   2.101   4.470  15.801 -0.0977  0.0221  0.4134
  497TMC3     C 7390   2.386   4.669  15.552 -0.4674  0.4519 -0.0523
  497TMC3     O 7391   2.376   4.638  15.433 -0.0181  0.4110  0.5202
  497TMC3     H 7392   2.199   4.491  15.480 -0.6942 -1.6028  0.4125
  497TMC3    H1 7393   2.335   0.003  15.818 -0.2829 -0.4777  1.0548
  497TMC3    H2 7394   2.028   4.418  15.861 -2.6565  1.9079 -1.0842
  497TMC3    C7 7395   2.150   4.627  15.976  0.5865 -0.2940  0.8344
  497TMC3    C8 7396   2.023   4.345  15.611 -0.2046  0.4355  0.3410
  497TMC3    O1 7397   2.036   4.600  16.023  0.3898 -0.0833  0.6305
  497TMC3    O2 7398   1.910   4.332  15.662 -0.0613 -0.0895 -0.1131
  498MPD2     C 7399   3.180   0.782   9.402 -0.3042  0.3455  0.2739
  498MPD2    C1 7400   3.226   0.790   9.532  1.3556  0.2160  0.7113
  498MPD2    C2 7401   3.145   0.734   9.630  0.8000  0.1720 -0.0898
  498MPD2    C3 7402   3.018   0.689   9.603 -0.3463 -0.0378 -0.0530
  498MPD2    C4 7403   2.970   0.703   9.473  0.4435 -0.1904 -0.1571
  498MPD2    C5 7404   3.055   0.746   9.369 -0.1647  0.0271 -0.1366
  498MPD2     H 7405   3.177   0.728   9.733 -0.7590 -0.8868  0.3409
  498MPD2    H1 7406   2.869   0.683   9.439 -0.6201  0.6485  2.5639
  498MPD2    H2 7407   3.234   0.808   9.312  1.5128 -3.0791  0.3617
  498MPD2    H3 7408   3.022   0.765   9.267  1.2984  0.4934 -0.5110
  498MPD2     N 7409   2.939   0.647   9.709 -0.7462 -0.1380 -0.3185
  498MPD2    H5 7410   2.977   0.635   9.802  1.4741 -0.4974 -1.2671
  498MPD2    N1 7411   3.357   0.833   9.563 -0.3853 -0.5959 -0.4533
  498MPD2    H7 7412   3.388   0.807   9.656 -2.6137 -0.9745  0.1858
  499TMC3    C1 7413   3.568   0.911   9.532  0.4552  0.9916  0.3910
  499TMC3    C2 7414   3.614   0.801   9.593  0.3802 -0.2100 -0.1761
  499TMC3    C3 7415   3.749   0.800   9.625 -0.0983  0.1307  0.2550
  499TMC3    C4 7416   3.640   1.029   9.528  0.7313  0.2408 -0.0151
  499TMC3    C5 7417   3.775   1.026   9.567 -0.7006  0.3729 -0.4756
  499TMC3    C6 7418   3.835   0.905   9.604 -0.2296 -0.1323 -0.1964
  499TMC3     C 7419   3.436   0.915   9.488  0.0469  1.0324  0.9814
  499TMC3     O 7420   3.417   0.962   9.379  0.1536  0.1196 -0.2580
  499TMC3     H 7421   3.559   0.707   9.586 -2.1129  1.2500 -0.4142
  499TMC3    H1 7422   3.595   1.117   9.485 -0.3846 -0.7549 -0.8842
  499TMC3    H2 7423   3.943   0.902   9.617 -0.2301 -2.6300 -0.8254
  499TMC3    C7 7424   3.853   1.147   9.557 -0.0373  0.7025 -0.1677
  499TMC3    C8 7425   3.809   0.684   9.693 -0.2506  0.3868 -0.0794
  499TMC3    O1 7426   3.973   1.134   9.542 -0.5719  0.4475  0.0504
  499TMC3    O2 7427   3.904   0.710   9.765 -0.0205 -0.6243 -0.1958
  500MPD2     C 7428   0.449   2.458  10.461  0.0661  0.1784  0.0512
  500MPD2    C1 7429   0.416   2.424  10.330 -0.4523 -0.5491  0.0457
  500MPD2    C2 7430   0.289   2.462  10.287  0.4086  0.0807 -0.1279
  500MPD2    C3 7431   0.214   2.554  10.356  0.0360  0.2206  0.0015
  500MPD2    C4 7432   0.252   2.593  10.482  0.2330  0.1899 -0.1841
  500MPD2    C5 7433   0.367   2.546  10.537  0.3839  0.8528 -0.4854
  500MPD2     H 7434   0.253   2.427  10.191  2.1089  1.2881 -1.2045
  500MPD2    H1 7435   0.219   2.683  10.534 -0.6047  0.0999 -0.5667
  500MPD2    H2 7436   0.545   2.434  10.504  0.1858 -0.7485 -0.7391
  500MPD2    H3 7437   0.386   2.586  10.636 -0.0920  0.7810 -0.3644
  500MPD2     N 7438   0.087   2.601  10.312  0.0107 -0.6244 -0.2811
  500MPD2    H5 7439   0.021   2.645  10.375 -0.9929 -2.0589 -0.3254
  500MPD2    N1 7440   0.504   2.350  10.250  0.3702 -0.0575 -0.3343
  500MPD2    H7 7441   0.484   2.345  10.151  2.3173  2.1324 -0.8416
  501TMC3    C1 7442   0.704   2.273  10.167  0.0136 -0.5134 -0.1061
  501TMC3    C2 7443   0.702   2.370  10.070 -0.5622  0.2632 -0.1294
  501TMC3    C3 7444   0.814   2.383   9.992  0.5172 -0.0782  0.0794
  501TMC3    C4 7445   0.814   2.187  10.182  0.1081 -0.7044  0.1573
  501TMC3    C5 7446   0.921   2.198  10.099  0.2683  0.4720 -0.6432
  501TMC3    C6 7447   0.921   2.293  10.002  0.3411  0.8538 -0.5077
  501TMC3     C 7448   0.628   2.297  10.288  0.3147  0.2011 -0.1961
  501TMC3     O 7449   0.685   2.297  10.393  0.5372 -0.7406 -0.0437
  501TMC3     H 7450   0.629   2.449  10.076 -0.8603 -0.1538  1.6954
  501TMC3    H1 7451   0.817   2.123  10.270 -0.5337  1.9983  2.1449
  501TMC3    H2 7452   1.012   2.311   9.946  0.5423 -2.0512 -1.1064
  501TMC3    C7 7453   1.043   2.169  10.160 -0.1667  0.5518 -0.0346
  501TMC3    C8 7454   0.858   2.521   9.981 -0.7136 -0.2605 -0.8238
  501TMC3    O1 7455   1.057   2.065  10.219 -0.3448  0.0549  0.0924
  501TMC3    O2 7456   0.975   2.548  10.010  0.6837  0.4472  0.6724
  502TMC3    C1 7457   3.927   0.197  15.170  0.2801 -0.5944  0.2170
  502TMC3    C2 7458   3.951   0.224  15.040 -0.1185  0.5371  0.5360
  502TMC3    C3 7459   3.904   0.340  14.982  0.4122 -0.0388  0.4185
  502TMC3    C4 7460   3.851   0.287  15.245  0.5065  0.0253  0.1776
  502TMC3    C5 7461   3.785   0.380  15.182 -0.0411 -0.4007 -0.1606
  502TMC3    C6 7462   3.808   0.406  15.048  0.2020 -0.4685  0.3393
  502TMC3     C 7463   4.031   0.134  15.237  0.0329  0.8023 -0.0312
  502TMC3     O 7464   4.079   0.040  15.169 -0.0135  0.6723 -0.3229
  502TMC3     H 7465   4.031   0.168  14.993  0.1293  2.5843 -1.4645
  502TMC3    H1 7466   3.827   0.268  15.349 -0.7153 -0.7062 -0.2415
  502TMC3    H2 7467   3.770   0.496  15.001  0.0647 -1.2119 -0.9686
  502TMC3    C7 7468   3.755   0.498  15.260 -0.4125 -0.0070 -0.1465
  502TMC3    C8 7469   4.000   0.422  14.914  0.2837  0.6172  0.2714
  502TMC3    O1 7470   3.801   0.500  15.372 -0.3338  0.1581  0.1406
  502TMC3    O2 7471   3.975   0.540  14.928 -0.5555 -0.0147  0.3627
  503MPD2     C 7472   2.028   1.813  16.544  0.3215 -0.5757 -0.9029
  503MPD2    C1 7473   2.029   1.801  16.684 -0.0294 -0.6910 -0.0739
  503MPD2    C2 7474   2.049   1.667  16.737 -0.1218 -0.3166  0.1484
  503MPD2    C3 7475   2.085   1.560  16.652 -1.0359  0.4334 -0.2543
  503MPD2    C4 7476   2.072   1.582  16.513  0.8237 -0.3216 -0.2180
  503MPD2    C5 7477   2.039   1.703  16.465 -0.1976 -0.2919 -0.4477
  503MPD2     H 7478   2.055   1.659  16.845  0.0864  0.5717  0.2064
  503MPD2    H1 7479   2.087   1.511  16.434  1.6567 -0.6574  0.2477
  503MPD2    H2 7480   2.015   1.913  16.504  1.4244 -0.1030 -0.0862
  503MPD2    H3 7481   2.034   1.712  16.357 -1.9821 -2.0883 -0.5014
  503MPD2     N 7482   2.126   1.438  16.711 -0.2230  0.2334 -0.3465
  503MPD2    H5 7483   2.120   1.429  16.811  1.7412 -2.3277 -0.4626
  503MPD2    N1 7484   2.007   1.916  16.773  0.3631 -0.6391 -0.8407
  503MPD2    H7 7485   2.018   1.903  16.873 -1.1770 -0.6306 -0.6794
  504TMC3    C1 7486   2.195   1.218  16.733 -0.4168  0.7619  0.3828
  504TMC3    C2 7487   2.128   1.203  16.860 -0.3684  0.2538 -1.0180
  504TMC3    C3 7488   2.146   1.085  16.918  0.1531  0.2391 -0.3699
  504TMC3    C4 7489   2.270   1.121  16.678  0.5473 -0.2610  0.5684
  504TMC3    C5 7490   2.271   0.998  16.739 -0.3812  0.7357  1.1635
  504TMC3    C6 7491   2.212   0.979  16.859 -0.5385 -0.0656 -0.0483
  504TMC3     C 7492   2.170   1.329  16.646 -0.4815  0.5532 -0.2388
  504TMC3     O 7493   2.201   1.319  16.528 -0.0454 -0.5357 -0.6130
  504TMC3     H 7494   2.072   1.285  16.902 -0.3108 -0.7410  0.9928
  504TMC3    H1 7495   2.313   1.142  16.581  1.7485 -1.3956  0.8578
  504TMC3    H2 7496   2.202   0.881  16.904  2.3725 -0.2965  0.0908
  504TMC3    C7 7497   2.386   0.922  16.691  0.0939 -0.0828 -0.3142
  504TMC3    C8 7498   2.083   1.061  17.050  0.0435  0.0548 -0.1922
  504TMC3    O1 7499   2.411   0.934  16.573 -0.0522 -0.0189  0.2881
  504TMC3    O2 7500   2.012   1.150  17.093 -0.0151 -0.1801 -0.6236
  505MPD2     C 7501   1.762   0.436  10.581 -0.2536  1.0566 -0.3911
  505MPD2    C1 7502   1.862   0.358  10.625 -1.3047 -0.5419 -0.6046
  505MPD2    C2 7503   1.966   0.416  10.695 -0.2204  0.2470 -0.1238
  505MPD2    C3 7504   1.982   0.552  10.712  0.3255 -0.8108 -0.2237
  505MPD2    C4 7505   1.880   0.633  10.665  0.3678 -0.1744 -0.2882
  505MPD2    C5 7506   1.762   0.571  10.610  0.2417  0.0834 -0.5962
  505MPD2     H 7507   2.051   0.358  10.730 -1.5568 -1.0270  1.0180
  505MPD2    H1 7508   1.871   0.739  10.689 -1.5449 -0.5038  0.4672
  505MPD2    H2 7509   1.682   0.403  10.516 -0.4974  0.2995  0.3075
  505MPD2    H3 7510   1.673   0.630  10.590  1.1829  1.3695 -0.9746
  505MPD2     N 7511   2.099   0.603  10.775 -0.1896  0.2315  0.3093
  505MPD2    H5 7512   2.164   0.531  10.804  0.4246  1.3388  1.7277
  505MPD2    N1 7513   1.853   0.219  10.602 -0.5423 -0.2606  0.1885
  505MPD2    H7 7514   1.776   0.187  10.543  0.4862 -0.1991 -1.1899
  506TMC3    C1 7515   1.926   4.711  10.583 -0.3431 -0.3966 -0.6532
  506TMC3    C2 7516   1.903   4.713  10.448 -0.3221 -0.2820 -0.3038
  506TMC3    C3 7517   1.989   4.635  10.382 -0.0765  0.3367  0.1938
  506TMC3    C4 7518   2.012   4.629  10.644 -0.0849 -0.5904 -0.1683
  506TMC3    C5 7519   2.090   4.549  10.572  0.3509 -0.3252  0.4388
  506TMC3    C6 7520   2.066   4.532  10.434  0.1497 -0.1988 -0.7392
  506TMC3     C 7521   1.928   0.118  10.654 -0.1764  0.3183 -0.0900
  506TMC3     O 7522   2.020   0.138  10.736  0.6523  0.1467  0.2558
  506TMC3     H 7523   1.828   0.053  10.398 -0.6714  1.7314  2.6562
  506TMC3    H1 7524   2.026   4.638  10.751  2.4305  2.8198 -0.7780
  506TMC3    H2 7525   2.144   4.484  10.377 -0.6315 -1.7086 -0.5521
  506TMC3    C7 7526   2.230   4.579  10.599 -0.6108 -0.0920 -0.2026
  506TMC3    C8 7527   1.987   4.666  10.240 -0.8359 -0.7230  0.6160
  506TMC3    O1 7528   2.308   4.516  10.537  0.4572 -0.0803 -0.0891
  506TMC3    O2 7529   1.887   4.716  10.193  0.0507 -0.3087 -0.2065
  507TMC3    C1 7530   3.194   1.605  14.234 -0.9814  0.1616 -0.2925
  507TMC3    C2 7531   3.204   1.520  14.122  0.4144  0.1835  0.5818
  507TMC3    C3 7532   3.245   1.569  14.000  0.3751  0.1282 -0.5447
  507TMC3    C4 7533   3.237   1.737  14.232  0.1314 -0.0535 -0.4862
  507TMC3    C5 7534   3.281   1.782  14.106  0.4683 -0.2512 -0.5656
  507TMC3    C6 7535   3.297   1.697  13.998  0.1298  0.3673 -0.0171
  507TMC3     C 7536   3.155   1.558  14.361 -0.4975 -0.0094 -0.2906
  507TMC3     O 7537   3.156   1.634  14.458 -0.0099  0.3405 -0.3562
  507TMC3     H 7538   3.159   1.421  14.122  1.6586 -0.3768  1.9932
  507TMC3    H1 7539   3.225   1.800  14.319  1.0170  0.3993 -0.6923
  507TMC3    H2 7540   3.336   1.726  13.901  1.0891  0.3782  0.3645
  507TMC3    C7 7541   3.241   1.914  14.067  0.4553 -1.3226 -0.2601
  507TMC3    C8 7542   3.137   1.542  13.912 -0.3098  0.7021  0.0525
  507TMC3    O1 7543   3.212   1.922  13.950  0.4577 -0.0379 -0.1355
  507TMC3    O2 7544   3.072   1.441  13.926  0.1589  0.0808 -0.1434
  508MPD2     C 7545   3.728   3.576  15.960  0.5019 -0.1626  0.4189
  508MPD2    C1 7546   3.816   3.675  15.936 -0.3081  0.4624 -0.5699
  508MPD2    C2 7547   3.849   3.701  15.801 -0.5139  0.1253  0.2523
  508MPD2    C3 7548   3.802   3.620  15.701 -0.5409 -0.3421 -0.3339
  508MPD2    C4 7549   3.725   3.520  15.735 -0.4247  0.2261 -0.0130
  508MPD2    C5 7550   3.678   3.499  15.863 -0.1243 -0.3572 -0.1078
  508MPD2     H 7551   3.909   3.790  15.784 -1.3970  0.4017 -1.3933
  508MPD2    H1 7552   3.686   3.455  15.657  1.2934 -0.0323 -0.6458
  508MPD2    H2 7553   3.696   3.555  16.062  1.4088 -0.2098  0.6961
  508MPD2    H3 7554   3.605   3.426  15.894 -1.0722  0.2468 -0.9104
  508MPD2     N 7555   3.844   3.652  15.566  0.2427 -0.2229  0.0641
  508MPD2    H5 7556   3.910   3.728  15.559  0.3914 -0.2232  1.3288
  508MPD2    N1 7557   3.875   3.750  16.043 -0.4902  0.2556 -0.4720
  508MPD2    H7 7558   3.827   3.743  16.132  0.7743  1.0449  0.2794
  509TMC3    C1 7559   3.775   3.808  15.163 -0.4588  0.3907 -0.5785
  509TMC3    C2 7560   3.889   3.881  15.175 -0.5750 -0.4082 -0.1352
  509TMC3    C3 7561   3.983   3.835  15.262 -0.0005  0.3954 -0.8537
  509TMC3    C4 7562   3.740   3.709  15.245 -0.6763 -0.0839  0.4639
  509TMC3    C5 7563   3.837   3.663  15.325  0.1081 -0.1966 -0.2124
  509TMC3    C6 7564   3.965   3.719  15.330 -0.4792  0.0238  0.0243
  509TMC3     C 7565   3.670   3.853  15.076 -0.2143  0.2631  0.8290
  509TMC3     O 7566   3.570   3.786  15.055 -0.0553 -0.4564 -0.1166
  509TMC3     H 7567   3.930   3.953  15.105 -0.4317  0.6750  1.0671
  509TMC3    H1 7568   3.641   3.666  15.244 -0.6363 -0.1722  0.3064
  509TMC3    H2 7569   4.037   3.675  15.398 -1.3129  1.0203  1.5571
  509TMC3    C7 7570   3.797   3.593  15.444 -0.5954 -0.3333 -0.0632
  509TMC3    C8 7571   4.116   3.895  15.262 -0.1753 -0.2509 -0.2063
  509TMC3    O1 7572   3.718   3.503  15.422 -0.6625 -0.3134  0.4367
  509TMC3    O2 7573   4.196   3.824  15.312  0.2370 -0.2451 -0.3508
  510MPD2     C 7574   1.782   0.503  14.727  0.6650 -0.1677 -0.6695
  510MPD2    C1 7575   1.862   0.426  14.810  0.1210  0.1677 -0.2353
  510MPD2    C2 7576   1.983   0.384  14.755  0.1363 -0.1252 -0.2262
  510MPD2    C3 7577   2.024   0.437  14.630 -0.2739 -0.1039  0.2051
  510MPD2    C4 7578   1.949   0.530  14.564 -0.2349  0.1163  0.6939
  510MPD2    C5 7579   1.828   0.562  14.619 -0.4222  0.3635  0.0931
  510MPD2     H 7580   2.042   0.311  14.809  0.7804  0.7237  0.2132
  510MPD2    H1 7581   1.987   0.589  14.482  0.9564 -2.7417 -0.7684
  510MPD2    H2 7582   1.684   0.540  14.756  1.4330  0.7265  0.8127
  510MPD2    H3 7583   1.772   0.636  14.563 -0.4245  0.7804  0.6460
  510MPD2     N 7584   2.151   0.391  14.580 -0.3461 -0.2069 -0.0899
  510MPD2    H5 7585   2.206   0.328  14.637 -0.6106 -0.1644  0.2122
  510MPD2    N1 7586   1.816   0.377  14.935  0.1388  0.0198 -0.7710
  510MPD2    H7 7587   1.719   0.395  14.958  0.8921  3.4440 -0.3637
  511TMC3    C1 7588   1.770   0.218  15.095  0.9367 -0.4961 -0.5843
  511TMC3    C2 7589   1.673   0.305  15.144 -0.0033  0.3239  0.2606
  511TMC3    C3 7590   1.576   0.233  15.202  1.0137 -0.0214 -0.2389
  511TMC3    C4 7591   1.762   0.082  15.085 -0.5172  0.5283 -0.4516
  511TMC3    C5 7592   1.649   0.022  15.135  0.1563 -0.7076  0.2154
  511TMC3    C6 7593   1.553   0.101  15.198  0.0882  0.1375  0.0102
  511TMC3     C 7594   1.872   0.277  15.004 -0.0371  0.5294 -0.7975
  511TMC3     O 7595   1.981   0.223  14.985  0.4549  0.1266  0.1712
  511TMC3     H 7596   1.681   0.412  15.156 -2.1730  0.6256 -1.0213
  511TMC3    H1 7597   1.837   0.022  15.034 -0.5907 -1.0026  1.2516
  511TMC3    H2 7598   1.454   0.062  15.222 -0.4509  1.1024 -0.6464
  511TMC3    C7 7599   1.610   4.624  15.071 -0.6278 -0.1585 -0.2775
  511TMC3    C8 7600   1.494   0.309  15.290  0.0803 -0.1062  1.1742
  511TMC3    O1 7601   1.688   4.574  14.993 -0.3498  0.3264 -0.1308
  511TMC3    O2 7602   1.480   0.424  15.256  0.2657 -0.6318 -0.5675
  512TMC3    C1 7603   0.152   4.636  13.063  0.0295  0.2211 -0.1345
  512TMC3    C2 7604   0.170   4.604  13.187  0.4498 -0.6007  0.3206
  512TMC3    C3 7605   0.187   4.470  13.210 -0.1557 -0.1903  0.4416
  512TMC3    C4 7606   0.157   4.554  12.951  0.6872  0.6537 -0.2607
  512TMC3    C5 7607   0.172   4.418  12.982 -0.0929  0.4141  0.3989
  512TMC3    C6 7608   0.183   4.373  13.107  0.4069 -0.5601 -0.0352
  512TMC3     C 7609   0.123   0.049  13.027  0.2434 -0.6296 -0.6453
  512TMC3     O 7610   0.052   0.073  12.934 -0.2719  0.4576 -0.0633
  512TMC3     H 7611   0.159   4.670  13.273  0.7511 -1.5541  1.0933
  512TMC3    H1 7612   0.170   4.584  12.848  1.3964 -0.3248 -0.4495
  512TMC3    H2 7613   0.205   4.272  13.140 -2.9394 -0.5481  2.2479
  512TMC3    C7 7614   0.267   4.351  12.900 -0.1568  0.5187  0.2272
  512TMC3    C8 7615   0.273   4.420  13.321 -0.3388  0.4513 -0.0321
  512TMC3    O1 7616   0.338   4.421  12.833 -0.0131 -0.0315 -0.1989
  512TMC3    O2 7617   0.267   4.302  13.352  0.2785 -0.0001  0.4682
  513MPD2     C 7618   2.023   4.587  12.686 -0.0175 -0.2939 -0.9433
  513MPD2    C1 7619   2.122   4.505  12.638  0.0374 -0.0285  0.4260
  513MPD2    C2 7620   2.255   4.525  12.675 -0.3742 -0.1816  0.0112
  513MPD2    C3 7621   2.284   4.624  12.766 -0.4643  1.2054 -0.2866
  513MPD2    C4 7622   2.184   4.702  12.821  0.1328  0.3566  0.0851
  513MPD2    C5 7623   2.053   4.688  12.774 -0.5284  0.5009  0.8558
  513MPD2     H 7624   2.338   4.478  12.623  0.4569  0.2103  0.9928
  513MPD2    H1 7625   2.206   0.067  12.884  1.0256 -0.0525  0.3204
  513MPD2    H2 7626   1.921   4.569  12.654 -0.5158 -1.3908  1.2748
  513MPD2    H3 7627   1.967   0.025  12.809 -0.4946  0.7390  0.5458
  513MPD2     N 7628   2.421   4.634  12.796  0.4394  0.3885  0.2149
  513MPD2    H5 7629   2.476   4.577  12.732 -1.8700  0.1938 -1.5988
  513MPD2    N1 7630   2.088   4.419  12.533 -0.0553 -0.3443 -0.0333
  513MPD2    H7 7631   1.992   4.412  12.499 -0.4469  1.0170  0.8211
  514TMC3    C1 7632   2.129   4.265  12.367 -0.6677 -0.1981  0.5229
  514TMC3    C2 7633   2.086   4.375  12.295  0.3609 -0.8177 -0.0113
  514TMC3    C3 7634   2.158   4.411  12.182  0.2515  0.0863 -0.4131
  514TMC3    C4 7635   2.237   4.194  12.314 -0.3723  0.5683  0.3432
  514TMC3    C5 7636   2.320   4.238  12.214 -0.1007  0.5936 -0.1205
  514TMC3    C6 7637   2.273   4.344  12.146  0.4562 -0.5432 -1.0819
  514TMC3     C 7638   2.173   4.319  12.489  0.4573  0.0614  0.0691
  514TMC3     O 7639   2.273   4.275  12.547  0.7743 -0.4626 -0.6430
  514TMC3     H 7640   1.998   4.433  12.317  0.7567 -0.3253  0.2699
  514TMC3    H1 7641   2.276   4.115  12.377 -1.4739  0.9463  1.4918
  514TMC3    H2 7642   2.334   4.372  12.061 -0.0441  1.6489 -0.7246
  514TMC3    C7 7643   2.449   4.263  12.269  0.3232  0.4794  0.5290
  514TMC3    C8 7644   2.106   4.520  12.100 -0.6819 -0.1672 -0.2184
  514TMC3    O1 7645   2.492   4.371  12.246  0.3565 -0.4511  0.3017
  514TMC3    O2 7646   2.042   4.604  12.162 -0.4433 -0.5948 -0.2894
  515MPD2     C 7647   1.061   1.102  14.507 -0.5609 -0.2812 -0.4675
  515MPD2    C1 7648   0.938   1.109  14.566 -0.4971 -0.1802 -0.4363
  515MPD2    C2 7649   0.926   1.124  14.699  0.0234 -0.9621 -0.0087
  515MPD2    C3 7650   1.038   1.167  14.768  0.1444 -0.2166  0.0283
  515MPD2    C4 7651   1.158   1.168  14.708  0.3917 -0.7037 -0.6356
  515MPD2    C5 7652   1.174   1.116  14.587  0.0404 -0.7780  0.5105
  515MPD2     H 7653   0.827   1.137  14.740  0.4804 -2.7509  1.6751
  515MPD2    H1 7654   1.237   1.215  14.765  0.6650 -0.3827 -1.2800
  515MPD2    H2 7655   1.077   1.079  14.402 -0.5133 -3.4394  0.2207
  515MPD2    H3 7656   1.273   1.098  14.549  0.5425  1.3802  0.7827
  515MPD2     N 7657   1.035   1.230  14.898 -0.1325 -0.6816  0.2176
  515MPD2    H5 7658   1.121   1.269  14.936 -1.7404  0.6335  2.5410
  515MPD2    N1 7659   0.822   1.087  14.489 -0.0469 -0.3539 -0.2243
  515MPD2    H7 7660   0.742   1.053  14.541 -1.6864  2.3606 -0.9838
  516TMC3    C1 7661   0.679   1.066  14.307 -0.1729 -0.6469 -0.6339
  516TMC3    C2 7662   0.632   1.145  14.210  0.1649  1.0884  0.1234
  516TMC3    C3 7663   0.499   1.140  14.168  0.0439 -0.1102 -0.1461
  516TMC3    C4 7664   0.599   0.977  14.369 -0.6534  0.2529 -0.3034
  516TMC3    C5 7665   0.469   0.980  14.334 -0.4377  0.0006 -0.8607
  516TMC3    C6 7666   0.411   1.061  14.233  0.7399 -0.6100  0.2287
  516TMC3     C 7667   0.813   1.088  14.358  0.5460 -0.1785 -0.1658
  516TMC3     O 7668   0.887   1.140  14.277  0.2074 -0.6287 -0.3413
  516TMC3     H 7669   0.703   1.201  14.149 -2.5275  3.7717 -0.5725
  516TMC3    H1 7670   0.646   0.911  14.441  0.1827  0.9110 -0.2438
  516TMC3    H2 7671   0.305   1.059  14.215  1.0546 -0.6162 -1.6621
  516TMC3    C7 7672   0.393   0.863  14.367 -0.1043 -0.4002 -0.2506
  516TMC3    C8 7673   0.445   1.227  14.064 -0.0723  0.2953 -0.6879
  516TMC3    O1 7674   0.317   0.829  14.276  0.3679 -0.2527 -0.1682
  516TMC3    O2 7675   0.339   1.193  14.014  0.0070  0.1175 -0.0135
  517MPD2     C 7676   0.002   2.965  17.102 -0.1157  0.2205  0.1100
  517MPD2    C1 7677   0.046   2.950  17.235  0.4279 -0.6878 -0.5132
  517MPD2    C2 7678   4.692   3.014  17.334  0.0709 -0.2691 -0.7636
  517MPD2    C3 7679   4.576   3.081  17.305 -0.3639  0.1424  0.1830
  517MPD2    C4 7680   4.530   3.079  17.174 -0.6759  0.4117 -0.1139
  517MPD2    C5 7681   4.608   3.031  17.074  0.5330 -0.2457  0.2860
  517MPD2     H 7682   0.005   3.006  17.437  2.6169  2.1254 -1.4025
  517MPD2    H1 7683   4.429   3.116  17.159 -0.1030  1.3936 -1.6036
  517MPD2    H2 7684   0.062   2.935  17.018 -0.7238 -1.2982  0.1970
  517MPD2    H3 7685   4.573   3.033  16.971  2.5648  0.7429 -0.3982
  517MPD2     N 7686   4.513   3.162  17.402 -0.3006 -0.0316 -0.0759
  517MPD2    H5 7687   4.557   3.175  17.492 -1.7519  0.1367  0.6124
  517MPD2    N1 7688   0.165   2.889  17.255 -0.0511  0.3010 -0.2455
  517MPD2    H7 7689   0.210   2.853  17.171  0.6673  1.2741 -0.2744
  518TMC3    C1 7690   0.381   2.830  17.327 -0.4466  0.5561  0.5582
  518TMC3    C2 7691   0.385   2.742  17.229  0.8098  0.7478  0.5946
  518TMC3    C3 7692   0.499   2.666  17.219  0.3694  0.4452 -0.5104
  518TMC3    C4 7693   0.491   2.867  17.405  0.4395 -0.5893  0.2799
  518TMC3    C5 7694   0.607   2.796  17.384 -0.4796  0.8185 -0.0733
  518TMC3    C6 7695   0.615   2.695  17.291  0.4894 -0.5945  0.1373
  518TMC3     C 7696   0.253   2.895  17.358  0.8419  0.4426 -0.3124
  518TMC3     O 7697   0.252   2.956  17.460 -0.2011  0.0361 -0.6443
  518TMC3     H 7698   0.288   2.713  17.188  1.6569 -2.1330  0.6623
  518TMC3    H1 7699   0.477   2.943  17.482 -0.4723 -0.3977 -0.0752
  518TMC3    H2 7700   0.695   2.622  17.282 -0.7731 -2.0805  0.9834
  518TMC3    C7 7701   0.728   2.844  17.453 -0.0940  0.1321  0.3252
  518TMC3    C8 7702   0.484   2.528  17.166  0.7732 -0.0708  0.5262
  518TMC3    O1 7703   0.705   2.900  17.562 -0.2682 -0.2952  0.7889
  518TMC3    O2 7704   0.564   2.450  17.207  0.3173  0.9424 -0.2641
  519MPD2     C 7705   2.046   1.642  14.140 -0.3227  0.1999  0.3535
  519MPD2    C1 7706   2.027   1.642  14.005  0.0856  0.2742  0.1033
  519MPD2    C2 7707   2.102   1.552  13.930  0.0197  0.4376  0.4543
  519MPD2    C3 7708   2.177   1.460  13.992 -0.0183  0.1327  0.2207
  519MPD2    C4 7709   2.201   1.463  14.129  0.0637  0.5248 -0.0556
  519MPD2    C5 7710   2.131   1.559  14.202 -0.2060  0.5078  0.5254
  519MPD2     H 7711   2.095   1.551  13.822  1.0793  2.5503  0.3717
  519MPD2    H1 7712   2.272   1.399  14.178  0.3414 -0.3339 -1.5782
  519MPD2    H2 7713   1.976   1.704  14.195 -0.0088  2.0821 -1.3780
  519MPD2    H3 7714   2.144   1.562  14.309  0.4529 -1.1603  0.5054
  519MPD2     N 7715   2.234   1.364  13.912 -0.0807 -0.0712  0.7198
  519MPD2    H5 7716   2.216   1.377  13.813  0.5462  1.1456  0.7587
  519MPD2    N1 7717   1.924   1.729  13.951  0.3681  0.0579 -0.4350
  519MPD2    H7 7718   1.876   1.790  14.016 -0.5047  0.3822 -1.3919
  520TMC3    C1 7719   2.320   1.161  13.848 -0.9418  0.0178 -0.5603
  520TMC3    C2 7720   2.209   1.149  13.763 -0.3452  0.0412  0.7390
  520TMC3    C3 7721   2.193   1.024  13.707 -0.2145  0.1355  0.1386
  520TMC3    C4 7722   2.410   1.065  13.855 -0.5963 -0.0813  0.1072
  520TMC3    C5 7723   2.391   0.950  13.790 -0.0893 -0.0968  0.0929
  520TMC3    C6 7724   2.284   0.924  13.712  0.3756  0.2136 -0.3545
  520TMC3     C 7725   2.313   1.259  13.948  1.5341  0.5642 -0.2573
  520TMC3     O 7726   2.384   1.235  14.045 -0.0949 -0.2839 -0.5448
  520TMC3     H 7727   2.133   1.226  13.749  1.7870  1.7865 -1.2204
  520TMC3    H1 7728   2.475   1.065  13.942 -0.4974  3.0278  0.0495
  520TMC3    H2 7729   2.267   0.830  13.659 -0.5719  0.7310 -0.9636
  520TMC3    C7 7730   2.509   0.872  13.770 -0.5841  0.3662 -0.6198
  520TMC3    C8 7731   2.073   0.995  13.638  0.5308  0.6587  0.5937
  520TMC3    O1 7732   2.499   0.756  13.733  0.2300  0.1323  0.1068
  520TMC3    O2 7733   1.970   1.022  13.699 -0.3072  0.2785  0.2443
  521MPD2     C 7734   2.736   4.577  17.288  0.9132 -0.2270 -0.5775
  521MPD2    C1 7735   2.767   4.477  17.376 -0.9219  0.6800  0.1546
  521MPD2    C2 7736   2.890   4.410  17.369 -0.8247 -0.1150 -0.5101
  521MPD2    C3 7737   2.992   4.464  17.291 -0.0829 -0.3792  0.2302
  521MPD2    C4 7738   2.957   4.567  17.199  0.1215  0.8370  0.3720
  521MPD2    C5 7739   2.830   4.617  17.202  1.0264  0.0536 -0.0305
  521MPD2     H 7740   2.919   4.322  17.426 -1.3921  1.8239  2.8117
  521MPD2    H1 7741   3.028   4.621  17.138 -0.3566  0.6458 -0.3524
  521MPD2    H2 7742   2.639   4.624  17.277  1.1635  0.7304  1.3702
  521MPD2    H3 7743   2.814   4.691  17.124  0.4620 -0.6487 -0.5832
  521MPD2     N 7744   3.110   4.390  17.289 -0.6091 -0.5949  0.1339
  521MPD2    H5 7745   3.119   4.317  17.359  2.4954 -0.9883 -0.6456
  521MPD2    N1 7746   2.666   4.428  17.466  0.1824  0.0611 -0.6931
  521MPD2    H7 7747   2.571   4.459  17.447 -0.9503 -0.9858  3.2137
  522TMC3    C1 7748   3.310   4.310  17.191  0.1450 -0.0879  0.7756
  522TMC3    C2 7749   3.419   4.350  17.117 -0.0488  0.4792 -0.9977
  522TMC3    C3 7750   3.494   4.258  17.061  0.7884 -0.2287  0.0430
  522TMC3    C4 7751   3.269   4.183  17.196 -0.2683 -0.2553 -1.1363
  522TMC3    C5 7752   3.349   4.088  17.134 -0.5163  0.6717  0.0620
  522TMC3    C6 7753   3.465   4.122  17.064 -0.5735 -0.1342  0.2427
  522TMC3     C 7754   3.214   4.415  17.196 -0.0422 -0.3174  0.1851
  522TMC3     O 7755   3.231   4.511  17.122  0.3808 -0.4325 -0.1419
  522TMC3     H 7756   3.460   4.448  17.141 -1.5136  0.6494  0.8384
  522TMC3    H1 7757   3.171   4.157  17.235  0.4233 -1.2330 -0.0413
  522TMC3    H2 7758   3.535   4.042  17.042  1.3505  0.5007  4.0757
  522TMC3    C7 7759   3.295   3.959  17.095 -0.2910  0.0412 -0.1438
  522TMC3    C8 7760   3.608   4.309  16.989 -0.2497  0.6263  0.4176
  522TMC3    O1 7761   3.374   3.869  17.086 -0.5458  0.4706  0.2185
  522TMC3    O2 7762   3.653   4.420  17.031 -0.3157  0.6779  0.4787
  523MPD2     C 7763   0.838   3.735  10.277  0.1794  0.2999  0.1312
  523MPD2    C1 7764   0.796   3.712  10.145  0.6589  0.1618  0.5114
  523MPD2    C2 7765   0.747   3.818  10.071 -0.1953 -0.2575 -0.3076
  523MPD2    C3 7766   0.726   3.944  10.127 -0.6387 -0.2646  0.4067
  523MPD2    C4 7767   0.751   3.957  10.259 -0.8594 -0.5659 -0.0476
  523MPD2    C5 7768   0.818   3.855  10.334  0.5460 -0.1167  0.0368
  523MPD2     H 7769   0.723   3.807   9.966 -0.2933  0.6190 -0.3714
  523MPD2    H1 7770   0.739   4.050  10.313 -1.2116  0.1030 -1.3071
  523MPD2    H2 7771   0.857   3.655  10.348 -0.1352 -1.2108 -1.4843
  523MPD2    H3 7772   0.833   3.864  10.441  2.0373  1.8679 -0.3316
  523MPD2     N 7773   0.673   4.065  10.064 -1.4351 -0.3033 -0.3138
  523MPD2    H5 7774   0.669   4.148  10.122  1.0136  1.2881 -2.4021
  523MPD2    N1 7775   0.818   3.581  10.092  0.3241  0.2554 -0.0286
  523MPD2    H7 7776   0.871   3.516  10.149 -1.9418 -0.3661  1.3823
  524TMC3    C1 7777   0.575   4.205   9.893  0.1161  0.9284 -0.2391
  524TMC3    C2 7778   0.545   4.214   9.756  0.1649 -0.7651  0.1087
  524TMC3    C3 7779   0.483   4.334   9.718 -0.6052 -0.2903  0.3157
  524TMC3    C4 7780   0.541   4.298   9.987 -0.6273 -0.2267 -0.2124
  524TMC3    C5 7781   0.487   4.421   9.940 -0.0187  0.3793 -0.3005
  524TMC3    C6 7782   0.452   4.429   9.808 -0.0586 -0.1440 -0.4500
  524TMC3     C 7783   0.635   4.077   9.934 -0.0466  0.5968 -0.8700
  524TMC3     O 7784   0.643   3.996   9.845 -0.6881  0.1212  0.0011
  524TMC3     H 7785   0.601   4.153   9.685  1.3500 -0.0601  0.4262
  524TMC3    H1 7786   0.555   4.283  10.094 -0.2432 -0.2053 -0.2565
  524TMC3    H2 7787   0.404   4.523   9.780  0.5794  0.4961  0.6250
  524TMC3    C7 7788   0.440   4.519  10.040 -0.3790 -0.5329 -0.0791
  524TMC3    C8 7789   0.454   4.358   9.578 -0.1737  0.3318  0.7703
  524TMC3    O1 7790   0.421   4.471  10.149 -0.6567  0.0881 -0.2481
  524TMC3    O2 7791   0.420   4.472   9.558  0.1880  0.7650 -0.1273
  525MPD2     C 7792   3.289   0.703  14.161 -0.3941  0.6945  0.4658
  525MPD2    C1 7793   3.421   0.710  14.211 -0.7409  1.1404 -0.5822
  525MPD2    C2 7794   3.512   0.790  14.127 -0.2968 -0.3964 -0.5722
  525MPD2    C3 7795   3.460   0.868  14.018 -0.5800 -0.0585  0.3042
  525MPD2    C4 7796   3.324   0.854  13.984  0.6521  0.2694  0.1978
  525MPD2    C5 7797   3.239   0.780  14.055 -1.1004 -0.5630 -0.6416
  525MPD2     H 7798   3.613   0.813  14.159 -1.3112  2.2485  0.7290
  525MPD2    H1 7799   3.280   0.916  13.907 -2.4232 -0.3041  1.4802
  525MPD2    H2 7800   3.213   0.655  14.223 -0.3895 -0.3383 -0.3365
  525MPD2    H3 7801   3.133   0.781  14.031 -1.0427  1.2992 -0.8042
  525MPD2     N 7802   3.535   0.960  13.949 -0.6066  0.1781  0.5176
  525MPD2    H5 7803   3.490   1.020  13.881 -0.6103 -0.2705  0.1271
  525MPD2    N1 7804   3.468   0.655  14.335  0.4132  0.3142 -0.1691
  525MPD2    H7 7805   3.566   0.672  14.358  0.1049  1.4251  0.3231
  526TMC3    C1 7806   3.483   0.529  14.536 -0.1264 -0.3176  0.2618
  526TMC3    C2 7807   3.419   0.495  14.649  0.1832  0.3159 -0.1582
  526TMC3    C3 7808   3.486   0.437  14.757  0.2812  0.2185 -0.1439
  526TMC3    C4 7809   3.616   0.523  14.532  0.5490 -0.4122 -0.1120
  526TMC3    C5 7810   3.688   0.467  14.631  0.1016 -0.6339 -0.1190
  526TMC3    C6 7811   3.624   0.420  14.743 -0.0968 -0.2902 -0.5218
  526TMC3     C 7812   3.398   0.572  14.419 -0.3218 -0.1082 -0.8308
  526TMC3     O 7813   3.283   0.540  14.403 -0.1640  0.4424  0.4847
  526TMC3     H 7814   3.312   0.509  14.652  0.0873 -0.6206  0.4889
  526TMC3    H1 7815   3.670   0.546  14.441 -0.5640  1.4490 -0.2833
  526TMC3    H2 7816   3.679   0.383  14.829 -0.1396 -0.6670 -0.6591
  526TMC3    C7 7817   3.832   0.461  14.612  0.2961  0.5001  0.2010
  526TMC3    C8 7818   3.444   0.456  14.898 -0.0813  1.3572  0.6970
  526TMC3    O1 7819   3.891   0.355  14.625  0.6390  0.3975 -0.3344
  526TMC3    O2 7820   3.519   0.438  14.995  0.0969 -0.4970 -0.0029
  527MPD2     C 7821   0.748   3.333   0.563 -0.6768 -0.5985  0.3648
  527MPD2    C1 7822   0.762   3.286   0.690 -0.1689  0.0704 -0.3903
  527MPD2    C2 7823   0.883   3.236   0.722 -0.0280 -0.0350  0.1050
  527MPD2    C3 7824   0.990   3.240   0.634 -0.1280  0.3288  0.5504
  527MPD2    C4 7825   0.987   3.299   0.510  0.0492 -1.1149  0.4275
  527MPD2    C5 7826   0.856   3.339   0.477 -0.4315  1.0198 -0.2168
  527MPD2     H 7827   0.910   3.192   0.818 -1.2851 -1.5398 -0.2268
  527MPD2    H1 7828   1.061   3.309   0.431 -0.0722 -1.0586  0.3218
  527MPD2    H2 7829   0.659   3.357   0.506  0.8585  1.9330 -0.9736
  527MPD2    H3 7830   0.838   3.374   0.376 -0.7463 -2.1251 -1.2581
  527MPD2     N 7831   1.110   3.181   0.687 -0.7396 -0.4411 -0.4684
  527MPD2    H5 7832   1.104   3.116   0.765 -1.0506 -0.2802 -0.3598
  527MPD2    N1 7833   0.652   3.259   0.772  0.1913  0.1123 -0.7885
  527MPD2    H7 7834   0.672   3.235   0.869 -0.4360 -2.3526 -1.2715
  528TMC3    C1 7835   0.433   3.258   0.857 -0.1985 -0.8360  0.2715
  528TMC3    C2 7836   0.479   3.276   0.981 -0.0828 -0.1349 -0.5894
  528TMC3    C3 7837   0.402   3.257   1.089  0.2378  0.0425 -0.5319
  528TMC3    C4 7838   0.304   3.224   0.828 -0.2968 -0.5337  0.2527
  528TMC3    C5 7839   0.227   3.204   0.941  0.2208 -0.5843  0.4155
  528TMC3    C6 7840   0.274   3.207   1.067  0.0714 -0.2981 -0.1509
  528TMC3     C 7841   0.516   3.268   0.744  0.3711  0.0630 -0.4065
  528TMC3     O 7842   0.461   3.270   0.633  0.0109 -0.3638  0.3145
  528TMC3     H 7843   0.578   3.319   0.991  1.1035 -3.0737  0.2327
  528TMC3    H1 7844   0.282   3.189   0.727  1.2100  2.1799 -1.0131
  528TMC3    H2 7845   0.208   3.168   1.143 -0.1540  1.4061  0.5271
  528TMC3    C7 7846   0.093   3.147   0.917 -0.5309  0.0940 -0.0255
  528TMC3    C8 7847   0.448   3.309   1.219  1.0659  0.2113  0.5237
  528TMC3    O1 7848   0.042   3.103   1.021  0.4251  0.0972  0.0576
  528TMC3    O2 7849   0.558   3.364   1.224  0.0297  0.2507  0.2033
  529MPD2     C 7850   3.187   1.451   0.324 -0.7958  0.0782  0.2597
  529MPD2    C1 7851   3.199   1.550   0.423 -0.6068 -1.1838 -0.4238
  529MPD2    C2 7852   3.181   1.683   0.380  0.1478 -0.2264 -0.0001
  529MPD2    C3 7853   3.161   1.720   0.249  0.3180 -0.5585 -0.1549
  529MPD2    C4 7854   3.159   1.620   0.153 -0.4483 -0.0067  0.5773
  529MPD2    C5 7855   3.161   1.491   0.187 -0.1593  0.2559  0.5699
  529MPD2     H 7856   3.179   1.754   0.462 -0.1068  0.5799 -0.7134
  529MPD2    H1 7857   3.147   1.647   0.049 -0.7658  0.1098  0.6454
  529MPD2    H2 7858   3.197   1.345   0.344 -1.2316  0.1512  0.8653
  529MPD2    H3 7859   3.167   1.417   0.108  2.8722  0.3158  0.7677
  529MPD2     N 7860   3.148   1.850   0.207 -0.4473 -0.1740 -0.0247
  529MPD2    H5 7861   3.119   1.858   0.109 -1.0838 -1.1906  0.0761
  529MPD2    N1 7862   3.220   1.522   0.557 -0.1325 -0.1698  0.0599
  529MPD2    H7 7863   3.221   1.602   0.619  0.5071  0.0894 -0.2836
  530TMC3    C1 7864   3.256   1.395   0.745 -0.2188  0.0234  0.4727
  530TMC3    C2 7865   3.316   1.501   0.809  0.0596 -0.3769  0.3532
  530TMC3    C3 7866   3.354   1.496   0.937  0.7696  0.8230  0.1256
  530TMC3    C4 7867   3.249   1.271   0.806 -0.0209  0.4659 -0.1771
  530TMC3    C5 7868   3.308   1.265   0.928  0.2887 -0.1690 -0.6516
  530TMC3    C6 7869   3.346   1.374   0.998 -0.0049  0.6530  0.5304
  530TMC3     C 7870   3.224   1.395   0.606 -0.0647 -0.3741 -0.2952
  530TMC3     O 7871   3.200   1.287   0.561  0.0141  0.0331  0.3041
  530TMC3     H 7872   3.317   1.597   0.759 -1.0591 -1.0627 -0.9791
  530TMC3    H1 7873   3.223   1.184   0.748 -0.0518  0.8038 -0.6745
  530TMC3    H2 7874   3.384   1.368   1.099 -1.0197 -0.8795  0.8078
  530TMC3    C7 7875   3.295   1.141   1.009  0.0850 -0.0051  0.7847
  530TMC3    C8 7876   3.409   1.614   1.007  0.3293  0.0466  0.4077
  530TMC3    O1 7877   3.373   1.123   1.102 -0.0827 -0.1074 -0.1756
  530TMC3    O2 7878   3.365   1.723   0.975  0.1704 -0.4807 -0.1179
  531MPD2     C 7879   2.825   4.150  12.600 -0.4367 -0.1406 -0.5023
  531MPD2    C1 7880   2.760   4.276  12.573  0.6297  0.6205 -0.1368
  531MPD2    C2 7881   2.659   4.274  12.477  0.8376 -0.2159 -0.1783
  531MPD2    C3 7882   2.620   4.157  12.419 -0.0587  0.1838 -0.9913
  531MPD2    C4 7883   2.667   4.041  12.463 -0.3164 -0.1593  0.3808
  531MPD2    C5 7884   2.770   4.033  12.551  0.0806 -1.2098 -0.6087
  531MPD2     H 7885   2.626   4.369  12.437  1.2716  0.3379  0.7799
  531MPD2    H1 7886   2.629   3.950  12.419 -0.4211 -0.4889  1.1559
  531MPD2    H2 7887   2.906   4.131  12.670 -0.4783 -2.6936 -1.1263
  531MPD2    H3 7888   2.809   3.934  12.567 -2.3864 -1.8531  1.4866
  531MPD2     N 7889   2.502   4.157  12.338  0.0437  0.1393 -0.3356
  531MPD2    H5 7890   2.464   4.067  12.311 -0.3466  0.4752 -0.8992
  531MPD2    N1 7891   2.793   4.385  12.647  1.2094  0.0774  0.7888
  531MPD2    H7 7892   2.858   4.371  12.723  1.8634 -2.0056 -0.1445
  532TMC3    C1 7893   2.762   4.603  12.736 -0.0261  0.6679 -0.5098
  532TMC3    C2 7894   2.668   4.701  12.743  0.1084  0.7217  0.2409
  532TMC3    C3 7895   2.617   0.019  12.868 -0.0361  0.0058 -0.2796
  532TMC3    C4 7896   2.842   4.572  12.840 -0.5176 -0.2560  0.5741
  532TMC3    C5 7897   2.800   4.627  12.961 -0.2656  0.5206  0.0305
  532TMC3    C6 7898   2.687   4.712  12.980 -0.4382 -0.9704 -0.3592
  532TMC3     C 7899   2.741   4.509  12.629 -0.2044 -0.2378  0.3670
  532TMC3     O 7900   2.674   4.549  12.532  0.3450  0.1264  0.1220
  532TMC3     H 7901   2.600   0.001  12.661 -1.7092  0.4850  1.6939
  532TMC3    H1 7902   2.933   4.515  12.838 -0.6935 -0.5019 -0.5933
  532TMC3    H2 7903   2.671   0.036  13.078 -0.8378  0.8423 -1.2422
  532TMC3    C7 7904   2.891   4.639  13.074 -0.2703 -0.0186 -0.8486
  532TMC3    C8 7905   2.473   0.014  12.874  0.1306  0.5692 -0.3929
  532TMC3    O1 7906   2.910   0.022  13.137  0.1041  0.7537 -0.1675
  532TMC3    O2 7907   2.418   0.088  12.955 -0.2302  0.1758 -0.3609
  533TMC3    C1 7908   3.708   1.114  13.918  0.5350  0.3209  0.3176
  533TMC3    C2 7909   3.829   1.149  13.970  0.1369  0.5265  0.6082
  533TMC3    C3 7910   3.853   1.271  14.027 -0.1030  0.2232 -0.5733
  533TMC3    C4 7911   3.615   1.213  13.915 -0.0020 -0.0663 -0.2148
  533TMC3    C5 7912   3.639   1.337  13.963  0.0786 -0.3983  0.1863
  533TMC3    C6 7913   3.760   1.365  14.024  0.5270 -1.0074 -0.0424
  533TMC3     C 7914   3.662   0.989  13.967 -0.6136 -1.2691  0.2412
  533TMC3     O 7915   3.746   0.922  14.024  0.2432 -0.6192  0.3959
  533TMC3     H 7916   3.915   1.082  13.968  0.3083  0.8028 -0.9406
  533TMC3    H1 7917   3.512   1.189  13.891 -0.5358  2.1778 -0.0829
  533TMC3    H2 7918   3.793   1.465  14.047  0.9342 -1.6791  2.2803
  533TMC3    C7 7919   3.525   1.382  14.039  0.2019  0.2583  0.1043
  533TMC3    C8 7920   3.935   1.253  14.147 -0.2216  0.4595  0.2869
  533TMC3    O1 7921   3.450   1.289  14.069  0.0301 -0.3534  0.4022
  533TMC3    O2 7922   4.040   1.188  14.144  0.2469  0.1974  0.3103
  534MPD2     C 7923   1.201   2.210   1.364 -0.4716 -0.8348  0.2547
  534MPD2    C1 7924   1.143   2.273   1.257  0.5220 -0.1577  0.5362
  534MPD2    C2 7925   1.060   2.201   1.179 -0.6833  0.1543  0.5793
  534MPD2    C3 7926   1.039   2.064   1.192 -0.1565  0.1955  0.2252
  534MPD2    C4 7927   1.099   1.996   1.301  0.6981 -0.3687 -0.3769
  534MPD2    C5 7928   1.181   2.071   1.377 -0.8248  0.4185  0.4486
  534MPD2     H 7929   1.023   2.251   1.091  0.2505  0.1832  0.2054
  534MPD2    H1 7930   1.096   1.888   1.310 -1.0045 -0.4074 -1.3362
  534MPD2    H2 7931   1.269   2.266   1.427  0.6692 -0.1278 -1.6004
  534MPD2    H3 7932   1.229   2.021   1.460  1.1920 -1.8614 -2.0795
  534MPD2     N 7933   0.973   1.980   1.098  0.0343 -0.1144 -0.0545
  534MPD2    H5 7934   0.925   1.900   1.138  1.0351 -0.9963 -0.6284
  534MPD2    N1 7935   1.154   2.412   1.228 -0.3427 -0.6002 -0.4901
  534MPD2    H7 7936   1.095   2.447   1.154  0.2867 -1.9261 -1.6232
  535TMC3    C1 7937   0.888   1.916   0.889  0.2392  0.0483 -0.0034
  535TMC3    C2 7938   0.767   1.889   0.948 -0.6021  0.6440 -0.1637
  535TMC3    C3 7939   0.683   1.806   0.873 -0.2597 -0.1509  0.4178
  535TMC3    C4 7940   0.935   1.876   0.766  0.2758  0.1789 -0.5932
  535TMC3    C5 7941   0.843   1.802   0.691  0.1913 -0.7108 -0.2788
  535TMC3    C6 7942   0.721   1.763   0.748  0.2473 -0.0560 -0.2629
  535TMC3     C 7943   0.973   2.010   0.961 -0.7935 -0.0515  0.4741
  535TMC3     O 7944   1.039   2.096   0.904 -0.1829 -0.1811  0.4378
  535TMC3     H 7945   0.740   1.937   1.041 -0.3185  1.0312 -0.2773
  535TMC3    H1 7946   1.028   1.908   0.722  0.9191  0.7905  1.2436
  535TMC3    H2 7947   0.657   1.692   0.696  1.5389 -0.7522 -0.8993
  535TMC3    C7 7948   0.863   1.781   0.549 -0.2197  0.5366 -0.1117
  535TMC3    C8 7949   0.548   1.780   0.919 -0.0301  1.3396 -0.0451
  535TMC3    O1 7950   0.982   1.801   0.521  0.1037 -0.2278 -0.1081
  535TMC3    O2 7951   0.457   1.745   0.837  0.3565  0.2478 -0.1401
  536MPD2     C 7952   0.242   0.983  16.057  0.3801  0.3481  0.9100
  536MPD2    C1 7953   0.130   0.935  16.115  0.7282 -0.0610 -0.1089
  536MPD2    C2 7954   0.021   0.901  16.026  0.5250 -0.1622  0.4614
  536MPD2    C3 7955   0.023   0.942  15.898  0.0848 -0.0254 -0.1959
  536MPD2    C4 7956   0.138   0.996  15.838 -0.2256 -0.2152  0.3255
  536MPD2    C5 7957   0.252   1.011  15.925  0.0867  0.6448  0.2115
  536MPD2     H 7958   4.650   0.865  16.074  0.7578 -1.0915  0.1995
  536MPD2    H1 7959   0.139   1.037  15.737  0.1208 -2.6410 -0.6416
  536MPD2    H2 7960   0.329   1.013  16.115  0.5084  0.8344  0.4641
  536MPD2    H3 7961   0.347   1.042  15.883 -0.6964  2.0803 -0.5198
  536MPD2     N 7962   4.620   0.912  15.826  0.4384 -0.3594 -0.2134
  536MPD2    H5 7963   4.535   0.885  15.875 -0.8590 -0.2750 -2.4062
  536MPD2    N1 7964   0.130   0.919  16.255 -1.0021 -0.2889  0.0614
  536MPD2    H7 7965   0.222   0.931  16.297  0.5806  1.5605 -3.9114
  537TMC3    C1 7966   0.069   0.809  16.468  0.3728 -0.1701 -0.3693
  537TMC3    C2 7967   0.199   0.826  16.518 -0.1796 -0.0208  0.2971
  537TMC3    C3 7968   0.232   0.747  16.627  0.1038 -0.4366  0.3904
  537TMC3    C4 7969   4.693   0.725  16.523 -0.1008 -0.9603  0.1551
  537TMC3    C5 7970   0.020   0.648  16.625  0.2719 -0.4804 -0.9350
  537TMC3    C6 7971   0.141   0.661  16.684 -0.3803  0.0258 -0.7034
  537TMC3     C 7972   0.024   0.868  16.333 -0.7063  0.2524 -0.7201
  537TMC3     O 7973   4.631   0.830  16.300 -0.5671  0.0417  0.1111
  537TMC3     H 7974   0.266   0.907  16.491 -2.1501  0.9264 -1.7066
  537TMC3    H1 7975   4.588   0.727  16.495  0.1806 -0.8290 -0.8896
  537TMC3    H2 7976   0.166   0.600  16.770  0.3210 -0.4707 -1.2739
  537TMC3    C7 7977   4.644   0.565  16.701 -0.4497 -0.0556 -0.4333
  537TMC3    C8 7978   0.363   0.752  16.692  0.2106 -0.2801 -0.3102
  537TMC3    O1 7979   4.528   0.581  16.667  0.6501 -0.0844 -0.1863
  537TMC3    O2 7980   0.364   0.687  16.795  0.0280  0.0068  0.0666
  538TMC3    C1 7981   1.318   3.531  10.907  1.3525 -0.0751 -0.1911
  538TMC3    C2 7982   1.399   3.471  10.814  0.1349  0.3453 -0.2377
  538TMC3    C3 7983   1.390   3.529  10.695 -0.5061 -0.5739  0.7754
  538TMC3    C4 7984   1.248   3.646  10.888 -0.4096 -0.0598  0.7796
  538TMC3    C5 7985   1.238   3.695  10.763 -0.3699  0.2889  0.8522
  538TMC3    C6 7986   1.313   3.642  10.660  0.3016  0.0960 -0.2670
  538TMC3     C 7987   1.328   3.490  11.045 -0.1046 -0.2480 -0.2456
  538TMC3     O 7988   1.231   3.500  11.115 -0.6639 -0.1751 -0.1718
  538TMC3     H 7989   1.451   3.377  10.818  0.7939  0.7301  0.1251
  538TMC3    H1 7990   1.186   3.690  10.965 -0.4397  0.1987  0.6058
  538TMC3    H2 7991   1.271   3.651  10.560 -0.8598  2.2946  0.4029
  538TMC3    C7 7992   1.141   3.802  10.742  0.2975  0.7303 -0.1295
  538TMC3    C8 7993   1.473   3.465  10.594 -0.3738 -0.2135 -0.3391
  538TMC3    O1 7994   1.062   3.828  10.829  0.4205 -0.3104 -0.0405
  538TMC3    O2 7995   1.523   3.355  10.606  0.4574 -0.4120  0.5741
  539MPD2     C 7996   1.148   3.126  11.705  0.3396 -0.3904 -0.0029
  539MPD2    C1 7997   1.136   3.132  11.564  0.1854  0.4108 -0.0179
  539MPD2    C2 7998   1.078   3.243  11.505  0.3486  0.5005 -1.4533
  539MPD2    C3 7999   1.020   3.343  11.584  0.0210  0.2002 -0.6242
  539MPD2    C4 8000   1.033   3.336  11.719 -0.1309  0.3896  0.3281
  539MPD2    C5 8001   1.096   3.228  11.773 -0.1817 -0.4631 -0.9315
  539MPD2     H 8002   1.075   3.253  11.397  1.5666 -0.4891 -1.5700
  539MPD2    H1 8003   0.991   3.407  11.789  1.3094 -1.0341  2.6346
  539MPD2    H2 8004   1.187   3.041  11.760  0.3461 -2.3467 -3.0199
  539MPD2    H3 8005   1.120   3.214  11.878  0.6311 -1.6960 -1.2849
  539MPD2     N 8006   0.957   3.458  11.538 -0.1795  0.4632 -0.2825
  539MPD2    H5 8007   0.916   3.525  11.603  0.1795  0.2428  0.1685
  539MPD2    N1 8008   1.183   3.025  11.473 -0.3482 -0.2822  0.2047
  539MPD2    H7 8009   1.174   3.045  11.374  3.7988 -1.4970 -0.4087
  540TMC3    C1 8010   0.838   3.612  11.402  0.5037 -0.2815 -0.1696
  540TMC3    C2 8011   0.812   3.659  11.274  0.1014  0.1370  1.0231
  540TMC3    C3 8012   0.735   3.775  11.262 -1.1342 -0.2164  0.4712
  540TMC3    C4 8013   0.792   3.676  11.512  0.3794  0.7766 -0.1671
  540TMC3    C5 8014   0.727   3.797  11.489  1.1406  0.0177 -0.7307
  540TMC3    C6 8015   0.693   3.850  11.365 -0.4149 -0.5735  0.0509
  540TMC3     C 8016   0.922   3.487  11.408  0.5899 -0.7886  0.2874
  540TMC3     O 8017   0.944   3.425  11.307 -0.0815 -0.2298  0.1625
  540TMC3     H 8018   0.852   3.598  11.194  0.7007  1.5433  0.2359
  540TMC3    H1 8019   0.820   3.649  11.613  0.1739  1.9183  0.2025
  540TMC3    H2 8020   0.634   3.940  11.360  3.6618  2.2310  2.2848
  540TMC3    C7 8021   0.663   3.851  11.609 -0.0318  0.7188  0.2892
  540TMC3    C8 8022   0.693   3.813  11.130 -0.0508  0.9323  0.3144
  540TMC3    O1 8023   0.644   3.764  11.701  0.6456  0.0347  0.4998
  540TMC3    O2 8024   0.656   3.929  11.110  0.6720 -0.2596 -0.8726
  541MPD2     C 8025   4.023   4.519  13.219 -0.6444  0.8653 -0.1414
  541MPD2    C1 8026   3.889   4.503  13.179 -0.4300  0.5839  0.7555
  541MPD2    C2 8027   3.832   4.606  13.102 -0.1785 -0.6100 -0.5041
  541MPD2    C3 8028   3.909   4.716  13.060  0.2678 -0.5635  0.3053
  541MPD2    C4 8029   4.039   0.004  13.099  0.0626  0.4641  0.9928
  541MPD2    C5 8030   4.099   4.630  13.175  0.3487  0.3608 -0.1316
  541MPD2     H 8031   3.729   4.587  13.074 -0.6040 -0.2036  0.7683
  541MPD2    H1 8032   4.102   0.080  13.053  0.7782  0.6134  2.2158
  541MPD2    H2 8033   4.077   4.444  13.275  2.2330  0.9375 -2.7958
  541MPD2    H3 8034   4.200   4.642  13.212  0.9250 -0.2141 -1.4971
  541MPD2     N 8035   3.858   0.092  12.964  0.0784 -0.0816  0.3078
  541MPD2    H5 8036   3.930   0.151  12.923  0.7920 -0.8758  0.4144
  541MPD2    N1 8037   3.827   4.376  13.209  0.3209 -0.7240 -0.6994
  541MPD2    H7 8038   3.894   4.309  13.246  1.7119  1.1975  0.2424
  542TMC3    C1 8039   3.703   0.152  12.799 -0.4282 -0.3445  0.2392
  542TMC3    C2 8040   3.798   0.137  12.698  0.3180  0.0279 -0.5300
  542TMC3    C3 8041   3.747   0.125  12.575 -0.3295  0.5260  0.3117
  542TMC3    C4 8042   3.571   0.165  12.773  0.5226 -0.3331  0.2650
  542TMC3    C5 8043   3.528   0.164  12.646 -0.1742  0.7495  0.2555
  542TMC3    C6 8044   3.613   0.146  12.543  0.1005  0.7945  0.2000
  542TMC3     C 8045   3.728   0.108  12.935 -0.6721 -0.5118 -0.0845
  542TMC3     O 8046   3.634   0.087  13.008  0.1940  0.4152 -0.2270
  542TMC3     H 8047   3.901   0.119  12.724 -0.0934 -0.2463  0.9077
  542TMC3    H1 8048   3.507   0.208  12.849 -1.2513  1.5122 -2.2866
  542TMC3    H2 8049   3.577   0.166  12.443 -0.1199  0.1137  0.1433
  542TMC3    C7 8050   3.411   0.250  12.617 -0.3971  0.0460  0.1401
  542TMC3    C8 8051   3.836   0.096  12.463 -0.1045  0.8539  0.4368
  542TMC3    O1 8052   3.375   0.338  12.695  0.3177 -0.5678 -0.2460
  542TMC3    O2 8053   3.792   0.111  12.349  0.4590 -0.2304 -0.0618
  543TMC3    C1 8054   3.203   1.084  17.161 -0.0147  0.3055 -0.2610
  543TMC3    C2 8055   3.289   1.033  17.257 -0.2391  0.3141  0.1097
  543TMC3    C3 8056   3.241   0.964  17.364  0.3162 -0.5240 -0.2288
  543TMC3    C4 8057   3.068   1.064  17.155  0.2507 -0.2221 -0.4930
  543TMC3    C5 8058   3.025   0.999  17.272 -0.3646 -0.0439 -0.1546
  543TMC3    C6 8059   3.106   0.945  17.369  0.4376 -0.3568  0.2644
  543TMC3     C 8060   3.276   1.135  17.045  0.5465  0.4783 -0.5605
  543TMC3     O 8061   3.393   1.105  17.033  0.0090  0.5889 -0.2860
  543TMC3     H 8062   3.394   1.059  17.253 -0.4122  1.0797  0.4287
  543TMC3    H1 8063   3.001   1.118  17.088 -0.2103 -0.4108 -0.1882
  543TMC3    H2 8064   3.065   0.880  17.445  2.8344 -0.8037  1.1790
  543TMC3    C7 8065   2.888   1.027  17.314  0.0047  0.3254  0.0919
  543TMC3    C8 8066   3.329   0.861  17.407 -0.9189  0.7489 -0.0639
  543TMC3    O1 8067   2.865   1.013  17.435 -0.1575 -0.4666 -0.0185
  543TMC3    O2 8068   3.441   0.853  17.357  0.5068  0.1103  0.5215
  544MPD2     C 8069   3.380   0.394  17.592  0.0630  0.1920  0.0212
  544MPD2    C1 8070   3.431   0.452  17.476  0.2940  0.6780  0.1330
  544MPD2    C2 8071   3.393   0.581  17.450 -0.2076 -0.0574  0.3709
  544MPD2    C3 8072   3.321   0.652  17.539 -0.6978 -0.6050  0.7347
  544MPD2    C4 8073   3.274   0.598  17.659  0.3882  0.1950  0.2920
  544MPD2    C5 8074   3.296   0.464  17.676  0.3824  0.5078 -0.5946
  544MPD2     H 8075   3.434   0.624  17.359 -0.3067 -0.0510  0.3295
  544MPD2    H1 8076   3.227   0.664   0.049 -1.5021  0.9985 -1.7019
  544MPD2    H2 8077   3.400   0.288  17.606  1.0649  0.6494  2.0243
  544MPD2    H3 8078   3.263   0.431   0.093 -0.1203  0.3160 -0.8249
  544MPD2     N 8079   3.282   0.788  17.514  0.6806 -0.3660 -0.0817
  544MPD2    H5 8080   3.214   0.833  17.575  1.4453  1.1206 -0.3194
  544MPD2    N1 8081   3.505   0.373  17.380 -0.0453 -0.3206 -0.5677
  544MPD2    H7 8082   3.517   0.417  17.289 -0.1861 -1.3202 -1.0659
  545TMC3    C1 8083   3.636   0.207  17.287 -0.5472 -0.0301  0.6943
  545TMC3    C2 8084   3.593   0.242  17.165 -0.2178 -0.0975  0.0022
  545TMC3    C3 8085   3.678   0.214  17.061  0.3495 -0.1161 -0.1778
  545TMC3    C4 8086   3.759   0.154  17.311 -0.1484  0.4728 -0.6101
  545TMC3    C5 8087   3.840   0.129  17.208  0.4832 -0.1406  0.4509
  545TMC3    C6 8088   3.800   0.159  17.083 -1.0486  0.0322 -0.5541
  545TMC3     C 8089   3.558   0.247  17.398 -0.2952  0.1312 -0.1203
  545TMC3     O 8090   3.574   0.182  17.501  0.2482 -0.1272 -0.4160
  545TMC3     H 8091   3.497   0.287  17.140 -1.0678 -1.5747  0.5941
  545TMC3    H1 8092   3.788   0.140  17.415  0.0011  1.1308 -0.5661
  545TMC3    H2 8093   3.875   0.150  17.005  1.0219 -0.7505  1.5356
  545TMC3    C7 8094   3.982   0.112  17.236  0.1815  0.5212  0.2890
  545TMC3    C8 8095   3.633   0.261  16.928  1.2916 -0.1253  0.1073
  545TMC3    O1 8096   4.061   0.154  17.152  0.3952  0.3660 -0.1351
  545TMC3    O2 8097   3.522   0.313  16.913  0.3993 -0.1678 -0.2671
  546MPD2     C 8098   0.445   0.919  17.031  0.2285 -0.4530  0.3307
  546MPD2    C1 8099   0.340   1.004  17.021 -0.1962  0.5192  0.4669
  546MPD2    C2 8100   0.364   1.139  16.990 -0.4523  0.6234 -0.1416
  546MPD2    C3 8101   0.492   1.190  17.001 -0.0624 -0.4213  0.1063
  546MPD2    C4 8102   0.599   1.105  17.024 -0.6100  0.1211 -0.3424
  546MPD2    C5 8103   0.571   0.968  17.037 -0.0716  0.1165 -0.0258
  546MPD2     H 8104   0.277   1.202  16.973  0.0061  1.5319  0.9315
  546MPD2    H1 8105   0.703   1.134  17.038 -0.7944  0.5874  0.0363
  546MPD2    H2 8106   0.431   0.812  17.041  2.6052 -0.8017  0.0420
  546MPD2    H3 8107   0.653   0.899  17.057 -0.3769 -0.4680 -0.7943
  546MPD2     N 8108   0.527   1.327  16.991  0.5484  0.5206 -0.1924
  546MPD2    H5 8109   0.626   1.350  17.000  0.7887 -0.9977  0.9789
  546MPD2    N1 8110   0.213   0.949  17.015  0.1178  0.2179 -0.3426
  546MPD2    H7 8111   0.206   0.848  17.026 -0.0169  0.1262 -1.2854
  547TMC3    C1 8112   4.709   0.922  17.003  0.2351 -0.1102 -0.2950
  547TMC3    C2 8113   4.594   0.928  16.919 -0.3833 -0.1538  0.3011
  547TMC3    C3 8114   4.503   0.834  16.929  0.3093  0.2972 -0.5360
  547TMC3    C4 8115   0.008   0.820  17.090 -0.1002 -0.5938 -0.3261
  547TMC3    C5 8116   4.630   0.725  17.100  0.0447  0.1716  0.5948
  547TMC3    C6 8117   4.517   0.735  17.024  0.2365 -0.0421 -0.4181
  547TMC3     C 8118   0.095   1.018  17.002  0.6797 -0.5002  0.4507
  547TMC3     O 8119   0.064   1.137  16.998  0.0046 -0.3722  0.6763
  547TMC3     H 8120   4.584   1.018  16.860 -1.2124 -1.3568 -1.4087
  547TMC3    H1 8121   0.097   0.815  17.153 -1.1236 -0.5910  1.1226
  547TMC3    H2 8122   4.437   0.667  17.050  1.7842 -1.6122  0.2951
  547TMC3    C7 8123   4.629   0.629  17.208  0.3466  0.2496 -1.0050
  547TMC3    C8 8124   4.373   0.864  16.885 -0.6685 -0.5408  0.2723
  547TMC3    O1 8125   4.518   0.583  17.246  0.2606 -0.5907  0.1436
  547TMC3    O2 8126   4.338   0.980  16.866  0.1429  0.0708  0.6425
  548MPD2     C 8127   0.114   2.106  12.116 -0.8583 -0.5095  0.3298
  548MPD2    C1 8128   0.064   1.978  12.108  0.3721 -0.4695 -0.0083
  548MPD2    C2 8129   0.155   1.876  12.072  0.2070 -0.5766  0.3127
  548MPD2    C3 8130   0.283   1.903  12.040  0.5615  0.1520 -0.7012
  548MPD2    C4 8131   0.329   2.030  12.055 -0.8135 -0.0505 -0.2987
  548MPD2    C5 8132   0.244   2.128  12.087  0.4275 -0.1578 -0.0009
  548MPD2     H 8133   0.130   1.770  12.073 -0.6227 -0.3723  2.0200
  548MPD2    H1 8134   0.435   2.053  12.048 -0.9801  1.3290  1.6702
  548MPD2    H2 8135   0.049   2.188  12.147 -0.1427 -0.6478  2.2033
  548MPD2    H3 8136   0.278   2.230  12.104  2.0249 -1.1833  2.9704
  548MPD2     N 8137   0.355   1.792  11.990 -0.4138 -0.0632 -0.7983
  548MPD2    H5 8138   0.319   1.702  12.021  1.1544 -0.4721 -0.1601
  548MPD2    N1 8139   4.647   1.957  12.148 -0.2586  0.4282 -0.5888
  548MPD2    H7 8140   4.589   2.037  12.169 -0.5012 -0.1454  0.9443
  549TMC3    C1 8141   4.448   1.833  12.191 -0.7603 -0.3141  0.3285
  549TMC3    C2 8142   4.392   1.943  12.255 -0.1801  0.2334  0.2884
  549TMC3    C3 8143   4.264   1.933  12.296 -0.3324  0.1628  0.5312
  549TMC3    C4 8144   4.375   1.724  12.151  0.1067  0.3290  0.3551
  549TMC3    C5 8145   4.247   1.718  12.195  0.2433 -0.0305 -0.0836
  549TMC3    C6 8146   4.191   1.823  12.259 -0.1282  0.3608 -0.3978
  549TMC3     C 8147   4.583   1.834  12.144  0.0636 -0.1106 -0.3811
  549TMC3     O 8148   4.620   1.734  12.089  0.1299 -0.5025  0.1126
  549TMC3     H 8149   4.446   2.036  12.271  1.4032 -0.9980  2.2417
  549TMC3    H1 8150   4.412   1.633  12.104 -0.5176  0.1552  0.1978
  549TMC3    H2 8151   4.091   1.818  12.299  0.1307 -2.5512 -0.1332
  549TMC3    C7 8152   4.150   1.621  12.134 -0.1476  0.4474 -0.1416
  549TMC3    C8 8153   4.192   2.054  12.283  0.3830  0.5236 -0.2853
  549TMC3    O1 8154   4.036   1.660  12.124 -0.1813 -0.1023  0.4078
  549TMC3    O2 8155   4.089   2.044  12.218  0.1699 -0.5960  0.2130
  550TMC3    C1 8156   3.062   4.238  11.887 -0.5277  0.2671  0.5222
  550TMC3    C2 8157   3.044   4.310  12.004 -0.8454 -0.1621  0.4692
  550TMC3    C3 8158   2.913   4.338  12.038 -0.0429 -0.1358  0.0902
  550TMC3    C4 8159   2.961   4.199  11.802 -0.1862  0.8333  0.2307
  550TMC3    C5 8160   2.835   4.232  11.841 -0.6043 -0.2126  0.2729
  550TMC3    C6 8161   2.811   4.296  11.962 -0.4765  0.0411  0.4813
  550TMC3     C 8162   3.199   4.194  11.865 -0.3257  0.1789  0.0077
  550TMC3     O 8163   3.277   4.180  11.955  0.5723 -0.6640  0.7260
  550TMC3     H 8164   3.132   4.342  12.058  1.3326 -3.2015 -1.2782
  550TMC3    H1 8165   2.976   4.149  11.706 -1.2686  0.3933  0.2852
  550TMC3    H2 8166   2.714   4.336  11.988 -0.5480  0.6560 -0.7223
  550TMC3    C7 8167   2.721   4.205  11.751 -0.1734  0.3115 -0.4213
  550TMC3    C8 8168   2.883   4.415  12.164 -0.0661 -0.8980  0.2016
  550TMC3    O1 8169   2.619   4.273  11.760  0.5844  0.0035  0.2448
  550TMC3    O2 8170   2.779   4.480  12.168  0.2842  0.6837  0.2597
  551TMC3    C1 8171   1.017   2.034  13.137  0.0529 -0.5122 -0.0544
  551TMC3    C2 8172   1.145   2.029  13.078  0.2055  0.1665 -0.5151
  551TMC3    C3 8173   1.245   2.113  13.130 -0.9170 -0.4878 -0.0335
  551TMC3    C4 8174   0.999   2.093  13.266 -0.3719  0.1034 -0.2518
  551TMC3    C5 8175   1.104   2.173  13.306 -0.4851  0.8864 -0.5114
  551TMC3    C6 8176   1.222   2.187  13.240  0.1140  0.0115  0.1339
  551TMC3     C 8177   0.900   2.010  13.041  0.0384  0.0470 -1.1512
  551TMC3     O 8178   0.931   1.988  12.925 -0.2679  0.1774 -0.2968
  551TMC3     H 8179   1.172   1.989  12.981 -0.0225 -0.2772 -0.3918
  551TMC3    H1 8180   0.906   2.086  13.321 -0.7981 -1.1285 -1.1132
  551TMC3    H2 8181   1.304   2.245  13.281  0.6458  0.8756 -2.1642
  551TMC3    C7 8182   1.096   2.227  13.442 -0.6429  0.1475  0.5661
  551TMC3    C8 8183   1.346   2.154  13.038 -0.5633 -0.7185  0.4411
  551TMC3    O1 8184   1.035   2.160  13.528 -0.7467  0.1059 -0.2586
  551TMC3    O2 8185   1.400   2.070  12.968  1.0659  0.1179  0.0904
  552MPD2     C 8186   2.864   4.692  13.488 -0.2988 -0.0804 -0.6656
  552MPD2    C1 8187   2.866   4.555  13.514 -0.2345  0.5909 -0.1457
  552MPD2    C2 8188   2.977   4.509  13.584  0.5092  0.1763  0.2221
  552MPD2    C3 8189   3.070   4.588  13.643  0.3871 -0.1650  0.3979
  552MPD2    C4 8190   3.060   0.003  13.619  0.7575  0.3638 -0.1632
  552MPD2    C5 8191   2.958   0.052  13.544 -0.1837 -0.1330 -0.6517
  552MPD2     H 8192   2.976   4.401  13.597 -0.5201  0.0766 -0.6829
  552MPD2    H1 8193   3.139   0.072  13.650 -1.1008  1.4871  2.0628
  552MPD2    H2 8194   2.789   0.031  13.436  0.6840  2.0589  0.3483
  552MPD2    H3 8195   2.958   0.155  13.513 -3.1476 -0.3331 -1.3567
  552MPD2     N 8196   3.178   4.541  13.726 -0.6500  0.2739  0.4289
  552MPD2    H5 8197   3.236   4.614  13.767 -0.2707  0.1463  0.1217
  552MPD2    N1 8198   2.762   4.469  13.464  0.4310 -0.1677  0.3735
  552MPD2    H7 8199   2.770   4.368  13.472  1.4024 -0.0681  0.6800
  553TMC3    C1 8200   2.544   4.403  13.405  0.6593  0.4965 -0.2495
  553TMC3    C2 8201   2.588   4.304  13.329  0.3504  0.9104 -0.7962
  553TMC3    C3 8202   2.567   4.171  13.358  0.3246  0.7857  0.4055
  553TMC3    C4 8203   2.478   4.377  13.525 -0.0031 -0.0159  0.0597
  553TMC3    C5 8204   2.458   4.245  13.553  0.2032 -0.2824  0.1199
  553TMC3    C6 8205   2.506   4.141  13.475  0.1571 -0.4744  0.1415
  553TMC3     C 8206   2.636   4.514  13.438  0.3700 -0.6237  0.1270
  553TMC3     O 8207   2.587   4.625  13.458 -0.0365 -0.0499 -0.5914
  553TMC3     H 8208   2.644   4.335  13.242  1.7964  1.3649  0.2956
  553TMC3    H1 8209   2.447   4.458  13.589  0.5982 -0.6973  1.2166
  553TMC3    H2 8210   2.501   4.044  13.523 -0.5761 -0.3666  0.2856
  553TMC3    C7 8211   2.424   4.211  13.685 -0.3382 -0.6066 -0.7025
  553TMC3    C8 8212   2.651   4.075  13.295  0.0454 -0.4049  0.3748
  553TMC3    O1 8213   2.323   4.251  13.744 -0.4346  0.2930  0.1535
  553TMC3    O2 8214   2.753   4.113  13.246 -0.2986 -0.7935 -0.4653
  554TMC3    C1 8215   0.116   3.389  11.458  0.0326 -0.2751 -0.1257
  554TMC3    C2 8216   0.090   3.327  11.339  0.3585  0.5518 -0.3178
  554TMC3    C3 8217   0.196   3.317  11.255 -0.3674  0.6988 -0.1557
  554TMC3    C4 8218   0.242   3.447  11.488 -0.6516 -0.1178 -0.3579
  554TMC3    C5 8219   0.345   3.437  11.399  0.5012  0.1247 -0.5905
  554TMC3    C6 8220   0.323   3.363  11.287  0.0050 -0.0303 -0.0999
  554TMC3     C 8221   0.036   3.343  11.570 -0.1202  0.1465  0.7181
  554TMC3     O 8222   4.635   3.330  11.562 -0.5737 -0.8099 -0.0833
  554TMC3     H 8223   4.708   3.292  11.326  0.4945 -0.7242  2.0721
  554TMC3    H1 8224   0.264   3.482  11.587  1.8551 -2.2843 -0.1629
  554TMC3    H2 8225   0.407   3.354  11.220  1.6352 -0.0260  1.9408
  554TMC3    C7 8226   0.404   3.566  11.360 -0.0179  0.3688 -0.6304
  554TMC3    C8 8227   0.167   3.280  11.116 -0.0829  0.2794  0.2664
  554TMC3    O1 8228   0.486   3.570  11.265  0.3216  0.9959  0.2994
  554TMC3    O2 8229   0.250   3.299  11.030  0.5981 -0.3371  0.2311
  555TMC3    C1 8230   3.865   2.719  14.816  0.1693  0.5694  0.3114
  555TMC3    C2 8231   3.803   2.809  14.899  0.7890 -0.5794  0.8732
  555TMC3    C3 8232   3.817   2.785  15.031  0.3462 -0.6674  0.2017
  555TMC3    C4 8233   3.938   2.612  14.858 -0.1606  0.0785 -0.3663
  555TMC3    C5 8234   3.935   2.582  14.986  0.4256  0.2184 -0.3800
  555TMC3    C6 8235   3.878   2.671  15.082  0.2793  0.2005  0.4615
  555TMC3     C 8236   3.853   2.728  14.674  0.3289 -0.4506 -0.0383
  555TMC3     O 8237   3.927   2.653  14.612 -0.1818  0.0393  0.7031
  555TMC3     H 8238   3.764   2.904  14.862  0.1078 -1.2899 -0.2371
  555TMC3    H1 8239   3.980   2.534  14.796  1.6767 -0.9899  2.2538
  555TMC3    H2 8240   3.882   2.640  15.185  0.4498 -2.6910 -0.4216
  555TMC3    C7 8241   4.023   2.477  15.029 -0.6314  0.2359  1.3066
  555TMC3    C8 8242   3.791   2.896  15.118 -0.3270  0.2810  0.4901
  555TMC3    O1 8243   4.135   2.473  14.973 -0.1022  0.4786 -0.5134
  555TMC3    O2 8244   3.724   2.986  15.069  0.9245 -0.8860 -0.5886
  556MPD2     C 8245   1.249   4.506  10.375  0.1304 -0.2621 -0.0631
  556MPD2    C1 8246   1.372   4.451  10.383 -0.4775 -0.4427 -0.0391
  556MPD2    C2 8247   1.438   4.388  10.278 -0.1708 -0.4808  0.0482
  556MPD2    C3 8248   1.375   4.368  10.160  0.2078  0.1384  0.1704
  556MPD2    C4 8249   1.247   4.417  10.148  0.0802 -0.0690  0.3095
  556MPD2    C5 8250   1.188   4.485  10.253 -0.1308  0.1506 -0.0624
  556MPD2     H 8251   1.540   4.354  10.295  0.7830  1.5645 -1.6032
  556MPD2    H1 8252   1.179   4.396  10.066 -0.2884 -1.0816  0.8662
  556MPD2    H2 8253   1.200   4.546  10.463 -0.9737  0.6695 -1.1066
  556MPD2    H3 8254   1.085   4.520  10.244 -0.3314 -0.2935  0.5625
  556MPD2     N 8255   1.427   4.280  10.066  0.5765 -0.1007  0.4868
  556MPD2    H5 8256   1.512   4.233  10.096  0.2809 -0.4640  0.7598
  556MPD2    N1 8257   1.442   4.440  10.508  0.7794  0.4705  0.2889
  556MPD2    H7 8258   1.533   4.395  10.502  0.5264 -0.3538  2.4804
  557TMC3    C1 8259   1.432   4.115   9.903 -0.0599  0.3996  0.1690
  557TMC3    C2 8260   1.381   4.065   9.783 -0.2952 -0.5958 -0.5858
  557TMC3    C3 8261   1.402   3.934   9.751 -0.1431 -0.0375 -0.0029
  557TMC3    C4 8262   1.504   4.036   9.990 -0.5186  0.8402  0.2050
  557TMC3    C5 8263   1.521   3.899   9.957  0.5253  0.5357 -0.0981
  557TMC3    C6 8264   1.465   3.847   9.838  0.1792  0.2100  0.5548
  557TMC3     C 8265   1.374   4.235   9.950 -0.4970  0.2643 -0.2243
  557TMC3     O 8266   1.277   4.279   9.890 -0.2642 -0.3698  0.1437
  557TMC3     H 8267   1.317   4.126   9.721 -0.3510  0.8475  0.8947
  557TMC3    H1 8268   1.526   4.066  10.091 -0.0040  0.5328  0.1872
  557TMC3    H2 8269   1.463   3.740   9.823 -1.0551 -0.1121  2.9937
  557TMC3    C7 8270   1.538   3.808  10.073  0.4826  0.1618 -0.0806
  557TMC3    C8 8271   1.349   3.887   9.620  0.0822 -0.1043 -0.3640
  557TMC3    O1 8272   1.533   3.867  10.180 -0.0711 -0.2693  0.2213
  557TMC3    O2 8273   1.257   3.952   9.572  0.3439  0.2387  0.2486
  558TMC3    C1 8274   4.621   2.584  10.180 -0.6111  0.0599  0.2211
  558TMC3    C2 8275   4.559   2.535  10.291  0.1697  0.4372  0.3138
  558TMC3    C3 8276   4.454   2.444  10.272 -0.7803 -0.6098  0.6044
  558TMC3    C4 8277   4.582   2.544  10.056  1.1078  0.0853  0.5936
  558TMC3    C5 8278   4.475   2.450  10.042  0.1777 -0.1377  0.4584
  558TMC3    C6 8279   4.405   2.395  10.154 -0.3140  0.0408 -0.3116
  558TMC3     C 8280   0.043   2.569  10.188 -0.3875  0.6158 -0.0506
  558TMC3     O 8281   0.095   2.515  10.089 -0.3378  0.4197 -0.1106
  558TMC3     H 8282   4.583   2.577  10.388  1.3972 -0.9442  0.5994
  558TMC3    H1 8283   4.629   2.578   9.965  0.9769 -2.2306 -0.3297
  558TMC3    H2 8284   4.348   2.303  10.149  1.7858 -1.2867  0.0494
  558TMC3    C7 8285   4.496   2.355   9.937 -0.1771 -0.9459  0.3935
  558TMC3    C8 8286   4.405   2.380  10.394 -0.0413  0.3255 -0.3587
  558TMC3    O1 8287   4.403   2.280   9.907  0.0566  0.4878 -0.5510
  558TMC3    O2 8288   4.478   2.382  10.494 -0.2021  0.9062 -0.1936
  559MPD2     C 8289   4.573   2.931  10.293  0.0316  0.4101  0.3182
  559MPD2    C1 8290   4.492   2.859  10.384  0.3507  0.2756 -0.3705
  559MPD2    C2 8291   4.545   2.828  10.506 -0.1147  0.3498 -0.2147
  559MPD2    C3 8292   4.680   2.852  10.537 -0.1548  0.0265 -0.2244
  559MPD2    C4 8293   0.039   2.896  10.434  1.1396 -0.1520 -0.1853
  559MPD2    C5 8294   4.708   2.942  10.313 -0.0988 -0.5995 -0.1380
  559MPD2     H 8295   4.488   2.788  10.589 -1.9490  0.1107 -1.6036
  559MPD2    H1 8296   0.146   2.900  10.451  1.1175  0.7961 -0.2656
  559MPD2    H2 8297   4.533   2.963  10.197 -0.8178  1.7877  1.1239
  559MPD2    H3 8298   0.055   3.000  10.250  0.3523  0.7632  1.5979
  559MPD2     N 8299   0.005   2.822  10.670 -0.1122 -0.4355  0.4914
  559MPD2    H5 8300   4.656   2.787  10.737 -0.1156 -1.3319  0.0128
  559MPD2    N1 8301   4.360   2.844  10.348  0.1431  0.7709  0.4282
  559MPD2    H7 8302   4.324   2.905  10.275 -2.0192 -0.4944  0.4276
  560TMC3    C1 8303   0.130   2.832  10.871  0.7237 -0.0845 -0.0243
  560TMC3    C2 8304   0.076   2.715  10.916  0.4269 -0.3989  0.0580
  560TMC3    C3 8305   0.114   2.677  11.042  0.3873 -0.1058  0.1258
  560TMC3    C4 8306   0.231   2.903  10.934  0.1850 -0.0424  0.2204
  560TMC3    C5 8307   0.268   2.856  11.056  0.9055  0.4239 -0.9786
  560TMC3    C6 8308   0.207   2.746  11.110  0.2751 -0.0566  0.1687
  560TMC3     C 8309   0.128   2.855  10.726  0.4962 -0.1764 -0.0913
  560TMC3     O 8310   0.220   2.911  10.677  0.2206 -0.1716 -0.2261
  560TMC3     H 8311   4.719   2.660  10.863  0.7358 -0.5673 -0.2113
  560TMC3    H1 8312   0.292   2.978  10.884 -1.5855 -0.1896 -2.1295
  560TMC3    H2 8313   0.229   2.730  11.215 -0.4980  1.6479  0.5850
  560TMC3    C7 8314   0.355   2.935  11.144  0.1320 -0.3657  0.1729
  560TMC3    C8 8315   0.070   2.549  11.090 -0.1147 -0.8014  0.5676
  560TMC3    O1 8316   0.336   2.931  11.263  0.2996 -0.0239 -0.4283
  560TMC3    O2 8317   4.685   2.506  11.045 -0.0860 -0.2255  0.4597
  561TMC3    C1 8318   2.220   1.821  10.748 -0.6546  1.0123 -0.3877
  561TMC3    C2 8319   2.111   1.781  10.830 -0.7972  0.0442  0.8800
  561TMC3    C3 8320   2.109   1.834  10.952  0.8655  0.6530 -0.4790
  561TMC3    C4 8321   2.308   1.913  10.793 -0.1333  0.5561  0.2616
  561TMC3    C5 8322   2.297   1.964  10.914 -0.2844  0.9144 -0.4576
  561TMC3    C6 8323   2.207   1.917  11.000 -0.2350 -0.6430  0.2002
  561TMC3     C 8324   2.246   1.748  10.623  0.2005  0.5653  0.1262
  561TMC3     O 8325   2.160   1.665  10.596  0.3527  0.0905  0.3135
  561TMC3     H 8326   2.041   1.705  10.799  0.5253 -0.5431 -0.6581
  561TMC3    H1 8327   2.390   1.944  10.728  0.6993 -0.0396  1.0321
  561TMC3    H2 8328   2.222   1.947  11.103  0.9262 -1.1206  0.1712
  561TMC3    C7 8329   2.340   2.097  10.942  0.0192 -0.0892 -0.2321
  561TMC3    C8 8330   2.027   1.767  11.048 -0.8524  0.7572 -0.4660
  561TMC3    O1 8331   2.291   2.148  11.045 -0.0464  0.0472  0.0165
  561TMC3    O2 8332   1.979   1.662  11.012 -0.4116  0.4166 -0.5575
  562TMC3    C1 8333   3.370   3.409  15.542  0.3565 -0.1906 -0.8401
  562TMC3    C2 8334   3.261   3.480  15.515 -0.5094  0.2324  0.0806
  562TMC3    C3 8335   3.179   3.445  15.408  0.0544  0.6696  0.0250
  562TMC3    C4 8336   3.406   3.302  15.462 -0.2429  0.5497 -0.0240
  562TMC3    C5 8337   3.313   3.261  15.359  1.3730  0.2865 -0.7525
  562TMC3    C6 8338   3.202   3.337  15.336 -0.5185 -0.0063 -0.1387
  562TMC3     C 8339   3.385   3.375  15.681  0.0222 -0.0434  0.5757
  562TMC3     O 8340   3.443   3.270  15.714  0.2642 -0.0494 -0.5724
  562TMC3     H 8341   3.247   3.578  15.560 -2.0002 -0.1714  0.4921
  562TMC3    H1 8342   3.502   3.255  15.475  0.1890  1.4951  0.2058
  562TMC3    H2 8343   3.123   3.294  15.276 -0.9363 -1.5448  1.5299
  562TMC3    C7 8344   3.326   3.131  15.299  0.1673 -0.4700  0.2971
  562TMC3    C8 8345   3.050   3.495  15.416 -0.7115  0.6524 -0.4052
  562TMC3    O1 8346   3.259   3.122  15.203  0.2689 -0.3895 -0.1677
  562TMC3    O2 8347   3.021   3.526  15.529 -0.0560  0.7682  0.3370
  563MPD2     C 8348   0.950   3.989  15.673 -0.6715 -0.2603  0.1695
  563MPD2    C1 8349   1.013   4.101  15.690 -0.0825  0.6789 -0.8096
  563MPD2    C2 8350   1.124   4.111  15.774 -0.8731  0.4207 -0.7229
  563MPD2    C3 8351   1.160   3.996  15.834 -0.1131  0.5022 -0.6441
  563MPD2    C4 8352   1.100   3.869  15.809 -0.1616 -0.2714 -0.7442
  563MPD2    C5 8353   0.992   3.874  15.729 -0.0333 -0.6782  0.6462
  563MPD2     H 8354   1.180   4.203  15.785 -0.2896 -0.1862  1.3215
  563MPD2    H1 8355   1.158   3.778  15.819  0.0643 -0.3818 -2.9860
  563MPD2    H2 8356   0.873   3.978  15.598 -0.4459 -0.6831  0.0007
  563MPD2    H3 8357   0.946   3.780  15.698  0.7274 -0.6366 -0.6055
  563MPD2     N 8358   1.279   4.011  15.904  0.3321  0.3995  0.2403
  563MPD2    H5 8359   1.316   4.106  15.896  0.3616  0.3892  0.2520
  563MPD2    N1 8360   0.967   4.206  15.614  0.2799 -0.0822 -0.3885
  563MPD2    H7 8361   0.875   4.190  15.573  0.0046 -0.7111  0.4785
  564TMC3    C1 8362   0.928   4.376  15.764  0.5738  0.7722 -0.4540
  564TMC3    C2 8363   0.793   4.336  15.764  0.0872  0.1139 -0.1833
  564TMC3    C3 8364   0.743   4.304  15.888  0.1893  0.1510 -0.2179
  564TMC3    C4 8365   0.999   4.391  15.879  0.2358  0.2702 -0.5365
  564TMC3    C5 8366   0.942   4.361  15.995 -0.7750 -0.3273 -0.9382
  564TMC3    C6 8367   0.808   4.321  16.002 -0.2026  0.6264 -0.5308
  564TMC3     C 8368   1.001   4.337  15.645  0.1320  0.3122  0.4818
  564TMC3     O 8369   1.111   4.382  15.628 -0.4301 -0.8411 -0.3349
  564TMC3     H 8370   0.733   4.329  15.674  1.3169 -0.4526 -0.9594
  564TMC3    H1 8371   1.106   4.407  15.867  0.4219  2.9033  4.4663
  564TMC3    H2 8372   0.759   4.315  16.098 -1.6838 -2.7907 -1.5280
  564TMC3    C7 8373   1.025   4.270  16.063 -0.5313  0.0171 -0.3071
  564TMC3    C8 8374   0.680   4.178  15.896  0.5747  0.0166 -0.1961
  564TMC3    O1 8375   1.146   4.281  16.067 -0.0817 -0.1057 -0.3631
  564TMC3    O2 8376   0.687   4.124  16.005  0.2911 -0.1892 -0.1069
  565TMC3    C1 8377   2.069   1.069   9.802  0.3607 -0.3360 -0.2105
  565TMC3    C2 8378   2.059   1.075   9.937  0.2458 -0.0638 -0.4858
  565TMC3    C3 8379   2.040   0.964  10.007 -0.6292  0.1493  0.0769
  565TMC3    C4 8380   2.043   0.955   9.734  0.4169  0.0112 -0.7946
  565TMC3    C5 8381   2.018   0.841   9.807 -0.5519  0.5656  0.4361
  565TMC3    C6 8382   2.007   0.847   9.947 -0.2369  0.0504  0.3625
  565TMC3     C 8383   2.086   1.180   9.720 -0.9517  1.0412  0.6535
  565TMC3     O 8384   2.063   1.173   9.600 -0.7998 -0.2313  0.0090
  565TMC3     H 8385   2.054   1.167   9.995  0.0379 -0.2236 -0.2521
  565TMC3    H1 8386   2.043   0.946   9.626  0.6859 -0.2143 -0.7744
  565TMC3    H2 8387   2.031   0.751   9.991  0.6666  0.0594 -0.1098
  565TMC3    C7 8388   1.984   0.720   9.728 -0.2938 -0.5593 -0.1898
  565TMC3    C8 8389   2.025   0.984  10.152  0.0990  0.4887 -0.4248
  565TMC3    O1 8390   2.012   0.723   9.611 -0.4762  0.3938  0.4581
  565TMC3    O2 8391   2.084   1.077  10.208 -0.3399 -0.3329 -0.2569
  566MPD2     C 8392   3.554   2.426  14.315  0.2562  0.6866  0.1035
  566MPD2    C1 8393   3.626   2.341  14.242 -0.8726 -0.0260 -0.4268
  566MPD2    C2 8394   3.587   2.319  14.108 -0.3618 -0.3080  0.1841
  566MPD2    C3 8395   3.482   2.390  14.047  0.7983 -0.0393  0.2469
  566MPD2    C4 8396   3.412   2.475  14.130  0.5018  0.5935  1.2533
  566MPD2    C5 8397   3.446   2.493  14.260  0.3990  0.4845  0.4391
  566MPD2     H 8398   3.654   2.259  14.047  1.7818 -0.3196  2.5386
  566MPD2    H1 8399   3.322   2.521  14.091  0.7375  1.0357  1.2344
  566MPD2    H2 8400   3.569   2.453  14.419  1.3845  2.6282 -0.5596
  566MPD2    H3 8401   3.378   2.544  14.327  0.2335 -1.4676  1.7429
  566MPD2     N 8402   3.443   2.378  13.914 -0.5200  0.1747  0.9960
  566MPD2    H5 8403   3.370   2.438  13.878 -1.9365 -1.6379  0.8444
  566MPD2    N1 8404   3.747   2.283  14.296 -0.0583 -0.2765  0.2874
  566MPD2    H7 8405   3.770   2.309  14.392  1.0154  1.3094 -0.4028
  567TMC3    C1 8406   3.960   2.205  14.315  0.1186 -0.0671 -0.1759
  567TMC3    C2 8407   4.042   2.303  14.265  0.1529  0.1233  0.1452
  567TMC3    C3 8408   4.080   2.406  14.352  1.1639 -0.0630 -0.1341
  567TMC3    C4 8409   3.929   2.198  14.445 -0.4144 -0.1968 -0.6493
  567TMC3    C5 8410   3.974   2.294  14.531  0.0755 -0.1485  0.1983
  567TMC3    C6 8411   4.041   2.402  14.481 -0.4694  0.0505 -0.2481
  567TMC3     C 8412   3.841   2.216  14.228 -0.0339  0.4369  0.2239
  567TMC3     O 8413   3.852   2.198  14.108  0.3992  0.2576  0.3149
  567TMC3     H 8414   4.073   2.299  14.161  0.0132  0.3349  0.0948
  567TMC3    H1 8415   3.858   2.121  14.474  0.4531 -0.5946  0.4270
  567TMC3    H2 8416   4.069   2.476  14.555  1.5872 -0.9261 -0.0517
  567TMC3    C7 8417   3.900   2.303  14.646 -0.1170  0.2705  1.2526
  567TMC3    C8 8418   4.104   2.533  14.287 -0.4420  0.4207  1.2098
  567TMC3    O1 8419   3.800   2.375  14.639  0.0235  0.5638  0.0385
  567TMC3    O2 8420   4.121   2.530  14.168  0.2717  0.2373 -0.0366
  568MPD2     C 8421   1.293   2.978  16.454 -0.1227  0.3906 -0.7024
  568MPD2    C1 8422   1.174   3.005  16.515 -0.4722 -0.1847  0.0451
  568MPD2    C2 8423   1.075   3.061  16.443  0.2671 -0.1043  0.2526
  568MPD2    C3 8424   1.095   3.091  16.311  0.0452 -0.4840 -0.2413
  568MPD2    C4 8425   1.214   3.063  16.249 -0.2262 -0.6435 -0.2391
  568MPD2    C5 8426   1.313   3.012  16.319  0.2520 -0.0626  0.1310
  568MPD2     H 8427   0.980   3.078  16.492 -0.9767  0.2602 -2.2682
  568MPD2    H1 8428   1.224   3.081  16.143  1.4654 -1.4326 -0.2102
  568MPD2    H2 8429   1.375   2.936  16.511 -0.4589 -1.0211 -1.2617
  568MPD2    H3 8430   1.406   2.984  16.271 -1.4665 -0.0613 -3.2013
  568MPD2     N 8431   0.981   3.139  16.241 -0.6260 -0.2493 -0.2931
  568MPD2    H5 8432   0.899   3.145  16.300 -1.5381  0.9898 -1.6944
  568MPD2    N1 8433   1.170   2.970  16.648 -0.4148  0.1886  0.3140
  568MPD2    H7 8434   1.247   2.916  16.687  1.6006  1.2075 -2.2169
  569TMC3    C1 8435   0.845   3.258  16.095  0.2354  0.0215  0.2117
  569TMC3    C2 8436   0.779   3.296  16.216  0.5263 -0.0201  0.0094
  569TMC3    C3 8437   0.686   3.393  16.200  0.2612 -0.4817  0.3676
  569TMC3    C4 8438   0.842   3.335  15.979  0.7973 -0.7613  0.5173
  569TMC3    C5 8439   0.753   3.434  15.976  0.1434  0.0968  0.2859
  569TMC3    C6 8440   0.674   3.462  16.086  0.2360  0.0650  0.1737
  569TMC3     C 8441   0.976   3.189  16.113  0.2706 -0.3932  0.2470
  569TMC3     O 8442   1.056   3.192  16.019 -0.0255 -0.5195  0.2001
  569TMC3     H 8443   0.792   3.258  16.316  1.1030  0.4738  0.1232
  569TMC3    H1 8444   0.872   3.286  15.887 -1.8961 -0.0394 -0.7195
  569TMC3    H2 8445   0.606   3.546  16.083  1.1643  0.8500  1.4531
  569TMC3    C7 8446   0.734   3.515  15.856  0.0142 -0.0108  0.3131
  569TMC3    C8 8447   0.640   3.475  16.310 -0.7885  0.1005  0.3596
  569TMC3    O1 8448   0.745   3.458  15.748 -0.7788  0.1805 -0.3565
  569TMC3    O2 8449   0.521   3.506  16.328 -0.6075 -0.1828 -0.1907
  570TMC3    C1 8450   0.022   1.898  16.173  0.1441  0.4775  0.1156
  570TMC3    C2 8451   0.107   1.861  16.077  0.6810  0.9455  0.6826
  570TMC3    C3 8452   0.124   1.945  15.970 -0.2670  0.7262 -0.0146
  570TMC3    C4 8453   4.672   2.018  16.176 -0.1844 -0.5443 -0.5948
  570TMC3    C5 8454   4.686   2.092  16.064  0.3464  0.4207 -0.8440
  570TMC3    C6 8455   0.046   2.056  15.958  0.6707 -0.5223 -0.0617
  570TMC3     C 8456   0.012   1.800  16.281  0.1683 -0.3244 -0.4586
  570TMC3     O 8457   0.012   1.685  16.238  0.0207  0.3760  0.0333
  570TMC3     H 8458   0.178   1.781  16.092  2.1818  2.1868  0.2535
  570TMC3    H1 8459   4.604   2.048  16.254  1.9939 -0.9126  1.4439
  570TMC3    H2 8460   0.056   2.121  15.872  2.3593  1.1002  1.3413
  570TMC3    C7 8461   4.634   2.226  16.078  0.3870  0.2243 -0.3708
  570TMC3    C8 8462   0.242   1.939  15.898  0.0821  0.6078 -0.2844
  570TMC3    O1 8463   4.584   2.262  16.184  0.0517 -0.0780  0.5132
  570TMC3    O2 8464   0.292   2.046  15.857 -0.1798 -0.1065  0.2025
  571MPD2     C 8465   3.933   3.866  17.003 -0.4073 -0.1447  0.0088
  571MPD2    C1 8466   3.831   3.786  17.053 -0.1140  0.2244 -0.7435
  571MPD2    C2 8467   3.758   3.832  17.166 -0.2342 -0.7227  0.3699
  571MPD2    C3 8468   3.787   3.954  17.218  0.0791 -0.1792  0.1384
  571MPD2    C4 8469   3.878   4.039  17.157  0.6628 -0.0352 -0.0030
  571MPD2    C5 8470   3.950   3.995  17.049 -0.0172 -0.3047  0.7826
  571MPD2     H 8471   3.680   3.772  17.211  1.1744 -2.4283  0.5911
  571MPD2    H1 8472   3.888   4.143  17.187  1.6284  0.3566 -1.7117
  571MPD2    H2 8473   3.993   3.824  16.923 -1.9057 -0.1471 -1.1181
  571MPD2    H3 8474   4.013   4.056  16.985  0.7560 -0.2873  1.5772
  571MPD2     N 8475   3.727   4.007  17.332  0.0289 -0.1426 -0.2146
  571MPD2    H5 8476   3.743   4.104  17.358  1.7678 -0.0416 -1.6742
  571MPD2    N1 8477   3.810   3.657  16.995 -0.2276  0.6777  0.3010
  571MPD2    H7 8478   3.850   3.637  16.904  0.5354 -0.9048  0.9841
  572TMC3    C1 8479   3.610   4.006  17.532  0.6680 -0.2794  0.1223
  572TMC3    C2 8480   3.597   3.944  17.654 -0.5537 -0.4198 -0.3225
  572TMC3    C3 8481   3.594   4.039   0.073 -0.2625  0.1958  0.0190
  572TMC3    C4 8482   3.572   4.132  17.504 -0.1205 -0.1225  0.0205
  572TMC3    C5 8483   3.561   4.219  17.612 -0.7021 -0.1090  0.5624
  572TMC3    C6 8484   3.568   4.172   0.058  0.3892  0.4883 -0.3711
  572TMC3     C 8485   3.681   3.928  17.437  0.0616 -0.5385 -0.1532
  572TMC3     O 8486   3.685   3.807  17.454  0.6920  0.3315  0.1691
  572TMC3     H 8487   3.654   3.854  17.674  0.8483  0.6674  0.5988
  572TMC3    H1 8488   3.571   4.178  17.405  2.4112 -0.6356 -0.2551
  572TMC3    H2 8489   3.558   4.237   0.145  2.1145 -0.0102  0.1915
  572TMC3    C7 8490   3.492   4.341  17.578  0.6092  0.3586  0.2990
  572TMC3    C8 8491   3.609   3.990   0.209  0.1927  0.3611  0.1211
  572TMC3    O1 8492   3.483   4.377  17.461 -0.2301  0.6890 -0.2642
  572TMC3    O2 8493   3.658   4.069   0.289 -0.1664  0.2871  0.3013
  573MPD2     C 8494   3.893   3.853   0.186 -0.1926 -0.3913 -0.7601
  573MPD2    C1 8495   3.967   3.869   0.304 -0.1319  0.9775 -0.0096
  573MPD2    C2 8496   4.047   3.986   0.316  0.2811 -0.0678  1.0338
  573MPD2    C3 8497   4.051   4.082   0.220  0.2096 -0.2695 -0.6545
  573MPD2    C4 8498   4.001   4.047   0.097 -0.6028 -0.5870 -0.4152
  573MPD2    C5 8499   3.920   3.932   0.079  0.7141 -0.2797 -0.5396
  573MPD2     H 8500   4.098   4.000   0.411 -0.5966 -1.1331  1.6725
  573MPD2    H1 8501   4.041   4.093   0.008  0.1342  0.9629  0.7198
  573MPD2    H2 8502   3.821   3.773   0.175  1.4686 -1.9248 -0.4469
  573MPD2    H3 8503   3.887   3.905  17.661  0.5252 -0.7423 -0.3488
  573MPD2     N 8504   4.140   4.197   0.228 -0.2434  0.1074  0.0225
  573MPD2    H5 8505   4.148   4.253   0.144 -0.0857 -2.2875 -1.5590
  573MPD2    N1 8506   3.944   3.778   0.410  0.2286 -0.1137  0.4386
  573MPD2    H7 8507   3.896   3.696   0.375  1.2450 -0.4718 -0.1084
  574TMC3    C1 8508   4.317   4.335   0.315  0.3400  0.7804 -0.0259
  574TMC3    C2 8509   4.320   4.411   0.205  0.3450  0.2767 -0.5320
  574TMC3    C3 8510   4.432   4.495   0.193 -0.4172  0.0264 -0.4878
  574TMC3    C4 8511   4.419   4.332   0.408  0.2099 -0.0258  0.5517
  574TMC3    C5 8512   4.525   4.416   0.389 -0.1085 -0.1598  0.2714
  574TMC3    C6 8513   4.540   4.495   0.278  0.0522  0.0637 -0.8019
  574TMC3     C 8514   4.221   4.224   0.335 -0.2783 -0.0874  0.0725
  574TMC3     O 8515   4.230   4.175   0.447  0.8405  0.0971  0.0398
  574TMC3     H 8516   4.231   4.409   0.144  0.0646 -1.4644 -0.0859
  574TMC3    H1 8517   4.417   4.268   0.496  0.7627  0.0231  0.5973
  574TMC3    H2 8518   4.623   4.562   0.261  0.0510  0.0194 -0.9889
  574TMC3    C7 8519   4.622   4.428   0.491 -0.0464 -0.0664  0.0697
  574TMC3    C8 8520   4.435   4.588   0.085  0.5740 -0.8856  0.5713
  574TMC3    O1 8521   0.019   4.446   0.465  0.0395  0.3380 -0.4350
  574TMC3    O2 8522   4.531   4.661   0.072  0.0304  0.3497  0.0130
  575TMC3    C1 8523   1.890   1.216  11.031  0.3592  0.1027  0.1757
  575TMC3    C2 8524   1.988   1.303  11.066 -0.0866 -0.1176 -0.3755
  575TMC3    C3 8525   2.076   1.354  10.974  0.0282  0.4924 -0.4194
  575TMC3    C4 8526   1.874   1.175  10.906 -0.0871  0.3241  0.1828
  575TMC3    C5 8527   1.961   1.231  10.815  0.4674 -0.5295 -0.1712
  575TMC3    C6 8528   2.066   1.312  10.847 -0.0479  0.4494  0.0569
  575TMC3     C 8529   1.801   1.157  11.134  0.5019 -0.9950 -0.3138
  575TMC3     O 8530   1.794   1.233  11.229 -0.7230  0.1476 -0.4734
  575TMC3     H 8531   2.005   1.330  11.169 -0.8174 -1.2989  0.0591
  575TMC3    H1 8532   1.784   1.122  10.878 -0.0053  0.1942  0.1656
  575TMC3    H2 8533   2.135   1.336  10.766  0.7741 -0.2681  0.5418
  575TMC3    C7 8534   1.950   1.180  10.675  0.0378 -0.2887 -0.2232
  575TMC3    C8 8535   2.188   1.435  11.018 -0.4441  0.5954 -0.2827
  575TMC3    O1 8536   2.027   1.223  10.593 -0.0028 -0.5599  0.4917
  575TMC3    O2 8537   2.198   1.471  11.135 -0.2966  0.3732 -0.5009
  576MPD2     C 8538   1.810   1.809  12.496  0.3145  0.8369  0.4755
  576MPD2    C1 8539   1.766   1.910  12.415  0.4375 -0.0470  0.0530
  576MPD2    C2 8540   1.661   1.993  12.449  0.0035 -0.3873  0.3233
  576MPD2    C3 8541   1.589   1.965  12.554  0.1999 -0.2824  0.3020
  576MPD2    C4 8542   1.629   1.865  12.638  0.3459  0.3492 -0.2010
  576MPD2    C5 8543   1.738   1.791  12.612 -0.1431  0.4332 -0.4189
  576MPD2     H 8544   1.637   2.072  12.378 -1.7258 -0.8108  0.4463
  576MPD2    H1 8545   1.573   1.837  12.726  1.4313 -1.1539  0.0299
  576MPD2    H2 8546   1.897   1.747  12.482  0.2884  0.3903  2.4005
  576MPD2    H3 8547   1.769   1.706  12.672 -1.3363 -0.5959 -1.2635
  576MPD2     N 8548   1.467   2.044  12.578 -0.5597 -0.2929 -0.3838
  576MPD2    H5 8549   1.447   2.129  12.527 -1.9990 -0.8142 -0.6777
  576MPD2    N1 8550   1.834   1.947  12.301 -0.3015 -0.1324  0.7742
  576MPD2    H7 8551   1.814   2.036  12.258  1.2610 -1.0873 -1.8889
  577TMC3    C1 8552   1.967   1.937  12.119 -0.0756 -0.4598 -0.2350
  577TMC3    C2 8553   1.987   1.863  12.009 -0.3894  0.5953 -0.1390
  577TMC3    C3 8554   1.963   1.911  11.884  0.4384 -0.2473  0.2047
  577TMC3    C4 8555   1.943   2.069  12.100  0.1543 -0.4573 -0.8119
  577TMC3    C5 8556   1.923   2.119  11.976 -0.0901 -0.3949  0.4840
  577TMC3    C6 8557   1.936   2.040  11.866  0.5264 -0.3821  0.2107
  577TMC3     C 8558   1.919   1.869  12.233 -0.2332  0.4500 -0.2152
  577TMC3     O 8559   1.968   1.762  12.262 -0.3903 -0.4889 -0.1149
  577TMC3     H 8560   1.991   1.755  12.014  0.5501  0.6266 -0.1527
  577TMC3    H1 8561   1.925   2.136  12.183 -0.4550 -1.6061 -0.0119
  577TMC3    H2 8562   1.917   2.083  11.769  1.6832  1.9617  1.0113
  577TMC3    C7 8563   1.939   2.263  11.964 -0.7946 -0.6142  0.0395
  577TMC3    C8 8564   1.950   1.808  11.776  0.1394  0.7634  0.5969
  577TMC3    O1 8565   2.009   2.315  12.050 -0.0037  0.6337  0.0600
  577TMC3    O2 8566   1.914   1.698  11.815  0.3408 -0.3594 -0.2920
  578MPD2     C 8567   3.778   1.757   0.829  0.3818  0.7233  1.0757
  578MPD2    C1 8568   3.814   1.629   0.786  0.3131 -0.2166  0.2667
  578MPD2    C2 8569   3.925   1.571   0.839  0.6577 -0.2492  0.1601
  578MPD2    C3 8570   4.003   1.635   0.935 -0.3145  0.7245 -0.1019
  578MPD2    C4 8571   3.963   1.763   0.973  0.3054 -0.2681 -0.9217
  578MPD2    C5 8572   3.852   1.819   0.923  0.7164  0.9133 -0.2780
  578MPD2     H 8573   3.953   1.471   0.806  0.1552  0.0041 -1.0330
  578MPD2    H1 8574   4.013   1.825   1.046 -0.1304 -0.8310 -0.1441
  578MPD2    H2 8575   3.689   1.803   0.788  1.2607 -0.5165 -2.2095
  578MPD2    H3 8576   3.822   1.919   0.954 -0.4019  0.5191 -0.1026
  578MPD2     N 8577   4.125   1.579   0.971  0.5646  0.3709 -0.1977
  578MPD2    H5 8578   4.139   1.498   0.912  1.7714 -0.6425  1.4671
  578MPD2    N1 8579   3.711   1.577   0.703  0.2083  0.1385 -0.2633
  578MPD2    H7 8580   3.637   1.641   0.674 -1.4571 -0.9105  1.7528
  579TMC3    C1 8581   4.349   1.564   1.080 -0.4387 -0.1066 -0.4943
  579TMC3    C2 8582   4.455   1.633   1.140  1.0898 -0.2294  0.6378
  579TMC3    C3 8583   4.575   1.568   1.162  0.1885 -0.5227  0.3253
  579TMC3    C4 8584   4.365   1.441   1.037 -0.5945  0.3036  0.3553
  579TMC3    C5 8585   4.486   1.373   1.062  0.8209  0.6112  0.3163
  579TMC3    C6 8586   4.598   1.441   1.108  1.2022 -0.7008 -0.1372
  579TMC3     C 8587   4.224   1.633   1.052  0.3125  0.2618 -0.1169
  579TMC3     O 8588   4.225   1.753   1.081  0.1802  0.1597  0.7076
  579TMC3     H 8589   4.426   1.730   1.178  2.1931  0.5323 -0.4637
  579TMC3    H1 8590   4.292   1.386   0.978 -0.4633  2.2709 -1.6189
  579TMC3    H2 8591   4.688   1.385   1.128  1.0964 -0.6164  0.5566
  579TMC3    C7 8592   4.505   1.230   1.032  0.2740 -0.4738 -0.5048
  579TMC3    C8 8593   4.678   1.651   1.222 -0.4683  0.7515 -0.3181
  579TMC3    O1 8594   4.612   1.206   0.984  0.1062 -0.2732  0.8328
  579TMC3    O2 8595   4.639   1.721   1.316  0.0481 -0.0904  0.3099
  580TMC3    C1 8596   4.074   1.237  11.471  0.5960 -0.4488  0.1431
  580TMC3    C2 8597   4.137   1.190  11.360  0.1842  0.0439  0.9375
  580TMC3    C3 8598   4.112   1.060  11.321  0.2707  0.2251 -0.4593
  580TMC3    C4 8599   3.993   1.152  11.545  0.1087 -0.0699 -0.0594
  580TMC3    C5 8600   3.976   1.028  11.504  0.1593 -0.2926  0.4274
  580TMC3    C6 8601   4.024   0.979  11.389 -0.1820  0.6675  0.5102
  580TMC3     C 8602   4.155   1.331  11.547 -0.5614 -0.3699 -0.1856
  580TMC3     O 8603   4.270   1.356  11.516  0.1827 -0.1797  0.1717
  580TMC3     H 8604   4.213   1.254  11.317 -0.3941 -0.8704 -1.4732
  580TMC3    H1 8605   3.961   1.171  11.647 -2.1119  1.2102 -0.9861
  580TMC3    H2 8606   4.000   0.878  11.359  1.3111  0.3694  0.3494
  580TMC3    C7 8607   3.975   0.935  11.622  0.6733 -0.5437  0.1348
  580TMC3    C8 8608   4.170   1.002  11.201  0.2682  0.0910 -0.1521
  580TMC3    O1 8609   4.021   0.979  11.727  0.4971  0.1065 -0.3062
  580TMC3    O2 8610   4.095   0.929  11.138 -0.3047 -0.0754 -0.4742
  581MPD2     C 8611   2.428   0.695  14.588  0.2067  0.7026  0.2408
  581MPD2    C1 8612   2.296   0.716  14.608  0.1467 -0.4305  0.0356
  581MPD2    C2 8613   2.218   0.771  14.509 -0.5661 -0.0953  0.5033
  581MPD2    C3 8614   2.274   0.802  14.389 -0.0779 -0.3108 -0.3631
  581MPD2    C4 8615   2.413   0.787  14.370 -0.5818  0.2903 -0.3219
  581MPD2    C5 8616   2.492   0.736  14.469  0.3696 -0.0699 -0.8090
  581MPD2     H 8617   2.114   0.792  14.530 -0.2034  2.0810  0.2017
  581MPD2    H1 8618   2.470   0.821  14.283  0.4301  4.0145  1.7798
  581MPD2    H2 8619   2.495   0.652  14.661 -0.2144 -1.5767 -0.7230
  581MPD2    H3 8620   2.599   0.719  14.456 -0.0113 -3.6003  0.6365
  581MPD2     N 8621   2.195   0.875  14.299 -0.0282 -0.1192  0.2280
  581MPD2    H5 8622   2.098   0.894  14.322  0.3023  0.6720  0.9789
  581MPD2    N1 8623   2.236   0.685  14.727  0.1805  0.2657 -0.0350
  581MPD2    H7 8624   2.136   0.701  14.735  0.1126  0.7085 -1.6913
  582TMC3    C1 8625   2.197   0.605  14.947  0.1422  0.3181 -0.4012
  582TMC3    C2 8626   2.236   0.546  15.057 -0.5452 -0.4378  0.1996
  582TMC3    C3 8627   2.137   0.521  15.152  0.8267 -0.4546  0.1926
  582TMC3    C4 8628   2.071   0.657  14.933 -0.1405 -0.0929 -0.6523
  582TMC3    C5 8629   1.982   0.659  15.035  0.4242  0.2696 -1.0333
  582TMC3    C6 8630   2.014   0.579  15.138  0.5498 -0.1522  0.5627
  582TMC3     C 8631   2.288   0.625  14.834 -0.3818 -0.2958 -0.4273
  582TMC3     O 8632   2.397   0.574  14.850 -0.4125  0.3439 -0.1524
  582TMC3     H 8633   2.336   0.510  15.074 -0.2130  0.4593  0.1395
  582TMC3    H1 8634   2.051   0.718  14.845  0.2185  0.5154 -0.3155
  582TMC3    H2 8635   1.942   0.583  15.219  2.0038 -0.6773  1.8767
  582TMC3    C7 8636   1.847   0.704  15.012 -0.0390 -0.0864 -0.2475
  582TMC3    C8 8637   2.183   0.483  15.288  0.5165  0.0472  0.8799
  582TMC3    O1 8638   1.760   0.632  15.058 -0.0818  0.0938  0.7710
  582TMC3    O2 8639   2.099   0.493  15.375  0.3437 -0.0428  0.5776
  583MPD2     C 8640   2.481   2.485  16.954  0.2172 -0.1908 -0.8004
  583MPD2    C1 8641   2.450   2.587  16.868  0.1526  0.1447 -0.4888
  583MPD2    C2 8642   2.412   2.707  16.920  0.4051 -0.2029  0.6464
  583MPD2    C3 8643   2.395   2.722  17.061 -0.6168  0.5883 -0.5020
  583MPD2    C4 8644   2.429   2.616  17.145 -0.0367  0.5160 -0.2190
  583MPD2    C5 8645   2.476   2.499  17.086 -0.2125  0.2042 -0.3756
  583MPD2     H 8646   2.390   2.790  16.854  0.9360  0.6912  1.6004
  583MPD2    H1 8647   2.446   2.629  17.251 -0.2219 -1.1812  0.0132
  583MPD2    H2 8648   2.536   2.402  16.910  2.4265  0.4995  0.6887
  583MPD2    H3 8649   2.514   2.427  17.158  0.5821 -0.8814 -1.8663
  583MPD2     N 8650   2.350   2.851  17.108  0.5271 -0.3626  0.3106
  583MPD2    H5 8651   2.327   2.920  17.036  0.7489 -1.3887 -0.7443
  583MPD2    N1 8652   2.465   2.576  16.728  0.0088  0.1025  0.5583
  583MPD2    H7 8653   2.469   2.664  16.677 -1.2596 -0.5031 -0.5744
  584TMC3    C1 8654   2.259   3.007  17.265  0.0262  0.5426  0.3784
  584TMC3    C2 8655   2.255   3.113  17.174 -0.2574 -0.1965  0.1714
  584TMC3    C3 8656   2.218   3.237  17.224  0.0117  0.7628  0.6476
  584TMC3    C4 8657   2.217   3.025  17.393  0.4311  0.0450  0.2578
  584TMC3    C5 8658   2.177   3.145  17.430  0.8760  1.1016  0.3196
  584TMC3    C6 8659   2.173   3.256  17.350 -1.2274 -0.4664 -0.3282
  584TMC3     C 8660   2.314   2.875  17.233  0.1312  0.0234 -0.3350
  584TMC3     O 8661   2.354   2.813  17.330  0.4877 -1.0770  0.1608
  584TMC3     H 8662   2.294   3.104  17.074 -0.6373 -0.6769  0.0669
  584TMC3    H1 8663   2.207   2.937  17.456  0.8719 -0.2665 -0.1066
  584TMC3    H2 8664   2.151   3.353  17.392  0.7521 -0.6861  1.2513
  584TMC3    C7 8665   2.070   3.132  17.542 -0.1571 -0.3226  0.7825
  584TMC3    C8 8666   2.213   3.360  17.138 -0.0974 -0.7898 -0.1415
  584TMC3    O1 8667   2.027   3.018  17.562 -0.2462  0.5717  0.1496
  584TMC3    O2 8668   2.179   3.355  17.021  0.1998  0.0430  0.2394
  585MPD2     C 8669   1.555   1.867  17.002 -0.0080 -0.2377 -0.4765
  585MPD2    C1 8670   1.497   1.755  17.066  0.2989  0.3203 -0.1041
  585MPD2    C2 8671   1.486   1.632  16.997  0.4412 -0.1852  0.0768
  585MPD2    C3 8672   1.545   1.618  16.867  0.0271 -0.0662  0.2578
  585MPD2    C4 8673   1.622   1.725  16.814  0.0268 -0.2304  0.1775
  585MPD2    C5 8674   1.612   1.846  16.878  1.0530 -0.0219  0.6286
  585MPD2     H 8675   1.435   1.552  17.049 -3.8725  2.4742 -0.0442
  585MPD2    H1 8676   1.671   1.723  16.718 -0.0553  0.9621  0.1015
  585MPD2    H2 8677   1.550   1.968  17.040 -1.2289 -1.3011  2.2301
  585MPD2    H3 8678   1.645   1.930  16.820 -1.5108  0.0573 -0.7197
  585MPD2     N 8679   1.546   1.498  16.792  0.3481  0.8603  0.1668
  585MPD2    H5 8680   1.576   1.512  16.696  0.3301 -0.1862  0.0037
  585MPD2    N1 8681   1.456   1.767  17.202  0.8419 -0.0396  0.3452
  585MPD2    H7 8682   1.461   1.864  17.231  0.3832  0.9494 -2.8804
  586TMC3    C1 8683   1.525   1.278  16.729 -0.4428  0.5344  0.6628
  586TMC3    C2 8684   1.659   1.279  16.685 -0.0242 -0.1136 -0.0379
  586TMC3    C3 8685   1.707   1.161  16.630  0.7338 -0.0657 -0.0640
  586TMC3    C4 8686   1.441   1.165  16.714  0.3837  0.3025 -0.1213
  586TMC3    C5 8687   1.503   1.052  16.670  0.2017 -0.0487 -0.0205
  586TMC3    C6 8688   1.632   1.051  16.615 -0.1767 -0.1573  0.1401
  586TMC3     C 8689   1.479   1.383  16.823  0.4367 -0.8301 -0.1667
  586TMC3     O 8690   1.391   1.370  16.904  0.6086  0.2069  0.0696
  586TMC3     H 8691   1.741   1.344  16.712 -0.1292  0.1808 -0.4254
  586TMC3    H1 8692   1.344   1.163  16.763  1.2489 -3.7386  1.4787
  586TMC3    H2 8693   1.673   0.960  16.573 -1.1224 -0.3654 -0.3396
  586TMC3    C7 8694   1.442   0.925  16.715  0.3735 -0.1137  0.1266
  586TMC3    C8 8695   1.839   1.169  16.579  0.3075 -0.1588 -0.4630
  586TMC3    O1 8696   1.323   0.920  16.744 -0.1646  0.1672 -0.4771
  586TMC3    O2 8697   1.871   1.275  16.531  0.2346  0.2495 -0.0325
  587TMC3    C1 8698   3.685   0.034  16.168  0.1432  0.2833 -0.7686
  587TMC3    C2 8699   3.702   0.173  16.159 -0.2194 -0.5451 -0.4032
  587TMC3    C3 8700   3.816   0.228  16.102 -0.0174  0.2494 -0.3641
  587TMC3    C4 8701   3.779   4.671  16.124 -0.6470  0.2354 -0.5265
  587TMC3    C5 8702   3.896   0.009  16.076 -0.8094 -0.1992 -0.0587
  587TMC3    C6 8703   3.915   0.143  16.063  0.4800  0.1651  0.4718
  587TMC3     C 8704   3.552   4.709  16.210 -0.0255 -0.8624 -0.0380
  587TMC3     O 8705   3.479   0.067  16.267 -0.1266 -0.1125 -0.1858
  587TMC3     H 8706   3.618   0.235  16.189  0.0329 -0.4309  0.0588
  587TMC3    H1 8707   3.768   4.566  16.152  1.5832  0.0312 -0.3785
  587TMC3    H2 8708   3.991   0.185  15.999  0.4770 -0.0387  0.3367
  587TMC3    C7 8709   3.985   4.633  16.025 -0.1764 -0.8793  0.0831
  587TMC3    C8 8710   3.844   0.374  16.104 -0.4198  0.0481  0.1356
  587TMC3    O1 8711   3.948   4.514  16.022  0.1681 -0.3331 -0.0579
  587TMC3    O2 8712   3.960   0.410  16.091  0.1005 -0.0778  0.3838
  588TMC3    C1 8713   1.006   3.405   9.251  0.4685  0.2208  0.2295
  588TMC3    C2 8714   0.950   3.283   9.217 -1.0028 -0.4034 -0.0568
  588TMC3    C3 8715   0.989   3.175   9.292  0.8844  0.1399 -0.1175
  588TMC3    C4 8716   1.088   3.414   9.361  0.2271  0.5474  0.2200
  588TMC3    C5 8717   1.120   3.302   9.433  0.1767 -0.6312 -0.7288
  588TMC3    C6 8718   1.072   3.181   9.403  0.0635 -0.4727 -0.2454
  588TMC3     C 8719   0.937   3.524   9.216 -0.1168  0.2630  0.7182
  588TMC3     O 8720   0.828   3.514   9.165 -0.0141  0.5377 -0.2799
  588TMC3     H 8721   0.878   3.275   9.136 -1.0134  1.4155 -0.2257
  588TMC3    H1 8722   1.143   3.503   9.388  0.3703  0.3320  0.6431
  588TMC3    H2 8723   1.098   3.099   9.469  0.9050 -1.7681 -2.1628
  588TMC3    C7 8724   1.167   3.324   9.572 -0.4808 -0.3714 -0.9498
  588TMC3    C8 8725   0.931   3.046   9.255  0.6697 -0.3835 -0.4840
  588TMC3    O1 8726   1.239   3.237   9.616 -0.4648 -0.0220  0.2587
  588TMC3    O2 8727   0.844   3.051   9.165  0.2752 -0.4999 -0.6491
  589TMC3    C1 8728   0.087   4.537   1.447 -0.9282 -0.0997  0.4319
  589TMC3    C2 8729   0.153   4.626   1.527  0.2611  0.5251  0.5687
  589TMC3    C3 8730   0.282   4.641   1.504  0.0933 -0.9122 -0.3147
  589TMC3    C4 8731   0.155   4.451   1.363  0.2050  0.6026 -0.4438
  589TMC3    C5 8732   0.285   4.473   1.348 -0.0441 -0.1090 -0.7782
  589TMC3    C6 8733   0.360   4.559   1.422 -0.6124  0.5020 -0.2678
  589TMC3     C 8734   4.661   4.532   1.426 -0.1666 -0.1837  0.2108
  589TMC3     O 8735   4.615   4.449   1.349  0.1285  0.1091 -0.2439
  589TMC3     H 8736   0.092   4.680   1.599 -2.5625 -0.2741 -1.2181
  589TMC3    H1 8737   0.103   4.387   1.294  0.6748 -1.2223  0.8916
  589TMC3    H2 8738   0.468   4.561   1.408 -0.4530 -1.3936  0.7468
  589TMC3    C7 8739   0.348   4.407   1.239  0.3681  0.7049 -0.2809
  589TMC3    C8 8740   0.344   0.040   1.560 -0.0677 -0.5842  0.4779
  589TMC3    O1 8741   0.299   4.298   1.201  0.0228 -0.0791  0.0010
  589TMC3    O2 8742   0.280   0.104   1.644 -0.7931 -0.3057  0.0055
  590MPD2     C 8743   4.453   3.565  16.406 -0.0038  0.4852 -0.0484
  590MPD2    C1 8744   4.471   3.679  16.340  0.6717  0.1177 -0.3270
  590MPD2    C2 8745   4.592   3.693  16.275 -0.2691 -0.9946  0.3505
  590MPD2    C3 8746   4.699   3.604  16.295  0.3492  0.7498 -0.4248
  590MPD2    C4 8747   4.680   3.499  16.380  0.6274 -0.5515  0.4263
  590MPD2    C5 8748   4.553   3.480  16.428 -0.2777  0.7743 -0.0969
  590MPD2     H 8749   4.617   3.782  16.219 -0.8553 -0.4420  0.9618
  590MPD2    H1 8750   0.035   3.424  16.403  0.4907 -0.7546  0.2103
  590MPD2    H2 8751   4.360   3.557  16.459  0.3193  1.7116  0.7137
  590MPD2    H3 8752   4.540   3.398  16.498  1.6740 -0.2524 -0.9628
  590MPD2     N 8753   0.100   3.636  16.226  0.1553  0.5564  0.9055
  590MPD2    H5 8754   0.106   3.721  16.171  0.2771 -0.0125  0.0440
  590MPD2    N1 8755   4.360   3.770  16.337 -0.0578 -0.2683 -0.1940
  590MPD2    H7 8756   4.272   3.731  16.367  1.1358 -2.5916  0.2687
  591TMC3    C1 8757   0.305   3.602  16.134 -0.5278  0.3862  0.5446
  591TMC3    C2 8758   0.321   3.519  16.025  0.3558 -1.0282  0.3013
  591TMC3    C3 8759   0.358   3.584  15.912 -0.6795  0.1178  0.9903
  591TMC3    C4 8760   0.299   3.742  16.118  0.2598 -1.0639  0.4620
  591TMC3    C5 8761   0.321   3.795  15.995 -0.5305  0.0804  0.0266
  591TMC3    C6 8762   0.352   3.719  15.884  0.4093  0.9921  0.3433
  591TMC3     C 8763   0.213   3.552  16.224  0.7104  0.6126  0.2229
  591TMC3     O 8764   0.226   3.435  16.259  0.7256  0.0125 -0.4218
  591TMC3     H 8765   0.293   3.414  16.028  2.7780 -1.6492  1.0422
  591TMC3    H1 8766   0.279   3.806  16.203 -1.7233  2.2572 -2.5412
  591TMC3    H2 8767   0.385   3.774  15.797  0.1950  2.7081  1.3541
  591TMC3    C7 8768   0.235   3.909  15.982  0.3002 -0.4188 -0.1235
  591TMC3    C8 8769   0.370   3.495  15.796  0.0947  0.0474 -0.0729
  591TMC3    O1 8770   0.147   3.926  16.062  0.0913  0.7761  0.0458
  591TMC3    O2 8771   0.359   3.372  15.809 -0.3748  0.0471 -0.2655
  592MPD2     C 8772   0.691   1.006  11.227  0.6020 -0.1587 -0.2158
  592MPD2    C1 8773   0.688   1.061  11.356  0.1465 -0.3405  0.0348
  592MPD2    C2 8774   0.624   0.991  11.457  0.1227  0.0571  0.1359
  592MPD2    C3 8775   0.562   0.864  11.427  0.0853 -0.2584 -0.4033
  592MPD2    C4 8776   0.567   0.817  11.298  0.1424 -0.1770 -0.1470
  592MPD2    C5 8777   0.634   0.883  11.200  0.3112  0.0550 -0.7117
  592MPD2     H 8778   0.619   1.032  11.557  0.7215  2.3550 -0.7865
  592MPD2    H1 8779   0.523   0.719  11.279  2.8200 -1.8536  2.3740
  592MPD2    H2 8780   0.743   1.038  11.137 -0.7669 -2.3558 -1.7759
  592MPD2    H3 8781   0.638   0.833  11.104 -0.7963 -0.3925 -0.5217
  592MPD2     N 8782   0.501   0.788  11.535 -0.0910 -0.1611 -0.0225
  592MPD2    H5 8783   0.498   0.834  11.625 -0.3489 -0.4914  0.1380
  592MPD2    N1 8784   0.762   1.175  11.365 -0.6949  0.1192  0.5038
  592MPD2    H7 8785   0.808   1.214  11.283 -1.6705  1.3487  0.5390
  593TMC3    C1 8786   0.858   1.364  11.467  0.1792  0.2388  0.5164
  593TMC3    C2 8787   0.843   1.464  11.558  0.1444 -0.2152 -0.1702
  593TMC3    C3 8788   0.947   1.552  11.562 -0.5145 -0.1319 -1.0395
  593TMC3    C4 8789   0.957   1.352  11.367 -0.7709  0.3524 -0.1363
  593TMC3    C5 8790   1.052   1.444  11.377  1.3196 -0.6419 -0.3387
  593TMC3    C6 8791   1.046   1.539  11.475 -0.6299  0.2324 -0.2681
  593TMC3     C 8792   0.760   1.259  11.479  0.8275 -0.2465 -0.4203
  593TMC3     O 8793   0.714   1.235  11.592  0.2933 -0.7135  0.1696
  593TMC3     H 8794   0.764   1.464  11.632  1.8468  2.7551  1.6137
  593TMC3    H1 8795   0.970   1.267  11.300 -3.1128 -0.0982 -0.0243
  593TMC3    H2 8796   1.117   1.621  11.481 -2.1729  1.6292 -1.1743
  593TMC3    C7 8797   1.127   1.489  11.263 -0.1435  0.3581 -0.8576
  593TMC3    C8 8798   0.958   1.652  11.663  0.0663  0.4188 -0.6072
  593TMC3    O1 8799   1.173   1.605  11.270  0.3837  0.6543  0.0407
  593TMC3    O2 8800   0.858   1.718  11.699  0.4228  0.1692 -0.2190
  594MPD2     C 8801   3.900   4.471  13.632 -0.2379 -0.2937 -0.5515
  594MPD2    C1 8802   3.848   4.521  13.753 -0.6438  0.0334 -0.5464
  594MPD2    C2 8803   3.925   4.599  13.835  0.3010 -0.6473  0.0785
  594MPD2    C3 8804   4.054   4.627  13.804  1.0651 -0.1624 -0.4131
  594MPD2    C4 8805   4.103   4.587  13.678  0.1321  0.1053  0.3602
  594MPD2    C5 8806   4.020   4.516  13.595  0.6007 -0.1552  0.1440
  594MPD2     H 8807   3.895   4.631  13.934  2.1151  2.6530 -0.4520
  594MPD2    H1 8808   4.199   4.613  13.635  1.1312 -1.1467  1.8273
  594MPD2    H2 8809   3.835   4.425  13.558 -0.1376 -0.5306 -0.4906
  594MPD2    H3 8810   4.056   4.489  13.497  2.3362  0.8828  0.4913
  594MPD2     N 8811   4.129   4.715  13.892  0.3042 -1.1030  0.4696
  594MPD2    H5 8812   4.080   0.039  13.970  0.2132 -0.5149  0.0827
  594MPD2    N1 8813   3.718   4.477  13.783 -0.1603  0.3449 -0.0975
  594MPD2    H7 8814   3.667   4.434  13.707  1.3333 -1.6052  0.0174
  595TMC3    C1 8815   4.504   0.225  14.059  0.7577 -0.8967 -0.1082
  595TMC3    C2 8816   4.448   0.165  13.947 -0.2816 -0.6067  0.2304
  595TMC3    C3 8817   4.313   0.148  13.939 -0.1788 -0.3594 -1.2003
  595TMC3    C4 8818   4.422   0.269  14.160  0.0267 -0.1305  0.4377
  595TMC3    C5 8819   4.290   0.270  14.143  0.2398  0.3538 -0.2831
  595TMC3    C6 8820   4.232   0.211  14.032  0.5089 -1.1512  0.3698
  595TMC3     C 8821   4.646   0.247  14.062 -0.1120 -0.4756  0.3174
  595TMC3     O 8822   4.668   0.274  14.178 -0.5797  0.0903 -0.5056
  595TMC3     H 8823   4.512   0.106  13.882 -2.0490 -0.2913 -1.8163
  595TMC3    H1 8824   4.452   0.333  14.242  0.1923 -1.1143  1.1491
  595TMC3    H2 8825   4.124   0.207  14.025  0.3891  2.1805  0.6698
  595TMC3    C7 8826   4.201   0.320  14.246  0.0774 -0.1487  0.0802
  595TMC3    C8 8827   4.261   0.034  13.864  0.4346  0.2375 -0.0271
  595TMC3    O1 8828   4.090   0.267  14.254  0.0499  0.0884 -0.0133
  595TMC3    O2 8829   4.347   4.709  13.786  0.3389 -0.2135  0.0555
  596MPD2     C 8830   3.155   2.516  16.635  0.7619 -0.5003 -0.0080
  596MPD2    C1 8831   3.149   2.644  16.584  0.1528 -0.2749 -0.3031
  596MPD2    C2 8832   3.139   2.649  16.449 -0.4681 -0.0132  0.1774
  596MPD2    C3 8833   3.143   2.538  16.364  0.3806  0.5966  0.1636
  596MPD2    C4 8834   3.148   2.413  16.417  0.1340 -0.1105 -0.0338
  596MPD2    C5 8835   3.153   2.403  16.557 -0.3397  1.0004  0.2574
  596MPD2     H 8836   3.138   2.748  16.404  2.2807 -0.2055 -0.3302
  596MPD2    H1 8837   3.132   2.329  16.351 -2.4910 -0.6342  1.2621
  596MPD2    H2 8838   3.162   2.491  16.740  0.9773 -0.8253 -0.0985
  596MPD2    H3 8839   3.144   2.304  16.602  1.0715  0.6238 -0.2942
  596MPD2     N 8840   3.124   2.545  16.227 -0.7187 -0.0342  0.4823
  596MPD2    H5 8841   3.119   2.458  16.174  0.2224  0.4853 -0.4644
  596MPD2    N1 8842   3.141   2.760  16.671 -0.7737  0.0837 -0.0584
  596MPD2    H7 8843   3.142   2.850  16.626  0.3822 -0.7418 -1.6677
  597TMC3    C1 8844   3.105   2.887  16.872  0.0421  0.1851 -0.4207
  597TMC3    C2 8845   3.122   3.008  16.803  0.6784 -0.5473 -0.1031
  597TMC3    C3 8846   3.121   3.124  16.877 -0.0153  0.6385  0.2340
  597TMC3    C4 8847   3.071   2.887  17.006  0.0422  0.5018  0.3444
  597TMC3    C5 8848   3.050   3.006  17.067 -0.0621  0.2162  0.2164
  597TMC3    C6 8849   3.076   3.130  17.005 -0.0570  0.3815  0.2841
  597TMC3     C 8850   3.130   2.757  16.812  0.2983  0.0353 -0.0124
  597TMC3     O 8851   3.129   2.660  16.885 -0.1476  0.1657 -0.5336
  597TMC3     H 8852   3.171   3.008  16.706  0.4016 -3.6651 -0.2452
  597TMC3    H1 8853   3.077   2.796  17.065 -1.6429  1.7527  2.4472
  597TMC3    H2 8854   3.065   3.226  17.054 -1.8139 -1.0321  2.6187
  597TMC3    C7 8855   2.989   2.992  17.196 -0.4760  0.0017  0.3040
  597TMC3    C8 8856   3.115   3.251  16.800 -0.8427  0.8377 -0.2579
  597TMC3    O1 8857   2.954   2.884  17.239 -0.0594  0.2415 -0.1954
  597TMC3    O2 8858   3.035   3.337  16.838  0.6584 -0.0816 -0.3411
  598TMC3    C1 8859   1.100   3.839  15.390 -0.2494  0.1019  0.0632
  598TMC3    C2 8860   0.978   3.773  15.371 -0.1910 -0.5102  0.2435
  598TMC3    C3 8861   0.882   3.833  15.294 -1.0299  0.3648  0.5139
  598TMC3    C4 8862   1.115   3.968  15.344  0.5765 -0.1361  0.0504
  598TMC3    C5 8863   1.015   4.022  15.271 -0.3338  0.2619 -0.0678
  598TMC3    C6 8864   0.906   3.956  15.237 -0.2195 -0.4548  0.0191
  598TMC3     C 8865   1.200   3.778  15.476  0.5473 -0.5068 -0.3126
  598TMC3     O 8866   1.183   3.659  15.497  0.0465 -0.5174  0.2187
  598TMC3     H 8867   0.974   3.670  15.405 -0.2907  0.2231  2.5151
  598TMC3    H1 8868   1.217   3.998  15.327  0.5382  0.1418  0.3155
  598TMC3    H2 8869   0.834   4.003  15.171  1.6306  1.0243 -0.9335
  598TMC3    C7 8870   1.047   4.134  15.184 -0.2372 -0.7328  0.0788
  598TMC3    C8 8871   0.798   3.741  15.212  0.1464  0.8850 -0.9051
  598TMC3    O1 8872   0.993   4.120  15.079 -0.5886 -0.1490  0.1659
  598TMC3    O2 8873   0.760   3.641  15.274  0.1667 -0.1472 -0.2757
  599MPD2     C 8874   1.183   1.821  15.772 -0.0202  0.4523  0.0330
  599MPD2    C1 8875   1.141   1.690  15.779 -0.2706 -0.7256  0.5369
  599MPD2    C2 8876   1.030   1.663  15.858  0.4939 -0.3420 -0.3147
  599MPD2    C3 8877   0.971   1.756  15.929  0.3066  0.0951 -0.5095
  599MPD2    C4 8878   1.020   1.886  15.934  0.3044  0.5501 -0.0636
  599MPD2    C5 8879   1.117   1.915  15.843  0.2519 -0.0389  0.4494
  599MPD2     H 8880   1.006   1.559  15.879 -0.9624 -0.7791 -4.0966
  599MPD2    H1 8881   0.985   1.973  15.988 -0.5773 -1.6800  2.8968
  599MPD2    H2 8882   1.268   1.856  15.713 -0.0540 -0.3327 -0.4879
  599MPD2    H3 8883   1.165   2.012  15.830  0.7389 -0.3728 -0.2263
  599MPD2     N 8884   0.857   1.729  16.008  0.6613 -0.5125  0.4654
  599MPD2    H5 8885   0.812   1.808  16.055 -1.2056 -0.5221 -1.3155
  599MPD2    N1 8886   1.230   1.593  15.717  0.0155 -0.3144 -0.1286
  599MPD2    H7 8887   1.298   1.633  15.653  0.5972 -0.9341  0.0963
  600TMC3    C1 8888   0.678   1.618  16.103 -0.7241 -0.0159  0.4975
  600TMC3    C2 8889   0.635   1.507  16.167 -0.3024 -0.8187  0.4394
  600TMC3    C3 8890   0.518   1.513  16.242  0.4449  0.0953 -0.4226
  600TMC3    C4 8891   0.599   1.731  16.101 -0.2584  0.4331 -0.1020
  600TMC3    C5 8892   0.485   1.739  16.181 -0.4505  0.3094 -0.1602
  600TMC3    C6 8893   0.441   1.626  16.250  0.4062  0.3367 -0.0262
  600TMC3     C 8894   0.796   1.608  16.026 -0.6818 -0.4110  0.1963
  600TMC3     O 8895   0.806   1.500  15.969 -0.4264 -0.1448 -0.1178
  600TMC3     H 8896   0.706   1.427  16.181  0.9285 -0.0964 -1.6119
  600TMC3    H1 8897   0.628   1.814  16.037 -1.4233  1.0318  0.1547
  600TMC3    H2 8898   0.353   1.631  16.314  0.6471  0.2326  0.3119
  600TMC3    C7 8899   0.429   1.863  16.220  0.2073 -0.0836  0.2841
  600TMC3    C8 8900   0.489   1.407  16.333 -0.2469 -0.2197  0.2542
  600TMC3    O1 8901   0.335   1.863  16.294 -0.3163  0.4448  0.0365
  600TMC3    O2 8902   0.585   1.351  16.389  0.7099 -0.4792 -0.3697
  601MPD2     C 8903   3.252   0.035   0.066  0.7956  0.5000 -0.0735
  601MPD2    C1 8904   3.265   4.704  17.619  0.3918 -0.4547  0.8362
  601MPD2    C2 8905   3.336   4.596  17.602 -0.7912  0.2049  0.2965
  601MPD2    C3 8906   3.391   4.523   0.028  0.6168  1.1846  0.4730
  601MPD2    C4 8907   3.367   4.575   0.151  0.0827 -0.1380 -0.2332
  601MPD2    C5 8908   3.298   4.687   0.174 -0.5443 -0.1813  0.4679
  601MPD2     H 8909   3.357   4.561  17.502  0.6297 -2.1191  1.3902
  601MPD2    H1 8910   3.397   4.520   0.240 -3.1697 -1.1041  0.2721
  601MPD2    H2 8911   3.202   0.129   0.085  0.5882 -0.0958  2.3257
  601MPD2    H3 8912   3.292   0.002   0.277 -2.8043  0.0263  0.2680
  601MPD2     N 8913   3.455   4.403   0.012 -0.2152  0.2164  0.1069
  601MPD2    H5 8914   3.482   4.356   0.099  1.8655  1.7709  0.3048
  601MPD2    N1 8915   3.204   0.040  17.505  0.3597 -0.0234  0.6622
  601MPD2    H7 8916   3.227   0.010  17.410 -2.0826  1.6573 -0.4739
  602TMC3    C1 8917   3.036   0.139  17.389 -0.2208 -0.2206 -0.2714
  602TMC3    C2 8918   3.112   0.212  17.301  0.2580  0.6051  0.8149
  602TMC3    C3 8919   3.053   0.292  17.206 -0.9784  0.2851  0.5213
  602TMC3    C4 8920   2.899   0.146  17.378 -0.1085 -0.2406 -0.6358
  602TMC3    C5 8921   2.847   0.238  17.286  0.1176 -0.9902 -0.2070
  602TMC3    C6 8922   2.923   0.307  17.193 -0.1268 -0.0324 -0.3479
  602TMC3     C 8923   3.091   0.114  17.521 -0.7695 -1.0584  0.0552
  602TMC3     O 8924   3.023   0.131  17.621  0.3664  0.5118  0.4474
  602TMC3     H 8925   3.220   0.213  17.313  0.3652 -2.3257 -0.0002
  602TMC3    H1 8926   2.834   0.085  17.440  1.8695 -0.4745  1.2021
  602TMC3    H2 8927   2.881   0.385  17.131 -1.4902  0.7518  1.5943
  602TMC3    C7 8928   2.697   0.234  17.268  0.0979  0.3037  1.1076
  602TMC3    C8 8929   3.136   0.350  17.102  0.1989 -0.1499 -0.2653
  602TMC3    O1 8930   2.627   0.214  17.365 -0.7621  0.0264  0.1541
  602TMC3    O2 8931   3.254   0.376  17.130 -0.4282  0.3871 -0.5839
  603TMC3    C1 8932   1.265   0.102  10.860 -0.4287 -0.9626  0.5626
  603TMC3    C2 8933   1.352   0.064  10.956 -0.9757  0.3005  0.4472
  603TMC3    C3 8934   1.483   0.047  10.927  0.6925 -0.4405  0.3188
  603TMC3    C4 8935   1.309   0.152  10.738  0.5415 -0.0294 -0.0407
  603TMC3    C5 8936   1.445   0.129  10.711  0.0844  0.3687  0.1832
  603TMC3    C6 8937   1.530   0.071  10.801 -0.2179 -0.3325 -0.0106
  603TMC3     C 8938   1.137   0.148  10.909 -0.4807  0.7798 -0.0128
  603TMC3     O 8939   1.087   0.246  10.860  0.0553 -0.1004 -0.1437
  603TMC3     H 8940   1.320   0.063  11.059 -1.4820  0.8691  0.2921
  603TMC3    H1 8941   1.238   0.202  10.673 -0.2927 -1.3588 -0.1661
  603TMC3    H2 8942   1.636   0.056  10.780 -0.7314 -2.5308 -1.0413
  603TMC3    C7 8943   1.483   0.130  10.572  0.0613 -0.6370  1.0378
  603TMC3    C8 8944   1.569   0.055  11.046 -0.0495  0.4739  0.0384
  603TMC3    O1 8945   1.582   0.064  10.540  0.4151  0.5203  1.1194
  603TMC3    O2 8946   1.558   4.688  11.134  0.2140 -0.3800  0.1801
  604MPD2     C 8947   2.046   3.561  16.525 -0.0160  0.6443  0.3043
  604MPD2    C1 8948   1.943   3.587  16.439  0.4610  0.3724 -0.0689
  604MPD2    C2 8949   1.948   3.524  16.310 -0.3891 -0.3998  0.0650
  604MPD2    C3 8950   2.064   3.463  16.265 -0.3044 -0.1762 -0.3455
  604MPD2    C4 8951   2.169   3.443  16.354 -0.1392 -0.0597  0.3157
  604MPD2    C5 8952   2.163   3.490  16.484  0.2762  0.6079  0.2085
  604MPD2     H 8953   1.863   3.531  16.243  0.4214 -1.7514 -1.1158
  604MPD2    H1 8954   2.262   3.391  16.334  0.3509  0.6351  0.7890
  604MPD2    H2 8955   2.048   3.605  16.624  1.1678 -0.7094  0.8943
  604MPD2    H3 8956   2.245   3.484  16.554  0.7669 -1.7905 -0.5795
  604MPD2     N 8957   2.070   3.426  16.129 -0.0814  1.0908  0.4616
  604MPD2    H5 8958   1.988   3.440  16.071 -0.4236  0.1971  0.7271
  604MPD2    N1 8959   1.838   3.661  16.489  1.4672  0.2532  0.3370
  604MPD2    H7 8960   1.859   3.706  16.577  1.2334  1.9515 -0.4730
  605TMC3    C1 8961   1.657   3.805  16.497 -0.8961  0.0298  0.1668
  605TMC3    C2 8962   1.745   3.895  16.551 -0.2756 -0.4247 -0.2576
  605TMC3    C3 8963   1.708   4.030  16.556  0.3670  0.1184 -0.0448
  605TMC3    C4 8964   1.529   3.838  16.457 -0.0760  0.2525  0.3934
  605TMC3    C5 8965   1.496   3.969  16.464  0.9723  0.5691  0.0483
  605TMC3    C6 8966   1.580   4.069  16.511  0.0323 -0.1302  0.2746
  605TMC3     C 8967   1.719   3.686  16.435 -0.1203 -0.2396 -0.4172
  605TMC3     O 8968   1.656   3.615  16.361  0.3694  0.8176  0.0477
  605TMC3     H 8969   1.844   3.864  16.580 -0.6172 -0.9842  0.3187
  605TMC3    H1 8970   1.461   3.768  16.409  0.0998  0.1493  0.2949
  605TMC3    H2 8971   1.567   4.176  16.495 -0.9970 -0.8043 -3.4163
  605TMC3    C7 8972   1.374   4.008  16.393 -0.3365 -0.2855 -0.0065
  605TMC3    C8 8973   1.817   4.121  16.558 -0.1442  0.1937 -0.4867
  605TMC3    O1 8974   1.362   4.132  16.382  0.0045 -0.5593 -0.2945
  605TMC3    O2 8975   1.905   4.093  16.482 -0.2879 -0.1251  0.3674
  606TMC3    C1 8976   3.502   1.932  16.663  0.1994 -0.3355 -0.3343
  606TMC3    C2 8977   3.443   2.041  16.710 -0.6435 -0.5282  0.4753
  606TMC3    C3 8978   3.404   2.045  16.837  0.6031  0.2862  0.7210
  606TMC3    C4 8979   3.515   1.820  16.741 -1.0589 -0.2663 -0.0765
  606TMC3    C5 8980   3.463   1.821  16.867 -0.2427 -0.1651 -0.1467
  606TMC3    C6 8981   3.418   1.938  16.919 -0.3375  0.3457  0.1264
  606TMC3     C 8982   3.538   1.930  16.522  0.2747 -0.9201  0.2189
  606TMC3     O 8983   3.547   2.037  16.465 -0.6499  0.0107 -0.0903
  606TMC3     H 8984   3.421   2.123  16.642  0.4294 -0.0338  0.7314
  606TMC3    H1 8985   3.566   1.731  16.706 -2.0318 -0.1819 -1.7426
  606TMC3    H2 8986   3.389   1.939  17.024  2.2234 -1.2230  0.8725
  606TMC3    C7 8987   3.467   1.698  16.937 -0.2123  0.1099  0.0997
  606TMC3    C8 8988   3.345   2.169  16.881 -0.5837 -0.2953  0.5608
  606TMC3    O1 8989   3.553   1.621  16.894 -0.4412 -0.1911  0.3631
  606TMC3    O2 8990   3.359   2.267  16.805  0.1096  0.5443  0.1048
  607MPD2     C 8991   1.119   0.567  11.148 -0.2909 -0.4115  0.0840
  607MPD2    C1 8992   1.110   0.680  11.215  0.6645  0.0667  0.1803
  607MPD2    C2 8993   1.026   0.687  11.327 -0.3528 -0.1803  0.2997
  607MPD2    C3 8994   0.951   0.582  11.369  0.0936 -0.2410 -0.5148
  607MPD2    C4 8995   0.963   0.463  11.301  0.6742 -0.0665  0.1334
  607MPD2    C5 8996   1.043   0.461  11.196  0.3736 -0.1231 -0.5180
  607MPD2     H 8997   1.025   0.783  11.377 -0.6385 -0.6226  1.1345
  607MPD2    H1 8998   0.904   0.378  11.332  1.1748 -0.2713  0.5061
  607MPD2    H2 8999   1.186   0.552  11.064  0.1883  2.8203 -0.1002
  607MPD2    H3 9000   1.055   0.363  11.150 -1.0490 -0.2152 -0.6639
  607MPD2     N 9001   0.884   0.600  11.490  0.2416  0.0166 -0.0772
  607MPD2    H5 9002   0.877   0.696  11.523 -0.3459  0.5696 -1.8468
  607MPD2    N1 9003   1.174   0.805  11.175  0.1946 -0.1544 -0.3482
  607MPD2    H7 9004   1.148   0.887  11.230  0.0700  1.9611 -3.5441
  608TMC3    C1 9005   1.320   0.962  11.076 -0.8196 -0.4305  0.0308
  608TMC3    C2 9006   1.312   1.030  11.193 -0.3110 -0.3117 -0.2234
  608TMC3    C3 9007   1.362   1.156  11.200  0.6528 -0.5547  0.9455
  608TMC3    C4 9008   1.374   1.016  10.964  0.1009  0.3650 -0.7996
  608TMC3    C5 9009   1.429   1.143  10.974  0.3098  0.2587 -0.0343
  608TMC3    C6 9010   1.421   1.216  11.091  0.4212 -0.3282  0.2943
  608TMC3     C 9011   1.276   0.821  11.086 -0.5305  0.0309  0.3422
  608TMC3     O 9012   1.327   0.741  11.006  0.3315 -0.3750 -0.3762
  608TMC3     H 9013   1.287   0.977  11.284  0.4391 -0.2844  0.0052
  608TMC3    H1 9014   1.386   0.946  10.883  1.1811  1.8727 -1.9331
  608TMC3    H2 9015   1.470   1.311  11.105 -1.3721  0.5671  0.4129
  608TMC3    C7 9016   1.500   1.195  10.860  0.2907 -0.1261  0.9449
  608TMC3    C8 9017   1.338   1.236  11.318  0.3083  0.0963  0.0040
  608TMC3    O1 9018   1.487   1.136  10.755  0.1831 -0.0129 -0.0847
  608TMC3    O2 9019   1.409   1.336  11.343  0.2412 -0.7163 -0.1497
  609TMC3    C1 9020   3.715   4.472   9.511  0.4498 -1.0551 -0.4285
  609TMC3    C2 9021   3.657   4.587   9.462 -0.1101 -0.3655  0.3918
  609TMC3    C3 9022   3.737   4.671   9.402 -0.2062 -0.0442 -1.1775
  609TMC3    C4 9023   3.844   4.446   9.501  0.4616  0.0655  0.0456
  609TMC3    C5 9024   3.923   4.533   9.423 -0.5894 -0.4359  0.5498
  609TMC3    C6 9025   3.863   4.638   9.363  0.3544  0.0169 -0.5319
  609TMC3     C 9026   3.630   4.407   9.609 -1.0397 -0.2719 -0.1628
  609TMC3     O 9027   3.513   4.445   9.632 -0.3998 -0.1546 -0.5514
  609TMC3     H 9028   3.553   4.612   9.481  0.3626  0.8527  1.4047
  609TMC3    H1 9029   3.882   4.357   9.549  0.1311 -0.4583 -0.6678
  609TMC3    H2 9030   3.924   4.701   9.298  1.8888 -0.6894  0.2252
  609TMC3    C7 9031   4.037   4.460   9.366  0.0108  0.1810  0.2018
  609TMC3    C8 9032   3.686   0.087   9.363  0.3635 -0.1532 -0.1296
  609TMC3    O1 9033   4.097   4.392   9.445  0.5673  0.3120  0.0385
  609TMC3    O2 9034   3.568   0.086   9.330  0.6540  0.1455 -0.0165
  610TMC3    C1 9035   1.033   0.545  12.422 -0.7334  0.3540  0.6860
  610TMC3    C2 9036   1.146   0.527  12.340  0.3474 -0.9100 -0.0212
  610TMC3    C3 9037   1.250   0.443  12.388  0.1854 -0.5660 -0.5001
  610TMC3    C4 9038   1.023   0.495  12.549  0.8221 -1.1388 -0.9919
  610TMC3    C5 9039   1.123   0.406  12.585  0.3815 -0.0123 -0.0424
  610TMC3    C6 9040   1.231   0.377  12.505  0.4627  0.6322  0.0418
  610TMC3     C 9041   0.914   0.597  12.359 -0.1432  0.1355 -0.3826
  610TMC3     O 9042   0.807   0.574  12.415 -0.5074 -0.0794 -0.9290
  610TMC3     H 9043   1.155   0.561  12.238 -1.6631 -0.2393  0.0230
  610TMC3    H1 9044   0.938   0.510  12.615  2.6322 -3.1701  1.8339
  610TMC3    H2 9045   1.317   0.329  12.551  0.8392  2.4234  1.2404
  610TMC3    C7 9046   1.098   0.318  12.697  0.1466 -0.6737  0.7359
  610TMC3    C8 9047   1.382   0.442  12.327  0.0860  0.3501  0.1338
  610TMC3    O1 9048   1.133   0.200  12.677 -0.3957  0.2895  0.1313
  610TMC3    O2 9049   1.469   0.370  12.372 -0.4735  0.1256 -0.4052
  611MPD2     C 9050   0.493   0.922  10.290  0.3652 -0.4966  0.0417
  611MPD2    C1 9051   0.561   0.805  10.300  0.0028  0.5523 -0.3840
  611MPD2    C2 9052   0.693   0.796  10.261  0.0171  0.1610 -0.7551
  611MPD2    C3 9053   0.744   0.905  10.190 -0.8170  0.4013  0.7872
  611MPD2    C4 9054   0.670   1.025  10.175 -0.0078 -0.6345  0.2534
  611MPD2    C5 9055   0.544   1.033  10.226 -0.4882 -0.4346 -0.4432
  611MPD2     H 9056   0.751   0.705  10.272  0.0794 -0.0092 -2.4361
  611MPD2    H1 9057   0.706   1.112  10.122 -0.8356  0.1491  0.9732
  611MPD2    H2 9058   0.396   0.934  10.336  0.6346 -0.3171  0.5598
  611MPD2    H3 9059   0.490   1.124  10.204 -3.0816 -1.4156  1.8599
  611MPD2     N 9060   0.878   0.907  10.135 -0.3256 -0.0227 -0.3159
  611MPD2    H5 9061   0.897   0.991  10.081  0.8581 -0.5189 -0.6598
  611MPD2    N1 9062   0.486   0.702  10.364  0.3345  0.1761 -0.5993
  611MPD2    H7 9063   0.387   0.722  10.375  0.1271 -0.6185 -0.9856
  612TMC3    C1 9064   1.109   0.835  10.094 -0.3826 -0.2942  0.9453
  612TMC3    C2 9065   1.209   0.750  10.119 -0.0053  0.1976  0.2152
  612TMC3    C3 9066   1.326   0.752  10.044 -0.3484 -0.0130 -0.1330
  612TMC3    C4 9067   1.108   0.912   9.981  0.0036  0.1935  0.1951
  612TMC3    C5 9068   1.215   0.891   9.893 -0.6483  0.2605  0.1046
  612TMC3    C6 9069   1.331   0.822   9.928  0.2243 -0.0136 -1.1305
  612TMC3     C 9070   0.977   0.814  10.157 -0.3205 -0.3519 -0.4899
  612TMC3     O 9071   0.973   0.716  10.234 -0.2623  0.7469  0.7121
  612TMC3     H 9072   1.204   0.700  10.215 -2.9343  0.9906  0.4590
  612TMC3    H1 9073   1.023   0.970   9.948 -0.3379 -0.2748  0.2527
  612TMC3    H2 9074   1.420   0.828   9.866 -0.6592 -3.5527 -2.7401
  612TMC3    C7 9075   1.204   0.950   9.758  0.5790 -0.0401  0.2754
  612TMC3    C8 9076   1.426   0.652  10.058  0.2508 -0.7143 -0.5988
  612TMC3    O1 9077   1.102   1.009   9.733  0.2774  0.2427  0.4634
  612TMC3    O2 9078   1.509   0.628   9.970 -0.1266 -0.1947 -0.1264
  613MPD2     C 9079   3.910   2.624  16.417  0.2037 -0.4877  0.2000
  613MPD2    C1 9080   3.931   2.712  16.312 -0.1639 -0.3592 -0.5788
  613MPD2    C2 9081   3.870   2.683  16.190 -0.0197 -0.0108 -0.8475
  613MPD2    C3 9082   3.788   2.575  16.166  0.4625  0.4514 -0.0903
  613MPD2    C4 9083   3.771   2.484  16.272  0.0784 -0.2638 -0.1711
  613MPD2    C5 9084   3.829   2.517  16.394 -0.2310  0.1357  0.0309
  613MPD2     H 9085   3.875   2.741  16.099  2.0052  1.9321  0.4869
  613MPD2    H1 9086   3.729   2.385  16.258 -0.9700  0.2657 -0.7513
  613MPD2    H2 9087   3.949   2.639  16.517 -1.8177  4.1594  0.2966
  613MPD2    H3 9088   3.814   2.452  16.479 -0.2353  0.7307  0.4846
  613MPD2     N 9089   3.738   2.539  16.039  0.3060 -0.4423 -0.1489
  613MPD2    H5 9090   3.692   2.448  16.040  2.1051 -1.3507  1.6597
  613MPD2    N1 9091   4.003   2.827  16.345 -0.4263 -0.0122  0.0013
  613MPD2    H7 9092   4.024   2.833  16.444  3.0986 -1.6791 -0.6197
  614TMC3    C1 9093   4.076   2.888  16.118 -0.2498  0.1168  0.1345
  614TMC3    C2 9094   4.147   2.779  16.076  1.2600 -0.4024  0.6140
  614TMC3    C3 9095   4.181   2.771  15.943 -0.1019  0.0522 -0.1008
  614TMC3    C4 9096   4.053   2.990  16.027  0.1606  0.8217 -0.5253
  614TMC3    C5 9097   4.089   2.987  15.896 -0.4489 -0.2487 -0.1563
  614TMC3    C6 9098   4.155   2.873  15.854  0.5324  0.6363  0.3749
  614TMC3     C 9099   4.049   2.926  16.258  0.3897  0.2612  0.7205
  614TMC3     O 9100   4.065   3.045  16.282 -0.4906  0.4951 -0.3730
  614TMC3     H 9101   4.174   2.698  16.142 -1.3152 -1.7433  0.0344
  614TMC3    H1 9102   4.013   3.081  16.070 -0.5012  1.5756 -2.7702
  614TMC3    H2 9103   4.187   2.854  15.752 -0.0310  0.0848  0.3049
  614TMC3    C7 9104   4.018   3.062  15.800 -0.3352  0.5151  0.6149
  614TMC3    C8 9105   4.175   2.634  15.894 -0.7222  0.0272 -0.3198
  614TMC3    O1 9106   3.942   3.151  15.843  0.2898  0.1410 -0.3052
  614TMC3    O2 9107   4.137   2.550  15.975 -0.1919 -0.4378  0.5290
  615MPD2     C 9108   3.507   3.829  16.182 -0.4903 -0.3810 -0.2525
  615MPD2    C1 9109   3.566   3.942  16.136  0.1298  0.0080 -0.4010
  615MPD2    C2 9110   3.581   3.959  15.994  0.1220  0.0113  0.6499
  615MPD2    C3 9111   3.532   3.864  15.905  0.2271  0.0556 -0.1525
  615MPD2    C4 9112   3.489   3.750  15.955  1.0241  0.1356  0.5603
  615MPD2    C5 9113   3.466   3.741  16.089  0.5776  0.8119 -0.4748
  615MPD2     H 9114   3.630   4.043  15.947  2.1279 -1.6277 -0.1536
  615MPD2    H1 9115   3.459   3.661  15.901  0.3502 -0.9875  2.8233
  615MPD2    H2 9116   3.486   3.819  16.288 -0.1494  1.1311 -0.0393
  615MPD2    H3 9117   3.420   3.649  16.123 -1.0224  2.4232  1.7044
  615MPD2     N 9118   3.535   3.884  15.767  0.1821  0.1170 -0.1127
  615MPD2    H5 9119   3.579   3.967  15.729  1.0906 -0.7411 -0.9315
  615MPD2    N1 9120   3.602   4.048  16.235 -0.3559  0.2127 -0.5265
  615MPD2    H7 9121   3.589   4.019  16.331  2.0472  2.0829  0.3613
  616TMC3    C1 9122   3.685   4.236  16.352 -0.1759  0.3280  0.0272
  616TMC3    C2 9123   3.774   4.334  16.347 -0.1775  0.8361 -0.9210
  616TMC3    C3 9124   3.763   4.428  16.443  0.1679  0.3692 -0.5914
  616TMC3    C4 9125   3.577   4.236  16.437 -0.0153  0.2428  0.0124
  616TMC3    C5 9126   3.573   4.333  16.536  0.6124  0.1667 -1.0558
  616TMC3    C6 9127   3.664   4.440  16.537 -0.1333 -0.5997 -0.4201
  616TMC3     C 9128   3.672   4.165  16.225  0.2161  0.1522 -0.0892
  616TMC3     O 9129   3.737   4.199  16.132 -0.0720 -0.5494  0.6817
  616TMC3     H 9130   3.842   4.336  16.262 -0.2932 -1.2149 -1.0537
  616TMC3    H1 9131   3.510   4.150  16.439  0.1125  0.1261 -1.1276
  616TMC3    H2 9132   3.669   4.512  16.618 -0.9493 -0.4370 -0.5105
  616TMC3    C7 9133   3.456   4.343  16.628  0.1534  1.0444  0.3297
  616TMC3    C8 9134   3.843   4.553  16.433  0.9101  0.3409 -0.0392
  616TMC3    O1 9135   3.431   4.454  16.678  0.0137  0.1419 -0.0730
  616TMC3    O2 9136   3.789   4.650  16.487 -0.0121 -0.3750 -0.2472
  617MPD2     C 9137   1.707   2.413  13.706  0.3736  0.2503 -0.2959
  617MPD2    C1 9138   1.757   2.290  13.740  0.4451  0.3362 -0.0598
  617MPD2    C2 9139   1.674   2.196  13.798  0.6721  0.7604  0.1688
  617MPD2    C3 9140   1.540   2.227  13.821 -0.4356  0.6160  0.0327
  617MPD2    C4 9141   1.491   2.352  13.783  0.4013 -0.6636 -0.1334
  617MPD2    C5 9142   1.579   2.445  13.726  0.9153 -0.4547 -0.0108
  617MPD2     H 9143   1.709   2.097  13.824 -3.2034  0.0209  2.5458
  617MPD2    H1 9144   1.387   2.381  13.789  0.7847  0.4526  1.1298
  617MPD2    H2 9145   1.768   2.488  13.655 -1.8603  2.1042 -0.2382
  617MPD2    H3 9146   1.535   2.532  13.678  2.4085  0.0602 -0.4473
  617MPD2     N 9147   1.448   2.149  13.890  0.2441 -0.1235  0.0045
  617MPD2    H5 9148   1.350   2.173  13.894  0.7030  1.5863  0.7234
  617MPD2    N1 9149   1.888   2.268  13.695 -0.5561 -0.2250 -0.0928
  617MPD2    H7 9150   1.923   2.333  13.626 -1.2008 -0.6698 -0.8301
  618TMC3    C1 9151   2.084   2.137  13.655  0.2454  0.7433  0.0307
  618TMC3    C2 9152   2.138   2.011  13.638 -0.1436 -0.2808  0.1602
  618TMC3    C3 9153   2.255   1.997  13.565  0.0177  0.0767 -0.3793
  618TMC3    C4 9154   2.156   2.249  13.621 -0.4246 -0.1085 -0.0818
  618TMC3    C5 9155   2.276   2.234  13.561 -0.2052  0.4213 -0.1026
  618TMC3    C6 9156   2.320   2.111  13.523 -0.2197 -0.2426  0.4185
  618TMC3     C 9157   1.958   2.154  13.725 -0.4400 -0.3508 -0.1388
  618TMC3     O 9158   1.928   2.064  13.803  0.5838 -0.6730 -0.0698
  618TMC3     H 9159   2.091   1.919  13.672  3.3946 -1.9574  0.5845
  618TMC3    H1 9160   2.134   2.349  13.657 -3.0059 -1.0351  0.9080
  618TMC3    H2 9161   2.422   2.111  13.488 -0.5013  2.6162 -0.4221
  618TMC3    C7 9162   2.318   2.352  13.487 -0.3879 -0.0014  0.1769
  618TMC3    C8 9163   2.293   1.863  13.514  0.0080 -0.9375 -0.2888
  618TMC3    O1 9164   2.264   2.461  13.512 -0.3333 -0.4041 -0.6560
  618TMC3    O2 9165   2.201   1.784  13.498  0.0044 -0.2981 -0.6464
  619MPD2     C 9166   3.184   3.512  13.757  0.5119  0.3092  0.6265
  619MPD2    C1 9167   3.112   3.598  13.675 -0.1612  0.0627 -0.9598
  619MPD2    C2 9168   2.974   3.597  13.676 -0.0333  0.8662  0.6371
  619MPD2    C3 9169   2.913   3.511  13.764  0.1716 -0.2779 -0.1847
  619MPD2    C4 9170   2.986   3.421  13.838 -0.2998 -0.1558 -0.1589
  619MPD2    C5 9171   3.120   3.426  13.839 -0.1447 -0.2735  0.3103
  619MPD2     H 9172   2.916   3.664  13.613 -0.7615  0.5515  0.9740
  619MPD2    H1 9173   2.943   3.349  13.906 -0.0300 -2.0380 -1.9756
  619MPD2    H2 9174   3.293   3.515  13.758  0.4777  1.4863  0.6185
  619MPD2    H3 9175   3.178   3.351  13.893  0.1239 -0.6127 -0.4481
  619MPD2     N 9176   2.774   3.506  13.774  0.0934 -0.1378 -0.5171
  619MPD2    H5 9177   2.734   3.426  13.823 -2.1264  1.1037 -0.2744
  619MPD2    N1 9178   3.170   3.677  13.578 -0.1247  0.0601  0.0151
  619MPD2    H7 9179   3.113   3.725  13.509  1.1724  0.1560 -0.9861
  620TMC3    C1 9180   3.327   3.780  13.445  0.6277 -0.1462  0.1371
  620TMC3    C2 9181   3.274   3.726  13.331 -0.2980  0.1752 -0.1508
  620TMC3    C3 9182   3.249   3.814  13.226  0.1358 -0.3519 -0.2131
  620TMC3    C4 9183   3.360   3.911  13.453  0.0405  0.4906 -0.3555
  620TMC3    C5 9184   3.343   3.991  13.344 -0.0813  0.6036 -0.2763
  620TMC3    C6 9185   3.290   3.945  13.233  0.0615  0.1489 -0.5063
  620TMC3     C 9186   3.304   3.703  13.564  1.1093 -0.7748 -0.0826
  620TMC3     O 9187   3.388   3.695  13.656  0.1931 -0.7951 -0.0217
  620TMC3     H 9188   3.256   3.619  13.329 -0.2334  0.1437  1.0242
  620TMC3    H1 9189   3.389   3.971  13.539  0.5581  0.3940 -0.4655
  620TMC3    H2 9190   3.277   4.005  13.143  1.5836  2.4865  0.8429
  620TMC3    C7 9191   3.332   4.135  13.373  0.0931 -0.4817  0.0998
  620TMC3    C8 9192   3.109   3.832  13.202 -0.4080  0.4896 -0.6591
  620TMC3    O1 9193   3.417   4.191  13.443 -0.0601 -0.0998  0.2293
  620TMC3    O2 9194   3.068   3.947  13.177 -0.0625  0.3996  0.1311
  621MPD2     C 9195   3.770   3.265  10.325  0.5738  0.0401  0.3355
  621MPD2    C1 9196   3.761   3.271  10.185 -0.1786 -0.1794  0.5485
  621MPD2    C2 9197   3.839   3.364  10.117 -0.0023  0.1912  0.0928
  621MPD2    C3 9198   3.924   3.448  10.186 -0.3557 -0.2449 -0.3606
  621MPD2    C4 9199   3.943   3.430  10.324  0.0365  0.0332  0.1413
  621MPD2    C5 9200   3.860   3.344  10.391  0.6304  0.1169 -0.5340
  621MPD2     H 9201   3.827   3.368  10.009  1.3105  0.9458 -0.0220
  621MPD2    H1 9202   4.011   3.488  10.386  0.8047 -0.8927  0.1818
  621MPD2    H2 9203   3.722   3.190  10.387 -0.8640  0.8263  0.1527
  621MPD2    H3 9204   3.875   3.330  10.497  0.2563  2.6246 -0.1414
  621MPD2     N 9205   3.989   3.559  10.118 -0.2056  0.0467 -0.1211
  621MPD2    H5 9206   4.042   3.616  10.182  0.7821 -1.0148  0.0074
  621MPD2    N1 9207   3.716   3.169  10.099  0.8332  0.2914 -0.1274
  621MPD2    H7 9208   3.693   3.195  10.003 -0.1705  0.4268  0.1436
  622TMC3    C1 9209   3.632   2.968  10.026  0.0725  0.3122 -0.1167
  622TMC3    C2 9210   3.556   2.859  10.040 -0.1625  0.0204 -0.1487
  622TMC3    C3 9211   3.542   2.769   9.936 -0.4259 -0.3840 -0.0853
  622TMC3    C4 9212   3.707   2.985   9.910 -0.5084 -0.8934 -0.8310
  622TMC3    C5 9213   3.694   2.885   9.815 -0.5333  0.8488  0.1209
  622TMC3    C6 9214   3.599   2.784   9.818 -0.8241 -0.4012  0.2021
  622TMC3     C 9215   3.650   3.051  10.141 -0.3148 -0.8196  0.2744
  622TMC3     O 9216   3.636   2.998  10.252  0.2952 -0.1860 -0.4270
  622TMC3     H 9217   3.515   2.835  10.138 -0.1366 -1.3504 -0.4750
  622TMC3    H1 9218   3.771   3.068   9.883  0.5834 -2.0520 -1.7959
  622TMC3    H2 9219   3.592   2.708   9.740  2.9143  0.7999 -1.3195
  622TMC3    C7 9220   3.754   2.919   9.683 -0.3986 -0.6809  0.2658
  622TMC3    C8 9221   3.446   2.664   9.952  0.6536 -0.0284 -0.3164
  622TMC3    O1 9222   3.794   3.034   9.668  0.0757 -1.1335 -0.2765
  622TMC3    O2 9223   3.464   2.562   9.885  0.3602 -0.4215 -0.0533
  623MPD2     C 9224   2.060   3.772  16.101  0.3175 -0.1563  0.0831
  623MPD2    C1 9225   2.033   3.881  16.192  0.3586 -0.3100 -0.3262
  623MPD2    C2 9226   2.129   3.920  16.283 -0.6519 -0.1201  0.1946
  623MPD2    C3 9227   2.249   3.850  16.281 -0.6890  0.3123  0.2553
  623MPD2    C4 9228   2.271   3.749  16.195 -0.0248 -0.5505  0.6549
  623MPD2    C5 9229   2.183   3.715  16.102 -0.5697 -0.1109  0.2558
  623MPD2     H 9230   2.106   4.005  16.346  0.6575  0.2815  0.1320
  623MPD2    H1 9231   2.369   3.702  16.190 -1.1877 -2.9898  1.0088
  623MPD2    H2 9232   1.994   3.718  16.034  0.7801 -0.2136 -0.3306
  623MPD2    H3 9233   2.204   3.640  16.026  3.2435 -1.3858  2.5791
  623MPD2     N 9234   2.336   3.891  16.381  0.7521 -0.1033  0.1398
  623MPD2    H5 9235   2.317   3.970  16.441 -0.1675  0.2028 -0.5524
  623MPD2    N1 9236   1.904   3.944  16.186  0.7422  0.0682 -0.1765
  623MPD2    H7 9237   1.891   4.036  16.226  0.1431 -0.5041  0.9253
  624TMC3    C1 9238   2.566   3.949  16.735  0.1489  0.3485  0.6095
  624TMC3    C2 9239   2.512   4.072  16.735 -0.4652  0.9480 -0.1075
  624TMC3    C3 9240   2.459   4.117  16.616  0.2307 -0.6331  0.6061
  624TMC3    C4 9241   2.568   3.875  16.616  0.0864 -0.7950 -0.4063
  624TMC3    C5 9242   2.518   3.928  16.500  0.4506  0.0087  0.4960
  624TMC3    C6 9243   2.480   4.057  16.499 -0.2613 -0.3503 -0.0997
  624TMC3     C 9244   2.678   3.935  16.833 -0.8250  0.6432 -0.4840
  624TMC3     O 9245   2.700   4.027  16.913  0.6737 -0.0476 -0.2707
  624TMC3     H 9246   2.515   4.144  16.816 -2.7333  0.8956 -0.0007
  624TMC3    H1 9247   2.601   3.772  16.628 -0.2394 -1.0194 -1.4330
  624TMC3    H2 9248   2.444   4.105  16.409 -2.7441 -0.5717  0.7581
  624TMC3    C7 9249   2.456   3.835  16.409 -0.2435  0.3179 -0.5593
  624TMC3    C8 9250   2.322   4.146  16.623 -0.8942 -0.4182  0.0688
  624TMC3    O1 9251   2.487   3.718  16.415  0.3205  0.1183  0.7414
  624TMC3    O2 9252   2.257   4.091  16.541 -0.6794  0.0149 -0.1305
  625MPD2     C 9253   1.951   4.521  17.621 -0.1248  0.3456 -0.0283
  625MPD2    C1 9254   1.980   4.620   0.032  0.3648 -1.4651  0.2509
  625MPD2    C2 9255   1.938   4.598   0.165 -0.2749  0.5224  0.0128
  625MPD2    C3 9256   1.859   4.487   0.202  0.2500  0.2598  0.3008
  625MPD2    C4 9257   1.818   4.397   0.102  0.5152 -0.7628 -0.3838
  625MPD2    C5 9258   1.876   4.414  17.662  0.8469  0.2487 -0.2654
  625MPD2     H 9259   1.957   4.674   0.240  0.4717 -0.4071  0.7615
  625MPD2    H1 9260   1.748   4.316   0.119  1.7355 -1.6024  0.5943
  625MPD2    H2 9261   2.003   4.512  17.526 -0.6572  0.5221 -0.3333
  625MPD2    H3 9262   1.864   4.330  17.594 -1.2153  0.8681 -0.6760
  625MPD2     N 9263   1.810   4.481   0.333  0.2616  0.0023  0.0373
  625MPD2    H5 9264   1.826   4.560   0.394 -0.1573  0.5264 -0.5330
  625MPD2    N1 9265   2.066   0.015   0.015  0.4939 -0.7698  0.0873
  625MPD2    H7 9266   2.096   0.063   0.099  2.2313 -0.8667 -0.4707
  626TMC3    C1 9267   2.163   0.194  17.582  1.0025 -0.4985 -0.1215
  626TMC3    C2 9268   2.119   0.285  17.494  0.1364  0.0466  0.4948
  626TMC3    C3 9269   2.145   0.417  17.528 -0.2125 -0.5245 -0.2640
  626TMC3    C4 9270   2.227   0.226   0.014  0.0022 -0.4192 -0.5439
  626TMC3    C5 9271   2.241   0.357   0.047 -0.1480 -0.4839 -0.4084
  626TMC3    C6 9272   2.207   0.451  17.639  0.7494 -0.2546 -0.1798
  626TMC3     C 9273   2.096   0.066  17.576  0.6088 -0.4136  0.6109
  626TMC3     O 9274   2.066   0.018  17.470 -0.2416  0.6395  0.1940
  626TMC3     H 9275   2.086   0.262  17.393  1.3304 -0.6525  0.2713
  626TMC3    H1 9276   2.271   0.157   0.086 -0.8624  1.0394  1.3805
  626TMC3    H2 9277   2.230   0.556  17.652 -1.2935  0.1956 -0.1446
  626TMC3    C7 9278   2.306   0.383   0.179 -0.6640 -0.5717 -0.1426
  626TMC3    C8 9279   2.112   0.525  17.436 -0.3457 -0.2875 -1.1263
  626TMC3    O1 9280   2.379   0.297   0.227 -0.0854  0.3434  0.3792
  626TMC3    O2 9281   2.074   0.488  17.329 -0.9814  0.4975 -0.5291
  627MPD2     C 9282   1.753   0.754  13.678 -0.8004 -0.1584  0.0800
  627MPD2    C1 9283   1.727   0.784  13.814 -0.0970 -0.3204 -0.4657
  627MPD2    C2 9284   1.623   0.713  13.881 -0.4334  0.6228  0.0054
  627MPD2    C3 9285   1.542   0.623  13.811 -0.3336 -0.2542 -0.7929
  627MPD2    C4 9286   1.571   0.596  13.684 -0.4079 -0.0697  0.7837
  627MPD2    C5 9287   1.668   0.663  13.620 -0.6356  0.4725 -0.0591
  627MPD2     H 9288   1.581   0.738  13.978  0.5423  2.5745 -0.0662
  627MPD2    H1 9289   1.510   0.524  13.631 -0.5314  0.1335  0.6462
  627MPD2    H2 9290   1.841   0.791  13.626 -0.1236  0.7340  1.8735
  627MPD2    H3 9291   1.689   0.638  13.517 -0.7186 -0.2619  0.1041
  627MPD2     N 9292   1.441   0.547  13.870 -0.5128 -0.2796  0.0452
  627MPD2    H5 9293   1.412   0.577  13.963  1.7720  0.7733  0.4200
  627MPD2    N1 9294   1.808   0.878  13.872 -0.0289  0.3647  0.8369
  627MPD2    H7 9295   1.869   0.924  13.806 -0.3672 -0.8211 -0.3169
  628TMC3    C1 9296   1.921   1.005  14.027 -0.3880 -0.0204 -0.0263
  628TMC3    C2 9297   2.048   0.959  14.021 -0.0157  0.3345  0.8400
  628TMC3    C3 9298   2.137   1.007  14.112  0.1130  0.0562  0.6145
  628TMC3    C4 9299   1.879   1.106  14.109  0.4441 -0.2364  0.7052
  628TMC3    C5 9300   1.972   1.159  14.199  0.4773  0.2603 -0.2534
  628TMC3    C6 9301   2.099   1.108  14.202  0.3565 -0.0146  0.3007
  628TMC3     C 9302   1.807   0.916  14.000  0.1182 -0.1631 -0.3923
  628TMC3     O 9303   1.729   0.910  14.092  0.0543  0.4095 -0.2344
  628TMC3     H 9304   2.078   0.863  13.981  2.4533  0.8975  1.2925
  628TMC3    H1 9305   1.774   1.131  14.120  0.0733 -2.0089  1.1695
  628TMC3    H2 9306   2.171   1.132  14.279 -0.0077  0.9851  0.3290
  628TMC3    C7 9307   1.940   1.264  14.293 -0.0881 -0.3414 -0.2803
  628TMC3    C8 9308   2.227   0.906  14.168  0.4283 -0.1542  0.1031
  628TMC3    O1 9309   2.008   1.283  14.395  0.7235 -0.3564 -0.2082
  628TMC3    O2 9310   2.331   0.887  14.106  0.4016  0.6938 -0.3506
  629MPD2     C 9311   4.250   0.110  16.320  0.0732 -0.2371 -0.1870
  629MPD2    C1 9312   4.289   4.702  16.323 -0.4735  0.2894  0.7507
  629MPD2    C2 9313   4.197   4.600  16.356 -0.0293 -0.3157  0.4378
  629MPD2    C3 9314   4.064   4.632  16.375  0.3532  0.3130  0.3642
  629MPD2    C4 9315   4.026   0.046  16.363  0.0913  0.4395 -0.0198
  629MPD2    C5 9316   4.121   0.148  16.342 -0.3172 -0.2597  0.4740
  629MPD2     H 9317   4.234   4.498  16.364 -0.3508 -0.5398 -0.9900
  629MPD2    H1 9318   3.924   0.079  16.383 -0.5846 -1.0052 -1.0179
  629MPD2    H2 9319   4.321   0.190  16.303 -0.5512  0.9988  3.2351
  629MPD2    H3 9320   4.089   0.252  16.337 -0.3776 -0.3689 -1.2651
  629MPD2     N 9321   3.967   4.527  16.397  0.2491 -1.0555 -0.4008
  629MPD2    H5 9322   3.991   4.429  16.392 -0.6447 -1.3362  1.0313
  629MPD2    N1 9323   4.429   4.677  16.302 -0.2207 -0.2216 -0.1791
  629MPD2    H7 9324   4.482   0.035  16.265  0.7633 -1.2281 -0.8933
  630TMC3    C1 9325   4.641   4.556  16.305 -0.6707 -0.2950  0.2958
  630TMC3    C2 9326   4.701   4.621  16.197  0.6471  0.3978  0.4982
  630TMC3    C3 9327   0.118   4.629  16.201  0.1799  0.3262 -0.1642
  630TMC3    C4 9328   4.713   4.510  16.412 -0.5651 -0.6762 -0.0151
  630TMC3    C5 9329   0.127   4.525  16.414  0.2400  0.4076  0.1290
  630TMC3    C6 9330   0.186   4.589  16.315 -0.0809  0.1182 -0.5419
  630TMC3     C 9331   4.498   4.561  16.341 -0.1917 -0.5221  0.5196
  630TMC3     O 9332   4.464   4.469  16.415 -0.3858  0.2293  0.0986
  630TMC3     H 9333   4.643   4.639  16.106  0.4376  1.2513  0.8000
  630TMC3    H1 9334   4.665   4.449  16.488  0.3916 -0.3640  0.8437
  630TMC3    H2 9335   0.294   4.599  16.315 -0.1516  0.8255  0.0187
  630TMC3    C7 9336   0.182   4.532  16.548  0.3198 -0.2059 -0.4106
  630TMC3    C8 9337   0.191   4.713  16.110 -0.1347 -0.3257  0.2124
  630TMC3    O1 9338   0.109   4.491  16.638  0.0748 -0.1198 -0.3331
  630TMC3    O2 9339   0.298   0.034  16.154  0.1190  0.2289  0.2339
  631MPD2     C 9340   2.866   4.143  15.161 -0.4661  0.2827 -0.3585
  631MPD2    C1 9341   2.968   4.230  15.137  0.3090  0.2467 -1.1694
  631MPD2    C2 9342   3.100   4.186  15.148 -0.2135  0.5081 -0.4771
  631MPD2    C3 9343   3.125   4.061  15.201  0.2959 -0.5638 -0.9672
  631MPD2    C4 9344   3.021   3.971  15.218 -0.5291 -0.3034 -0.3372
  631MPD2    C5 9345   2.895   4.017  15.200  0.1489 -0.6790 -0.2711
  631MPD2     H 9346   3.189   4.246  15.130 -0.0868 -0.9676 -4.7374
  631MPD2    H1 9347   3.030   3.870  15.258 -1.0343  0.8513  2.6800
  631MPD2    H2 9348   2.764   4.165  15.131 -0.7029  2.5765  2.1867
  631MPD2    H3 9349   2.815   3.948  15.227  1.6035 -2.1571  0.2843
  631MPD2     N 9350   3.257   4.026  15.234  0.3265  0.0742  0.1980
  631MPD2    H5 9351   3.335   4.092  15.238  1.3210 -1.0832 -0.1657
  631MPD2    N1 9352   2.946   4.361  15.097 -0.2034  0.1727 -0.4875
  631MPD2    H7 9353   2.852   4.396  15.109 -0.5847 -1.1495  0.4620
  632TMC3    C1 9354   2.978   4.581  15.007  0.7102  0.1799  0.0555
  632TMC3    C2 9355   2.896   4.637  15.098 -0.6022  0.2508  0.3975
  632TMC3    C3 9356   2.779   4.706  15.059  0.5573  0.3421 -0.2113
  632TMC3    C4 9357   2.953   4.590  14.870  0.6003 -0.9538  0.0369
  632TMC3    C5 9358   2.835   4.655  14.839  0.3629  0.5426  0.0017
  632TMC3    C6 9359   2.754   4.710  14.923 -0.6072  0.4817  0.6003
  632TMC3     C 9360   3.037   4.451  15.044 -0.8150 -0.1704  0.2449
  632TMC3     O 9361   3.149   4.426  15.000  0.1779  0.3446 -0.4668
  632TMC3     H 9362   2.928   4.625  15.200  0.9733  1.5147  0.0561
  632TMC3    H1 9363   2.998   4.523  14.798  4.0395 -0.2483  1.5203
  632TMC3    H2 9364   2.670   0.043  14.880 -0.7039 -1.6179 -1.7765
  632TMC3    C7 9365   2.795   4.637  14.702 -0.0397  0.5323  0.2166
  632TMC3    C8 9366   2.703   0.056  15.155  0.4446 -0.2433 -0.6866
  632TMC3    O1 9367   2.878   4.646  14.614 -0.6079 -0.2040  0.5501
  632TMC3    O2 9368   2.582   0.074  15.141 -0.0264 -0.0480  0.0515
  633MPD2     C 9369   2.797   2.376  17.540  0.3199  0.1426  0.2460
  633MPD2    C1 9370   2.782   2.296  17.431  0.1444 -0.2545  0.3925
  633MPD2    C2 9371   2.783   2.160  17.445 -0.2235  0.3874 -0.0533
  633MPD2    C3 9372   2.787   2.102  17.570  0.3395 -0.3100 -0.8501
  633MPD2    C4 9373   2.774   2.188  17.679  0.1859 -0.3562  0.2663
  633MPD2    C5 9374   2.785   2.321  17.665 -0.3997 -0.3397 -0.1043
  633MPD2     H 9375   2.782   2.100  17.354 -1.0336  0.7343 -0.2783
  633MPD2    H1 9376   2.755   2.140   0.092  0.0265 -0.0639  0.3827
  633MPD2    H2 9377   2.801   2.483  17.530  2.2658 -0.0811 -1.4063
  633MPD2    H3 9378   2.771   2.386   0.069  0.5366 -1.7861  1.1512
  633MPD2     N 9379   2.783   1.962  17.587  0.4199 -0.4124  0.1616
  633MPD2    H5 9380   2.788   1.921  17.680 -0.5240  0.4944  0.6121
  633MPD2    N1 9381   2.782   2.343  17.295  0.7493 -0.4541  0.1494
  633MPD2    H7 9382   2.774   2.279  17.217 -0.0210 -2.6215  1.9921
  634TMC3    C1 9383   2.805   2.509  17.118 -0.3642 -0.1913  0.1832
  634TMC3    C2 9384   2.832   2.414  17.032 -0.5643 -0.3202  0.2201
  634TMC3    C3 9385   2.836   2.446  16.897 -1.1742  0.3711  0.0480
  634TMC3    C4 9386   2.796   2.639  17.081 -0.4721 -0.1931 -0.0363
  634TMC3    C5 9387   2.789   2.666  16.947  0.5802 -0.5377  0.0667
  634TMC3    C6 9388   2.820   2.579  16.849 -0.2000 -1.0796 -0.3988
  634TMC3     C 9389   2.784   2.473  17.256 -1.2536 -0.4709  0.1557
  634TMC3     O 9390   2.783   2.571  17.331 -0.3337  0.4426 -0.0196
  634TMC3     H 9391   2.846   2.309  17.058 -2.0161 -1.0358 -1.8261
  634TMC3    H1 9392   2.786   2.714  17.159 -0.1149 -0.9098  0.6910
  634TMC3    H2 9393   2.806   2.611  16.746 -3.3819 -2.6099 -0.4604
  634TMC3    C7 9394   2.755   2.805  16.904 -0.6185 -1.0272  0.6651
  634TMC3    C8 9395   2.849   2.341  16.797  0.4472 -0.2250 -0.6836
  634TMC3    O1 9396   2.751   2.830  16.784  0.9922  0.8339  0.1349
  634TMC3    O2 9397   2.848   2.230  16.843 -0.3231  0.5163  0.5790
  635TMC3    C1 9398   3.732   3.443  16.955  0.2650  0.1426 -0.5008
  635TMC3    C2 9399   3.676   3.324  17.003  0.3187 -0.9570 -0.0584
  635TMC3    C3 9400   3.664   3.211  16.926 -0.9193  0.6125  0.5732
  635TMC3    C4 9401   3.747   3.462  16.821 -0.3535  0.9220  0.1621
  635TMC3    C5 9402   3.719   3.358  16.740  0.4554 -0.7039 -0.1553
  635TMC3    C6 9403   3.687   3.235  16.791  0.4901 -0.4504 -0.1936
  635TMC3     C 9404   3.732   3.558  17.049 -0.4629  0.5266  0.4305
  635TMC3     O 9405   3.677   3.553  17.162 -0.9310 -0.0941 -0.1099
  635TMC3     H 9406   3.668   3.319  17.111 -0.6619  0.0361 -0.0789
  635TMC3    H1 9407   3.779   3.559  16.785  1.3904 -0.0268 -0.8501
  635TMC3    H2 9408   3.658   3.150  16.730 -0.0768 -1.0608  0.9154
  635TMC3    C7 9409   3.748   3.370  16.596 -0.2657  0.2897 -0.0103
  635TMC3    C8 9410   3.606   3.090  16.971  0.1553  0.0936  0.0795
  635TMC3    O1 9411   3.780   3.480  16.548 -0.1266  0.1280 -0.0339
  635TMC3    O2 9412   3.636   2.996  16.900 -0.0901 -0.7805  0.4532
  636MPD2     C 9413   3.395   2.854  15.209 -0.3881 -0.7790  0.1277
  636MPD2    C1 9414   3.454   2.919  15.312  0.0637  0.0880  0.3361
  636MPD2    C2 9415   3.554   2.856  15.382 -0.3196  0.1468 -0.0400
  636MPD2    C3 9416   3.588   2.723  15.357 -0.1127 -0.7037 -0.2881
  636MPD2    C4 9417   3.531   2.659  15.239  0.5432  0.3344 -0.1295
  636MPD2    C5 9418   3.439   2.735  15.167 -0.0122  0.3860 -0.4856
  636MPD2     H 9419   3.603   2.894  15.471  0.8906 -1.9370  0.1876
  636MPD2    H1 9420   3.563   2.560  15.206  0.1564  1.2439 -3.2556
  636MPD2    H2 9421   3.314   2.899  15.152  1.7712  0.8536 -1.6861
  636MPD2    H3 9422   3.404   2.698  15.071 -2.0768 -1.1262  0.8404
  636MPD2     N 9423   3.667   2.654  15.449 -0.1939 -0.4541 -0.0176
  636MPD2    H5 9424   3.704   2.707  15.527 -1.1380  0.4450 -0.1793
  636MPD2    N1 9425   3.420   3.048  15.353  0.1023 -0.0691 -0.0160
  636MPD2    H7 9426   3.470   3.077  15.437  0.3766  0.7810 -0.4679
  637TMC3    C1 9427   3.747   2.491  15.575 -0.2330 -1.1685  0.1775
  637TMC3    C2 9428   3.726   2.570  15.688  1.0233  0.1958  1.2311
  637TMC3    C3 9429   3.757   2.512  15.808 -0.4362  0.8654 -0.3342
  637TMC3    C4 9430   3.804   2.367  15.583  0.9920 -0.4398  0.8382
  637TMC3    C5 9431   3.846   2.332  15.704 -0.7524  0.3274  0.1874
  637TMC3    C6 9432   3.814   2.388  15.825  0.2422 -0.5341 -0.5781
  637TMC3     C 9433   3.696   2.521  15.445 -0.1966  0.5956  1.0348
  637TMC3     O 9434   3.677   2.432  15.361  0.0707  0.1358  0.1214
  637TMC3     H 9435   3.679   2.666  15.674  0.0091 -0.5021 -0.1688
  637TMC3    H1 9436   3.832   2.310  15.495 -0.7706  0.8131 -0.5197
  637TMC3    H2 9437   3.855   2.371  15.924 -1.1014 -1.2223 -0.1394
  637TMC3    C7 9438   3.912   2.201  15.712  0.1502 -0.0022 -0.2802
  637TMC3    C8 9439   3.766   2.605  15.920  0.0135 -0.7747 -0.3958
  637TMC3    O1 9440   3.857   2.109  15.768 -0.4420  0.0508  0.3841
  637TMC3    O2 9441   3.805   2.718  15.891  0.2283  0.6770 -0.5559
  638MPD2     C 9442   3.565   1.631  14.288 -0.0095  0.1068 -0.1838
  638MPD2    C1 9443   3.536   1.507  14.247 -0.1619 -0.0478 -0.1505
  638MPD2    C2 9444   3.496   1.404  14.332 -0.4817  0.7804  0.3921
  638MPD2    C3 9445   3.464   1.436  14.465 -0.0798 -0.0631  0.4447
  638MPD2    C4 9446   3.482   1.566  14.496  0.1081 -0.3827 -0.5721
  638MPD2    C5 9447   3.530   1.662  14.416  0.0450 -0.4230 -0.0363
  638MPD2     H 9448   3.468   1.306  14.295  0.6872  0.3487  0.6410
  638MPD2    H1 9449   3.450   1.605  14.592 -1.1013  0.8429 -1.4669
  638MPD2    H2 9450   3.607   1.715  14.234  3.6653  0.1899  2.8387
  638MPD2    H3 9451   3.543   1.763  14.452 -1.4969  0.8093 -2.9211
  638MPD2     N 9452   3.408   1.334  14.545  0.2698  0.0127 -0.0510
  638MPD2    H5 9453   3.398   1.247  14.495  0.0952  1.0580 -1.8591
  638MPD2    N1 9454   3.562   1.488  14.107 -0.5044 -0.4527 -0.0164
  638MPD2    H7 9455   3.609   1.571  14.073 -0.4665 -0.8423 -0.9355
  639TMC3    C1 9456   3.337   1.229  14.737 -0.0713  0.8128  0.1209
  639TMC3    C2 9457   3.278   1.135  14.668 -0.9647 -0.2339  0.0977
  639TMC3    C3 9458   3.240   1.026  14.735 -0.4186 -0.6510  0.4625
  639TMC3    C4 9459   3.361   1.232  14.871  0.7004  0.0074 -0.1896
  639TMC3    C5 9460   3.313   1.124  14.941  0.0931  0.1459  0.5114
  639TMC3    C6 9461   3.253   1.016  14.873 -0.8079  0.3151  0.5813
  639TMC3     C 9462   3.377   1.351  14.673  0.7116  0.0004  0.2728
  639TMC3     O 9463   3.405   1.442  14.748 -0.0109 -0.0922  0.2879
  639TMC3     H 9464   3.258   1.141  14.561 -0.2317  0.1241 -0.0193
  639TMC3    H1 9465   3.428   1.303  14.917 -0.4540  0.2493  1.1386
  639TMC3    H2 9466   3.236   0.916  14.912  0.7888 -0.3302 -0.3754
  639TMC3    C7 9467   3.379   1.095  15.063  0.2784 -0.2378  0.6162
  639TMC3    C8 9468   3.193   0.909  14.661 -0.5788 -0.7187  0.2104
  639TMC3    O1 9469   3.406   1.193  15.135  0.2385 -0.8748 -0.0471
  639TMC3    O2 9470   3.249   0.882  14.557  0.0622 -0.3663  1.2426
  640MPD2     C 9471   4.131   0.050  10.082 -0.0635 -0.4691 -0.1925
  640MPD2    C1 9472   4.185   0.175  10.079 -0.5387  0.2632 -0.5061
  640MPD2    C2 9473   4.106   0.293  10.093  0.1575 -0.9213 -0.4924
  640MPD2    C3 9474   3.963   0.275  10.090  0.2461 -0.2100  1.0818
  640MPD2    C4 9475   3.909   0.147  10.080 -0.2369  0.5399 -1.1914
  640MPD2    C5 9476   3.995   0.036  10.083  0.5645 -0.1332 -0.6279
  640MPD2     H 9477   4.145   0.394  10.103  0.7325 -1.3533  1.6794
  640MPD2    H1 9478   3.803   0.126  10.074 -0.4052  0.8804  0.5895
  640MPD2    H2 9479   4.193   4.681  10.081 -0.8160 -0.9996  0.1799
  640MPD2    H3 9480   3.955   4.656  10.068 -0.4420  0.1654  0.1246
  640MPD2     N 9481   3.871   0.383  10.080  0.0555  0.1938  0.1454
  640MPD2    H5 9482   3.774   0.356  10.064  0.0662  1.0306 -1.2704
  640MPD2    N1 9483   4.329   0.178  10.085  1.3987 -0.5044 -0.3744
  640MPD2    H7 9484   4.377   0.089  10.088 -0.3038 -1.3898  0.5907
  641TMC3    C1 9485   4.541   0.279  10.031 -0.5010  0.3759  0.9307
  641TMC3    C2 9486   4.609   0.157  10.043  0.6591 -0.3017 -0.4576
  641TMC3    C3 9487   0.023   0.157  10.002 -0.0629  0.2443  0.3456
  641TMC3    C4 9488   4.604   0.392   9.986 -0.0905  0.4036 -0.6235
  641TMC3    C5 9489   0.006   0.385   9.936 -0.3221 -0.3783  0.6125
  641TMC3    C6 9490   0.076   0.264   9.937 -0.0759  0.0084 -0.1419
  641TMC3     C 9491   4.401   0.289  10.045 -0.6992  0.2459 -0.3815
  641TMC3     O 9492   4.354   0.397  10.006 -0.2452 -0.0837  0.6107
  641TMC3     H 9493   4.561   0.069  10.083 -0.0100  0.3863  0.2742
  641TMC3    H1 9494   4.549   0.483   9.967 -1.6428 -0.3787  0.1096
  641TMC3    H2 9495   0.172   0.248   9.889 -0.0971  0.2086 -0.2515
  641TMC3    C7 9496   0.047   0.488   9.838 -0.0873 -0.4971  0.2350
  641TMC3    C8 9497   0.059   0.032   9.947  0.3634 -0.3688  0.9258
  641TMC3    O1 9498   0.014   0.604   9.859 -0.0230 -0.0770  0.7986
  641TMC3    O2 9499   0.083   0.028   9.828  0.1673 -0.2481 -0.5581
  642TMC3    C1 9500   0.544   1.666  11.926  0.1150 -1.1967 -0.1452
  642TMC3    C2 9501   0.680   1.654  11.938  0.5328  0.0759  0.3480
  642TMC3    C3 9502   0.725   1.527  11.939 -0.3631  0.3385 -0.4363
  642TMC3    C4 9503   0.451   1.562  11.929 -0.0379 -0.8992 -0.2981
  642TMC3    C5 9504   0.507   1.434  11.916  0.3313  0.5415 -1.1531
  642TMC3    C6 9505   0.643   1.418  11.921  0.0921 -0.4942 -0.5701
  642TMC3     C 9506   0.483   1.798  11.940 -0.4279  0.3185 -1.2150
  642TMC3     O 9507   0.541   1.898  11.897  0.0168  0.2777 -0.2322
  642TMC3     H 9508   0.753   1.734  11.941 -3.1841  3.4692  0.5919
  642TMC3    H1 9509   0.345   1.578  11.916  0.0683 -0.1336 -0.2502
  642TMC3    H2 9510   0.698   1.324  11.915  0.4527 -0.3173  0.0080
  642TMC3    C7 9511   0.434   1.310  11.928  0.5782  0.4328  0.1887
  642TMC3    C8 9512   0.860   1.507  11.985 -0.1240  0.4570  0.9950
  642TMC3    O1 9513   0.484   1.220  11.868 -0.4856  0.2230  0.4286
  642TMC3    O2 9514   0.911   1.403  11.952 -0.1752 -0.0984 -0.5519
  643TMC3    C1 9515   4.471   0.141   0.282  0.8904  0.2821  0.1356
  643TMC3    C2 9516   4.337   0.148   0.281  0.3759  0.0482  0.9576
  643TMC3    C3 9517   4.278   0.199   0.172 -0.4804  0.1398  0.1625
  643TMC3    C4 9518   4.550   0.208   0.189 -0.0027 -0.0121 -0.4385
  643TMC3    C5 9519   4.486   0.279   0.092  0.4617 -1.3476 -0.6045
  643TMC3    C6 9520   4.348   0.279   0.081  0.3297 -0.3221  0.2935
  643TMC3     C 9521   4.538   0.104   0.405 -0.3031 -0.0762 -0.1369
  643TMC3     O 9522   4.660   0.096   0.400 -0.7781  0.6590 -0.4420
  643TMC3     H 9523   4.271   0.086   0.342 -2.4103  0.5455 -1.5311
  643TMC3    H1 9524   4.658   0.210   0.196 -0.1400  2.0226  1.0805
  643TMC3    H2 9525   4.309   0.293  17.662 -0.1621 -0.5539  0.4523
  643TMC3    C7 9526   4.561   0.355  17.673 -0.3889 -0.3579  0.1831
  643TMC3    C8 9527   4.137   0.209   0.171 -0.9708  0.1551 -0.2615
  643TMC3    O1 9528   4.497   0.443  17.625  0.3825  0.5489  0.2677
  643TMC3    O2 9529   4.069   0.119   0.217  0.0187 -0.3383  0.3756
  644MPD2     C 9530   0.025   0.996   9.716 -0.5874 -0.4730 -0.1342
  644MPD2    C1 9531   0.154   1.039   9.753 -0.2620  0.2840 -0.1075
  644MPD2    C2 9532   0.184   1.172   9.734  0.0886 -0.5679 -0.6476
  644MPD2    C3 9533   0.090   1.266   9.687 -0.4489 -0.2729 -0.6771
  644MPD2    C4 9534   4.689   1.219   9.643  0.0732  0.0180  0.7739
  644MPD2    C5 9535   4.665   1.088   9.656  0.8089  0.8446 -0.3269
  644MPD2     H 9536   0.282   1.216   9.749 -0.1494 -0.7796  1.5669
  644MPD2    H1 9537   4.613   1.286   9.604 -0.0198  0.1942  1.2567
  644MPD2    H2 9538   4.711   0.893   9.722 -1.4868 -0.3520 -3.1177
  644MPD2    H3 9539   4.572   1.051   9.614 -1.5306  2.2280  3.6341
  644MPD2     N 9540   0.124   1.400   9.681  0.2845 -0.3058  0.2989
  644MPD2    H5 9541   0.218   1.417   9.717  0.4060 -0.2152 -0.0646
  644MPD2    N1 9542   0.243   0.943   9.821 -0.3644  0.2090 -0.1620
  644MPD2    H7 9543   0.210   0.852   9.850 -1.4664  1.6759  3.3088
  645TMC3    C1 9544   0.097   1.633   9.679  0.3818  0.4362  0.1531
  645TMC3    C2 9545   0.021   1.729   9.748 -0.7608  1.0888  0.0889
  645TMC3    C3 9546   0.074   1.853   9.765 -0.3552 -0.2119 -0.4941
  645TMC3    C4 9547   0.220   1.660   9.627 -0.2270 -0.3854  0.4703
  645TMC3    C5 9548   0.274   1.789   9.649 -0.2274  0.1381 -0.5208
  645TMC3    C6 9549   0.206   1.882   9.724 -0.1357  0.1540  0.7921
  645TMC3     C 9550   0.037   1.503   9.669 -0.2564 -0.0404  0.8994
  645TMC3     O 9551   4.636   1.503   9.661  0.1663  0.0868 -0.3642
  645TMC3     H 9552   4.633   1.712   9.751 -0.5382 -0.4194 -0.3607
  645TMC3    H1 9553   0.266   1.583   9.566  1.2083  0.4741  0.4708
  645TMC3    H2 9554   0.259   1.970   9.757  0.5967 -0.4989  1.3757
  645TMC3    C7 9555   0.408   1.825   9.608 -0.2492  0.3756  0.6470
  645TMC3    C8 9556   0.026   1.924   9.883 -0.3847  0.0932 -0.0463
  645TMC3    O1 9557   0.459   1.926   9.652 -0.8547 -0.0069  0.1305
  645TMC3    O2 9558   0.077   2.030   9.910 -0.1816  0.2266 -0.3674
  646MPD2     C 9559   3.769   0.268  14.304 -0.4832 -0.7250 -0.3920
  646MPD2    C1 9560   3.676   0.211  14.381 -0.1036 -0.1033 -0.1765
  646MPD2    C2 9561   3.547   0.221  14.348  0.1492  0.2132  0.0657
  646MPD2    C3 9562   3.507   0.285  14.229 -0.4131  0.0277 -1.3088
  646MPD2    C4 9563   3.611   0.340  14.150 -0.2720  0.3879  0.7652
  646MPD2    C5 9564   3.737   0.344  14.195  0.1886 -0.1926  0.4013
  646MPD2     H 9565   3.463   0.181  14.403 -0.3142  1.1684  0.0635
  646MPD2    H1 9566   3.588   0.384  14.053  0.1031 -3.1563 -0.9519
  646MPD2    H2 9567   3.869   0.293  14.339 -0.6438 -1.2401  0.4174
  646MPD2    H3 9568   3.818   0.401  14.151  0.1314 -1.1993 -1.0232
  646MPD2     N 9569   3.372   0.294  14.191  0.0834 -0.1854 -0.7629
  646MPD2    H5 9570   3.297   0.252  14.245  1.6558 -1.7069  0.2329
  646MPD2    N1 9571   3.723   0.130  14.487  0.3219 -0.3703  0.4123
  646MPD2    H7 9572   3.823   0.131  14.504  0.4369  2.5969 -0.4536
  647TMC3    C1 9573   3.740   0.025  14.697  0.0455 -0.3740  0.1958
  647TMC3    C2 9574   3.672   4.672  14.790  0.2313  0.2914  0.2550
  647TMC3    C3 9575   3.756   4.597  14.868 -0.0865 -0.9604 -0.5727
  647TMC3    C4 9576   3.877   0.046  14.690 -0.1362 -0.2774 -0.1920
  647TMC3    C5 9577   3.948   4.692  14.780 -0.0223  0.4034 -0.0521
  647TMC3    C6 9578   3.895   4.611  14.872 -0.8593 -0.2418  0.4046
  647TMC3     C 9579   3.648   0.083  14.591  0.5180 -0.3721 -0.2800
  647TMC3     O 9580   3.529   0.102  14.611  0.6924 -0.1682 -0.1461
  647TMC3     H 9581   3.564   4.665  14.793  0.3756 -2.2092 -0.4798
  647TMC3    H1 9582   3.926   0.117  14.624  2.7752 -0.7232  1.4638
  647TMC3    H2 9583   3.958   4.553  14.938  0.8223 -0.1488 -1.1237
  647TMC3    C7 9584   4.087   4.706  14.785  0.2871 -0.0364  0.0181
  647TMC3    C8 9585   3.709   4.490  14.954  0.4908  0.0766 -0.9715
  647TMC3    O1 9586   4.133   4.674  14.894  0.3616 -0.0717  0.2117
  647TMC3    O2 9587   3.782   4.445  15.041  0.0579 -0.1662  0.2185
  648TMC3    C1 9588   3.059   2.639  16.016 -0.9467  0.4182 -0.0621
  648TMC3    C2 9589   3.100   2.526  15.947 -0.1448 -1.0598 -0.6757
  648TMC3    C3 9590   3.024   2.503  15.831  0.8145 -0.0209  0.9876
  648TMC3    C4 9591   2.954   2.723  15.980  0.5418 -0.4135  0.4500
  648TMC3    C5 9592   2.888   2.695  15.865 -0.3067 -0.3650  0.1163
  648TMC3    C6 9593   2.923   2.585  15.790  0.3195 -0.8969  0.2387
  648TMC3     C 9594   3.113   2.660  16.149  0.0601 -0.5833  0.1153
  648TMC3     O 9595   3.129   2.779  16.177 -0.5228 -0.1443 -0.6335
  648TMC3     H 9596   3.187   2.466  15.974 -1.2271 -1.4582  1.9302
  648TMC3    H1 9597   2.912   2.794  16.050  1.7906  0.5446  0.2372
  648TMC3    H2 9598   2.888   2.580  15.688 -0.4772 -0.5317  0.4967
  648TMC3    C7 9599   2.748   2.728  15.854  0.2134  0.5197  0.1257
  648TMC3    C8 9600   3.025   2.371  15.766 -0.4513 -0.5954  0.3211
  648TMC3    O1 9601   2.670   2.652  15.794  0.5681 -0.7815 -0.0331
  648TMC3    O2 9602   2.936   2.349  15.676 -0.5620  0.5284  0.3605
  649TMC3    C1 9603   1.629   3.524  13.055  0.3352 -0.6923  0.7722
  649TMC3    C2 9604   1.733   3.609  13.047  0.4302  0.2829 -1.0662
  649TMC3    C3 9605   1.814   3.616  13.163 -0.0959 -0.2195 -0.6241
  649TMC3    C4 9606   1.594   3.445  13.158 -0.2313  0.0900  0.4961
  649TMC3    C5 9607   1.678   3.450  13.266 -0.3893  0.0816  0.5710
  649TMC3    C6 9608   1.781   3.547  13.272 -0.0346 -0.4214 -0.3028
  649TMC3     C 9609   1.525   3.526  12.951 -0.3144  0.6778 -0.5736
  649TMC3     O 9610   1.412   3.503  12.983  0.7699 -0.2714  0.3382
  649TMC3     H 9611   1.762   3.661  12.957 -0.0960  0.3103 -1.2198
  649TMC3    H1 9612   1.513   3.374  13.156  0.3940 -0.5554 -1.2894
  649TMC3    H2 9613   1.843   3.564  13.360 -0.6442  3.0560 -0.5380
  649TMC3    C7 9614   1.648   3.357  13.376 -0.3417  0.0970 -0.3334
  649TMC3    C8 9615   1.931   3.698  13.179 -0.5191  0.1900  0.2464
  649TMC3    O1 9616   1.535   3.307  13.387 -0.1521  0.3141 -0.1698
  649TMC3    O2 9617   2.011   3.669  13.267 -0.2515 -0.5671 -0.6368
  650TMC3    C1 9618   4.379   0.644  12.266 -0.0210  0.1598 -0.0215
  650TMC3    C2 9619   4.385   0.773  12.223 -0.0771 -0.0005 -0.0256
  650TMC3    C3 9620   4.270   0.836  12.191 -0.0608  0.2743 -0.0293
  650TMC3    C4 9621   4.265   0.569  12.256  0.3361  0.2904  0.4048
  650TMC3    C5 9622   4.156   0.634  12.210  0.7696  0.5611  0.1254
  650TMC3    C6 9623   4.150   0.772  12.197  0.0794  0.9528 -0.5243
  650TMC3     C 9624   4.498   0.594  12.333 -0.1681 -1.0313 -0.4691
  650TMC3     O 9625   4.599   0.667  12.337 -0.3985  0.5345 -0.4207
  650TMC3     H 9626   4.483   0.820  12.217 -0.9220  1.6720 -0.3410
  650TMC3    H1 9627   4.264   0.462  12.270 -0.0084  0.2606  0.1458
  650TMC3    H2 9628   4.054   0.822  12.197  0.2560  1.3125  0.9585
  650TMC3    C7 9629   4.086   0.565  12.109  0.5461 -0.3705  0.1141
  650TMC3    C8 9630   4.285   0.980  12.164 -0.0715  0.1078  0.5533
  650TMC3    O1 9631   4.153   0.472  12.064 -0.0909 -0.3192  0.1130
  650TMC3    O2 9632   4.384   1.037  12.206  0.2547  0.0509 -0.3639
  651MPD2     C 9633   3.395   2.420  10.259 -0.2687  0.0860 -0.4452
  651MPD2    C1 9634   3.368   2.518  10.345  0.6154 -0.4045 -0.2260
  651MPD2    C2 9635   3.466   2.595  10.393 -0.5345  0.2434 -0.2222
  651MPD2    C3 9636   3.600   2.563  10.357  0.6403 -0.1091 -0.2790
  651MPD2    C4 9637   3.629   2.457  10.277  0.6980 -0.3612  0.6814
  651MPD2    C5 9638   3.525   2.394  10.217 -0.4661 -0.3048 -0.0102
  651MPD2     H 9639   3.454   2.679  10.461 -2.0794 -0.3409  0.2273
  651MPD2    H1 9640   3.728   2.419  10.254  0.0079 -1.3245 -0.6832
  651MPD2    H2 9641   3.323   2.360  10.205 -1.1608 -0.5899  1.4728
  651MPD2    H3 9642   3.543   2.322  10.138 -0.7126  0.9582 -1.2122
  651MPD2     N 9643   3.705   2.643  10.413  0.0125 -0.2706  0.3773
  651MPD2    H5 9644   3.682   2.710  10.485  0.9354 -2.0668  2.3107
  651MPD2    N1 9645   3.238   2.550  10.369 -0.2844  0.2345  0.5319
  651MPD2    H7 9646   3.224   2.635  10.423  2.2143  1.1901 -0.2811
  652TMC3    C1 9647   4.143   2.796  10.389  0.2418  0.1891 -0.5532
  652TMC3    C2 9648   4.057   2.692  10.409 -0.0903  0.8384  0.2798
  652TMC3    C3 9649   3.927   2.715  10.446  0.0559 -0.0708 -0.2591
  652TMC3    C4 9650   4.103   2.927  10.413 -0.1826  0.7357  0.2399
  652TMC3    C5 9651   3.976   2.944  10.454  0.2460  0.2884 -0.8078
  652TMC3    C6 9652   3.884   2.845  10.460 -0.3790  0.5528 -0.1138
  652TMC3     C 9653   4.274   2.760  10.422  0.5023 -0.0102  0.0212
  652TMC3     O 9654   4.299   2.688  10.524 -0.1429 -0.0191  0.0960
  652TMC3     H 9655   4.096   2.591  10.413 -0.4160  0.6634 -1.1618
  652TMC3    H1 9656   4.184   2.998  10.416  0.2935  0.0671  2.8163
  652TMC3    H2 9657   3.788   2.870  10.503 -0.6255 -0.2269 -0.2103
  652TMC3    C7 9658   3.957   3.049  10.560 -0.1676  0.4260  0.5201
  652TMC3    C8 9659   3.839   2.613  10.398 -0.0140 -0.0448 -0.5724
  652TMC3    O1 9660   3.851   3.055  10.622  0.3779  0.0874 -0.6103
  652TMC3    O2 9661   3.900   2.540  10.318 -0.2165 -0.9313 -0.2800
  653MPD2     C 9662   2.414   2.385  17.540 -0.0743  0.0889  0.2365
  653MPD2    C1 9663   2.310   2.470  17.508  0.2132  0.1265  0.2208
  653MPD2    C2 9664   2.220   2.438  17.409 -0.2812  0.5799 -0.5854
  653MPD2    C3 9665   2.245   2.321  17.338 -0.0230  0.6736  0.2358
  653MPD2    C4 9666   2.356   2.239  17.369  0.7734 -0.3356  1.1480
  653MPD2    C5 9667   2.432   2.268  17.476 -0.9163  0.0071  0.0371
  653MPD2     H 9668   2.134   2.498  17.385  1.4313  3.0038 -0.7009
  653MPD2    H1 9669   2.387   2.149  17.316 -2.3306  0.4533 -1.9829
  653MPD2    H2 9670   2.485   2.405  17.619 -0.5870  1.8286  0.2444
  653MPD2    H3 9671   2.520   2.213  17.506 -0.0098  1.0636 -0.7191
  653MPD2     N 9672   2.158   2.292  17.231  0.5285  0.2118  0.9968
  653MPD2    H5 9673   2.095   2.369  17.208 -0.4922 -0.4033  1.7246
  653MPD2    N1 9674   2.290   2.594  17.569  0.7058  0.3750  0.2702
  653MPD2    H7 9675   2.218   2.657  17.534  1.6642  0.0256 -2.3774
  654TMC3    C1 9676   2.038   2.190  17.067 -0.0358  0.1314 -0.4389
  654TMC3    C2 9677   1.957   2.299  17.074 -0.2167  0.4564  0.4630
  654TMC3    C3 9678   1.880   2.319  16.961  0.3796 -0.1471 -0.4811
  654TMC3    C4 9679   2.044   2.106  16.958  0.0139 -0.5289  0.5441
  654TMC3    C5 9680   1.960   2.128  16.854  0.0014 -0.2187 -0.2841
  654TMC3    C6 9681   1.895   2.252  16.846  0.6002 -0.1755  0.3396
  654TMC3     C 9682   2.148   2.178  17.163  0.5969  0.5787  0.5107
  654TMC3     O 9683   2.212   2.076  17.177  0.1535 -0.1334 -0.4950
  654TMC3     H 9684   1.925   2.354  17.162 -2.2404 -0.3106  0.2057
  654TMC3    H1 9685   2.107   2.020  16.978  1.1428  0.6887  2.2439
  654TMC3    H2 9686   1.847   2.284  16.754  1.3139 -2.1567 -0.7256
  654TMC3    C7 9687   1.950   2.037  16.739 -1.1518  0.3582 -0.2594
  654TMC3    C8 9688   1.818   2.449  16.943 -0.0618  0.3018 -0.1811
  654TMC3    O1 9689   1.895   2.076  16.638  0.3883 -0.4998 -0.1495
  654TMC3    O2 9690   1.726   2.467  16.862 -0.1000 -0.1656  0.3558
  655MPD2     C 9691   3.415   2.570  15.778 -0.0782 -0.8894 -0.4644
  655MPD2    C1 9692   3.341   2.652  15.688  0.4457 -0.0427 -0.0650
  655MPD2    C2 9693   3.288   2.606  15.572 -0.0581  0.2006  0.6166
  655MPD2    C3 9694   3.321   2.476  15.528  0.2209  0.3613 -0.1648
  655MPD2    C4 9695   3.388   2.392  15.616  0.0864  0.1315  0.2007
  655MPD2    C5 9696   3.433   2.440  15.737  0.1310  0.0081  0.0979
  655MPD2     H 9697   3.244   2.680  15.506  1.2214 -1.7422 -2.4294
  655MPD2    H1 9698   3.403   2.289  15.586 -0.8651 -0.5234  1.9665
  655MPD2    H2 9699   3.454   2.603  15.873  4.1128  0.6417 -2.7201
  655MPD2    H3 9700   3.493   2.381  15.805 -0.4562  1.0362  1.5188
  655MPD2     N 9701   3.287   2.412  15.400  0.9427  0.3488 -0.1365
  655MPD2    H5 9702   3.345   2.337  15.364 -1.4018 -0.5518 -2.0308
  655MPD2    N1 9703   3.311   2.787  15.714 -0.0422  0.5323 -0.6075
  655MPD2    H7 9704   3.246   2.830  15.650 -0.1209  1.2966 -0.0287
  656TMC3    C1 9705   3.273   2.983  15.841 -0.2413 -0.0996  0.0830
  656TMC3    C2 9706   3.219   3.004  15.971  0.4071  0.2329  0.0981
  656TMC3    C3 9707   3.127   3.110  15.982  0.0344  0.0145  0.3126
  656TMC3    C4 9708   3.223   3.042  15.728  1.0822 -0.1878  0.5402
  656TMC3    C5 9709   3.120   3.121  15.748  0.0025  0.1713  0.7118
  656TMC3    C6 9710   3.075   3.159  15.869 -0.2965 -0.3014  0.0139
  656TMC3     C 9711   3.338   2.856  15.831  1.2552 -0.4133  0.4031
  656TMC3     O 9712   3.399   2.820  15.935  0.0736  0.6581 -0.1987
  656TMC3     H 9713   3.271   2.979  16.062  0.1074  0.7021  0.4000
  656TMC3    H1 9714   3.260   3.018  15.630 -0.6355 -0.9505  0.0780
  656TMC3    H2 9715   2.985   3.213  15.896  0.4908  0.0219  2.0760
  656TMC3    C7 9716   3.028   3.146  15.643 -0.2551  0.6137  0.7288
  656TMC3    C8 9717   3.018   3.081  16.068 -0.5214 -0.2662  0.3327
  656TMC3    O1 9718   3.076   3.126  15.533 -0.1657 -0.0042 -0.4299
  656TMC3    O2 9719   2.923   3.029  16.014 -0.0690 -0.5256  0.3084
  657TMC3    C1 9720   2.456   1.962  14.814 -0.0073  0.6509 -0.3141
  657TMC3    C2 9721   2.507   1.907  14.926  0.3246  0.1722 -0.4934
  657TMC3    C3 9722   2.433   1.929  15.037 -0.4125  0.2380  0.1186
  657TMC3    C4 9723   2.339   2.040  14.819 -0.1757 -0.2314  0.0063
  657TMC3    C5 9724   2.273   2.064  14.932  0.1997  0.5870  0.4784
  657TMC3    C6 9725   2.307   1.991  15.042  0.2892  0.0395 -0.3376
  657TMC3     C 9726   2.530   1.970  14.691  0.4960 -0.3456 -0.0347
  657TMC3     O 9727   2.468   1.972  14.585  0.2784  0.2581 -0.0358
  657TMC3     H 9728   2.589   1.838  14.917 -0.5478 -0.8345 -0.7397
  657TMC3    H1 9729   2.307   2.101  14.734 -1.7219 -0.7534  0.2229
  657TMC3    H2 9730   2.258   2.003  15.138  0.5086 -0.9580 -0.1060
  657TMC3    C7 9731   2.160   2.152  14.933 -0.4114  0.2246 -0.2310
  657TMC3    C8 9732   2.497   1.904  15.166 -0.1763 -0.0239 -0.5354
  657TMC3    O1 9733   2.118   2.208  14.831 -0.2940  0.2691  0.2296
  657TMC3    O2 9734   2.452   1.955  15.265 -0.2544 -0.4551  0.2377
  658MPD2     C 9735   3.724   2.077  15.079  0.0100  0.0436  0.0189
  658MPD2    C1 9736   3.665   2.167  14.991 -0.8153  0.1191 -0.3558
  658MPD2    C2 9737   3.734   2.209  14.882  0.1344  0.2678 -1.0750
  658MPD2    C3 9738   3.853   2.149  14.838 -1.0500 -0.1341 -0.5424
  658MPD2    C4 9739   3.904   2.037  14.910  0.0016  0.1488  0.1126
  658MPD2    C5 9740   3.837   2.012  15.033 -0.4390  0.7614  0.0767
  658MPD2     H 9741   3.691   2.288  14.821  0.6242  0.3350 -1.3334
  658MPD2    H1 9742   3.989   1.973  14.893  0.0643  0.2233  0.1449
  658MPD2    H2 9743   3.671   2.036  15.164  2.4525  2.8106  2.8695
  658MPD2    H3 9744   3.874   1.928  15.090 -0.0403 -0.2955 -1.7466
  658MPD2     N 9745   3.924   2.192  14.726 -1.0083 -0.0040  0.0021
  658MPD2    H5 9746   3.994   2.130  14.686 -1.4394 -1.4655  1.5377
  658MPD2    N1 9747   3.543   2.222  15.032 -0.2989  0.6286 -0.5899
  658MPD2    H7 9748   3.517   2.198  15.126  0.0081 -1.5933 -1.0844
  659TMC3    C1 9749   3.336   2.333  15.013 -0.1496  0.7447  0.1502
  659TMC3    C2 9750   3.332   2.380  15.139  0.7858  0.4946 -0.1858
  659TMC3    C3 9751   3.213   2.431  15.178 -0.5813  0.9675 -0.3811
  659TMC3    C4 9752   3.229   2.322  14.927 -0.0560 -0.6133  0.0784
  659TMC3    C5 9753   3.113   2.384  14.970 -0.3853 -0.9011 -0.3054
  659TMC3    C6 9754   3.110   2.449  15.091  0.3616  0.5106 -0.9389
  659TMC3     C 9755   3.461   2.298  14.952  0.3978  0.2479  0.2065
  659TMC3     O 9756   3.466   2.287  14.830 -0.2962  0.3006 -0.1041
  659TMC3     H 9757   3.422   2.384  15.199  0.5239 -1.7334  0.3502
  659TMC3    H1 9758   3.244   2.288  14.826 -0.0741 -1.0013  0.2069
  659TMC3    H2 9759   3.014   2.481  15.130  0.8305 -1.5067  1.8552
  659TMC3    C7 9760   2.989   2.397  14.884 -0.3076  0.6412 -0.1696
  659TMC3    C8 9761   3.194   2.470  15.317 -0.2337  0.2272 -0.0162
  659TMC3    O1 9762   2.889   2.441  14.942 -0.0584  0.1798  0.3112
  659TMC3    O2 9763   3.125   2.566  15.339 -0.0197 -0.5827 -0.5082
  660MPD2     C 9764   1.910   1.271  12.626 -0.7241  1.0647 -0.1026
  660MPD2    C1 9765   1.791   1.332  12.593 -0.7036  0.1323  0.7758
  660MPD2    C2 9766   1.674   1.283  12.650  0.0290  0.2083  0.0054
  660MPD2    C3 9767   1.677   1.192  12.751  0.3953 -0.7406 -0.9978
  660MPD2    C4 9768   1.798   1.151  12.796 -0.0848  0.2055  0.4224
  660MPD2    C5 9769   1.910   1.185  12.730  0.1160  0.4117 -0.3575
  660MPD2     H 9770   1.577   1.307  12.607 -0.6396 -0.1093  1.3627
  660MPD2    H1 9771   1.807   1.085  12.882 -0.2598 -0.6794 -0.2440
  660MPD2    H2 9772   1.998   1.292  12.565 -0.9327  0.8966 -0.4567
  660MPD2    H3 9773   2.007   1.155  12.768 -0.0906 -0.7768 -0.7876
  660MPD2     N 9774   1.558   1.151  12.816 -0.3440 -0.4600 -0.2731
  660MPD2    H5 9775   1.567   1.113  12.910 -0.5133 -2.3993 -1.0536
  660MPD2    N1 9776   1.787   1.423  12.489 -0.5282 -0.3310 -0.2490
  660MPD2    H7 9777   1.875   1.440  12.441 -0.0917 -0.8260  0.3833
  661TMC3    C1 9778   1.688   1.555  12.322 -0.0758  0.3886  0.3973
  661TMC3    C2 9779   1.783   1.512  12.230 -0.1076 -0.3738  0.1702
  661TMC3    C3 9780   1.789   1.565  12.104 -0.5332 -0.1307 -0.2652
  661TMC3    C4 9781   1.606   1.652  12.291  0.5261 -0.2362 -0.4630
  661TMC3    C5 9782   1.612   1.705  12.160  0.4861  0.7507  0.0142
  661TMC3    C6 9783   1.702   1.667  12.067  0.2938 -0.2943 -0.1522
  661TMC3     C 9784   1.674   1.492  12.452  0.2083 -0.3151 -0.7134
  661TMC3     O 9785   1.564   1.510  12.504  0.2777  0.4916 -0.4844
  661TMC3     H 9786   1.845   1.426  12.250 -1.9667 -2.0363 -1.2099
  661TMC3    H1 9787   1.549   1.697  12.371  1.0105  0.0374 -0.2736
  661TMC3    H2 9788   1.702   1.711  11.968 -0.5669 -1.5404 -0.6976
  661TMC3    C7 9789   1.515   1.800  12.124  1.2483 -0.4514 -0.7256
  661TMC3    C8 9790   1.852   1.477  12.003 -0.0387  0.2315  0.3642
  661TMC3    O1 9791   1.507   1.912  12.167  0.6602 -0.0328 -0.0197
  661TMC3    O2 9792   1.951   1.414  12.039  0.4591 -0.0706  0.6298
  662MPD2     C 9793   1.922   0.722  16.803 -0.4752 -0.3011  0.5426
  662MPD2    C1 9794   1.859   0.835  16.850  0.0669 -0.1001 -0.7361
  662MPD2    C2 9795   1.860   0.951  16.777  0.3777 -0.1231  0.6280
  662MPD2    C3 9796   1.921   0.949  16.647  0.1313  0.4597  0.0859
  662MPD2    C4 9797   1.987   0.830  16.605 -0.8330  0.2934  0.8836
  662MPD2    C5 9798   1.994   0.720  16.685 -0.5991  0.5602  0.2253
  662MPD2     H 9799   1.823   1.045  16.815 -0.6221 -0.3166  0.1333
  662MPD2    H1 9800   2.049   0.827  16.516 -1.7767 -1.4202  0.2923
  662MPD2    H2 9801   1.919   0.629  16.858 -0.8586 -0.6666 -0.0953
  662MPD2    H3 9802   2.051   0.633  16.656 -0.3445  1.6788 -2.6259
  662MPD2     N 9803   1.923   1.061  16.569  0.0730  0.3761  0.4726
  662MPD2    H5 9804   1.994   1.059  16.497  0.1588 -2.0711  0.6327
  662MPD2    N1 9805   1.798   0.837  16.979  0.1967 -0.2350  0.1246
  662MPD2    H7 9806   1.747   0.922  17.002 -1.0900 -0.4963 -1.7575
  663TMC3    C1 9807   1.693   0.767  17.172  0.3359  0.1100 -0.7707
  663TMC3    C2 9808   1.715   0.889  17.229  0.3559 -0.3031 -0.2862
  663TMC3    C3 9809   1.675   0.915  17.359 -0.1743  0.0942 -0.4885
  663TMC3    C4 9810   1.612   0.670  17.226  0.4462  0.3077  0.2461
  663TMC3    C5 9811   1.560   0.700  17.348 -0.2143 -0.1591  0.3132
  663TMC3    C6 9812   1.592   0.820  17.412 -0.1021 -0.2332 -0.1218
  663TMC3     C 9813   1.768   0.731  17.058  0.2304  0.0775  0.0061
  663TMC3     O 9814   1.802   0.615  17.041 -0.7918  0.0688  0.0744
  663TMC3     H 9815   1.798   0.953  17.205  0.4766 -0.1614  0.5037
  663TMC3    H1 9816   1.589   0.581  17.169 -1.9891  0.9867  0.1673
  663TMC3    H2 9817   1.568   0.837  17.516 -1.7157 -0.9803 -0.3735
  663TMC3    C7 9818   1.473   0.616  17.426 -0.1093 -0.6543 -0.5320
  663TMC3    C8 9819   1.648   1.054  17.377 -0.2593  0.2762  0.5603
  663TMC3    O1 9820   1.446   0.661  17.539  0.0687  0.4383  0.0208
  663TMC3    O2 9821   1.675   1.134  17.288 -0.5301  0.3224  0.3010
  664MPD2     C 9822   4.449   4.359  17.455 -0.0367 -0.0032  0.1334
  664MPD2    C1 9823   4.567   4.354  17.521  0.6179 -0.1022  0.4682
  664MPD2    C2 9824   4.593   4.266  17.634 -0.2797 -0.4800  0.3083
  664MPD2    C3 9825   4.494   4.176  17.673 -0.7451  0.6222  0.3585
  664MPD2    C4 9826   4.379   4.172  17.600  0.1852  0.1173 -0.1201
  664MPD2    C5 9827   4.359   4.268  17.499  0.0311  0.4219  0.2882
  664MPD2     H 9828   4.692   4.273  17.678 -0.5541 -0.2965  0.8869
  664MPD2    H1 9829   4.305   4.095  17.618  2.1299 -1.5966  0.5889
  664MPD2    H2 9830   4.430   4.434  17.379 -0.8920 -1.0329 -0.6645
  664MPD2    H3 9831   4.261   4.275  17.454  0.0549  1.6172  0.4375
  664MPD2     N 9832   4.518   4.110   0.114  0.3972 -0.1817  0.1137
  664MPD2    H5 9833   4.604   4.125   0.165  0.0779  1.9259  0.0096
  664MPD2    N1 9834   4.669   4.432  17.482  0.1512 -0.0346 -0.3291
  664MPD2    H7 9835   0.034   4.410  17.534 -1.3982 -2.0592  1.3463
  665TMC3    C1 9836   4.471   3.954   0.298 -0.2765  0.2876  0.3225
  665TMC3    C2 9837   4.380   3.866   0.359  0.1540  0.0424 -0.1788
  665TMC3    C3 9838   4.407   3.819   0.483  0.8242  0.2511  0.3676
  665TMC3    C4 9839   4.573   4.002   0.364  0.1457  0.4793  0.1652
  665TMC3    C5 9840   4.588   3.965   0.495  1.0482 -0.5456  0.1102
  665TMC3    C6 9841   4.513   3.869   0.555  0.6840  0.6103 -0.9277
  665TMC3     C 9842   4.429   4.009   0.164 -0.1011  0.2704 -0.2369
  665TMC3     O 9843   4.337   3.951   0.106  0.4097  0.2679  0.8055
  665TMC3     H 9844   4.287   3.836   0.311 -0.6583  2.7853 -0.3443
  665TMC3    H1 9845   4.660   4.047   0.317 -0.2221  1.2448  0.2350
  665TMC3    H2 9846   4.544   3.833   0.652  0.1242  2.2043 -0.1687
  665TMC3    C7 9847   0.004   3.992   0.541 -0.2834 -0.2167 -0.5255
  665TMC3    C8 9848   4.365   3.684   0.520 -0.3613  0.0493 -0.1678
  665TMC3    O1 9849   0.095   4.011   0.457 -0.0902  0.2438 -0.0981
  665TMC3    O2 9850   4.404   3.645   0.632 -0.2768  0.0082 -0.0101
  666TMC3    C1 9851   4.074   3.696   9.955  0.7315 -0.7097  0.0252
  666TMC3    C2 9852   4.187   3.700  10.027 -0.1955  0.0267  0.3297
  666TMC3    C3 9853   4.272   3.805  10.002  0.4248 -0.0848  0.0367
  666TMC3    C4 9854   4.046   3.786   9.854 -0.9809 -0.4187 -0.1371
  666TMC3    C5 9855   4.123   3.892   9.837  0.2799  0.5714  0.0739
  666TMC3    C6 9856   4.240   3.900   9.910  0.2815 -0.1647  0.0658
  666TMC3     C 9857   3.981   3.594   9.984  0.3860 -0.0677  0.0588
  666TMC3     O 9858   3.919   3.544   9.891  0.0221  0.1478 -1.0123
  666TMC3     H 9859   4.226   3.621  10.090 -3.5176 -0.2256  2.0704
  666TMC3    H1 9860   3.948   3.777   9.807 -2.3919  0.2640  2.6859
  666TMC3    H2 9861   4.309   3.983   9.900 -1.0206  0.6893 -1.8321
  666TMC3    C7 9862   4.044   4.006   9.850 -0.2992  0.5606 -0.5864
  666TMC3    C8 9863   4.391   3.817  10.092  0.0384  0.3698 -0.1846
  666TMC3    O1 9864   3.941   3.987   9.905 -0.0167 -0.3068  0.1617
  666TMC3    O2 9865   4.431   3.705  10.122 -0.0052  0.5397  0.5986
  667MPD2     C 9866   0.437   3.768  14.788 -0.2061  0.0630  0.2150
  667MPD2    C1 9867   0.346   3.853  14.834  0.1568  0.3426  0.0820
  667MPD2    C2 9868   0.221   3.847  14.778  0.2614  0.2614  0.4044
  667MPD2    C3 9869   0.194   3.760  14.674 -0.4079  0.2991  0.4104
  667MPD2    C4 9870   0.287   3.665  14.640  0.6263 -0.5600  0.5042
  667MPD2    C5 9871   0.406   3.670  14.697  0.4675  0.1807  0.7565
  667MPD2     H 9872   0.139   3.908  14.813  0.3128  0.9457 -0.6771
  667MPD2    H1 9873   0.260   3.584  14.574  0.1830  1.5762 -1.9179
  667MPD2    H2 9874   0.537   3.766  14.829 -0.1920 -1.8516  0.0794
  667MPD2    H3 9875   0.486   3.600  14.676  1.6689  2.2917 -1.6403
  667MPD2     N 9876   0.076   3.753  14.599  0.3131 -0.3524 -0.0825
  667MPD2    H5 9877   0.073   3.666  14.546  0.5063 -0.2535 -0.2530
  667MPD2    N1 9878   0.365   3.941  14.942  0.1425 -0.1184 -0.3188
  667MPD2    H7 9879   0.284   3.989  14.979  0.4172  1.7548 -2.1350
  668TMC3    C1 9880   0.479   4.043  15.115  0.1133  0.9969  0.4968
  668TMC3    C2 9881   0.585   4.123  15.147  0.1107 -0.7553  0.0498
  668TMC3    C3 9882   0.584   4.182  15.269  0.6517  0.3940 -0.1996
  668TMC3    C4 9883   0.373   4.010  15.200 -0.5686  0.8146 -0.0140
  668TMC3    C5 9884   0.376   4.072  15.323  0.3017 -0.3830  0.2043
  668TMC3    C6 9885   0.474   4.163  15.350 -0.1028  0.5194  0.0363
  668TMC3     C 9886   0.487   3.963  14.997 -0.8594 -0.7230  0.0760
  668TMC3     O 9887   0.600   3.936  14.960  0.2712  0.5131 -0.2561
  668TMC3     H 9888   0.670   4.130  15.079  1.4019  2.5496  1.9961
  668TMC3    H1 9889   0.306   3.926  15.186 -0.7768  0.7151  1.5747
  668TMC3    H2 9890   0.465   4.217  15.444 -0.2628 -0.2583  0.4615
  668TMC3    C7 9891   0.267   4.058  15.429  0.5442  0.2692 -0.0722
  668TMC3    C8 9892   0.696   4.261  15.322  0.3680  0.2117  0.5077
  668TMC3    O1 9893   0.283   4.104  15.541  0.0415 -0.7640  0.0101
  668TMC3    O2 9894   0.717   4.260  15.443  0.2850 -0.6288 -0.0076
  669TMC3    C1 9895   3.376   4.316  14.065  0.8773 -0.1797 -0.1986
  669TMC3    C2 9896   3.274   4.321  13.967 -0.3340  0.3896 -0.1182
  669TMC3    C3 9897   3.313   4.379  13.846 -0.1319  0.1777 -0.6972
  669TMC3    C4 9898   3.506   4.364  14.049 -0.0442 -0.5920 -0.6036
  669TMC3    C5 9899   3.535   4.416  13.922 -0.6751 -0.6148  0.2959
  669TMC3    C6 9900   3.442   4.428  13.824  0.1852  0.3451  0.3630
  669TMC3     C 9901   3.331   4.246  14.183 -0.5359 -0.3708 -0.9369
  669TMC3     O 9902   3.212   4.235  14.198  0.2262 -0.0272  0.4849
  669TMC3     H 9903   3.178   4.271  13.976  0.5121 -1.0209  0.9455
  669TMC3    H1 9904   3.582   4.366  14.126  0.4532  0.1058 -1.1098
  669TMC3    H2 9905   3.471   4.480  13.734 -0.7745  0.0587 -0.1111
  669TMC3    C7 9906   3.665   4.485  13.909  0.6329 -0.2204  0.2686
  669TMC3    C8 9907   3.204   4.408  13.758  0.8020  0.4604  0.9141
  669TMC3    O1 9908   3.718   4.520  14.013 -0.1746  0.1393  0.6575
  669TMC3    O2 9909   3.151   4.311  13.712  0.3439  0.4475 -0.4268
  670MPD2     C 9910   1.614   2.380  13.315  0.1357  0.0389  0.2991
  670MPD2    C1 9911   1.723   2.302  13.297  0.2108 -0.8344  0.1855
  670MPD2    C2 9912   1.727   2.178  13.356  0.3358  0.0456  0.0301
  670MPD2    C3 9913   1.611   2.127  13.420 -0.4650  0.0895 -0.1718
  670MPD2    C4 9914   1.498   2.212  13.444  0.0555  0.3682 -0.0039
  670MPD2    C5 9915   1.508   2.340  13.392 -0.3432  0.0082 -0.1605
  670MPD2     H 9916   1.819   2.121  13.358 -0.6344 -1.5807 -1.7205
  670MPD2    H1 9917   1.415   2.191  13.510 -1.9649  0.0624 -2.6588
  670MPD2    H2 9918   1.604   2.476  13.266  0.1067 -1.4180 -2.6202
  670MPD2    H3 9919   1.431   2.413  13.412  1.1288  1.6426 -0.4205
  670MPD2     N 9920   1.628   2.002  13.477  0.1359  0.2309  0.2657
  670MPD2    H5 9921   1.720   1.957  13.473 -0.2522 -0.5744  0.3401
  670MPD2    N1 9922   1.833   2.335  13.213 -0.2369  0.1403 -0.1451
  670MPD2    H7 9923   1.907   2.269  13.189 -0.4285 -0.1035 -0.0685
  671TMC3    C1 9924   1.590   1.845  13.654 -0.0985  0.5004  0.0484
  671TMC3    C2 9925   1.720   1.847  13.688  0.2206 -0.5242  0.1909
  671TMC3    C3 9926   1.752   1.765  13.798  0.1440 -0.4072  0.0009
  671TMC3    C4 9927   1.506   1.753  13.700  0.3438  0.0637  0.2785
  671TMC3    C5 9928   1.540   1.668  13.799  0.5237 -0.4040  0.0647
  671TMC3    C6 9929   1.665   1.683  13.855 -0.2876 -0.4331  0.3116
  671TMC3     C 9930   1.538   1.945  13.563  0.2210  0.0481 -0.1068
  671TMC3     O 9931   1.419   1.967  13.579 -0.1597  0.4336  0.0470
  671TMC3     H 9932   1.794   1.918  13.651  0.5240 -0.9193  0.0318
  671TMC3    H1 9933   1.412   1.746  13.647  1.4173  1.1658 -1.7994
  671TMC3    H2 9934   1.696   1.632  13.946 -1.8894  0.0072  1.1092
  671TMC3    C7 9935   1.501   1.530  13.781 -0.6929 -0.2332  0.4393
  671TMC3    C8 9936   1.900   1.752  13.820 -0.1687 -0.8832 -0.2030
  671TMC3    O1 9937   1.461   1.506  13.667 -0.2114 -0.3090  0.6458
  671TMC3    O2 9938   1.959   1.706  13.726  0.1162  0.4243  0.5167
  672MPD2     C 9939   1.670   1.406   0.668  0.6615 -0.2817  0.5234
  672MPD2    C1 9940   1.621   1.514   0.603  0.1255 -0.5229 -0.0144
  672MPD2    C2 9941   1.541   1.602   0.675 -0.7561 -0.1520 -0.0138
  672MPD2    C3 9942   1.515   1.583   0.807  0.6505  1.0918  0.4073
  672MPD2    C4 9943   1.556   1.466   0.872 -0.4902 -0.3868  0.9406
  672MPD2    C5 9944   1.641   1.383   0.802 -0.6413 -0.3864  0.1076
  672MPD2     H 9945   1.501   1.691   0.626 -0.6795  1.5415  3.0010
  672MPD2    H1 9946   1.536   1.454   0.977 -2.0416  0.6465  0.7599
  672MPD2    H2 9947   1.726   1.323   0.624 -0.1540 -0.1600 -0.7436
  672MPD2    H3 9948   1.679   1.296   0.853  0.4032 -1.0600 -1.8395
  672MPD2     N 9949   1.457   1.685   0.882 -0.0057 -0.6005 -0.3067
  672MPD2    H5 9950   1.454   1.666   0.982 -2.0889 -0.5682 -0.3705
  672MPD2    N1 9951   1.662   1.550   0.468  0.2023  0.4229 -0.7190
  672MPD2    H7 9952   1.634   1.642   0.434 -0.4401  0.7196  0.5954
  673TMC3    C1 9953   1.800   1.569   0.289 -0.5147 -0.3165 -0.4326
  673TMC3    C2 9954   1.929   1.608   0.307 -0.4178 -0.3432  0.5200
  673TMC3    C3 9955   1.974   1.737   0.276 -0.3803 -0.9667  0.3727
  673TMC3    C4 9956   1.709   1.658   0.250 -0.0778 -0.2320  0.2767
  673TMC3    C5 9957   1.746   1.792   0.253 -0.3286 -0.1005 -0.6921
  673TMC3    C6 9958   1.879   1.837   0.245  0.6150 -0.3064  0.8076
  673TMC3     C 9959   1.757   1.478   0.394  0.1125 -0.7210 -0.4023
  673TMC3     O 9960   1.829   1.385   0.425  0.3691  0.4374  0.2783
  673TMC3     H 9961   1.992   1.537   0.359 -1.1051  0.8364  2.9236
  673TMC3    H1 9962   1.607   1.634   0.225 -0.3456 -0.8404  1.9987
  673TMC3    H2 9963   1.914   1.939   0.257  0.9264 -0.3009 -0.1926
  673TMC3    C7 9964   1.636   1.870   0.329 -0.3055  0.4962  0.2005
  673TMC3    C8 9965   2.104   1.783   0.313 -0.1626 -0.2453 -0.2832
  673TMC3    O1 9966   1.562   1.796   0.388 -0.4175 -0.2062  0.2002
  673TMC3    O2 9967   2.157   1.871   0.242 -0.2465 -0.5148  0.5060
  674MPD2     C 9968   1.892   2.275  17.674 -0.0371  0.4599  0.0045
  674MPD2    C1 9969   1.922   2.150  17.640  0.3443  0.3322 -0.1311
  674MPD2    C2 9970   1.823   2.049  17.648  0.3924 -1.4278 -0.8698
  674MPD2    C3 9971   1.693   2.080  17.664  0.8325 -1.1894  0.1791
  674MPD2    C4 9972   1.667   2.212   0.010 -0.0161 -0.0572  0.0668
  674MPD2    C5 9973   1.759   2.306   0.018  0.7732 -0.5094 -0.5878
  674MPD2     H 9974   1.840   1.942  17.641 -2.4165 -1.9320  0.0548
  674MPD2    H1 9975   1.563   2.234   0.034 -0.2743 -0.7370 -0.4197
  674MPD2    H2 9976   1.967   2.353   0.000  2.1912 -1.6054 -0.6487
  674MPD2    H3 9977   1.743   2.407   0.055  0.3308  0.1908 -2.6973
  674MPD2     N 9978   1.598   1.977  17.641  0.0094  0.2022 -0.2599
  674MPD2    H5 9979   1.628   1.889  17.600  0.2429  0.1706 -0.0211
  674MPD2    N1 9980   2.049   2.117  17.590  0.0080  0.9209  0.7536
  674MPD2    H7 9981   2.112   2.197  17.598 -0.0031  0.9973  0.0123
  675TMC3    C1 9982   2.246   1.994  17.541 -0.4087  0.0372 -0.2335
  675TMC3    C2 9983   2.298   1.891  17.469  0.3271 -0.3768 -0.5490
  675TMC3    C3 9984   2.382   1.812  17.542 -0.1512  0.2560 -0.7310
  675TMC3    C4 9985   2.307   2.043  17.652 -0.0244  0.3155 -0.1427
  675TMC3    C5 9986   2.414   1.980   0.018 -0.2041 -0.2530 -0.1404
  675TMC3    C6 9987   2.450   1.857  17.650  0.5478 -0.6992 -0.5335
  675TMC3     C 9988   2.099   1.994  17.551 -0.0041  0.6105  0.3893
  675TMC3     O 9989   2.038   1.888  17.524 -0.2077  0.5283  0.1097
  675TMC3     H 9990   2.247   1.859  17.380  1.0833 -2.4012 -0.2707
  675TMC3    H1 9991   2.267   2.126   0.028  0.3207 -0.4574  1.2071
  675TMC3    H2 9992   2.532   1.797   0.006 -1.1226 -2.0211  1.0114
  675TMC3    C7 9993   2.489   2.027   0.125  0.9055 -1.0373  0.7316
  675TMC3    C8 9994   2.311   1.687  17.559  0.3194 -0.2041  0.1984
  675TMC3    O1 9995   2.566   1.947   0.174 -0.3825 -0.3173 -0.1744
  675TMC3    O2 9996   2.221   1.656  17.484  0.2275  0.0118  0.4735
  676MPD2     C 9997   4.414   0.492  11.165  0.6703 -0.2868  0.4281
  676MPD2    C1 9998   4.386   0.423  11.285 -0.0042 -0.3871  0.8647
  676MPD2    C2 9999   4.434   0.289  11.286  0.2691  0.4336 -0.6318
  676MPD2    C310000   4.482   0.230  11.171  0.1816  0.4662 -0.0885
  676MPD2    C410001   4.491   0.299  11.054 -0.9522 -0.0679 -0.0404
  676MPD2    C510002   4.444   0.430  11.048  0.7381 -0.4199  0.5290
  676MPD2     H10003   4.412   0.230  11.375 -0.4596  1.1040 -0.3735
  676MPD2    H110004   4.529   0.249  10.965 -0.1169 -1.5141  1.1454
  676MPD2    H210005   4.379   0.594  11.154  0.4339 -0.5798 -1.4991
  676MPD2    H310006   4.439   0.483  10.954  0.8141 -0.1510  0.6760
  676MPD2     N10007   4.525   0.096  11.167 -0.6046  0.4860  0.8169
  676MPD2    H510008   4.550   0.060  11.076  0.0968  0.4929  1.0064
  676MPD2    N110009   4.346   0.484  11.400 -0.5010  0.2521  1.2679
  676MPD2    H710010   4.342   0.425  11.482 -1.1982  0.4215  1.3591
  677TMC3    C110011   4.234   0.631  11.541  0.4610  0.1508 -0.4704
  677TMC3    C210012   4.213   0.508  11.602 -0.3682 -0.2433 -0.4531
  677TMC3    C310013   4.238   0.500  11.738  0.0742 -0.0327 -0.2599
  677TMC3    C410014   4.295   0.728  11.611 -0.4893  0.0667 -0.5847
  677TMC3    C510015   4.313   0.717  11.749  0.2905  0.2891 -0.4545
  677TMC3    C610016   4.277   0.605  11.821  0.4279 -0.3785  0.0913
  677TMC3     C10017   4.298   0.612  11.414 -0.2149  0.0131  0.7671
  677TMC3     O10018   4.314   0.710  11.343  0.1395  0.8205  0.2903
  677TMC3     H10019   4.163   0.426  11.552 -2.0985  0.5816 -0.0658
  677TMC3    H110020   4.328   0.813  11.552 -0.8082 -0.4832 -1.5728
  677TMC3    H210021   4.306   0.600  11.925  0.2068 -1.6576  0.0924
  677TMC3    C710022   4.422   0.798  11.807 -0.2755  0.1170  0.1079
  677TMC3    C810023   4.308   0.375  11.758 -0.1629 -0.5527  0.0743
  677TMC3    O110024   4.427   0.817  11.929  0.4737 -0.2563  0.5517
  677TMC3    O210025   4.376   0.329  11.663 -0.5774  0.2214  0.2368
  678MPD2     C10026   0.703   0.404   1.559  0.1475 -0.4250  0.3553
  678MPD2    C110027   0.712   0.327   1.442  0.4531  0.3465  0.6550
  678MPD2    C210028   0.629   0.221   1.426 -0.6086 -0.5683 -0.0106
  678MPD2    C310029   0.533   0.188   1.519  0.2617 -0.1056  0.3794
  678MPD2    C410030   0.523   0.264   1.635  0.0946 -0.4082  0.0960
  678MPD2    C510031   0.616   0.364   1.660  0.3631 -0.1204  0.0821
  678MPD2     H10032   0.641   0.147   1.348 -0.9352  0.1771 -0.7594
  678MPD2    H110033   0.454   0.243   1.716 -0.6135 -3.3213 -1.2793
  678MPD2    H210034   0.767   0.490   1.571  0.0389 -0.2177 -0.5803
  678MPD2    H310035   0.619   0.418   1.754 -0.2503  1.8895 -1.0355
  678MPD2     N10036   0.457   0.073   1.499  0.4692  0.4159  0.8525
  678MPD2    H510037   0.481   0.031   1.410  0.3218 -0.8899  1.4356
  678MPD2    N110038   0.799   0.357   1.335 -0.4886 -0.3895  0.4774
  678MPD2    H710039   0.799   0.281   1.267  0.8467  0.4961 -0.5014
  679TMC3    C110040   1.073   0.356   1.030  0.3667  0.2501 -0.2211
  679TMC3    C210041   0.991   0.350   1.145 -0.3869  0.1240  0.3887
  679TMC3    C310042   0.971   0.465   1.217 -0.0917 -0.0048  0.1667
  679TMC3    C410043   1.143   0.469   1.003 -1.0962 -0.2005  0.5096
  679TMC3    C510044   1.127   0.577   1.083  0.7133  0.9777  0.0464
  679TMC3    C610045   1.041   0.579   1.185 -0.1912 -0.2328 -0.4921
  679TMC3     C10046   1.114   0.231   0.967 -1.0904 -0.0571  0.0411
  679TMC3     O10047   1.077   0.125   1.016 -0.5144 -0.0434 -0.3143
  679TMC3     H10048   0.943   0.254   1.162 -0.6147  0.3359  0.9349
  679TMC3    H110049   1.203   0.481   0.914  0.4381  1.6430  1.8070
  679TMC3    H210050   1.028   0.668   1.245  0.6833 -1.5141  1.5941
  679TMC3    C710051   1.171   0.705   1.039 -0.0956  0.3054 -0.4331
  679TMC3    C810052   0.891   0.459   1.331 -0.2347  0.5622 -0.1316
  679TMC3    O110053   1.179   0.715   0.912  0.4704  0.0261  0.2449
  679TMC3    O210054   0.914   0.543   1.416  0.3139 -0.1273 -0.0686
  680MPD2     C10055   1.169   3.717  13.844  0.1327 -0.0853  0.7982
  680MPD2    C110056   1.268   3.668  13.926 -0.0903 -0.0437  0.4545
  680MPD2    C210057   1.359   3.754  13.978 -0.3851  0.2181 -0.3679
  680MPD2    C310058   1.357   3.890  13.949 -0.0790 -0.3931  0.0991
  680MPD2    C410059   1.252   3.935  13.864  0.6350  0.1715  0.3304
  680MPD2    C510060   1.164   3.849  13.814 -0.1247 -0.0087 -0.2795
  680MPD2     H10061   1.433   3.722  14.051  0.5824 -0.9633 -1.8593
  680MPD2    H110062   1.250   4.042  13.848  3.8522  0.8163  4.3057
  680MPD2    H210063   1.090   3.651  13.808  0.6915 -0.0544 -0.4774
  680MPD2    H310064   1.087   3.876  13.743  0.6468  1.6586 -0.4955
  680MPD2     N10065   1.449   3.984  14.004 -0.3979  0.3975  0.6904
  680MPD2    H510066   1.432   4.084  13.998 -2.2928  0.0073 -0.5583
  680MPD2    N110067   1.274   3.534  13.967  0.2009 -0.6445  0.6369
  680MPD2    H710068   1.359   3.507  14.016  0.8263  1.9279  0.9893
  681TMC3    C110069   1.224   3.326  14.000  0.0656 -0.4531  0.4956
  681TMC3    C210070   1.179   3.303  14.127  1.0410 -0.0523  0.7015
  681TMC3    C310071   1.269   3.261  14.223 -0.5153  0.6240 -0.1600
  681TMC3    C410072   1.352   3.295  13.957  0.5078  0.2692 -0.0485
  681TMC3    C510073   1.433   3.240  14.049 -0.3220 -0.4066  0.4462
  681TMC3    C610074   1.397   3.215  14.186 -0.2500 -0.1929 -0.4580
  681TMC3     C10075   1.170   3.449  13.953  0.2202  0.0719  0.7688
  681TMC3     O10076   1.051   3.471  13.934  0.1799  0.1175 -1.2414
  681TMC3     H10077   1.077   3.329  14.153  0.0407 -1.5335 -1.6883
  681TMC3    H110078   1.388   3.330  13.861  0.0339 -1.4138 -0.8322
  681TMC3    H210079   1.460   3.166  14.260  0.0378 -0.6861 -1.0369
  681TMC3    C710080   1.566   3.205  14.005  0.4738  0.1376  1.0576
  681TMC3    C810081   1.231   3.295  14.356  0.0045  0.2878 -0.7431
  681TMC3    O110082   1.650   3.204  14.091 -0.6269  0.4778 -0.1371
  681TMC3    O210083   1.110   3.291  14.376  0.0219  0.6564  0.0698
  682MPD2     C10084   3.089   0.221  10.183 -0.1171  0.3098 -0.4005
  682MPD2    C110085   3.173   0.177  10.283 -0.0572  0.1841 -0.3968
  682MPD2    C210086   3.163   0.235  10.413 -0.1179  0.2226 -0.6864
  682MPD2    C310087   3.059   0.328  10.435  0.5623 -1.0359  0.1623
  682MPD2    C410088   2.969   0.367  10.335 -0.3045 -0.0591 -0.3176
  682MPD2    C510089   2.988   0.311  10.211 -0.1639  0.2467 -0.3794
  682MPD2     H10090   3.229   0.206  10.493  0.0149  1.6391 -0.2866
  682MPD2    H110091   2.881   0.429  10.344  0.4656  0.6591  2.3901
  682MPD2    H210092   3.087   0.180  10.082  0.4813 -1.8943  0.5022
  682MPD2    H310093   2.917   0.338  10.134 -1.1174 -2.5146 -0.4973
  682MPD2     N10094   3.032   0.381  10.565  0.5206 -0.4330  0.1648
  682MPD2    H510095   2.943   0.429  10.572 -0.0715 -1.3880 -0.8651
  682MPD2    N110096   3.258   0.066  10.269 -0.3699 -0.5071  0.5279
  682MPD2    H710097   3.289   0.021  10.355  1.1333 -0.2871  0.1082
  683TMC3    C110098   3.112   0.494  11.018 -0.2984  0.3476 -0.1677
  683TMC3    C210099   3.010   0.424  11.060  0.0201 -0.6054 -0.1221
  683TMC3    C310100   2.930   0.357  10.967  0.0504 -0.5021 -0.1450
  683TMC3    C410101   3.136   0.507  10.879  0.0305 -0.0573  0.4524
  683TMC3    C510102   3.055   0.438  10.794  0.5087  0.1706  0.7966
  683TMC3    C610103   2.953   0.360  10.836 -0.7399  0.4098 -0.6386
  683TMC3     C10104   3.211   0.550  11.115  0.4912 -0.2077 -0.1267
  683TMC3     O10105   3.296   0.633  11.078  0.2859  0.6223  0.0988
  683TMC3     H10106   2.976   0.419  11.163 -1.1625  0.0432 -0.4830
  683TMC3    H110107   3.212   0.575  10.841 -0.1726 -0.8788 -1.4200
  683TMC3    H210108   2.898   0.299  10.765  1.2953 -0.9649 -1.0515
  683TMC3    C710109   3.116   0.388  10.671 -0.5680 -0.5130 -1.0141
  683TMC3    C810110   2.874   0.232  11.010 -0.0513  0.1873  0.6668
  683TMC3    O110111   3.236   0.366  10.671  0.5622 -0.2254 -0.2703
  683TMC3    O210112   2.782   0.234  11.090  0.0493  0.1833  0.7215
  684MPD2     C10113   1.254   4.519  16.253  0.4830 -0.4765  0.3908
  684MPD2    C110114   1.387   4.494  16.217 -0.6009  0.1835  0.1935
  684MPD2    C210115   1.469   4.603  16.191 -0.3901  0.2500 -0.0759
  684MPD2    C310116   1.419   0.011  16.193 -0.6227 -0.9943  0.2249
  684MPD2    C410117   1.289   0.035  16.240  0.8988  0.4487  0.6572
  684MPD2    C510118   1.204   4.650  16.263 -0.2050  0.0829  0.3225
  684MPD2     H10119   1.570   4.590  16.156 -0.4227  0.0378 -0.0918
  684MPD2    H110120   1.251   0.136  16.252  1.2534  0.6687 -0.0976
  684MPD2    H210121   1.186   4.436  16.268 -0.2892  0.0762 -0.0409
  684MPD2    H310122   1.100   4.664  16.288 -0.5969 -1.0422 -0.6993
  684MPD2     N10123   1.497   0.119  16.135 -0.3032 -0.4094  0.3241
  684MPD2    H510124   1.591   0.088  16.111  0.0601 -0.1746  1.4083
  684MPD2    N110125   1.421   4.358  16.195  0.4465  0.2005  0.3304
  684MPD2    H710126   1.350   4.285  16.199 -0.1804  0.8005  0.0773
  685TMC3    C110127   1.564   4.170  16.138 -0.1778  0.2484 -0.4575
  685TMC3    C210128   1.457   4.126  16.063  0.5001  0.2445  0.0591
  685TMC3    C310129   1.453   3.986  16.049  0.3188 -0.6924 -0.1187
  685TMC3    C410130   1.673   4.096  16.179 -0.3935  0.0557  0.3211
  685TMC3    C510131   1.672   3.962  16.149 -0.1587  1.2520 -0.2342
  685TMC3    C610132   1.557   3.907  16.092 -0.0929 -1.1239  0.1771
  685TMC3     C10133   1.549   4.308  16.189  0.6629 -0.6422  0.1518
  685TMC3     O10134   1.645   4.363  16.243  0.6408  0.4257  0.0709
  685TMC3     H10135   1.387   4.197  16.021 -0.4354 -0.6777  0.0489
  685TMC3    H110136   1.758   4.150  16.219  0.4999 -0.6907 -0.5594
  685TMC3    H210137   1.552   3.802  16.068  1.2527 -1.5196  1.6064
  685TMC3    C710138   1.791   3.887  16.127  0.3724  0.4089 -0.0383
  685TMC3    C810139   1.352   3.921  15.977 -0.8877 -0.6599  0.8648
  685TMC3    O110140   1.775   3.770  16.093  0.2596  0.0685  0.3757
  685TMC3    O210141   1.331   3.801  15.988  0.4924 -0.1799  0.5050
  686MPD2     C10142   3.263   4.443  15.331 -0.1357  0.0673 -0.2323
  686MPD2    C110143   3.284   4.340  15.420  0.0769  0.1291 -0.8054
  686MPD2    C210144   3.415   4.283  15.434 -0.8052 -0.3738  0.7430
  686MPD2    C310145   3.515   4.320  15.351  0.6788 -0.2961  0.1566
  686MPD2    C410146   3.490   4.419  15.264  0.2257 -0.1479 -0.5584
  686MPD2    C510147   3.372   4.483  15.254  0.5646 -0.3930  0.9566
  686MPD2     H10148   3.433   4.211  15.513 -0.6819 -0.4390  0.6535
  686MPD2    H110149   3.567   4.454  15.196 -1.6317  1.9174 -1.5673
  686MPD2    H210150   3.167   4.492  15.326  0.2240  0.7995  0.0564
  686MPD2    H310151   3.362   4.567  15.187 -1.6727 -1.2694  0.2038
  686MPD2     N10152   3.647   4.263  15.352 -0.4904  0.5894  0.2098
  686MPD2    H510153   3.716   4.320  15.304 -1.0948  1.7955  0.7566
  686MPD2    N110154   3.174   4.297  15.494 -0.1475 -0.2209 -0.1860
  686MPD2    H710155   3.082   4.327  15.465 -0.4769 -0.9751  0.0919
  687TMC3    C110156   3.590   4.042  15.432  0.2694 -0.9591  0.4058
  687TMC3    C210157   3.504   4.014  15.325  0.4673  0.4545 -0.6827
  687TMC3    C310158   3.434   3.899  15.334  0.4467  0.2771 -1.0263
  687TMC3    C410159   3.614   3.947  15.530 -0.2796  0.2806 -0.2888
  687TMC3    C510160   3.532   3.838  15.538 -0.6118 -0.0960  0.2027
  687TMC3    C610161   3.439   3.813  15.434  0.6008 -0.2408 -0.2541
  687TMC3     C10162   3.691   4.141  15.410  0.4362 -0.4631 -0.3700
  687TMC3     O10163   3.809   4.111  15.436 -0.2784  0.5983  0.2752
  687TMC3     H10164   3.507   4.078  15.238  2.0824 -1.7456 -2.2752
  687TMC3    H110165   3.689   3.969  15.605 -0.2519  0.0874 -0.2581
  687TMC3    H210166   3.367   3.733  15.441  1.3822 -1.0888 -1.9862
  687TMC3    C710167   3.486   3.802  15.670 -0.3204 -0.1427  0.4371
  687TMC3    C810168   3.301   3.900  15.272  0.0462  0.1544 -0.2319
  687TMC3    O110169   3.421   3.699  15.667  0.0626  0.0724 -1.0299
  687TMC3    O210170   3.254   3.787  15.260 -0.2487  0.0586 -0.3973
  688MPD2     C10171   2.741   3.299  17.519 -0.7270 -0.3345  0.7217
  688MPD2    C110172   2.724   3.165  17.497  0.3827 -0.5392 -0.3457
  688MPD2    C210173   2.824   3.099  17.417  0.3428  0.1683 -0.1886
  688MPD2    C310174   2.924   3.170  17.362 -0.4017  0.4899 -0.2438
  688MPD2    C410175   2.938   3.310  17.380 -0.5790  0.2243  0.0191
  688MPD2    C510176   2.846   3.371  17.466  0.0490  0.6798  0.1478
  688MPD2     H10177   2.805   2.998  17.383  1.8147  0.2954 -1.4355
  688MPD2    H110178   3.018   3.374  17.345 -0.7542  0.1969 -0.4375
  688MPD2    H210179   2.665   3.353  17.574  0.9040  0.5072  2.1232
  688MPD2    H310180   2.857   3.479  17.471 -0.4029  0.6794  1.1114
  688MPD2     N10181   3.004   3.115  17.255  0.1611 -0.3923 -1.1071
  688MPD2    H510182   3.061   3.188  17.214 -2.3052  2.1488 -0.0472
  688MPD2    N110183   2.618   3.081  17.544  0.1434  0.1402  0.2271
  688MPD2    H710184   2.610   2.986  17.508  2.5252  0.5123 -1.2628
  689TMC3    C110185   2.429   3.013  17.664  0.0860 -0.8897 -0.4144
  689TMC3    C210186   2.320   3.049   0.066  0.1970  0.5469 -0.3377
  689TMC3    C310187   2.232   2.956   0.111  0.0741  0.7798  0.3425
  689TMC3    C410188   2.444   2.882  17.632  0.5675  0.2911  0.6168
  689TMC3    C510189   2.353   2.794  17.674  0.1632 -0.5361  0.2000
  689TMC3    C610190   2.241   2.829   0.068 -0.6318 -0.1878 -0.5479
  689TMC3     C10191   2.520   3.123  17.625  0.5009  0.2020  0.0304
  689TMC3     O10192   2.517   3.225   0.009  0.6025  0.2027  0.2088
  689TMC3     H10193   2.306   3.155   0.087 -3.4220  0.2140 -1.2206
  689TMC3    H110194   2.528   2.856  17.567  0.1532  0.4938 -0.0032
  689TMC3    H210195   2.168   2.751   0.086 -1.6957  0.8125 -0.5298
  689TMC3    C710196   2.389   2.655  17.651 -0.8842 -0.1406 -0.2123
  689TMC3    C810197   2.136   2.986   0.219  0.3791  0.5368  0.1519
  689TMC3    O110198   2.501   2.624   0.007  0.2767  0.0357 -0.3953
  689TMC3    O210199   2.058   2.889   0.235  0.0773 -0.5580  1.1047
  690MPD2     C10200   4.554   0.475  15.760  0.5711  0.0652 -0.3193
  690MPD2    C110201   4.563   0.401  15.648 -0.3910  0.1620  0.0661
  690MPD2    C210202   4.664   0.422  15.555 -0.1495  0.7333  0.0864
  690MPD2    C310203   0.021   0.539  15.575  0.0702  0.1676 -0.2819
  690MPD2    C410204   0.007   0.613  15.690 -0.4594  0.8826 -0.2761
  690MPD2    C510205   4.649   0.571  15.786  0.5255  0.1301 -0.0047
  690MPD2     H10206   4.672   0.360  15.467 -1.3606 -0.2794  0.6949
  690MPD2    H110207   0.078   0.690  15.718 -0.9297  0.8225  1.0529
  690MPD2    H210208   4.490   0.450  15.844  0.7339  1.3619  0.1920
  690MPD2    H310209   4.646   0.617  15.884 -2.0130 -0.2884  0.1199
  690MPD2     N10210   0.125   0.577  15.484 -0.1819  0.0665  0.0496
  690MPD2    H510211   0.189   0.653  15.504  2.7860 -2.1393 -1.0059
  690MPD2    N110212   4.475   0.295  15.621 -0.1549 -0.1897  0.1141
  690MPD2    H710213   4.495   0.239  15.539  0.8859  1.1304 -0.5084
  691TMC3    C110214   4.286   0.158  15.632 -0.0423  0.1737 -0.6900
  691TMC3    C210215   4.155   0.141  15.675 -0.2190 -0.0035  0.4088
  691TMC3    C310216   4.076   0.043  15.613 -0.6602 -0.2142 -0.6343
  691TMC3    C410217   4.343   0.063  15.556  0.0179 -0.7430  0.5371
  691TMC3    C510218   4.266   4.673  15.516 -0.2243 -0.7651 -0.5185
  691TMC3    C610219   4.135   4.664  15.540  0.0084 -0.1908 -0.0185
  691TMC3     C10220   4.354   0.276  15.679  0.0804  0.7512  0.0136
  691TMC3     O10221   4.293   0.345  15.761  0.5066  0.2545 -0.1632
  691TMC3     H10222   4.108   0.219  15.733  1.4258  1.1966  0.1430
  691TMC3    H110223   4.450   0.064  15.538  0.2155  0.0588  1.7862
  691TMC3    H210224   4.059   4.602  15.494 -0.6839  0.0900  0.7405
  691TMC3    C710225   4.335   4.569  15.447 -0.2508  0.0219 -0.3042
  691TMC3    C810226   3.947   0.007  15.674  0.1735  0.1146 -0.1981
  691TMC3    O110227   4.456   4.568  15.457  0.6829 -0.2474  0.1351
  691TMC3    O210228   3.921   4.609  15.692  0.1829 -1.1091  0.0748
  692TMC3    C110229   1.343   1.400  15.669  0.2679 -0.2727 -0.5026
  692TMC3    C210230   1.461   1.471  15.672  0.2925 -0.0239 -0.3989
  692TMC3    C310231   1.582   1.409  15.637  0.8072 -0.9972  0.2499
  692TMC3    C410232   1.343   1.270  15.623 -0.5157  0.1249  0.3310
  692TMC3    C510233   1.461   1.209  15.603 -0.8325  0.4917  0.4933
  692TMC3    C610234   1.585   1.280  15.607  0.0133  0.7162 -0.0773
  692TMC3     C10235   1.223   1.456  15.726  0.0970  0.7557 -0.7201
  692TMC3     O10236   1.127   1.379  15.756 -0.3824 -0.5196 -0.1775
  692TMC3     H10237   1.465   1.537  15.758  1.1564 -1.4494  0.6578
  692TMC3    H110238   1.254   1.207  15.625 -0.0872 -0.4846  0.0732
  692TMC3    H210239   1.680   1.237  15.578  0.3984  2.0720 -0.8097
  692TMC3    C710240   1.464   1.069  15.575  0.4057  0.0100 -0.6229
  692TMC3    C810241   1.702   1.435  15.720  0.1948 -0.1327  0.4775
  692TMC3    O110242   1.377   0.999  15.624  0.1802  0.0756 -0.0405
  692TMC3    O210243   1.762   1.339  15.766  0.5345 -0.3765  0.1484
  693MPD2     C10244   0.951   4.193  10.442  0.6270 -0.4960  0.1756
  693MPD2    C110245   0.897   4.131  10.551 -0.2241  0.6487 -0.0578
  693MPD2    C210246   0.966   4.021  10.614  1.2635  0.6671 -0.0542
  693MPD2    C310247   1.091   3.982  10.567  0.1718 -0.0419 -0.0101
  693MPD2    C410248   1.145   4.049  10.461  0.4090  0.4668 -0.1235
  693MPD2    C510249   1.084   4.158  10.407  0.2802  0.2409  0.3758
  693MPD2     H10250   0.925   3.975  10.703 -1.6000  0.5471 -1.4196
  693MPD2    H110251   1.244   4.031  10.420  0.7720 -1.5353  1.6298
  693MPD2    H210252   0.911   4.279  10.389 -2.0630 -1.2765  0.9490
  693MPD2    H310253   1.134   4.205  10.323  0.5929  0.2470  0.5664
  693MPD2     N10254   1.159   3.876  10.628 -0.0141  1.0855 -1.0952
  693MPD2    H510255   1.240   3.855  10.571  0.4685  4.8194 -1.7555
  693MPD2    N110256   0.772   4.180  10.594 -0.5499  0.1260 -0.1344
  693MPD2    H710257   0.718   4.238  10.530 -0.8171 -0.2170 -0.2233
  694TMC3    C110258   0.597   4.187  10.751 -0.2765 -0.1809  0.2780
  694TMC3    C210259   0.502   4.149  10.654 -0.2087 -0.7150 -0.0500
  694TMC3    C310260   0.383   4.088  10.682  0.0547  0.0322  0.5165
  694TMC3    C410261   0.564   4.166  10.880 -0.8504 -0.8062 -0.2810
  694TMC3    C510262   0.436   4.129  10.903  0.0337 -0.4896 -0.1585
  694TMC3    C610263   0.349   4.079  10.814  0.3175 -0.3284  0.2082
  694TMC3     C10264   0.739   4.169  10.725 -0.0738  0.0260 -0.5170
  694TMC3     O10265   0.810   4.165  10.823  0.4845 -0.0960  0.8199
  694TMC3     H10266   0.533   4.143  10.550  0.5624 -3.4438  0.3372
  694TMC3    H110267   0.631   4.176  10.965 -1.6518  3.5026 -0.1545
  694TMC3    H210268   0.255   4.038  10.849 -0.1612  1.3712  0.9370
  694TMC3    C710269   0.394   4.127  11.044  0.5738 -0.0054 -1.0715
  694TMC3    C810270   0.303   4.024  10.582 -0.1335 -0.0563 -0.2162
  694TMC3    O110271   0.426   4.226  11.102  0.0896 -0.1378 -0.0537
  694TMC3    O210272   0.226   3.938  10.627  0.1832  0.5726  0.5147
  695MPD2     C10273   2.038   0.873  13.285  0.0382 -0.3559 -0.1940
  695MPD2    C110274   2.006   0.931  13.406  0.2710 -0.2080 -0.1675
  695MPD2    C210275   1.873   0.968  13.420  0.3422 -0.1539 -0.7125
  695MPD2    C310276   1.782   0.957  13.312  0.5966  0.5487 -0.0060
  695MPD2    C410277   1.824   0.908  13.194  0.3765  0.1096  0.4591
  695MPD2    C510278   1.950   0.869  13.180  0.0109  0.0029 -0.0157
  695MPD2     H10279   1.836   1.001  13.516  0.1286 -1.3783 -0.3745
  695MPD2    H110280   1.756   0.909  13.109 -0.4946 -0.9047  1.1489
  695MPD2    H210281   2.140   0.845  13.259  0.1363 -0.0287 -0.1713
  695MPD2    H310282   1.993   0.831  13.088  1.4937  0.6733  0.4043
  695MPD2     N10283   1.655   0.996  13.343 -0.5080 -0.4546  0.3235
  695MPD2    H510284   1.645   1.018  13.442 -2.0176 -0.3388  0.1458
  695MPD2    N110285   2.098   0.939  13.516 -0.1907 -0.2602 -0.3037
  695MPD2    H710286   2.192   0.911  13.494 -0.5387 -0.8897 -0.9871
  696TMC3    C110287   1.440   1.089  13.323  0.0843 -0.5201 -0.7852
  696TMC3    C210288   1.381   1.019  13.426 -0.2905  0.7039  0.3025
  696TMC3    C310289   1.250   1.041  13.467  0.0626  0.8803 -0.5700
  696TMC3    C410290   1.373   1.161  13.236 -0.0232 -0.2105 -0.6505
  696TMC3    C510291   1.243   1.189  13.274  0.4896 -0.4796 -0.0229
  696TMC3    C610292   1.179   1.121  13.375  0.5040  0.7094  0.5443
  696TMC3     C10293   1.554   1.026  13.253 -0.8712 -0.1902 -0.0041
  696TMC3     O10294   1.564   1.028  13.131 -0.5163 -0.0721 -0.0934
  696TMC3     H10295   1.458   0.972  13.487 -1.1142  0.5452  1.2139
  696TMC3    H110296   1.426   1.210  13.155  2.7346 -0.0572  1.2100
  696TMC3    H210297   1.081   1.153  13.407  0.0282  0.7442 -0.9920
  696TMC3    C710298   1.233   1.337  13.271 -0.6281 -0.3186  0.0069
  696TMC3    C810299   1.243   1.111  13.601  0.8198  0.8826  0.5060
  696TMC3    O110300   1.267   1.389  13.163  0.4142  0.2817  0.3904
  696TMC3    O210301   1.200   1.225  13.593  0.0581 -0.1070  0.0995
  697MPD2     C10302   0.960   2.731  15.864 -0.1745  0.0367 -0.3080
  697MPD2    C110303   0.989   2.678  15.743  0.0584 -0.0375 -0.2296
  697MPD2    C210304   1.038   2.761  15.646 -0.0935 -1.0360  0.6027
  697MPD2    C310305   1.054   2.894  15.666 -0.2797  0.0228  0.4097
  697MPD2    C410306   1.008   2.951  15.779  0.5200  0.0315  1.1487
  697MPD2    C510307   0.964   2.869  15.881  0.5011 -0.4981 -0.5230
  697MPD2     H10308   1.048   2.720  15.547  2.2712  3.3167 -0.9845
  697MPD2    H110309   1.014   3.056  15.803  1.4827  0.2724 -0.1842
  697MPD2    H210310   0.913   2.672  15.942  0.2989  0.3516  0.2117
  697MPD2    H310311   0.936   2.916  15.974  0.6678 -0.3507 -0.5466
  697MPD2     N10312   1.109   2.975  15.563  0.1086 -0.8513  0.1179
  697MPD2    H510313   1.153   2.919  15.490  0.6650 -0.1904 -0.0564
  697MPD2    N110314   0.991   2.536  15.711 -0.7196 -0.8066 -0.2204
  697MPD2    H710315   1.017   2.512  15.616 -0.2404 -0.8701 -0.0711
  698TMC3    C110316   1.177   3.167  15.441  0.0281 -0.0943  0.0875
  698TMC3    C210317   1.171   3.301  15.424  0.1752  0.6745  0.3487
  698TMC3    C310318   1.239   3.357  15.317 -0.2647 -0.0324 -0.4474
  698TMC3    C410319   1.245   3.084  15.352 -0.2830 -0.9749  0.8191
  698TMC3    C510320   1.320   3.149  15.255  0.2948 -0.4734 -0.3577
  698TMC3    C610321   1.313   3.281  15.233  0.4413 -0.1662  0.2546
  698TMC3     C10322   1.104   3.113  15.551  0.2291  0.8704  0.5117
  698TMC3     O10323   1.049   3.199  15.622 -0.3521 -0.9560 -0.1205
  698TMC3     H10324   1.124   3.371  15.493 -0.3191 -1.1668  1.8781
  698TMC3    H110325   1.241   2.976  15.353  2.7790 -1.0990  0.5259
  698TMC3    H210326   1.340   3.318  15.134  0.8960 -1.1711  0.0043
  698TMC3    C710327   1.340   3.076  15.131 -0.4170  0.0098 -0.4632
  698TMC3    C810328   1.166   3.463  15.246  0.0112 -0.9768 -0.1019
  698TMC3    O110329   1.273   2.975  15.117  0.5298  0.1381  0.0487
  698TMC3    O210330   1.050   3.450  15.220 -0.0536 -0.0335 -0.7991
  699TMC3    C110331   1.328   1.140  12.852 -0.5821  0.3529  0.8070
  699TMC3    C210332   1.325   1.022  12.918 -0.4025 -0.1903  0.3584
  699TMC3    C310333   1.203   0.990  12.980 -0.2528  0.4465  0.1010
  699TMC3    C410334   1.217   1.216  12.831 -0.5417 -0.1944 -0.2521
  699TMC3    C510335   1.099   1.175  12.886 -0.0276 -0.3716 -0.3688
  699TMC3    C610336   1.092   1.064  12.971 -0.5125 -0.0019 -0.2346
  699TMC3     C10337   1.433   1.159  12.762  0.3435 -0.0411  0.4341
  699TMC3     O10338   1.396   1.185  12.649  0.0391 -0.2694  0.2679
  699TMC3     H10339   1.416   0.964  12.906  0.8471  1.9768 -0.6021
  699TMC3    H110340   1.236   1.314  12.790  1.6591 -0.1739  0.8155
  699TMC3    H210341   0.999   1.034  13.019 -0.3738 -0.8005 -0.4685
  699TMC3    C710342   0.987   1.273  12.879  0.4435  0.1141 -0.5825
  699TMC3    C810343   1.195   0.881  13.072  0.5204 -0.3278 -1.0042
  699TMC3    O110344   0.899   1.244  12.958 -0.0886  0.1693  0.8486
  699TMC3    O210345   1.092   0.851  13.132  0.1090  0.1794 -0.7768
  700TMC3    C110346   4.679   3.330  17.009  0.6674 -0.0810 -0.6192
  700TMC3    C210347   0.088   3.292  17.020 -0.2948  0.4190  0.0736
  700TMC3    C310348   0.157   3.303  17.142  0.0608  0.5456  0.4919
  700TMC3    C410349   4.625   3.389  17.119 -0.5064  0.5388 -0.3861
  700TMC3    C510350   4.689   3.408  17.240  0.5962 -0.0109 -0.6132
  700TMC3    C610351   0.095   3.356  17.254 -0.0811 -0.0050  0.3535
  700TMC3     C10352   4.637   3.392  16.895 -0.3990 -0.3356  0.3274
  700TMC3     O10353   4.523   3.377  16.852 -0.0604 -0.1422  0.3835
  700TMC3     H10354   0.133   3.243  16.934 -2.7921  0.3328 -1.2132
  700TMC3    H110355   4.533   3.441  17.095 -0.6815  1.5220  2.4705
  700TMC3    H210356   0.152   3.372  17.345 -1.1589 -1.6458  1.3191
  700TMC3    C710357   4.647   3.522  17.317  0.3196 -0.1144  1.4281
  700TMC3    C810358   0.303   3.273  17.144 -0.2356 -0.4334 -0.2688
  700TMC3    O110359   4.530   3.555  17.304  0.5378  0.3040 -0.3910
  700TMC3    O210360   0.368   3.271  17.043 -0.0010  0.2060 -1.0132
  701TMC3    C110361   0.192   1.836  15.526 -0.7772 -0.1500  0.6316
  701TMC3    C210362   0.220   1.731  15.437 -0.5183 -0.0526 -0.8345
  701TMC3    C310363   0.334   1.750  15.357 -0.1091 -0.2207 -0.9482
  701TMC3    C410364   0.263   1.955  15.522 -0.3479 -0.7458 -0.5602
  701TMC3    C510365   0.382   1.952  15.460  0.3957  0.0798 -0.0354
  701TMC3    C610366   0.424   1.853  15.383  0.1823  0.2748  0.2895
  701TMC3     C10367   0.060   1.846  15.587  0.0091 -0.4501  0.2396
  701TMC3     O10368   0.024   1.732  15.622 -0.4592 -0.0344 -0.0498
  701TMC3     H10369   0.171   1.635  15.435  0.3534 -0.5276  0.9914
  701TMC3    H110370   0.240   2.034  15.593  0.0824 -1.1741  0.0480
  701TMC3    H210371   0.519   1.859  15.330  0.6852 -0.2237  1.1219
  701TMC3    C710372   0.473   2.067  15.470  0.1621 -0.0385 -0.3903
  701TMC3    C810373   0.382   1.651  15.266  0.0454  0.0392 -0.1767
  701TMC3    O110374   0.546   2.086  15.376 -0.3792  0.6623 -0.1268
  701TMC3    O210375   0.504   1.643  15.259  0.1063  0.4982  0.3396
  702MPD2     C10376   0.245   4.428  10.786  0.0360 -0.1038 -0.2346
  702MPD2    C110377   0.158   4.530  10.818 -0.3329  0.5378  0.6611
  702MPD2    C210378   0.178   4.656  10.782  0.1917 -0.1992  0.5108
  702MPD2    C310379   0.283   4.683  10.692  0.0012  0.9464  0.2479
  702MPD2    C410380   0.365   4.582  10.657 -0.3148  0.4904  0.4153
  702MPD2    C510381   0.344   4.451  10.690  0.4344  0.3287  0.1291
  702MPD2     H10382   0.111   0.019  10.800 -0.0001 -0.0559 -0.8583
  702MPD2    H110383   0.451   4.603  10.594 -0.3740  0.5869  0.3669
  702MPD2    H210384   0.234   4.327  10.824  0.5634  0.0071  0.2036
  702MPD2    H310385   0.422   4.379  10.668  0.3068  0.2881 -0.1854
  702MPD2     N10386   0.299   0.102  10.667 -0.0378 -0.6089  0.6615
  702MPD2    H510387   0.230   0.162  10.710 -1.6765 -0.6136 -1.9498
  702MPD2    N110388   0.060   4.517  10.912 -0.4543 -0.4196  0.2034
  702MPD2    H710389   0.010   4.604  10.930 -0.3882 -0.2154 -0.5770
  703TMC3    C110390   0.382   0.308  10.600 -0.1431 -0.4634  0.1041
  703TMC3    C210391   0.262   0.357  10.643 -0.1112  0.7488  0.1655
  703TMC3    C310392   0.236   0.491  10.604  0.1720  0.3699 -0.0655
  703TMC3    C410393   0.463   0.379  10.517  0.1756 -0.6966  0.2504
  703TMC3    C510394   0.438   0.508  10.482  0.4842 -0.3189 -0.8355
  703TMC3    C610395   0.330   0.567  10.534 -0.6605 -0.1756  0.1194
  703TMC3     C10396   0.402   0.164  10.601 -0.4660  0.0243  0.2591
  703TMC3     O10397   0.494   0.116  10.532  0.4649  0.2928 -0.1778
  703TMC3     H10398   0.195   0.314  10.717  0.6188  0.5690  0.7188
  703TMC3    H110399   0.559   0.334  10.493 -0.0427 -0.9377 -0.1755
  703TMC3    H210400   0.312   0.673  10.523 -1.2149 -0.2854 -0.0488
  703TMC3    C710401   0.531   0.577  10.401 -0.5465 -0.0149 -0.0726
  703TMC3    C810402   0.102   0.545  10.645  0.6628  0.2008 -0.0508
  703TMC3    O110403   0.639   0.526  10.380  0.1196 -0.3563  0.4886
  703TMC3    O210404   0.040   0.470  10.722 -0.4288  0.4375  0.6447
  704TMC3    C110405   2.315   3.028  12.482 -0.4119  0.6858 -0.3593
  704TMC3    C210406   2.450   3.032  12.454  0.0641 -0.0527 -0.3671
  704TMC3    C310407   2.534   2.967  12.540  0.4957  0.1375  0.0952
  704TMC3    C410408   2.265   2.954  12.582  0.8017 -0.2052 -0.6527
  704TMC3    C510409   2.355   2.889  12.659  0.9228 -0.3480 -0.1453
  704TMC3    C610410   2.488   2.902  12.651  0.3704 -0.0200  0.0536
  704TMC3     C10411   2.227   3.034  12.365 -0.6609 -0.0007 -0.2501
  704TMC3     O10412   2.105   3.034  12.379 -0.3829  0.0985 -0.2937
  704TMC3     H10413   2.488   3.095  12.375  2.3912 -2.5714 -1.2463
  704TMC3    H110414   2.165   2.913  12.585 -0.5736  3.2591  0.5662
  704TMC3    H210415   2.546   2.825  12.701 -1.0324 -0.3393  1.1696
  704TMC3    C710416   2.326   2.752  12.674  0.3073  0.3541  1.3680
  704TMC3    C810417   2.637   2.904  12.451  0.0882 -0.9219  0.3762
  704TMC3    O110418   2.412   2.676  12.631  0.6135 -0.9004 -0.5062
  704TMC3    O210419   2.615   2.902  12.332 -0.1313 -0.1676  0.1305
  705MPD2     C10420   1.822   0.649  16.291  0.8663  0.6275 -0.3034
  705MPD2    C110421   1.858   0.772  16.250 -0.2973 -0.4927  0.1840
  705MPD2    C210422   1.770   0.880  16.270  0.0685 -0.4361  0.7856
  705MPD2    C310423   1.637   0.854  16.305  0.3532 -0.3346  0.0829
  705MPD2    C410424   1.602   0.729  16.350 -0.6551 -0.1468  0.2484
  705MPD2    C510425   1.697   0.628  16.351 -0.3207 -0.0772  1.2935
  705MPD2     H10426   1.807   0.976  16.237 -1.9506  0.0130 -0.1349
  705MPD2    H110427   1.503   0.703  16.386 -1.0815 -0.7840 -1.3620
  705MPD2    H210428   1.888   0.564  16.282  0.0294 -0.0767  0.1849
  705MPD2    H310429   1.663   0.525  16.362 -1.3139  0.0366 -0.8613
  705MPD2     N10430   1.537   0.955  16.303  0.3261  0.8671 -0.1434
  705MPD2    H510431   1.441   0.924  16.310  1.1087 -1.6957 -0.8922
  705MPD2    N110432   1.985   0.800  16.187  0.2673 -0.0565 -0.1913
  705MPD2    H710433   2.010   0.898  16.182 -2.3689  0.6680  0.7481
  706TMC3    C110434   2.336   0.782  15.914  0.0425  0.3863 -0.2540
  706TMC3    C210435   2.380   0.905  15.962  0.6023  0.8009 -0.1433
  706TMC3    C310436   2.332   0.947  16.082  0.1829 -0.4818 -0.3483
  706TMC3    C410437   2.257   0.707  15.993  0.8670 -0.1331 -0.9868
  706TMC3    C510438   2.210   0.750  16.110 -0.8413  0.0488 -0.3279
  706TMC3    C610439   2.235   0.878  16.155  0.8301 -0.4881 -0.1968
  706TMC3     C10440   2.430   0.716  15.824  0.7075  0.3115 -0.7387
  706TMC3     O10441   2.549   0.723  15.845  0.1189 -0.0207 -0.5387
  706TMC3     H10442   2.458   0.964  15.915 -0.1669  1.6064 -0.4211
  706TMC3    H110443   2.227   0.616  15.944  0.6809 -1.2411  1.1724
  706TMC3    H210444   2.202   0.919  16.249  0.1972 -1.0880 -0.1543
  706TMC3    C710445   2.077   0.703  16.147  0.1772  0.0091 -0.3439
  706TMC3    C810446   2.350   1.081  16.127  0.9182 -0.0726  0.4206
  706TMC3    O110447   2.047   0.594  16.101  0.2847 -0.0064 -0.0124
  706TMC3    O210448   2.356   1.098  16.248  0.1447 -0.6309  0.0254
  707TMC3    C110449   3.280   2.881   0.685  0.6440 -0.7194 -0.0020
  707TMC3    C210450   3.348   2.792   0.767  0.9787 -0.1684  0.1273
  707TMC3    C310451   3.279   2.729   0.870 -0.3321  0.6686 -0.0461
  707TMC3    C410452   3.153   2.929   0.711  0.2303 -0.2592  0.7458
  707TMC3    C510453   3.091   2.867   0.822 -0.3111 -0.0991 -0.0276
  707TMC3    C610454   3.150   2.767   0.895 -0.3342  0.2187  0.3276
  707TMC3     C10455   3.378   2.982   0.649  0.1653  0.6896  0.3381
  707TMC3     O10456   3.489   2.972   0.696  0.0536 -0.1748 -0.6939
  707TMC3     H10457   3.445   2.757   0.732  0.8252  0.0923 -0.5691
  707TMC3    H110458   3.113   3.006   0.645  0.0656 -0.2881  0.8116
  707TMC3    H210459   3.111   2.710   0.978 -0.8147 -0.3683 -0.2953
  707TMC3    C710460   2.943   2.872   0.816 -0.5104 -0.7419  0.1043
  707TMC3    C810461   3.358   2.683   0.978  0.0595  0.1728 -0.1134
  707TMC3    O110462   2.901   2.929   0.719 -0.0035  0.6055  0.1976
  707TMC3    O210463   3.308   2.608   1.059 -0.4821  0.1688  0.2748
  708MPD2     C10464   0.351   4.261  13.817 -0.2126 -1.0215 -0.4375
  708MPD2    C110465   0.315   4.332  13.928 -0.1832 -0.3646  0.3367
  708MPD2    C210466   0.326   4.264  14.052  0.7435 -0.0232  0.1581
  708MPD2    C310467   0.387   4.140  14.065 -0.4892  0.6050  0.5333
  708MPD2    C410468   0.432   4.081  13.948 -0.0842 -0.0642 -0.0293
  708MPD2    C510469   0.410   4.141  13.833  0.0542  0.6879 -0.4067
  708MPD2     H10470   0.312   4.327  14.139 -0.4570 -0.8906  0.5861
  708MPD2    H110471   0.484   3.986  13.939 -0.2431 -0.4944  3.4536
  708MPD2    H210472   0.336   4.317  13.725  0.0665 -1.3222 -0.6678
  708MPD2    H310473   0.455   4.092  13.748  0.1580  0.3154 -0.1397
  708MPD2     N10474   0.406   4.068  14.186  0.2818  0.1542  0.4423
  708MPD2    H510475   0.479   3.998  14.196 -2.0462 -2.1790  1.1165
  708MPD2    N110476   0.263   4.461  13.922 -0.9201 -0.3779 -0.1963
  708MPD2    H710477   0.241   4.498  13.830  1.4129  1.7309  0.0799
  709TMC3    C110478   0.137   4.647  13.992  0.6667  0.3656 -1.3032
  709TMC3    C210479   0.051   4.606  13.892 -0.1004  0.2312  0.3863
  709TMC3    C310480   4.647   4.557  13.933 -0.0594 -0.5346 -0.4413
  709TMC3    C410481   0.086   4.680  14.116  0.4274 -0.5977  0.5618
  709TMC3    C510482   4.673   4.633  14.152  0.5379 -0.1726 -0.7746
  709TMC3    C610483   4.598   4.567  14.062 -0.1190  0.4289  0.4917
  709TMC3     C10484   0.223   4.537  14.028 -0.5516  0.0555 -0.0158
  709TMC3     O10485   0.269   4.541  14.140  0.4853 -0.7991 -0.0780
  709TMC3     H10486   0.091   4.589  13.792 -2.5278 -2.3244 -0.1793
  709TMC3    H110487   0.155   0.003  14.187 -1.0304  0.2687  1.4618
  709TMC3    H210488   4.515   4.502  14.089  1.1834 -1.1949  0.5976
  709TMC3    C710489   4.677   4.596  14.291  0.5767 -0.3390 -0.1787
  709TMC3    C810490   4.579   4.462  13.839  0.0559  0.3403  0.0541
  709TMC3    O110491   0.062   4.610  14.352  0.1660  0.0092  0.1721
  709TMC3    O210492   4.515   4.373  13.896  0.1734 -0.2189  0.0762
  710TMC3    C110493   1.119   1.337   0.484 -0.1362 -0.3037 -0.1342
  710TMC3    C210494   1.204   1.325   0.371 -0.3249 -0.0335 -0.3678
  710TMC3    C310495   1.319   1.247   0.385  0.5031  0.0283  0.9778
  710TMC3    C410496   1.158   1.291   0.608  0.1401  0.0173 -0.6221
  710TMC3    C510497   1.280   1.223   0.614 -0.9470  0.1299  0.7112
  710TMC3    C610498   1.363   1.188   0.508  0.5791 -0.3875 -0.2423
  710TMC3     C10499   0.980   1.380   0.460  0.7244 -0.4177  0.3062
  710TMC3     O10500   0.932   1.382   0.348 -0.4357 -0.0370 -0.2819
  710TMC3     H10501   1.179   1.373   0.276  0.2161 -2.1385 -1.5762
  710TMC3    H110502   1.088   1.301   0.689  0.5559 -1.2235 -0.1173
  710TMC3    H210503   1.441   1.113   0.511  1.2857  0.3263 -0.7451
  710TMC3    C710504   1.296   1.146   0.737  0.5046 -0.1661 -0.3848
  710TMC3    C810505   1.403   1.223   0.276 -0.0761  0.3349  0.5470
  710TMC3    O110506   1.349   1.034   0.736 -0.0742  0.5109  0.1861
  710TMC3    O210507   1.448   1.110   0.261 -0.1616 -0.0458  0.3033
  711TMC3    C110508   0.945   1.290  15.106  0.5322  0.7995 -0.2353
  711TMC3    C210509   1.026   1.203  15.179  0.0524 -0.0853 -0.4076
  711TMC3    C310510   1.099   1.262  15.278 -0.0022  0.1218 -1.2032
  711TMC3    C410511   0.930   1.426  15.130  0.2149  0.3717 -0.2497
  711TMC3    C510512   1.008   1.482  15.231  0.6576 -0.0920 -0.3673
  711TMC3    C610513   1.084   1.397  15.301  0.9571  0.2480 -0.1603
  711TMC3     C10514   0.920   1.244  14.972  0.6534  0.2316 -0.6566
  711TMC3     O10515   0.803   1.238  14.947  0.3793 -0.4532  0.3994
  711TMC3     H10516   1.035   1.102  15.143 -2.5977 -1.3995  2.6662
  711TMC3    H110517   0.868   1.481  15.060  2.7002  1.6252 -1.4595
  711TMC3    H210518   1.142   1.447  15.377 -1.0878  0.0669  1.5015
  711TMC3    C710519   1.069   1.614  15.209 -0.1962 -0.1309  0.0791
  711TMC3    C810520   1.236   1.225  15.257  0.2490 -0.0400  0.1356
  711TMC3    O110521   1.180   1.629  15.261  0.0862 -0.7019  0.6623
  711TMC3    O210522   1.263   1.106  15.256 -0.4264 -0.2497 -0.2659
  712MPD2     C10523   2.298   2.862  13.446 -0.2477  0.3212 -0.3340
  712MPD2    C110524   2.210   2.971  13.438  0.2456 -0.8131 -0.8872
  712MPD2    C210525   2.246   3.094  13.486  0.1820  0.1530 -0.1135
  712MPD2    C310526   2.365   3.113  13.558  0.2625  0.1787 -0.1169
  712MPD2    C410527   2.454   3.002  13.566  0.7854  0.0529 -0.1685
  712MPD2    C510528   2.418   2.884  13.512 -0.3142  0.0609 -0.3813
  712MPD2     H10529   2.172   3.171  13.464  0.6681  0.2391 -1.4176
  712MPD2    H110530   2.549   3.007  13.618  0.9891 -0.8266 -0.4603
  712MPD2    H210531   2.266   2.772  13.394  1.6827 -0.1277 -0.7519
  712MPD2    H310532   2.485   2.799  13.506 -1.5144 -0.8234 -1.4613
  712MPD2     N10533   2.396   3.231  13.634 -0.0544 -0.5040 -0.0506
  712MPD2    H510534   2.491   3.239  13.667 -0.1866 -1.5505  0.5845
  712MPD2    N110535   2.080   2.947  13.389 -0.0115  0.3339 -0.2363
  712MPD2    H710536   2.022   3.023  13.354 -0.9173  0.6205  1.9091
  713TMC3    C110537   2.358   3.437  13.746 -0.7040  0.2207 -0.1654
  713TMC3    C210538   2.495   3.448  13.747  0.1796 -0.3590  0.5458
  713TMC3    C310539   2.542   3.577  13.746  0.6379  0.2792  0.3045
  713TMC3    C410540   2.270   3.540  13.747  0.0992  0.0236  0.2662
  713TMC3    C510541   2.323   3.667  13.731  0.5650  0.8441  0.2940
  713TMC3    C610542   2.454   3.685  13.734  0.2592 -0.2452 -1.4326
  713TMC3     C10543   2.305   3.331  13.656  0.4226 -0.2238 -0.0456
  713TMC3     O10544   2.205   3.354  13.591  0.2770 -0.0733 -0.0666
  713TMC3     H10545   2.560   3.361  13.747 -1.3285 -1.4871  2.2564
  713TMC3    H110546   2.162   3.523  13.747  0.0513  0.2650  1.6850
  713TMC3    H210547   2.499   3.780  13.710 -0.1548 -0.1933 -2.0053
  713TMC3    C710548   2.255   3.762  13.642  0.6422  0.1135 -0.6524
  713TMC3    C810549   2.683   3.600  13.726  0.0488 -0.4247 -0.3921
  713TMC3    O110550   2.332   3.824  13.569 -0.1332 -0.2381  0.3968
  713TMC3    O210551   2.714   3.715  13.696 -0.0128 -0.1486  0.2948
  714MPD2     C10552   3.764   1.827   1.312  0.5374 -0.1305  0.2781
  714MPD2    C110553   3.801   1.702   1.283 -0.6751 -0.3878 -0.3716
  714MPD2    C210554   3.716   1.621   1.200 -0.1775 -0.1424 -0.0056
  714MPD2    C310555   3.597   1.669   1.155 -0.0119 -0.4963 -0.4393
  714MPD2    C410556   3.556   1.792   1.193 -1.0637 -0.1890 -0.2889
  714MPD2    C510557   3.643   1.871   1.271 -0.0031  0.7512 -0.7878
  714MPD2     H10558   3.736   1.516   1.179  0.4169 -0.8596  4.0921
  714MPD2    H110559   3.465   1.842   1.160 -0.3433  1.4207  0.2032
  714MPD2    H210560   3.820   1.900   1.370  0.6358  0.1608 -0.1849
  714MPD2    H310561   3.612   1.972   1.296  0.8560  1.3727 -2.2134
  714MPD2     N10562   3.512   1.583   1.081 -0.3058 -0.4920 -0.7748
  714MPD2    H510563   3.553   1.491   1.069  2.2164  0.2229  2.4267
  714MPD2    N110564   3.918   1.645   1.347  0.1998  0.2405  0.1153
  714MPD2    H710565   3.977   1.706   1.404  0.0610 -0.1016  0.6254
  715TMC3    C110566   4.084   1.489   1.393 -0.5704 -0.6557 -0.4612
  715TMC3    C210567   4.134   1.370   1.353 -0.4086  0.1894 -0.1251
  715TMC3    C310568   4.260   1.344   1.389  0.9387  0.3335  0.0295
  715TMC3    C410569   4.146   1.574   1.480  0.5869 -0.2025 -0.9395
  715TMC3    C510570   4.274   1.541   1.515 -0.5604  0.3380  0.0357
  715TMC3    C610571   4.330   1.429   1.466  0.3098  0.2057  0.5067
  715TMC3     C10572   3.956   1.515   1.331  0.3465 -0.0584 -0.4338
  715TMC3     O10573   3.916   1.418   1.266  0.5152  0.7271 -0.0474
  715TMC3     H10574   4.081   1.289   1.304 -1.6742  0.9100  0.0598
  715TMC3    H110575   4.104   1.670   1.506  1.1650  0.1775 -1.4076
  715TMC3    H210576   4.422   1.408   1.519  1.0651  1.4082 -0.3300
  715TMC3    C710577   4.357   1.636   1.592 -0.9931  0.3180 -0.5719
  715TMC3    C810578   4.318   1.213   1.353  0.8179 -0.5076 -0.3209
  715TMC3    O110579   4.459   1.599   1.648  0.5107  0.0371  0.3865
  715TMC3    O210580   4.242   1.140   1.289  0.0426  0.2159  0.1340
  716MPD2     C10581   0.106   4.439  10.124  0.0984  0.6114  0.1020
  716MPD2    C110582   0.093   4.521  10.017  0.0299  0.3470  0.4771
  716MPD2    C210583   0.122   4.469   9.895 -0.0120 -0.0473 -0.2335
  716MPD2    C310584   0.130   4.331   9.884  0.0320  0.4017  0.6696
  716MPD2    C410585   0.138   4.242   9.984 -0.2607 -0.7415 -0.4893
  716MPD2    C510586   0.134   4.307  10.109 -0.3499 -0.0525  0.3961
  716MPD2     H10587   0.129   4.521   9.800 -1.2017  1.8637  0.7182
  716MPD2    H110588   0.155   4.135   9.980  0.2834 -0.6716 -0.0471
  716MPD2    H210589   0.098   4.484  10.222  1.6076  0.7709  0.1556
  716MPD2    H310590   0.135   4.252  10.203  0.7840  2.0532  1.6190
  716MPD2     N10591   0.127   4.295   9.750 -0.4118 -0.1343  0.2768
  716MPD2    H510592   0.118   4.367   9.679 -0.3375 -0.1448  0.2567
  716MPD2    N110593   0.064   4.656  10.045 -0.3837 -0.0814  0.2547
  716MPD2    H710594   0.052   4.682  10.142 -0.9861 -0.6979  0.3503
  717TMC3    C110595   0.102   4.156   9.556 -0.1255 -0.4448  0.0547
  717TMC3    C210596   0.000   4.239   9.503 -0.5860  0.3450  0.1655
  717TMC3    C310597   4.685   4.213   9.370  0.2360 -0.1196 -0.2489
  717TMC3    C410598   0.132   4.031   9.498  0.9222 -0.0099  0.0315
  717TMC3    C510599   0.084   4.011   9.376 -0.5143  0.3865  0.1026
  717TMC3    C610600   0.007   4.101   9.302  0.2033  0.1144 -1.0047
  717TMC3     C10601   0.147   4.170   9.700 -0.9789  0.5068  0.1624
  717TMC3     O10602   0.197   4.079   9.762 -0.0894  0.7621 -0.0818
  717TMC3     H10603   4.689   4.327   9.559 -1.0722 -0.0841  0.5727
  717TMC3    H110604   0.207   3.976   9.555  0.0185 -2.0699 -0.7550
  717TMC3    H210605   4.683   4.065   9.210 -1.7927  0.0273 -0.0333
  717TMC3    C710606   0.087   3.871   9.324 -0.1519 -0.0966 -0.4180
  717TMC3    C810607   4.558   4.277   9.347 -0.4727  0.4092  0.5595
  717TMC3    O110608   0.077   3.855   9.204  0.3823  0.2428 -0.3573
  717TMC3    O210609   4.494   4.333   9.437 -0.9052  0.1574 -0.1998
  718MPD2     C10610   3.958   3.273  12.916 -0.9695  0.6150 -0.9403
  718MPD2    C110611   3.891   3.290  12.795 -0.5955 -0.1290 -0.1617
  718MPD2    C210612   3.757   3.259  12.793  0.1541  0.5192  0.2533
  718MPD2    C310613   3.680   3.247  12.908 -0.3438  0.9055 -0.3565
  718MPD2    C410614   3.744   3.273  13.026  0.8225 -0.2815 -0.0623
  718MPD2    C510615   3.880   3.269  13.028  0.3201  0.4186  0.0230
  718MPD2     H10616   3.705   3.250  12.698  2.0250 -0.4373 -0.6649
  718MPD2    H110617   3.693   3.276  13.121 -2.5726  0.5294 -1.9226
  718MPD2    H210618   4.066   3.282  12.928 -1.0563  2.0345 -1.1607
  718MPD2    H310619   3.915   3.267  13.131  0.6493  1.6709 -0.0727
  718MPD2     N10620   3.544   3.223  12.892  0.6151 -0.1279  0.2222
  718MPD2    H510621   3.509   3.225  12.797  0.6800  0.6259  0.2171
  718MPD2    N110622   3.968   3.312  12.670 -0.3171 -0.1796  0.1660
  718MPD2    H710623   4.069   3.299  12.668 -0.3632 -0.2394 -1.9062
  719TMC3    C110624   3.998   3.331  12.422 -0.4632 -0.3934 -0.2012
  719TMC3    C210625   3.902   3.344  12.316  0.4634 -0.1786  0.1484
  719TMC3    C310626   3.903   3.452  12.226 -0.0071  0.8093  0.1658
  719TMC3    C410627   4.109   3.411  12.422 -0.3598 -0.5550  0.7794
  719TMC3    C510628   4.101   3.526  12.337  0.5377  0.0201  0.1185
  719TMC3    C610629   3.993   3.553  12.247  0.2379  0.0280  0.1928
  719TMC3     C10630   3.913   3.325  12.544  0.3099  0.2540 -0.0068
  719TMC3     O10631   3.799   3.352  12.521 -0.5780  0.6112 -0.2915
  719TMC3     H10632   3.828   3.266  12.301 -1.5139  1.7104 -0.0430
  719TMC3    H110633   4.162   3.431  12.515 -0.1095  1.3354  0.2288
  719TMC3    H210634   3.985   3.638  12.180 -0.6384 -0.5349 -0.4165
  719TMC3    C710635   4.196   3.627  12.357  0.4977  0.8348 -0.3539
  719TMC3    C810636   3.777   3.507  12.196  0.4724  0.2772 -0.0491
  719TMC3    O110637   4.297   3.584  12.419 -0.4128  0.1943 -0.4417
  719TMC3    O210638   3.762   3.581  12.097  0.1785 -0.5775  0.1049
  720MPD2     C10639   2.186   0.168  13.659  0.5012  1.2266 -0.4296
  720MPD2    C110640   2.285   0.162  13.572  0.4649  0.2892 -1.1380
  720MPD2    C210641   2.411   0.110  13.603 -0.0707 -0.3928 -0.5800
  720MPD2    C310642   2.429   0.045  13.727 -0.0996  0.4999  0.4990
  720MPD2    C410643   2.328   0.065  13.824  0.5227  0.7498 -0.3650
  720MPD2    C510644   2.211   0.122  13.781 -0.0788 -0.1800 -0.5350
  720MPD2     H10645   2.483   0.118  13.522  2.4696  1.0600  1.8384
  720MPD2    H110646   2.341   0.041  13.928 -3.1430 -1.0110 -0.3223
  720MPD2    H210647   2.085   0.200  13.633  0.4090 -0.0283 -1.6164
  720MPD2    H310648   2.126   0.126  13.849 -0.7149  1.5600 -1.4414
  720MPD2     N10649   2.542   4.681  13.755  0.5018 -0.2952  0.5577
  720MPD2    H510650   2.607   4.657  13.681  0.6134 -0.1237  0.6013
  720MPD2    N110651   2.282   0.223  13.441 -0.5505 -0.0205 -1.0890
  720MPD2    H710652   2.368   0.233  13.387 -0.6037  0.2628 -1.1198
  721TMC3    C110653   2.661   4.511  13.849  0.4044 -0.0236  0.1829
  721TMC3    C210654   2.641   4.398  13.924 -0.1419  0.2943 -0.2961
  721TMC3    C310655   2.731   4.360  14.018 -0.5432  0.0761  0.1600
  721TMC3    C410656   2.773   4.591  13.882  0.3455 -0.4888  0.7263
  721TMC3    C510657   2.861   4.554  13.976  0.5608  0.5444 -0.0953
  721TMC3    C610658   2.839   4.439  14.048 -0.2883  0.1118  0.3673
  721TMC3     C10659   2.549   4.597  13.862 -0.0389  0.9496 -0.2320
  721TMC3     O10660   2.465   4.569  13.944 -0.1822  0.2043  0.0849
  721TMC3     H10661   2.548   4.343  13.923  0.0443 -0.0311  1.1052
  721TMC3    H110662   2.790   4.685  13.831  0.1997  0.4729  2.4584
  721TMC3    H210663   2.914   4.385  14.106 -0.2690  2.2023  2.3065
  721TMC3    C710664   2.983   4.636  13.990 -0.6035  0.6491  0.0468
  721TMC3    C810665   2.653   4.327  14.135  0.0901  0.1468 -0.0101
  721TMC3    O110666   3.005   0.008  13.911 -0.8034 -0.1743  0.1780
  721TMC3    O210667   2.568   4.238  14.140  0.4350 -0.5622  0.7910
  722MPD2     C10668   1.045   3.186  13.480 -0.0115 -0.0438 -0.2787
  722MPD2    C110669   1.014   3.321  13.461  0.5364  0.2448 -0.2268
  722MPD2    C210670   0.893   3.358  13.403 -0.1730  0.7491 -0.5570
  722MPD2    C310671   0.808   3.264  13.348  0.0486 -0.1638 -0.5825
  722MPD2    C410672   0.833   3.128  13.367  0.1561  0.0482 -0.3173
  722MPD2    C510673   0.942   3.094  13.442  0.1747  0.5826  0.2315
  722MPD2     H10674   0.871   3.463  13.390  2.2015  1.3124  0.0252
  722MPD2    H110675   0.774   3.050  13.320 -1.8729  2.6238 -2.0145
  722MPD2    H210676   1.130   3.151  13.538 -0.8877 -0.9652  0.4407
  722MPD2    H310677   0.962   2.988  13.455  0.9721  0.5969 -0.8094
  722MPD2     N10678   0.719   3.309  13.256 -0.4505 -0.0087 -0.0364
  722MPD2    H510679   0.712   3.411  13.252 -3.1785 -0.1460  1.4959
  722MPD2    N110680   1.082   3.429  13.509  0.0825  0.1510  0.1586
  722MPD2    H710681   1.031   3.517  13.516 -0.4315 -0.2429  1.4316
  723TMC3    C110682   0.570   3.322  13.071  0.3783 -0.3208 -0.2873
  723TMC3    C210683   0.471   3.265  12.996  0.6271  0.2229  0.4162
  723TMC3    C310684   0.391   3.350  12.923 -0.8377  0.0659  0.2054
  723TMC3    C410685   0.584   3.461  13.083 -0.2289 -1.5938  0.4717
  723TMC3    C510686   0.491   3.538  13.012 -0.1084  0.4994  0.1558
  723TMC3    C610687   0.397   3.482  12.932 -0.1384 -0.1414 -0.4311
  723TMC3     C10688   0.638   3.234  13.172  0.3547  1.1697  0.1238
  723TMC3     O10689   0.627   3.114  13.153  0.2255 -0.0538  0.2134
  723TMC3     H10690   0.452   3.158  12.991  0.9292  0.2072 -0.4337
  723TMC3    H110691   0.667   3.504  13.138 -2.1403  1.6662  0.7947
  723TMC3    H210692   0.330   3.547  12.876 -0.3788  1.2529  1.4822
  723TMC3    C710693   0.539   3.676  12.987 -0.1243 -0.6292  0.3180
  723TMC3    C810694   0.301   3.298  12.818 -0.6639  0.2067  0.5292
  723TMC3    O110695   0.656   3.703  13.016  0.4374  0.6337 -0.2940
  723TMC3    O210696   0.203   3.369  12.794 -0.4699 -0.0796 -0.2452
  724TMC3    C110697   1.968   1.689   9.818  1.1194 -0.7220  0.3309
  724TMC3    C210698   1.879   1.663   9.715  0.2506  0.3904 -0.7658
  724TMC3    C310699   1.844   1.763   9.628  0.8730 -0.2372 -0.2468
  724TMC3    C410700   2.015   1.815   9.835  0.8381  0.4224  0.6469
  724TMC3    C510701   1.976   1.909   9.739  0.5564  0.6626 -0.3979
  724TMC3    C610702   1.887   1.890   9.638  0.1661  0.6846 -0.4983
  724TMC3     C10703   1.956   1.604   9.936  0.3129  0.2425 -0.5514
  724TMC3     O10704   2.032   1.624  10.029  0.0511  0.1241 -0.8535
  724TMC3     H10705   1.854   1.566   9.674 -0.5290  0.5786 -0.7378
  724TMC3    H110706   2.087   1.829   9.915  1.4260  0.8468  0.0356
  724TMC3    H210707   1.845   1.978   9.590 -3.2642 -0.6167  0.1010
  724TMC3    C710708   2.043   2.034   9.728  0.8900 -0.4230 -0.3980
  724TMC3    C810709   1.736   1.737   9.534 -1.0895  0.3834 -0.5505
  724TMC3    O110710   2.043   2.085   9.616  0.3118 -0.2226 -0.3263
  724TMC3    O210711   1.659   1.641   9.543 -0.2146  0.4422  0.0282
  725TMC3    C110712   2.752   0.483  12.581  0.3108  0.0037  0.6735
  725TMC3    C210713   2.669   0.542  12.490  0.6718 -0.0827 -0.2149
  725TMC3    C310714   2.615   0.467  12.394  0.0529 -0.2084  0.0925
  725TMC3    C410715   2.790   0.346  12.568 -0.0412 -0.0002 -0.7133
  725TMC3    C510716   2.734   0.269  12.468  0.0464  0.4737 -0.2890
  725TMC3    C610717   2.652   0.331  12.379 -0.4367  0.3531  0.5208
  725TMC3     C10718   2.855   0.580  12.629  0.3059 -0.3342 -0.6761
  725TMC3     O10719   2.861   0.679  12.552 -0.4869 -0.3721  0.1246
  725TMC3     H10720   2.635   0.643  12.507 -0.1265 -0.6428  1.5196
  725TMC3    H110721   2.876   0.312  12.624 -0.1358 -0.1763 -0.6720
  725TMC3    H210722   2.599   0.278  12.301  0.0036  2.6773 -1.3536
  725TMC3    C710723   2.783   0.136  12.442  0.5608 -0.6469  0.0389
  725TMC3    C810724   2.517   0.534  12.317 -0.3623 -0.4615  0.1270
  725TMC3    O110725   2.706   0.066  12.375  0.7001 -0.3789  0.4519
  725TMC3    O210726   2.439   0.468  12.253 -0.1900 -0.3667  0.1097
  726MPD2     C10727   1.154   1.601  10.267  0.0771  0.0613  0.0223
  726MPD2    C110728   1.180   1.726  10.317  0.1126 -0.5553  0.2457
  726MPD2    C210729   1.145   1.759  10.443  0.3489  0.0056  0.6408
  726MPD2    C310730   1.086   1.667  10.522 -0.1771  0.9915  0.1456
  726MPD2    C410731   1.048   1.542  10.470  0.8605 -0.3777  0.1662
  726MPD2    C510732   1.078   1.516  10.342  0.2086  0.2258  0.1312
  726MPD2     H10733   1.149   1.866  10.463 -0.1621 -0.1722  1.7123
  726MPD2    H110734   0.992   1.470  10.528 -1.7558 -1.2247 -3.4376
  726MPD2    H210735   1.183   1.567  10.168  2.5816  1.3155  0.3261
  726MPD2    H310736   1.056   1.417  10.302  2.0655  0.1834 -0.8299
  726MPD2     N10737   1.052   1.702  10.657  0.4788 -0.5717 -0.2742
  726MPD2    H510738   1.007   1.625  10.705 -2.0152  1.3075  0.4176
  726MPD2    N110739   1.234   1.830  10.227 -0.7568 -0.2861 -0.1237
  726MPD2    H710740   1.265   1.913  10.276  1.6184 -1.6492  0.7366
  727TMC3    C110741   1.271   1.954  10.034  0.4354 -0.6763  0.3389
  727TMC3    C210742   1.359   2.037  10.093 -0.0902  0.9983  0.3621
  727TMC3    C310743   1.376   2.159  10.036  0.5728  0.2480  0.3453
  727TMC3    C410744   1.216   1.978   9.919 -0.0620 -0.5211  0.4301
  727TMC3    C510745   1.247   2.093   9.859 -0.3373 -0.5572  0.8926
  727TMC3    C610746   1.320   2.184   9.918  0.1281  0.5481 -0.3004
  727TMC3     C10747   1.243   1.823  10.090  0.1905 -0.5144  0.5198
  727TMC3     O10748   1.204   1.733  10.014  0.4855 -0.3069 -0.1080
  727TMC3     H10749   1.429   1.998  10.166  0.5892  1.5596  0.0031
  727TMC3    H110750   1.140   1.908   9.886 -0.4052 -0.4373  1.0384
  727TMC3    H210751   1.363   2.274   9.874  0.8343 -0.1552 -1.0773
  727TMC3    C710752   1.152   2.130   9.752  0.3581  0.1918 -0.0409
  727TMC3    C810753   1.486   2.248  10.080 -0.0667 -0.9117 -1.3665
  727TMC3    O110754   1.084   2.038   9.708  0.1026  0.2210  0.0010
  727TMC3    O210755   1.488   2.363  10.030 -0.3261 -0.0692 -0.5020
  728TMC3    C110756   0.278   0.564  15.314 -0.1163  0.5490  0.3622
  728TMC3    C210757   0.382   0.599  15.397  0.1189  0.6572 -0.1075
  728TMC3    C310758   0.509   0.619  15.349 -0.0040 -0.9929  0.2386
  728TMC3    C410759   0.284   0.552  15.175 -0.1893 -0.3425  0.1680
  728TMC3    C510760   0.413   0.586  15.123  0.1173  0.1843 -0.1965
  728TMC3    C610761   0.519   0.610  15.207  0.3698  0.7148 -0.4238
  728TMC3     C10762   0.161   0.505  15.372  0.4291 -0.4284 -0.6287
  728TMC3     O10763   0.114   0.402  15.330  0.4492  0.7641 -0.1383
  728TMC3     H10764   0.378   0.579  15.503 -0.1173  0.3919 -0.1681
  728TMC3    H110765   0.192   0.528  15.122  0.6486  1.0088 -1.9246
  728TMC3    H210766   0.610   0.611  15.148  0.9239  1.9764  0.4465
  728TMC3    C710767   0.411   0.653  14.993  1.0915 -0.3761 -0.2825
  728TMC3    C810768   0.626   0.560  15.425 -0.3759  0.5467 -0.0818
  728TMC3    O110769   0.511   0.714  14.962 -0.3650 -0.0063 -0.3057
  728TMC3    O210770   0.674   0.454  15.382 -0.1283 -0.1213  0.2350
  729MPD2     C10771   2.426   1.572  16.845 -0.1337 -0.0183  0.0952
  729MPD2    C110772   2.563   1.553  16.841  0.1002  0.3144 -0.1631
  729MPD2    C210773   2.622   1.534  16.966 -0.0912 -0.2149  0.0470
  729MPD2    C310774   2.551   1.538  17.083 -0.2716  0.1722  0.4339
  729MPD2    C410775   2.418   1.561  17.079  0.0509 -0.7629 -0.0378
  729MPD2    C510776   2.351   1.573  16.961 -0.1694 -0.4762 -0.0488
  729MPD2     H10777   2.730   1.544  16.973 -0.2755 -0.6202  3.3173
  729MPD2    H110778   2.362   1.557  17.172  1.1745 -1.0359  0.6296
  729MPD2    H210779   2.361   1.581  16.759 -0.0780  1.3620  0.2048
  729MPD2    H310780   2.244   1.584  16.955 -0.2148 -0.3816  0.9747
  729MPD2     N10781   2.605   1.528  17.215  0.0073 -0.0523 -0.4805
  729MPD2    H510782   2.539   1.537  17.292 -1.8396  2.5777 -2.3468
  729MPD2    N110783   2.635   1.560  16.721  0.7554 -0.2798 -0.3068
  729MPD2    H710784   2.595   1.600  16.637  1.1999  0.3124 -0.2397
  730TMC3    C110785   2.751   1.533  17.394  0.3495 -0.3975 -0.4082
  730TMC3    C210786   2.877   1.503  17.436 -0.1591 -0.4482  0.2444
  730TMC3    C310787   2.951   1.588  17.514  0.9429  0.0190  0.2041
  730TMC3    C410788   2.701   1.656  17.435 -0.4898  0.0426  0.5479
  730TMC3    C510789   2.774   1.737  17.526  0.1066 -0.0306 -0.5163
  730TMC3    C610790   2.900   1.707  17.568 -0.1402  0.6294  0.4893
  730TMC3     C10791   2.732   1.500  17.251  0.0726 -0.0250  0.3737
  730TMC3     O10792   2.829   1.466  17.189  0.2953  0.0463  0.3129
  730TMC3     H10793   2.922   1.410  17.402 -0.7713  0.6417 -3.5991
  730TMC3    H110794   2.596   1.676  17.421 -0.4202 -0.7878 -1.1754
  730TMC3    H210795   2.968   1.777  17.615 -0.4162  0.3733  1.2655
  730TMC3    C710796   2.743   1.868  17.493 -0.0101  0.7298  0.5522
  730TMC3    C810797   3.076   1.609  17.450  0.4523  0.0366  0.5152
  730TMC3    O110798   2.708   1.879  17.376  0.5818  0.1750 -0.2847
  730TMC3    O210799   3.116   1.727  17.444  0.0098  0.3840 -0.0447
  731MPD2     C10800   2.019   0.045  11.643 -0.5887  0.6234 -0.8227
  731MPD2    C110801   2.092   4.642  11.621 -0.6356  0.1121 -0.2096
  731MPD2    C210802   2.126   4.575  11.735 -0.2733 -0.2143 -0.4057
  731MPD2    C310803   2.092   4.608  11.867 -0.8411 -0.2070 -0.1948
  731MPD2    C410804   2.029   0.007  11.889  0.1752  0.0934 -0.2590
  731MPD2    C510805   2.001   0.081  11.776 -1.1403 -0.1484  0.2052
  731MPD2     H10806   2.175   4.480  11.724 -0.5307 -0.3786 -0.1468
  731MPD2    H110807   2.002   0.048  11.986 -0.1913 -2.0768  0.5585
  731MPD2    H210808   1.983   0.110  11.564 -0.0299  1.2672 -0.5446
  731MPD2    H310809   1.942   0.172  11.782  0.3105  0.9331 -1.9262
  731MPD2     N10810   2.131   4.513  11.969  0.5976  0.0137 -0.3898
  731MPD2    H510811   2.171   4.424  11.941 -0.7755 -0.6192 -0.3249
  731MPD2    N110812   2.106   4.585  11.491  0.9328 -0.3513  0.4242
  731MPD2    H710813   2.059   4.632  11.414  2.3704  1.2281  0.5340
  732TMC3    C110814   2.151   4.430  11.324  0.0978  0.9948 -0.1255
  732TMC3    C210815   2.027   4.387  11.312 -0.8019  0.8063  0.0472
  732TMC3    C310816   1.999   4.279  11.234 -0.4804  0.6440 -0.1956
  732TMC3    C410817   2.253   4.353  11.286 -0.3342 -0.0320  0.0794
  732TMC3    C510818   2.231   4.237  11.206 -0.0286  0.8408 -0.7264
  732TMC3    C610819   2.102   4.203  11.179  0.2349  0.7303  0.1118
  732TMC3     C10820   2.183   4.478  11.456  0.8333  0.4931 -0.2873
  732TMC3     O10821   2.234   4.394  11.530 -0.3178  0.7513  0.5097
  732TMC3     H10822   1.945   4.437  11.362  0.5272  0.4200  2.5773
  732TMC3    H110823   2.352   4.397  11.296 -0.2878 -0.1722  0.2247
  732TMC3    H210824   2.082   4.118  11.114 -0.5314 -1.2839  2.9954
  732TMC3    C710825   2.321   4.129  11.238  0.4379  0.0735 -0.1739
  732TMC3    C810826   1.873   4.215  11.217 -0.0438  0.7077  0.5498
  732TMC3    O110827   2.304   4.024  11.178 -0.0901  0.2500  0.3394
  732TMC3    O210828   1.834   4.174  11.110 -0.5467  0.1856  0.2566
  733TMC3    C110829   3.096   3.325  12.963  0.5911 -0.4352  0.5082
  733TMC3    C210830   3.211   3.277  13.013  0.0057  0.1292 -0.0265
  733TMC3    C310831   3.331   3.295  12.947 -0.6749  0.1827  0.4123
  733TMC3    C410832   3.097   3.403  12.847 -0.5224 -0.4612  0.1308
  733TMC3    C510833   3.212   3.426  12.786  0.0449  0.1945 -0.3782
  733TMC3    C610834   3.338   3.384  12.837 -0.4960 -0.1293 -0.4643
  733TMC3     C10835   2.983   3.317  13.040  0.1290  0.1095 -0.3212
  733TMC3     O10836   3.002   3.251  13.145 -0.2747 -0.7220  0.5112
  733TMC3     H10837   3.210   3.218  13.104  2.2264  1.1627  0.6642
  733TMC3    H110838   3.008   3.441  12.799  0.9662  0.2762 -2.0375
  733TMC3    H210839   3.427   3.424  12.789  0.6936 -0.7903  1.1857
  733TMC3    C710840   3.210   3.504  12.663 -0.6496  0.2605 -0.4001
  733TMC3    C810841   3.449   3.239  12.992 -0.1430  0.3014  0.6279
  733TMC3    O110842   3.104   3.554  12.625  0.8337 -0.2826 -0.3456
  733TMC3    O210843   3.464   3.245  13.109  0.5911 -0.5832 -0.6321
  734MPD2     C10844   1.142   1.195  11.794  0.3128 -0.2733  0.1098
  734MPD2    C110845   1.085   1.098  11.719 -0.1657 -0.8469 -0.4236
  734MPD2    C210846   1.124   1.102  11.588  0.7576 -0.7120 -0.0567
  734MPD2    C310847   1.211   1.191  11.534  0.2922  0.0738  0.0940
  734MPD2    C410848   1.265   1.286  11.616  0.1042  0.2916  0.0290
  734MPD2    C510849   1.227   1.290  11.745  0.6887 -0.4624  0.3325
  734MPD2     H10850   1.082   1.037  11.512  3.7765 -2.9403  0.2130
  734MPD2    H110851   1.334   1.356  11.571 -1.4471  0.0845 -2.6472
  734MPD2    H210852   1.110   1.206  11.898 -0.9434 -0.1617 -0.2811
  734MPD2    H310853   1.252   1.373  11.811  1.7135 -0.1612 -0.4488
  734MPD2     N10854   1.243   1.176  11.403 -0.5290 -0.2146  0.8571
  734MPD2    H510855   1.193   1.097  11.364 -1.5699  0.5225  0.7015
  734MPD2    N110856   1.003   0.997  11.777 -0.6919 -0.5272  0.1937
  734MPD2    H710857   0.984   1.006  11.876  3.9498 -0.4066  1.0970
  735TMC3    C110858   0.869   0.796  11.778  0.5618  0.6060 -0.5032
  735TMC3    C210859   0.794   0.725  11.685 -0.0488 -0.5139  0.1127
  735TMC3    C310860   0.796   0.591  11.693 -0.0724  0.0497 -0.4073
  735TMC3    C410861   0.928   0.725  11.882  0.1071  0.2173  0.0808
  735TMC3    C510862   0.916   0.589  11.885  1.0433  0.8146  0.3885
  735TMC3    C610863   0.846   0.519  11.795  0.3696 -0.1466 -0.2912
  735TMC3     C10864   0.949   0.891  11.708 -0.1597 -0.2990  0.1467
  735TMC3     O10865   0.969   0.850  11.596 -0.0626 -0.1243  0.0081
  735TMC3     H10866   0.756   0.781  11.601 -1.4073  1.1808  1.8475
  735TMC3    H110867   1.007   0.771  11.940 -0.4779  2.0898 -0.5849
  735TMC3    H210868   0.848   0.411  11.795 -1.4135 -0.1963 -3.5791
  735TMC3    C710869   1.001   0.524  11.981  0.7888  0.0266 -0.0521
  735TMC3    C810870   0.810   0.518  11.565  0.3093 -0.1685  0.1642
  735TMC3    O110871   1.110   0.570  12.009  0.0958 -0.1874  0.0171
  735TMC3    O210872   0.814   0.392  11.555  0.6584  0.0376 -0.0793
  736MPD2     C10873   0.959   0.227  12.189  0.2873  0.9675  0.6214
  736MPD2    C110874   1.018   0.323  12.106  0.9773  0.1317  0.0676
  736MPD2    C210875   1.154   0.303  12.082 -0.1522  0.3274  0.7934
  736MPD2    C310876   1.227   0.208  12.146 -0.6139  0.5248 -0.4774
  736MPD2    C410877   1.167   0.123  12.232  0.4766  0.4453 -0.0405
  736MPD2    C510878   1.032   0.134  12.255  0.2218 -0.4346 -0.1488
  736MPD2     H10879   1.193   0.355  11.995 -0.4323  1.7790  1.5319
  736MPD2    H110880   1.221   0.038  12.273 -0.7688 -0.2130  0.2309
  736MPD2    H210881   0.852   0.214  12.193  0.2938  1.0969  1.2432
  736MPD2    H310882   0.982   0.062  12.318 -0.8266  0.8537  0.5068
  736MPD2     N10883   1.358   0.166  12.093 -0.1605 -0.4624 -0.0003
  736MPD2    H510884   1.405   0.092  12.142  1.6533  0.5177 -0.2772
  736MPD2    N110885   0.938   0.417  12.037  0.3047  0.3834  0.0467
  736MPD2    H710886   0.837   0.408  12.034  0.2818  0.6128  0.1045
  737TMC3    C110887   1.536   0.157  11.936 -0.6643  0.2823  0.1089
  737TMC3    C210888   1.598   0.229  11.840 -0.7353  0.1882 -0.4925
  737TMC3    C310889   1.646   0.157  11.732 -0.4404  0.9146 -0.4565
  737TMC3    C410890   1.508   0.023  11.912 -0.2333  0.0463  0.7410
  737TMC3    C510891   1.563   4.675  11.804 -0.2390 -0.7190  0.6038
  737TMC3    C610892   1.635   0.019  11.707 -0.2303 -0.0584  0.1534
  737TMC3     C10893   1.420   0.231  11.988 -0.0099 -0.2052  0.7848
  737TMC3     O10894   1.397   0.335  11.932 -0.2186 -0.1946 -0.1141
  737TMC3     H10895   1.612   0.336  11.851  0.8634  0.2294 -2.9627
  737TMC3    H110896   1.448   4.691  11.986 -1.5388  2.3583  1.2805
  737TMC3    H210897   1.695   4.692  11.630 -3.3164 -0.1540 -2.1834
  737TMC3    C710898   1.493   4.556  11.770  0.6160  1.0379 -0.0877
  737TMC3    C810899   1.713   0.241  11.639  0.2724 -0.2276 -0.8618
  737TMC3    O110900   1.414   4.501  11.850 -0.2492 -0.2240 -0.2015
  737TMC3    O210901   1.751   0.348  11.682  0.1272  0.0697  0.2366
  738MPD2     C10902   1.142   3.696  15.049 -0.5530  0.0987 -0.3514
  738MPD2    C110903   1.245   3.678  15.141 -0.2640 -0.4320  0.1634
  738MPD2    C210904   1.340   3.777  15.154 -0.2991  0.0353  0.6717
  738MPD2    C310905   1.340   3.890  15.076  0.0238 -0.1950  0.2070
  738MPD2    C410906   1.239   3.899  14.982 -0.6349 -1.1832  0.0418
  738MPD2    C510907   1.145   3.805  14.964  0.0163 -0.3204 -0.6922
  738MPD2     H10908   1.422   3.769  15.225  0.3722  2.7629  0.2056
  738MPD2    H110909   1.237   3.984  14.916  1.6997 -1.0760  0.1121
  738MPD2    H210910   1.065   3.622  15.033  0.3877 -1.2809  1.5680
  738MPD2    H310911   1.070   3.822  14.888 -1.4380  0.6415  0.9649
  738MPD2     N10912   1.428   3.996  15.084  0.3373  1.0415  0.0969
  738MPD2    H510913   1.421   4.067  15.011  1.3780  1.3169  0.2681
  738MPD2    N110914   1.258   3.563  15.221  0.0048 -0.2679  0.0623
  738MPD2    H710915   1.346   3.558  15.270 -0.1967 -2.0678  0.2454
  739TMC3    C110916   1.604   4.130  15.166 -0.5037 -0.3741 -0.1589
  739TMC3    C210917   1.639   4.154  15.036 -0.6243  0.1696 -0.0478
  739TMC3    C310918   1.735   4.248  15.025  0.1490 -0.3168 -0.0922
  739TMC3    C410919   1.635   4.213  15.270 -0.2097  0.1785 -0.3591
  739TMC3    C510920   1.727   4.314  15.246 -0.6234  0.8163 -0.1111
  739TMC3    C610921   1.780   4.332  15.128 -0.6083  0.2941 -0.7725
  739TMC3     C10922   1.515   4.023  15.192  0.0705  0.9364  0.0601
  739TMC3     O10923   1.534   3.965  15.300  0.1538  0.1684  0.2851
  739TMC3     H10924   1.617   4.083  14.957  0.7468 -2.4190  1.8772
  739TMC3    H110925   1.591   4.197  15.368  0.5311 -0.6203 -0.1609
  739TMC3    H210926   1.860   4.405  15.123  0.8288 -1.2508 -0.2582
  739TMC3    C710927   1.728   4.414  15.348 -0.1667  0.6549 -0.1670
  739TMC3    C810928   1.770   4.282  14.892 -0.0812  0.7186  0.8134
  739TMC3    O110929   1.641   4.410  15.436  0.2888 -0.1707  0.5001
  739TMC3    O210930   1.681   4.249  14.816 -0.2056  0.6020 -0.3047
  740TMC3    C110931   2.352   0.401  14.450 -0.4820 -0.0855 -0.1770
  740TMC3    C210932   2.422   0.352  14.559  0.0532 -0.0651 -0.2298
  740TMC3    C310933   2.543   0.287  14.535 -0.1304 -0.3284 -0.2063
  740TMC3    C410934   2.415   0.400  14.323  0.2120  0.2341  0.6661
  740TMC3    C510935   2.531   0.334  14.303 -0.6677  0.2613  0.7959
  740TMC3    C610936   2.598   0.279  14.411  0.4554  0.3473 -0.0574
  740TMC3     C10937   2.207   0.437  14.458  0.3072  1.0810 -0.3275
  740TMC3     O10938   2.150   0.498  14.366  0.1821 -0.2888  0.1769
  740TMC3     H10939   2.385   0.377  14.658  0.7151 -1.3637  0.3486
  740TMC3    H110940   2.356   0.442  14.243  0.4997 -3.1978 -1.3343
  740TMC3    H210941   2.691   0.225  14.397  0.1791 -0.4964  1.3624
  740TMC3    C710942   2.584   0.285  14.180 -0.0194  0.6801  0.7225
  740TMC3    C810943   2.635   0.261  14.641  0.8838 -0.1475 -0.1624
  740TMC3    O110944   2.625   0.171  14.188 -0.7962 -0.6300 -0.1677
  740TMC3    O210945   2.752   0.246  14.612 -0.2168 -0.1439 -0.3279
  741TMC3    C110946   1.603   4.649  14.677  0.4792  1.0240  0.5730
  741TMC3    C210947   1.530   4.539  14.630  0.3407  0.9319  0.3789
  741TMC3    C310948   1.587   4.468  14.529  0.4476  0.5287  0.8118
  741TMC3    C410949   1.706   4.693  14.606 -0.7460 -0.4454  0.0993
  741TMC3    C510950   1.766   4.616  14.507 -0.4103 -0.1225 -0.5225
  741TMC3    C610951   1.696   4.507  14.457  0.3742 -0.7244 -0.0735
  741TMC3     C10952   1.520   0.024  14.749  0.4821  0.0473  0.1614
  741TMC3     O10953   1.443   4.705  14.836  0.1760 -0.5730 -0.9406
  741TMC3     H10954   1.432   4.527  14.673  1.9496 -1.8359  3.3533
  741TMC3    H110955   1.744   0.074  14.622  0.2361 -0.6943 -0.6892
  741TMC3    H210956   1.732   4.442  14.378  2.9235 -0.2951  0.7367
  741TMC3    C710957   1.889   4.649  14.443  0.1447  0.1151 -0.1667
  741TMC3    C810958   1.515   4.355  14.482  0.0333 -0.1366 -0.3306
  741TMC3    O110959   1.901   4.598  14.332 -0.3133 -0.2870  0.6024
  741TMC3    O210960   1.500   4.356  14.361 -0.0583 -0.5873  0.1570
  742TMC3    C110961   1.507   2.781  15.324  0.4502  0.9289 -0.1557
  742TMC3    C210962   1.437   2.746  15.206  0.6130 -0.6601  0.1129
  742TMC3    C310963   1.505   2.714  15.093 -0.3524  0.0567 -0.7652
  742TMC3    C410964   1.645   2.763  15.326 -0.1429  0.1978 -0.1901
  742TMC3    C510965   1.704   2.740  15.207  0.1156 -0.0777 -0.0506
  742TMC3    C610966   1.637   2.722  15.087 -0.1573 -0.0036 -0.0380
  742TMC3     C10967   1.437   2.800  15.449  0.2486  0.1878  0.0216
  742TMC3     O10968   1.316   2.786  15.455 -0.1741 -0.6509  0.0491
  742TMC3     H10969   1.329   2.756  15.200  0.8052  0.5609 -1.2138
  742TMC3    H110970   1.697   2.768  15.421  1.5113  1.7032 -1.1611
  742TMC3    H210971   1.688   2.708  14.993 -2.1650 -0.9110 -0.9747
  742TMC3    C710972   1.849   2.733  15.192  0.0045 -0.0976  0.4325
  742TMC3    C810973   1.431   2.681  14.976 -0.2851 -0.1301  0.2830
  742TMC3    O110974   1.894   2.674  15.095 -0.1567 -0.2696 -0.4953
  742TMC3    O210975   1.494   2.615  14.893  0.3997  0.3473  0.5297
  743MPD2     C10976   4.403   2.961   1.534 -0.4681  0.2718 -0.0486
  743MPD2    C110977   4.394   3.057   1.435  0.3060  0.2618 -0.0057
  743MPD2    C210978   4.459   3.174   1.465  0.7753 -0.5604  0.3631
  743MPD2    C310979   4.540   3.196   1.581  0.5124 -0.6403  0.1317
  743MPD2    C410980   4.540   3.104   1.676 -0.2701 -0.6438  0.3320
  743MPD2    C510981   4.477   2.981   1.649  0.1065  0.3018 -0.0599
  743MPD2     H10982   4.460   3.255   1.393 -0.1469  0.3540  1.3806
  743MPD2    H110983   4.572   3.110   1.779 -3.3287 -1.2809  1.3135
  743MPD2    H210984   4.355   2.865   1.523  0.1711 -0.3854  2.7282
  743MPD2    H310985   4.479   2.916   1.735  0.1435 -0.3020 -0.5205
  743MPD2     N10986   4.610   3.327   1.584 -0.0751  0.4921 -0.4490
  743MPD2    H510987   4.611   3.392   1.506 -0.6407  2.1335  0.9016
  743MPD2    N110988   4.326   3.032   1.310 -0.1565 -0.1306 -0.1636
  743MPD2    H710989   4.280   2.942   1.297 -0.8544  0.0517  0.9951
  744TMC3    C110990   4.268   3.064   1.086 -0.3506  0.9203 -0.4751
  744TMC3    C210991   4.147   2.999   1.098 -0.5750 -0.4518 -0.7227
  744TMC3    C310992   4.079   2.983   0.981 -0.2352 -0.5242 -0.0251
  744TMC3    C410993   4.314   3.103   0.960  0.2986 -0.1063 -1.2525
  744TMC3    C510994   4.251   3.077   0.849 -1.2067  0.3464  0.2481
  744TMC3    C610995   4.131   3.021   0.858  0.4294 -0.2301 -0.6715
  744TMC3     C10996   4.344   3.112   1.201  0.1879  0.8212 -0.2115
  744TMC3     O10997   4.411   3.207   1.173 -0.2415  0.1577 -0.6029
  744TMC3     H10998   4.103   2.982   1.196  0.4239 -0.2709 -0.2341
  744TMC3    H110999   4.415   3.141   0.947 -0.1449  1.5986  0.3296
  744TMC3    H211000   4.058   3.034   0.779  0.2751  2.1161 -0.1563
  744TMC3    C711001   4.262   3.194   0.764 -0.5109  0.6510  0.2857
  744TMC3    C811002   3.951   2.910   0.978  0.1859  0.5660 -0.0277
  744TMC3    O111003   4.311   3.293   0.817  0.0973  0.5318  0.6057
  744TMC3    O211004   3.900   2.912   0.862  0.3493  0.0338  0.2028
  745TMC3    C111005   1.865   2.858  13.386  1.0930  0.4141  0.0154
  745TMC3    C211006   1.783   2.814  13.485  0.2106  0.0649  0.6540
  745TMC3    C311007   1.656   2.861  13.482 -0.2782 -0.6747  1.3153
  745TMC3    C411008   1.833   2.929  13.279  0.1550  0.0951 -0.2894
  745TMC3    C511009   1.702   2.942  13.272 -0.4442 -0.0166  0.2034
  745TMC3    C611010   1.611   2.916  13.366  0.2782 -0.5657  0.4027
  745TMC3     C11011   2.007   2.836  13.411  0.1054  0.6048 -0.2432
  745TMC3     O11012   2.047   2.733  13.467 -0.1233  0.7652  0.5112
  745TMC3     H11013   1.822   2.761  13.572  1.0788  1.9038  1.3779
  745TMC3    H111014   1.909   2.933  13.203  3.5668  2.1808  3.2262
  745TMC3    H211015   1.509   2.951  13.349  0.4507  1.0772  2.7846
  745TMC3    C711016   1.647   3.037  13.170 -0.0897  0.4589 -0.3414
  745TMC3    C811017   1.572   2.874  13.594  1.0452  0.0654 -0.1263
  745TMC3    O111018   1.530   3.046  13.148  0.1986  0.6724  0.1404
  745TMC3    O211019   1.450   2.901  13.583 -0.1775  0.0196 -0.5172
  746TMC3    C111020   4.521   4.596  11.201 -0.4334 -0.2090  0.0494
  746TMC3    C211021   4.633   4.568  11.128  0.7427  0.2712 -0.4887
  746TMC3    C311022   4.652   4.441  11.091 -0.0721  0.4127 -0.4529
  746TMC3    C411023   4.446   4.495  11.258  0.1646 -0.0207 -0.8319
  746TMC3    C511024   4.457   4.371  11.210 -0.0951  1.0253 -1.0756
  746TMC3    C611025   4.563   4.339  11.128 -0.4098  0.0762  0.1743
  746TMC3     C11026   4.511   0.003  11.271 -0.3780  0.1688 -0.2514
  746TMC3     O11027   4.462   0.007  11.381 -0.2440 -0.1331  0.1677
  746TMC3     H11028   4.706   4.644  11.104  0.0979  0.8324 -0.6705
  746TMC3    H111029   4.363   4.522  11.323  2.9165  3.6206  1.1313
  746TMC3    H211030   4.576   4.241  11.083 -0.2141  0.2304 -0.1047
  746TMC3    C711031   4.352   4.272  11.222 -0.7549 -0.3973 -0.4590
  746TMC3    C811032   0.031   4.410  10.990 -0.1898  0.3442 -0.4341
  746TMC3    O111033   4.345   4.190  11.134  0.2972  0.0911  0.1147
  746TMC3    O211034   0.071   4.294  10.978 -0.1613  0.2657  0.4445
  747TMC3    C111035   1.482   4.433  10.736  0.1780  0.4623  0.7230
  747TMC3    C211036   1.407   4.409  10.851 -0.1987 -0.0069  0.4221
  747TMC3    C311037   1.473   4.384  10.965 -0.3308 -0.3071 -0.3570
  747TMC3    C411038   1.619   4.427  10.733  0.1728 -0.5846 -0.1162
  747TMC3    C511039   1.682   4.395  10.852 -0.1462  0.6438  0.0548
  747TMC3    C611040   1.609   4.370  10.966  0.2858  0.7361  0.3239
  747TMC3     C11041   1.398   4.489  10.630 -1.4050 -0.4449  0.8267
  747TMC3     O11042   1.296   4.550  10.662 -0.1619 -0.1201  0.7828
  747TMC3     H11043   1.299   4.416  10.858 -0.1289  0.7322  0.7839
  747TMC3    H111044   1.679   4.448  10.645 -1.9553  0.4003 -1.3220
  747TMC3    H211045   1.663   4.327  11.050 -0.6748 -4.9277 -1.9822
  747TMC3    C711046   1.807   4.468  10.886 -0.3398  0.1840  0.1228
  747TMC3    C811047   1.403   4.345  11.082 -0.4750  0.1668 -0.1858
  747TMC3    O111048   1.800   4.565  10.959  0.3531 -0.1766  0.7140
  747TMC3    O211049   1.286   4.311  11.075  0.6066  1.1366  0.1275
  748MPD2     C11050   3.885   3.898   1.530 -0.5859  0.1234 -0.4832
  748MPD2    C111051   3.986   3.917   1.625  0.1360 -0.0906  0.6075
  748MPD2    C211052   4.002   4.053   1.666 -0.4191  0.4472  0.3209
  748MPD2    C311053   3.933   4.164   1.615 -0.0589  0.1459  0.3355
  748MPD2    C411054   3.842   4.134   1.514 -0.2761 -0.8065 -0.0387
  748MPD2    C511055   3.819   4.006   1.472 -0.6763 -0.1293  1.2455
  748MPD2     H11056   4.086   4.077   1.730 -0.0509  0.3689 -0.1347
  748MPD2    H111057   3.781   4.213   1.472  0.6617  0.1525  0.4062
  748MPD2    H211058   3.858   3.803   1.485 -3.8826  1.0301 -0.4036
  748MPD2    H311059   3.749   3.985   1.392  1.8774  0.4956 -1.1659
  748MPD2     N11060   3.950   4.289   1.672 -0.4068  0.0766 -0.2890
  748MPD2    H511061   4.010   4.297   1.754  0.0223 -2.3122 -0.3783
  748MPD2    N111062   4.064   3.809   1.672  0.0682  0.3908 -0.0351
  748MPD2    H711063   4.045   3.721   1.626 -0.4648  0.6117 -0.2312
  749TMC3    C111064   3.958   4.518   1.688 -0.0433 -0.1220 -0.6095
  749TMC3    C211065   4.089   4.506   1.738 -0.0520 -0.4522  0.8583
  749TMC3    C311066   4.145   4.620   1.787 -0.2863  0.9019  0.8418
  749TMC3    C411067   3.891   4.640   1.683 -0.6914 -0.2265 -0.3245
  749TMC3    C511068   3.953   0.030   1.726 -0.7245  0.0078 -0.1581
  749TMC3    C611069   4.079   0.017   1.779 -0.0151  0.5809  0.0668
  749TMC3     C11070   3.891   4.404   1.630  0.5462 -0.0124  0.3013
  749TMC3     O11071   3.801   4.426   1.552 -0.2308 -0.0717  0.2242
  749TMC3     H11072   4.150   4.417   1.733 -0.5302 -0.8422  2.2493
  749TMC3    H111073   3.794   4.641   1.635 -0.8544 -0.4538  0.0011
  749TMC3    H211074   4.137   0.105   1.803  2.0002 -0.2981 -1.5358
  749TMC3    C711075   3.897   0.163   1.685 -0.6140 -0.1681  0.1906
  749TMC3    C811076   4.287   4.632   1.828  0.5336  0.5656  0.0923
  749TMC3    O111077   3.983   0.239   1.645 -0.1929 -0.2002  0.0772
  749TMC3    O211078   4.324   0.013   1.879  0.1362  0.3232 -0.3058
  750MPD2     C11079   0.367   1.827  11.287  0.1832 -0.3515 -0.0112
  750MPD2    C111080   0.268   1.737  11.333 -0.2428 -0.2452  0.0822
  750MPD2    C211081   0.223   1.642  11.248  0.1009 -0.1000  1.1954
  750MPD2    C311082   0.262   1.649  11.111 -1.1464 -0.8661 -0.2807
  750MPD2    C411083   0.337   1.749  11.066  0.2310  0.3736  0.6258
  750MPD2    C511084   0.389   1.842  11.154 -0.7782  0.2498 -0.3708
  750MPD2     H11085   0.149   1.575  11.291 -0.7708  0.5082  0.6418
  750MPD2    H111086   0.373   1.753  10.964  0.4815 -0.0370  0.6962
  750MPD2    H211087   0.404   1.905  11.354  0.3232 -2.5390  2.4538
  750MPD2    H311088   0.466   1.913  11.124 -1.0216  1.1901  1.2548
  750MPD2     N11089   0.212   1.563  11.012 -1.0431  0.1175  0.1607
  750MPD2    H511090   0.241   1.576  10.916 -0.3841  0.7964  0.4557
  750MPD2    N111091   0.235   1.752  11.472  0.1507 -0.2601  0.4719
  750MPD2    H711092   0.273   1.830  11.524 -1.9850  1.6156 -0.7869
  751TMC3    C111093   0.067   1.396  10.917  0.8344 -0.6222 -0.1178
  751TMC3    C211094   4.670   1.325  10.916  0.0071 -0.1822 -0.7679
  751TMC3    C311095   4.612   1.288  10.800  0.5629 -0.1036  0.7976
  751TMC3    C411096   0.126   1.427  10.798  0.0599  0.0080  0.2936
  751TMC3    C511097   0.074   1.370  10.686 -0.1018  0.3177 -0.1735
  751TMC3    C611098   4.673   1.311  10.682 -0.0799  0.1302 -0.3830
  751TMC3     C11099   0.120   1.458  11.034 -0.2767  0.0227  0.0031
  751TMC3     O11100   0.066   1.419  11.135  0.3972  0.8203  0.3416
  751TMC3     H11101   4.617   1.297  11.006  2.4257  2.0182  1.3643
  751TMC3    H111102   0.217   1.486  10.793  0.1136  0.0434  1.6345
  751TMC3    H211103   4.612   1.289  10.595  0.6994 -0.8338 -0.6769
  751TMC3    C711104   0.159   1.382  10.571 -0.4476  0.2225  0.5225
  751TMC3    C811105   4.474   1.247  10.796  0.1720  0.4418 -0.3514
  751TMC3    O111106   0.216   1.487  10.553 -0.3284 -0.0797 -0.7167
  751TMC3    O211107   4.434   1.209  10.682  0.1129  0.0127 -0.0097
  752TMC3    C111108   3.432   0.833  16.835 -0.2835 -0.3872 -0.0801
  752TMC3    C211109   3.533   0.771  16.910 -0.3156  0.3436  0.4739
  752TMC3    C311110   3.511   0.701  17.022 -0.0959 -0.5421 -0.2151
  752TMC3    C411111   3.303   0.822  16.887  0.5669 -0.4892 -0.0712
  752TMC3    C511112   3.290   0.768  17.008 -0.1848 -0.7631 -0.0074
  752TMC3    C611113   3.387   0.707  17.077 -0.2882  0.3607 -0.3762
  752TMC3     C11114   3.463   0.905  16.715  0.1383  0.0617 -0.8787
  752TMC3     O11115   3.580   0.893  16.681  0.6477  0.0386 -0.4132
  752TMC3     H11116   3.635   0.778  16.873 -1.0835 -1.3533 -1.9711
  752TMC3    H111117   3.223   0.869  16.830  1.5798  1.8683  0.4580
  752TMC3    H211118   3.386   0.694  17.184  0.6389 -1.0649 -0.5350
  752TMC3    C711119   3.153   0.731  17.042  0.5988  0.1623 -0.5441
  752TMC3    C811120   3.603   0.626  17.104 -0.3412 -0.0599  0.1181
  752TMC3    O111121   3.068   0.787  16.977  0.3154 -0.3191 -0.0573
  752TMC3    O211122   3.556   0.545  17.181  0.0661 -0.1698  0.5673
  753TMC3    C111123   0.576   2.824  13.455  0.7714 -0.2458 -0.0229
  753TMC3    C211124   0.689   2.762  13.515  0.5371  0.6130 -0.3314
  753TMC3    C311125   0.718   2.637  13.483 -0.1160 -0.2671 -0.0848
  753TMC3    C411126   0.494   2.754  13.375 -0.0749  0.4374 -0.2834
  753TMC3    C511127   0.530   2.620  13.349  1.0549 -0.1527  0.2835
  753TMC3    C611128   0.648   2.568  13.388 -1.2119 -0.0835 -0.0088
  753TMC3     C11129   0.520   2.949  13.507 -0.4413  0.1866  0.0984
  753TMC3     O11130   0.409   2.975  13.467  0.1488 -0.0723  0.3492
  753TMC3     H11131   0.761   2.821  13.571  0.5235  0.3804 -0.0723
  753TMC3    H111132   0.397   2.787  13.339 -0.5096  0.4674  0.9239
  753TMC3    H211133   0.673   2.464  13.368 -0.3340 -0.3554  2.5760
  753TMC3    C711134   0.425   2.529  13.325 -0.6430 -0.0840 -0.7048
  753TMC3    C811135   0.720   2.548  13.606  0.4055 -0.4179 -0.2391
  753TMC3    O111136   0.366   2.538  13.219  1.0647  0.4572 -0.6325
  753TMC3    O211137   0.674   2.439  13.600  0.2298  0.3820 -0.1131
  754MPD2     C11138   4.129   1.139  12.441 -0.5045  0.1757 -0.4523
  754MPD2    C111139   4.058   1.024  12.438  0.6137 -0.9511 -0.2769
  754MPD2    C211140   3.927   1.027  12.392  0.2511 -0.0948  0.0046
  754MPD2    C311141   3.870   1.154  12.356  0.5369  0.0223  0.0950
  754MPD2    C411142   3.948   1.270  12.355  0.8645 -0.4895 -0.0736
  754MPD2    C511143   4.081   1.260  12.398 -0.1265 -0.9514 -0.4333
  754MPD2     H11144   3.863   0.940  12.409  2.6175 -1.6269  1.0205
  754MPD2    H111145   3.911   1.369  12.329 -0.0239 -0.6904  0.4227
  754MPD2    H211146   4.235   1.133  12.462 -1.0191 -1.2158  1.6951
  754MPD2    H311147   4.148   1.345  12.385  0.5695 -1.4801 -0.3045
  754MPD2     N11148   3.729   1.169  12.335  0.0069  0.3209  0.3330
  754MPD2    H511149   3.689   1.262  12.340  0.9509  0.6309  2.0879
  754MPD2    N111150   4.113   0.911  12.503  0.0387  0.1409 -0.0457
  754MPD2    H711151   4.197   0.922  12.559  1.9532 -0.7706 -2.7591
  755MPD2     C11152   3.444   1.829  12.792  0.0097  0.1188  0.0271
  755MPD2    C111153   3.377   1.722  12.843 -0.3305  0.0959 -0.8701
  755MPD2    C211154   3.389   1.600  12.783 -0.5315 -0.1343 -0.7263
  755MPD2    C311155   3.462   1.574  12.664 -0.1816 -0.2205  0.5968
  755MPD2    C411156   3.518   1.682  12.608  0.4313  0.4443  0.6899
  755MPD2    C511157   3.513   1.807  12.672  0.2348 -0.1641 -1.5514
  755MPD2     H11158   3.345   1.519  12.841  0.5974 -0.4809 -0.3392
  755MPD2    H111159   3.578   1.665  12.520 -0.0716  0.5407  0.3258
  755MPD2    H211160   3.425   1.931  12.822 -0.7770  0.5072 -1.7334
  755MPD2    H311161   3.565   1.894  12.634 -0.6752 -0.4345 -3.3847
  755MPD2     N11162   3.469   1.447  12.603  0.8924 -0.4723 -0.4738
  755MPD2    H511163   3.518   1.445  12.515  0.0739  1.2043 -0.9701
  755MPD2    N111164   3.307   1.733  12.965  0.6420 -0.5414  0.8758
  755MPD2    H711165   3.240   1.661  12.992 -0.8606 -0.3287 -2.2902
  756MPD2     C11166   0.070   2.306   9.739 -0.2197  0.5662 -0.8757
  756MPD2    C111167   4.658   2.291   9.773  0.9596 -0.4207  0.1647
  756MPD2    C211168   4.584   2.191   9.707  0.1959 -0.1794 -0.5423
  756MPD2    C311169   4.646   2.101   9.618  0.5471 -0.1010 -0.0355
  756MPD2    C411170   0.060   2.124   9.586  0.6361  0.5185 -0.6100
  756MPD2    C511171   0.132   2.218   9.655 -0.5355  0.3531  0.0015
  756MPD2     H11172   4.478   2.180   9.728  0.2165  3.3081  1.5184
  756MPD2    H111173   0.113   2.063   9.513 -0.1259 -0.3636 -0.4319
  756MPD2    H211174   0.145   2.371   9.783  0.1413  0.4120 -1.2643
  756MPD2    H311175   0.238   2.224   9.634 -0.5395 -0.5042 -0.2744
  756MPD2     N11176   4.574   1.992   9.552  0.6687  0.0294 -0.3485
  756MPD2    H511177   4.475   1.975   9.570  1.0311  1.3113  2.7052
  756MPD2    N111178   4.619   2.368   9.879  0.0334  0.2266  0.4464
  756MPD2    H711179   4.690   2.418   9.930  0.3675 -0.8653  1.0594
  757MPD2     C11180   3.731   1.504   9.537 -0.1085 -0.5158  0.0217
  757MPD2    C111181   3.827   1.397   9.530 -0.2007 -0.3024  0.5174
  757MPD2    C211182   3.962   1.425   9.503  0.1087  0.4897  0.4522
  757MPD2    C311183   4.000   1.554   9.477  0.4237  0.4982  0.5046
  757MPD2    C411184   3.911   1.660   9.488  0.4217 -0.1592 -0.0699
  757MPD2    C511185   3.779   1.636   9.519 -0.5925  0.0215 -0.6048
  757MPD2     H11186   4.040   1.352   9.485 -0.4471 -0.5892  2.4576
  757MPD2    H111187   3.933   1.766   9.487 -0.0004 -0.0627  1.2698
  757MPD2    H211188   3.628   1.481   9.561  0.2879 -1.4752  0.7936
  757MPD2    H311189   3.711   1.720   9.525 -0.0039  0.5347 -1.1447
  757MPD2     N11190   4.137   1.581   9.460  1.3495 -0.3376  0.1053
  757MPD2    H511191   4.200   1.502   9.448  0.4236 -1.0340 -0.1478
  757MPD2    N111192   3.777   1.264   9.560 -0.6662  0.0345 -0.2364
  757MPD2    H711193   3.677   1.259   9.576 -0.6859  1.8392  0.1788
  758MPD2     C11194   4.059   1.369  15.815  0.2094 -0.2929  0.6860
  758MPD2    C111195   4.069   1.243  15.871 -0.4011  0.1307 -0.0982
  758MPD2    C211196   4.001   1.206  15.989  0.0495 -0.6086 -0.5132
  758MPD2    C311197   3.929   1.307  16.051 -0.5023  0.2005  0.0149
  758MPD2    C411198   3.920   1.433  15.994 -0.7007 -0.0012 -0.7964
  758MPD2    C511199   3.988   1.464  15.879 -0.5981  0.8075  0.0502
  758MPD2     H11200   4.005   1.101  16.017 -2.4859  0.1663  2.6073
  758MPD2    H111201   3.852   1.507  16.035 -0.7214  0.2767 -1.3392
  758MPD2    H211202   4.108   1.398  15.723 -0.7190 -0.2524  0.2042
  758MPD2    H311203   3.988   1.564  15.837  2.1279  0.8984  0.2753
  758MPD2     N11204   3.874   1.302  16.183 -0.1637  0.0905  0.3667
  758MPD2    H511205   3.855   1.393  16.222  1.6709  0.5828  0.1212
  758MPD2    N111206   4.150   1.151  15.796 -0.8290  0.5142 -0.0985
  758MPD2    H711207   4.209   1.192  15.724 -0.4131 -1.3134 -0.7911
  759MPD2     C11208   2.506   3.524   9.951  0.2256  0.3229 -0.9118
  759MPD2    C111209   2.638   3.469   9.961 -0.5354  0.8094  0.2520
  759MPD2    C211210   2.746   3.553   9.998 -0.1045 -0.0961 -0.6877
  759MPD2    C311211   2.718   3.683  10.031  0.5061  0.3493 -0.0152
  759MPD2    C411212   2.591   3.744  10.026  0.3323 -0.0034  0.1568
  759MPD2    C511213   2.490   3.661   9.979  0.3753 -0.2233  0.9029
  759MPD2     H11214   2.848   3.519  10.000  0.4007  1.4067 -0.4661
  759MPD2    H111215   2.559   3.847  10.041 -0.8259 -0.0104 -2.2555
  759MPD2    H211216   2.417   3.472   9.916  1.2994 -1.5004 -0.9118
  759MPD2    H311217   2.398   3.716   9.959  0.7184 -1.1201 -3.1965
  759MPD2     N11218   2.818   3.772  10.079  0.2656 -0.3106 -0.5022
  759MPD2    H511219   2.916   3.747  10.072 -0.1222 -1.6569 -1.0439
  759MPD2    N111220   2.668   3.323   9.949  0.5362 -0.0661 -0.1709
  759MPD2    H711221   2.766   3.303   9.967  0.1041 -1.6177  0.4476
  760MPD2     C11222   2.325   1.768  11.691  0.0013  0.1355  0.9372
  760MPD2    C111223   2.455   1.805  11.706 -0.3519 -0.5681 -0.3730
  760MPD2    C211224   2.552   1.704  11.734 -0.5469  0.2190 -0.3131
  760MPD2    C311225   2.505   1.574  11.759  0.1406  0.6401  0.1361
  760MPD2    C411226   2.374   1.541  11.752 -0.5608  0.1460 -0.5393
  760MPD2    C511227   2.283   1.639  11.708 -0.4342  0.3876  0.4134
  760MPD2     H11228   2.656   1.734  11.743 -0.7513 -0.1368  3.2047
  760MPD2    H111229   2.337   1.444  11.781  1.8306  0.4697  3.5220
  760MPD2    H211230   2.245   1.836  11.664 -0.1141  0.0602  1.0863
  760MPD2    H311231   2.176   1.620  11.698  0.0924 -2.4040  0.1331
  760MPD2     N11232   2.596   1.473  11.811 -0.0384  0.1519 -0.2559
  760MPD2    H511233   2.570   1.381  11.843  1.8281 -0.0475  0.6740
  760MPD2    N111234   2.508   1.933  11.703  0.1755  0.3372 -0.7231
  760MPD2    H711235   2.607   1.948  11.719  0.0328  0.3052  0.2173
  761MPD2     C11236   3.998   1.221  10.988  0.5694  0.4724  0.8091
  761MPD2    C111237   4.060   1.138  10.895  0.1658 -0.1359 -0.6030
  761MPD2    C211238   4.193   1.168  10.860 -0.3611  0.6314 -0.0841
  761MPD2    C311239   4.263   1.272  10.917 -0.0770  0.0625 -0.9462
  761MPD2    C411240   4.199   1.347  11.005 -1.0100 -0.3340  0.3443
  761MPD2    C511241   4.068   1.324  11.040 -0.0220  0.2043  0.0199
  761MPD2     H11242   4.237   1.087  10.803  1.0532  1.6302 -0.3870
  761MPD2    H111243   4.260   1.420  11.058  2.4120 -3.3452  0.5726
  761MPD2    H211244   3.896   1.195  11.013  0.1620  1.5078  0.1675
  761MPD2    H311245   4.018   1.401  11.098  1.6426  1.0125  0.3727
  761MPD2     N11246   4.402   1.295  10.904  1.2457  0.3973 -0.0449
  761MPD2    H511247   4.437   1.355  10.978 -0.1975 -1.0978  1.8317
  761MPD2    N111248   3.988   1.017  10.858 -0.2930  0.0468  0.2217
  761MPD2    H711249   3.905   0.988  10.909 -0.0077 -0.0088  0.6558
  762MPD2     C11250   4.441   0.886  10.553 -0.1820  0.2814 -0.3967
  762MPD2    C111251   4.428   0.765  10.615 -0.4167 -0.2447  0.0777
  762MPD2    C211252   4.546   0.691  10.630 -0.0629  0.4773 -0.4521
  762MPD2    C311253   4.667   0.741  10.588  0.6992  0.0810  0.0217
  762MPD2    C411254   4.679   0.862  10.518  0.1371 -0.0962  0.4533
  762MPD2    C511255   4.562   0.937  10.509 -0.4967  0.3492 -0.4677
  762MPD2     H11256   4.538   0.589  10.666  0.4548  0.1691 -1.2045
  762MPD2    H111257   0.050   0.905  10.476 -0.7289 -0.1293 -1.4336
  762MPD2    H211258   4.356   0.953  10.543  0.2282  0.8482 -0.0732
  762MPD2    H311259   4.559   1.038  10.471  0.3164  0.3027 -0.6624
  762MPD2     N11260   0.071   0.669  10.601  0.2411 -0.0098  0.0834
  762MPD2    H511261   0.151   0.705  10.550  1.3975 -4.2715 -1.1034
  762MPD2    N111262   4.301   0.730  10.658  0.0662 -0.7199  0.2027
  762MPD2    H711263   4.229   0.800  10.646  0.2258 -0.4898  0.6125
  763MPD2     C11264   1.475   1.246  15.989  0.6422  0.6458 -0.0248
  763MPD2    C111265   1.344   1.274  16.004  0.1477 -0.4698 -0.3188
  763MPD2    C211266   1.296   1.396  16.048  0.5480 -0.6793  0.1854
  763MPD2    C311267   1.385   1.490  16.082 -0.0864  0.7734  0.6730
  763MPD2    C411268   1.518   1.465  16.079  0.5414 -0.1165  0.6613
  763MPD2    C511269   1.562   1.345  16.026  0.3592  0.7678 -0.3635
  763MPD2     H11270   1.194   1.404  16.085  0.2392 -1.9492 -0.4107
  763MPD2    H111271   1.585   1.547  16.102  2.2129 -0.6261 -2.3432
  763MPD2    H211272   1.510   1.143  15.981  1.4582  0.6880  2.8938
  763MPD2    H311273   1.663   1.308  16.038  0.3391  0.9322  0.2945
  763MPD2     N11274   1.352   1.620  16.136 -0.7559  0.5349 -0.6926
  763MPD2    H511275   1.431   1.684  16.144 -1.0181  0.3974  2.6290
  763MPD2    N111276   1.250   1.173  15.979  0.0404 -0.3316  0.1101
  763MPD2    H711277   1.153   1.200  15.969 -0.2359 -2.7169 -3.6385
  764MPD2     C11278   3.376   2.913   0.137 -0.3119  0.7121  0.1184
  764MPD2    C111279   3.456   2.823   0.066 -0.1110  0.0667 -0.2899
  764MPD2    C211280   3.431   2.690   0.087  0.2457 -0.2016  0.6176
  764MPD2    C311281   3.334   2.638   0.176  0.2245  0.0551  0.7026
  764MPD2    C411282   3.270   2.727   0.256  0.2460 -0.0447  0.5221
  764MPD2    C511283   3.298   2.861   0.239 -0.0172  0.6463  0.1376
  764MPD2     H11284   3.484   2.615   0.030  1.5425  0.2661  1.2077
  764MPD2    H111285   3.190   2.697   0.322 -2.7461  0.4395 -2.8376
  764MPD2    H211286   3.391   3.019   0.119 -0.8117  0.8845  0.6703
  764MPD2    H311287   3.246   2.930   0.305 -1.1438  1.4774 -1.6221
  764MPD2     N11288   3.306   2.501   0.171 -0.0829 -0.0344  0.3807
  764MPD2    H511289   3.346   2.438   0.102 -0.0306 -1.3567  1.6103
  764MPD2    N111290   3.558   2.854  17.649  0.4743  0.3362  0.1921
  764MPD2    H711291   3.612   2.776  17.613 -0.4674 -0.1627 -0.1380
  765MPD2     C11292   3.485   0.148  15.849 -0.3446  0.0993  0.4536
  765MPD2    C111293   3.549   0.258  15.791 -0.3759  0.1486  0.2293
  765MPD2    C211294   3.685   0.242  15.758 -0.3622 -0.0764  0.6071
  765MPD2    C311295   3.742   0.115  15.755  0.7085 -0.7127  0.1120
  765MPD2    C411296   3.678   0.010  15.810 -0.1242 -0.4753 -0.3102
  765MPD2    C511297   3.551   0.029  15.860  0.1614  0.0398  0.0918
  765MPD2     H11298   3.747   0.327  15.731  0.4208 -0.0945  2.3427
  765MPD2    H111299   3.718   4.629  15.817  0.6929 -0.0170  1.6581
  765MPD2    H211300   3.381   0.155  15.880 -0.7152  0.3281 -0.8519
  765MPD2    H311301   3.489   4.666  15.893  1.5429 -0.4186  1.5525
  765MPD2     N11302   3.871   0.114  15.698  0.3533 -0.2648 -0.0810
  765MPD2    H511303   3.908   0.198  15.656 -0.9022 -0.5571 -1.7404
  765MPD2    N111304   3.489   0.382  15.769 -0.3106  0.0539 -0.1606
  765MPD2    H711305   3.388   0.380  15.785 -0.4081 -0.9112 -0.8752
  766MPD2     C11306   3.100   0.663  15.244 -0.5503 -0.0289  0.2422
  766MPD2    C111307   3.231   0.617  15.261  0.4352  0.2836  0.5731
  766MPD2    C211308   3.305   0.561  15.159 -0.1927 -0.1095 -0.0176
  766MPD2    C311309   3.249   0.560  15.027  0.2289 -0.5642  0.2301
  766MPD2    C411310   3.129   0.620  15.012  0.1868  0.5471  0.3465
  766MPD2    C511311   3.054   0.668  15.115 -0.7506 -0.0703 -0.3993
  766MPD2     H11312   3.408   0.534  15.181 -0.3316 -0.7552 -0.1538
  766MPD2    H111313   3.087   0.626  14.912  1.7844  0.1414 -0.3493
  766MPD2    H211314   3.026   0.688  15.320 -1.1061 -1.5660  0.2128
  766MPD2    H311315   2.952   0.699  15.099 -1.1741 -0.5375  1.4228
  766MPD2     N11316   3.312   0.513  14.908 -0.2078 -0.1005 -0.4062
  766MPD2    H511317   3.252   0.513  14.826  1.0285  0.9530 -1.3126
  766MPD2    N111318   3.286   0.638  15.392 -0.4992  0.4250  0.5126
  766MPD2    H711319   3.375   0.594  15.413  0.4927  1.0817 -2.2774
  767MPD2     C11320   2.875   0.733  14.717 -0.2070 -0.1719 -0.5481
  767MPD2    C111321   2.999   0.759  14.662 -0.2234 -0.4413  0.1184
  767MPD2    C211322   3.038   0.683  14.555 -0.7291 -0.1550 -0.0408
  767MPD2    C311323   2.952   0.594  14.487 -0.1907 -0.1464  0.1153
  767MPD2    C411324   2.827   0.574  14.542  0.4479 -0.2793 -0.8477
  767MPD2    C511325   2.794   0.639  14.661  0.2504  0.0756 -0.5968
  767MPD2     H11326   3.141   0.683  14.520 -1.2118  0.7029 -1.4309
  767MPD2    H111327   2.756   0.502  14.504  2.9624 -2.6481 -1.0683
  767MPD2    H211328   2.845   0.800  14.797  1.5969 -1.0024  0.8319
  767MPD2    H311329   2.703   0.608  14.711  0.2189  1.2088  0.0541
  767MPD2     N11330   2.998   0.518  14.374  0.0815 -0.7945 -0.3422
  767MPD2    H511331   3.096   0.509  14.351  0.1242 -1.0069 -0.0831
  767MPD2    N111332   3.074   0.868  14.711  0.3393  0.1815 -0.4610
  767MPD2    H711333   3.035   0.923  14.788 -2.2756 -0.9932 -0.9407
  768MPD2     C11334   4.240   3.769  10.796 -0.7056 -0.1414  0.2518
  768MPD2    C111335   4.181   3.714  10.908 -0.1200 -0.5797  0.0963
  768MPD2    C211336   4.262   3.714  11.025 -0.7266  0.3145  0.2344
  768MPD2    C311337   4.386   3.775  11.039  0.2322  0.2650 -0.1146
  768MPD2    C411338   4.436   3.835  10.920 -0.3687  0.1235  0.7931
  768MPD2    C511339   4.363   3.838  10.806 -0.2599  0.3036 -0.1785
  768MPD2     H11340   4.223   3.655  11.107 -0.1509 -2.3779 -1.4535
  768MPD2    H111341   4.534   3.880  10.915 -1.3519  2.1869  0.2345
  768MPD2    H211342   4.178   3.766  10.707 -0.6319 -0.7317  0.2202
  768MPD2    H311343   4.421   3.877  10.723  0.0703  0.4024  0.0990
  768MPD2     N11344   4.463   3.780  11.156 -0.3992 -0.0948  1.1582
  768MPD2    H511345   4.553   3.826  11.150 -0.7965  0.7292  1.5923
  768MPD2    N111346   4.050   3.675  10.923  0.3449 -0.4092  0.4848
  768MPD2    H711347   4.006   3.654  11.012  2.4751  2.5473  2.2418
  769MPD2     C11348   0.292   1.220  14.992  0.0645  0.1622 -1.2537
  769MPD2    C111349   0.175   1.280  15.016 -0.4620  0.5727  0.0753
  769MPD2    C211350   0.180   1.405  15.080  0.4252  0.1650  0.3038
  769MPD2    C311351   0.290   1.459  15.134 -0.4556  0.5711 -0.5318
  769MPD2    C411352   0.413   1.392  15.112 -0.4636  0.1214  0.5335
  769MPD2    C511353   0.411   1.281  15.031  0.5602 -0.5581 -0.1046
  769MPD2     H11354   0.084   1.456  15.086 -0.2101 -1.0377  0.4215
  769MPD2    H111355   0.509   1.435  15.139 -0.9637  2.0239 -0.7027
  769MPD2    H211356   0.298   1.120  14.949  2.0545 -0.2853  0.0589
  769MPD2    H311357   0.508   1.242  15.005  0.1452 -0.2324 -2.1622
  769MPD2     N11358   0.274   1.570  15.220  0.0368  0.5721 -0.1983
  769MPD2    H511359   0.178   1.598  15.238 -1.0082 -2.8476 -0.3410
  769MPD2    N111360   0.057   1.215  14.967  0.0139  0.2855  0.1721
  769MPD2    H711361   0.071   1.124  14.924 -0.4172  1.9738 -3.5510
  770MPD2     C11362   4.340   0.349  14.788  0.3341  0.0157 -0.2328
  770MPD2    C111363   4.236   0.425  14.823 -0.1439 -0.0076 -0.0706
  770MPD2    C211364   4.253   0.562  14.819  0.5695 -0.2867  0.2082
  770MPD2    C311365   4.376   0.628  14.794  0.3988 -0.1934 -0.9663
  770MPD2    C411366   4.474   0.540  14.751  0.2688 -0.0402 -0.1756
  770MPD2    C511367   4.459   0.402  14.750 -0.1728  0.5085  0.0941
  770MPD2     H11368   4.172   0.625  14.855 -0.4268 -2.0810  1.0842
  770MPD2    H111369   4.569   0.571  14.707  1.5575 -2.4273  0.9269
  770MPD2    H211370   4.326   0.242  14.800  0.3596 -0.2941 -3.0324
  770MPD2    H311371   4.534   0.329  14.724 -0.0888  0.3415  0.7952
  770MPD2     N11372   4.384   0.772  14.803 -0.8615 -0.0710 -0.1694
  770MPD2    H511373   4.302   0.826  14.826 -0.0644  1.4321 -0.9024
  770MPD2    N111374   4.115   0.361  14.858 -0.3865 -0.0552 -0.2710
  770MPD2    H711375   4.118   0.259  14.862  1.0051  0.0098  0.6690
  771MPD2     C11376   0.703   4.505  13.605 -0.1232 -0.1081 -0.2775
  771MPD2    C111377   0.665   4.621  13.544  0.4593 -0.2429 -0.0237
  771MPD2    C211378   0.555   4.621  13.459  0.1519  0.3224 -0.3135
  771MPD2    C311379   0.484   4.504  13.444  0.1142  0.1603 -0.0726
  771MPD2    C411380   0.515   4.392  13.519 -0.0395  0.0735 -0.6936
  771MPD2    C511381   0.631   4.389  13.594 -0.0559  0.8401 -0.0129
  771MPD2     H11382   0.521   4.708  13.404  0.1706  0.2537 -0.4338
  771MPD2    H111383   0.453   4.304  13.504 -0.8694  0.5286  0.0643
  771MPD2    H211384   0.792   4.495  13.666  0.4108 -0.8215 -1.1693
  771MPD2    H311385   0.664   4.300  13.646  0.4182  1.6528  1.0730
  771MPD2     N11386   0.365   4.518  13.360  0.4661 -0.0326  0.6799
  771MPD2    H511387   0.366   4.609  13.317  0.1135 -1.0008 -1.3505
  771MPD2    N111388   0.736   0.025  13.556 -0.4258  0.2107  0.1247
  771MPD2    H711389   0.695   0.111  13.520  0.6367 -0.4491 -2.6856
  772MPD2     C11390   0.701   0.666  13.933  0.4556 -0.6848 -0.0422
  772MPD2    C111391   0.630   0.580  13.850  0.1838 -0.0576 -0.2318
  772MPD2    C211392   0.498   0.587  13.845 -0.2689 -0.3815 -0.1391
  772MPD2    C311393   0.429   0.673  13.932  0.2277  0.6260  0.0583
  772MPD2    C411394   0.493   0.752  14.022 -0.4380  0.7738  0.5100
  772MPD2    C511395   0.628   0.751  14.019  0.4319 -0.6174 -0.2122
  772MPD2     H11396   0.443   0.508  13.795  1.3536 -1.9217  0.5585
  772MPD2    H111397   0.452   0.825  14.090  0.8067  1.1948  0.8196
  772MPD2    H211398   0.809   0.678  13.942  0.2617  1.4045 -0.5287
  772MPD2    H311399   0.684   0.809  14.091  1.4253 -0.7902 -0.8451
  772MPD2     N11400   0.295   0.685  13.918  0.6521  0.2071  0.0924
  772MPD2    H511401   0.241   0.705  14.001 -0.9195  1.1029 -1.1415
  772MPD2    N111402   0.693   0.494  13.759  0.0929 -0.0130  0.1652
  772MPD2    H711403   0.638   0.427  13.707 -0.7217  1.8224 -1.3455
  773MPD2     C11404   4.289   1.028  17.177  0.2445  0.7996  0.3907
  773MPD2    C111405   4.237   0.944  17.276 -0.1029 -0.2702 -0.2568
  773MPD2    C211406   4.330   0.893  17.370 -0.4505  0.0022 -0.3300
  773MPD2    C311407   4.460   0.923  17.366 -0.1015  0.4565  0.4332
  773MPD2    C411408   4.512   1.005  17.268  0.1843 -0.1596  0.9080
  773MPD2    C511409   4.424   1.057  17.177 -0.2820  0.4339  0.3148
  773MPD2     H11410   4.288   0.844  17.457  0.6649  1.0928  0.8181
  773MPD2    H111411   4.618   1.026  17.265  0.3929 -1.0991  1.4341
  773MPD2    H211412   4.234   1.071  17.095 -0.2416 -1.9124 -0.7120
  773MPD2    H311413   4.470   1.126  17.107 -0.7364 -0.0064 -0.4084
  773MPD2     N11414   4.536   0.867  17.476 -0.1921 -0.2608  0.0955
  773MPD2    H511415   4.476   0.811  17.538 -0.3823 -0.0082  0.1388
  773MPD2    N111416   4.101   0.921  17.300 -0.4103  0.3372 -0.5439
  773MPD2    H711417   4.089   0.857  17.378 -0.4440  0.1172 -0.7263
  774MPD2     C11418   3.523   0.411  13.156 -0.0773 -0.0557  0.1419
  774MPD2    C111419   3.643   0.375  13.202 -0.0966  0.3247  0.2085
  774MPD2    C211420   3.753   0.407  13.124 -0.0963  0.0596  0.3529
  774MPD2    C311421   3.738   0.470  13.004  1.0804 -0.6179 -0.3109
  774MPD2    C411422   3.613   0.505  12.959  0.5070  0.9645 -0.0011
  774MPD2    C511423   3.511   0.481  13.040  0.2607  0.7368 -0.9005
  774MPD2     H11424   3.850   0.378  13.161 -0.3988  1.2459  2.0525
  774MPD2    H111425   3.594   0.567  12.872 -0.0960  1.0621  0.2059
  774MPD2    H211426   3.430   0.400  13.210 -0.6147 -2.8758 -1.3232
  774MPD2    H311427   3.412   0.519  13.019  0.5430  2.3285  0.5987
  774MPD2     N11428   3.859   0.497  12.933 -0.4180  0.5731  0.2318
  774MPD2    H511429   3.946   0.457  12.968  0.0159  1.8334  0.5901
  774MPD2    N111430   3.656   0.313  13.326 -0.1587 -0.1685 -0.3712
  774MPD2    H711431   3.748   0.282  13.356 -0.8941 -1.3714  0.6399
  775MPD2     C11432   0.412   1.634  15.788 -0.4008 -0.2692 -0.4641
  775MPD2    C111433   0.399   1.767  15.823 -0.0389 -0.0409  0.9455
  775MPD2    C211434   0.503   1.861  15.795 -0.7395  0.8592  0.0828
  775MPD2    C311435   0.614   1.822  15.728  0.0119 -0.1071 -0.1775
  775MPD2    C411436   0.629   1.691  15.692 -0.5552  0.1760  0.2847
  775MPD2    C511437   0.533   1.600  15.723  0.9029 -0.3343 -0.4965
  775MPD2     H11438   0.499   1.965  15.825  0.9295  1.1896 -0.8422
  775MPD2    H111439   0.714   1.658  15.634 -0.8426 -0.9551  0.4988
  775MPD2    H211440   0.329   1.567  15.806  0.7449 -1.3324  0.8164
  775MPD2    H311441   0.556   1.501  15.685  0.1907  0.3663 -2.7349
  775MPD2     N11442   0.722   1.911  15.705  0.6495  0.1751 -0.1291
  775MPD2    H511443   0.791   1.880  15.636  0.2970 -1.7243  0.3639
  775MPD2    N111444   0.278   1.807  15.877 -0.1074 -0.4459  0.5349
  775MPD2    H711445   0.216   1.734  15.910  1.2678 -1.8861 -0.0740
  776MPD2     C11446   0.490   2.218  11.756 -0.8050 -0.5391 -0.1509
  776MPD2    C111447   0.356   2.219  11.723 -0.7225 -0.8990 -0.3478
  776MPD2    C211448   0.297   2.320  11.654 -0.0417 -0.3896 -0.2611
  776MPD2    C311449   0.377   2.428  11.619  0.6978 -1.0139  0.2226
  776MPD2    C411450   0.511   2.428  11.647  0.6701 -0.0103 -0.4790
  776MPD2    C511451   0.566   2.327  11.719 -1.1211  0.3216  0.0477
  776MPD2     H11452   0.198   2.309  11.612 -2.1035  1.8266  4.0071
  776MPD2    H111453   0.574   2.512  11.621  2.1843 -1.0211 -0.0277
  776MPD2    H211454   0.533   2.131  11.804  0.8487  0.5734  0.3892
  776MPD2    H311455   0.668   2.336  11.757 -1.9109  5.2928  0.9874
  776MPD2     N11456   0.323   2.540  11.554  0.2945  0.2189 -0.0707
  776MPD2    H511457   0.394   2.610  11.532  0.5753  0.5667  1.9678
  776MPD2    N111458   0.288   2.098  11.755 -1.1875  0.9622  0.3643
  776MPD2    H711459   0.337   2.017  11.791 -0.4723  0.7164 -1.1455
  777MPD2     C11460   0.349   4.055   0.917  0.7323 -0.0487  0.2230
  777MPD2    C111461   0.226   4.025   0.973  0.2214  0.7018  0.1969
  777MPD2    C211462   0.107   4.005   0.892 -0.7334  0.3448  0.6125
  777MPD2    C311463   0.124   4.013   0.753  0.1143 -0.1354 -0.4148
  777MPD2    C411464   0.248   4.043   0.702  0.6909 -1.7942 -0.2011
  777MPD2    C511465   0.349   4.064   0.787  0.1539  0.0451 -0.8454
  777MPD2     H11466   0.010   3.975   0.930  0.0213 -1.6708  0.9842
  777MPD2    H111467   0.270   4.061   0.597 -0.4813 -2.8430 -0.6336
  777MPD2    H211468   0.437   4.075   0.977 -0.1689  2.1547  0.8081
  777MPD2    H311469   0.446   4.091   0.747  0.5757  1.4665  1.1753
  777MPD2     N11470   0.008   3.988   0.676  1.0407 -0.6641  0.1954
  777MPD2    H511471   4.638   3.974   0.722 -1.1248  4.1898 -2.6152
  777MPD2    N111472   0.227   4.033   1.114 -0.6935  0.4474  0.3597
  777MPD2    H711473   0.321   4.056   1.145 -0.5771  0.8309 -0.2683
  778MPD2     C11474   0.908   4.457  15.364  0.0815 -1.0981 -0.7239
  778MPD2    C111475   0.873   4.414  15.237 -0.6742  0.2686 -0.8391
  778MPD2    C211476   0.940   4.471  15.132 -1.4397 -0.0998 -0.1605
  778MPD2    C311477   1.041   4.564  15.145 -0.1266 -0.0211 -0.3901
  778MPD2    C411478   1.079   4.597  15.273  0.0744  0.0552  0.2955
  778MPD2    C511479   1.010   4.545  15.379  0.3641  0.8310 -0.2262
  778MPD2     H11480   0.930   4.439  15.029  0.1904 -1.1855  0.0127
  778MPD2    H111481   1.162   4.662  15.299  0.8621 -1.4772  1.5684
  778MPD2    H211482   0.860   4.414  15.451  1.4056  0.5327  0.7882
  778MPD2    H311483   1.041   4.578  15.477  2.1506  0.7110 -0.7409
  778MPD2     N11484   1.085   4.640  15.032  0.3429 -0.4032 -0.2369
  778MPD2    H511485   1.049   4.599  14.946 -0.2571 -1.3798  0.4728
  778MPD2    N111486   0.760   4.328  15.216 -0.8336  0.0432  0.4503
  778MPD2    H711487   0.734   4.322  15.118  0.5595 -1.1164  0.1457
  779MPD2     C11488   0.607   3.345  14.454 -0.1539 -0.3992  0.0013
  779MPD2    C111489   0.740   3.351  14.425  0.2419  1.2340 -0.5543
  779MPD2    C211490   0.802   3.459  14.381 -0.5122  0.0286 -0.3509
  779MPD2    C311491   0.727   3.573  14.360 -0.0124  0.1284  0.5248
  779MPD2    C411492   0.595   3.576  14.399 -0.1187  0.6857  0.9649
  779MPD2    C511493   0.533   3.462  14.447  0.2539  0.4074 -0.0301
  779MPD2     H11494   0.908   3.455  14.357 -0.2159 -0.2508  0.9772
  779MPD2    H111495   0.529   3.657  14.372  2.2185  1.9404 -1.0241
  779MPD2    H211496   0.559   3.256  14.495 -2.3814  0.9015  0.2457
  779MPD2    H311497   0.427   3.462  14.468  0.7258 -0.1700  2.3480
  779MPD2     N11498   0.804   3.682  14.306 -0.0819 -0.6754  0.1443
  779MPD2    H511499   0.905   3.674  14.312  0.0693 -0.0892 -1.7011
  779MPD2    N111500   0.817   3.237  14.439 -0.9397  0.5377 -0.0614
  779MPD2    H711501   0.913   3.255  14.414 -0.8942 -0.8444 -0.8638
  780MPD2     C11502   3.679   3.033   0.238  0.1740 -0.0188  0.1180
  780MPD2    C111503   3.793   2.963   0.211 -0.7107  0.3800 -0.5487
  780MPD2    C211504   3.894   3.022   0.145 -0.3985 -0.0932  0.0445
  780MPD2    C311505   3.881   3.142   0.087 -0.2684 -0.6950 -0.4466
  780MPD2    C411506   3.768   3.221   0.107  0.3115  0.2761  0.4731
  780MPD2    C511507   3.672   3.165   0.188  0.0107  0.9796 -0.6685
  780MPD2     H11508   3.987   2.968   0.132 -0.3231 -0.2327  1.1649
  780MPD2    H111509   3.746   3.313   0.053 -1.6196 -0.4704 -0.0107
  780MPD2    H211510   3.596   2.999   0.298 -0.8431 -0.3921 -1.4997
  780MPD2    H311511   3.582   3.220   0.209  0.1863  0.0230  2.6821
  780MPD2     N11512   3.986   3.187   0.002 -0.5151 -0.2696  0.1592
  780MPD2    H511513   4.056   3.120  17.654 -0.2343 -0.9120  2.2984
  780MPD2    N111514   3.799   2.839   0.276 -0.0724 -0.4011 -0.2728
  780MPD2    H711515   3.721   2.815   0.335  0.7897 -2.4416  0.0565
  781MPD2     C11516   2.492   4.635  11.988 -0.2443 -0.6812  0.1185
  781MPD2    C111517   2.412   0.024  11.987  0.0053  0.7830 -0.6097
  781MPD2    C211518   2.385   0.081  11.862  0.3323  0.1009  0.5051
  781MPD2    C311519   2.438   0.017  11.749 -0.0349  0.6860 -0.1934
  781MPD2    C411520   2.508   4.616  11.754 -0.0149  0.4119  0.2762
  781MPD2    C511521   2.535   4.565  11.876  0.0577  0.7368 -0.3850
  781MPD2     H11522   2.329   0.173  11.852 -1.0984 -0.5767  2.3124
  781MPD2    H111523   2.548   4.564  11.668  2.6118 -1.7787  2.8276
  781MPD2    H211524   2.534   4.598  12.081 -3.2756  1.9061  2.4907
  781MPD2    H311525   2.589   4.471  11.892  0.2597  1.1904  1.5824
  781MPD2     N11526   2.413   0.060  11.620  1.0723 -0.4144 -0.3689
  781MPD2    H511527   2.434   4.712  11.548  0.6784 -0.4386 -0.4640
  781MPD2    N111528   2.361   0.080  12.108  0.5791  0.0762 -0.9072
  781MPD2    H711529   2.301   0.162  12.104 -0.5657 -0.9270 -4.1351
  782MPD2     C11530   0.399   2.041  10.394  0.6140  0.2104 -0.2962
  782MPD2    C111531   0.502   1.948  10.371  0.4918  0.1974  0.8460
  782MPD2    C211532   0.592   1.918  10.474 -0.2104 -0.1883  0.1947
  782MPD2    C311533   0.572   1.965  10.602 -0.3354 -0.2205 -0.3921
  782MPD2    C411534   0.460   2.038  10.627 -0.9871  0.1362  0.1203
  782MPD2    C511535   0.377   2.077  10.524 -0.2451  0.5279 -0.6842
  782MPD2     H11536   0.677   1.854  10.453  0.0115  0.2698 -0.3030
  782MPD2    H111537   0.435   2.063  10.729  1.1125 -1.5339  1.0406
  782MPD2    H211538   0.337   2.085  10.316 -2.8579  0.1837  2.4443
  782MPD2    H311539   0.289   2.137  10.546 -2.2396 -1.6482 -2.7687
  782MPD2     N11540   0.658   1.935  10.707 -0.2503  0.2462  0.2132
  782MPD2    H511541   0.739   1.879  10.682 -2.3467 -2.5911 -0.2002
  782MPD2    N111542   0.529   1.899  10.240 -0.1947 -1.1520  0.3827
  782MPD2    H711543   0.613   1.845  10.226 -0.5079 -1.8906  1.3826
  783MPD2     C11544   0.177   1.140  10.293 -0.4902 -0.4255 -0.8293
  783MPD2    C111545   0.186   1.263  10.361  0.0292 -0.0178  0.4217
  783MPD2    C211546   0.221   1.375  10.286  0.0711 -0.1853 -0.9094
  783MPD2    C311547   0.256   1.361  10.151 -1.0407  0.1068  0.7169
  783MPD2    C411548   0.254   1.241  10.080  0.2164  0.5768  0.1514
  783MPD2    C511549   0.219   1.138  10.159  0.0509 -0.4052 -0.0144
  783MPD2     H11550   0.221   1.477  10.323  0.9404  0.0278 -1.5025
  783MPD2    H111551   0.273   1.220   9.975  0.3552 -1.0519  0.4967
  783MPD2    H211552   0.139   1.053  10.345  0.1261 -0.0229  0.3214
  783MPD2    H311553   0.210   1.045  10.103  1.7607 -0.9374  0.5904
  783MPD2     N11554   0.303   1.482  10.088 -0.0514 -0.2937 -0.6879
  783MPD2    H511555   0.312   1.565  10.146  0.4310 -0.0571 -1.0987
  783MPD2    N111556   0.136   1.273  10.492  0.0418  0.4585 -0.4841
  783MPD2    H711557   0.086   1.198  10.539  2.1160 -0.0427  0.8690
  784MPD2     C11558   2.495   1.824   0.649  0.5685 -0.0469  0.0603
  784MPD2    C111559   2.409   1.726   0.695  0.0774  0.4224  0.5548
  784MPD2    C211560   2.290   1.706   0.625 -0.3676  0.1320  0.1676
  784MPD2    C311561   2.264   1.762   0.499  1.4069  0.5124  0.9668
  784MPD2    C411562   2.354   1.856   0.462 -0.3034 -0.4896  0.0761
  784MPD2    C511563   2.470   1.884   0.528  0.4361 -0.2304  0.3324
  784MPD2     H11564   2.220   1.640   0.676  1.7115 -0.8645  1.7517
  784MPD2    H111565   2.343   1.915   0.371  1.8195 -0.7017 -0.3166
  784MPD2    H211566   2.590   1.852   0.693  0.8273  0.1398 -0.6078
  784MPD2    H311567   2.537   1.965   0.500 -1.1905  1.0239  0.0467
  784MPD2     N11568   2.145   1.732   0.432  0.4268  0.0993 -0.3490
  784MPD2    H511569   2.085   1.671   0.486  0.6877 -0.1324 -0.3171
  784MPD2    N111570   2.408   1.692   0.833  0.6066  0.2308  0.0985
  784MPD2    H711571   2.327   1.641   0.867  0.3810  2.4704  2.9996
  785MPD2     C11572   2.615   0.140  10.786 -0.0153 -0.7837 -0.0682
  785MPD2    C111573   2.497   0.219  10.798  0.1837  0.2083  0.7744
  785MPD2    C211574   2.375   0.158  10.772  0.7785  0.2867 -0.0259
  785MPD2    C311575   2.369   0.034  10.715 -0.4175 -0.1699  0.3957
  785MPD2    C411576   2.476   4.669  10.727 -0.6823 -0.0026  0.0062
  785MPD2    C511577   2.603   0.006  10.754  0.2570 -0.1886 -0.2959
  785MPD2     H11578   2.280   0.209  10.784 -0.5376 -1.9557 -0.8214
  785MPD2    H111579   2.465   4.563  10.710  1.0068 -0.2434  0.3738
  785MPD2    H211580   2.717   0.171  10.808  0.4501 -1.2330 -1.6109
  785MPD2    H311581   2.694   4.669  10.743  0.2182  0.0088 -1.7103
  785MPD2     N11582   2.244   4.696  10.672  1.0298  1.0195  0.4397
  785MPD2    H511583   2.157   0.025  10.695  0.2983  1.1659 -2.7005
  785MPD2    N111584   2.504   0.346  10.854 -0.6066  0.4895 -0.3144
  785MPD2    H711585   2.596   0.388  10.843  0.1343 -0.5716  1.8853
  786MPD2     C11586   1.033   2.713  14.643  0.1629  0.2657 -0.0071
  786MPD2    C111587   1.151   2.640  14.638  0.1692  0.2965 -0.3845
  786MPD2    C211588   1.236   2.638  14.743  0.2071 -0.6956 -0.8275
  786MPD2    C311589   1.227   2.730  14.850 -0.3842 -0.4130 -0.2887
  786MPD2    C411590   1.115   2.809  14.845  0.0412 -0.4723  0.3153
  786MPD2    C511591   1.025   2.803  14.747  0.0731  0.2404  0.4255
  786MPD2     H11592   1.317   2.567  14.753 -1.2767 -2.0639  1.2907
  786MPD2    H111593   1.103   2.871  14.933 -0.8596 -2.0021  1.2705
  786MPD2    H211594   0.954   2.704  14.569 -0.8909  2.5013  0.8404
  786MPD2    H311595   0.936   2.863  14.763  0.2997  0.5297  0.5967
  786MPD2     N11596   1.314   2.747  14.961  0.3308 -0.0897 -0.1750
  786MPD2    H511597   1.303   2.817  15.034  1.5256 -1.0670  0.9447
  786MPD2    N111598   1.184   2.562  14.524 -0.0696 -0.2014 -0.0770
  786MPD2    H711599   1.279   2.527  14.519 -0.6341 -1.7498  0.0296
  787MPD2     C11600   1.452   2.093  14.696  0.0845  0.3603 -0.7992
  787MPD2    C111601   1.491   2.102  14.566 -0.1355  0.1400  0.7675
  787MPD2    C211602   1.624   2.073  14.530  0.2665 -0.0190  0.4942
  787MPD2    C311603   1.717   2.038  14.620 -0.2184  0.3160  0.0236
  787MPD2    C411604   1.679   2.029  14.753  0.1160 -0.0602  0.1444
  787MPD2    C511605   1.544   2.047  14.790 -0.2803  0.0183  0.3740
  787MPD2     H11606   1.657   2.075  14.427  1.6639  0.9592  0.9471
  787MPD2    H111607   1.746   2.014  14.837  0.0279 -0.7308  0.0936
  787MPD2    H211608   1.347   2.107  14.718 -0.2241 -2.1037 -0.6959
  787MPD2    H311609   1.526   2.056  14.897  0.3261  0.9720  0.3885
  787MPD2     N11610   1.846   1.997  14.579  0.2270 -0.1527 -0.0703
  787MPD2    H511611   1.864   2.014  14.480  0.2794 -0.2277 -0.0733
  787MPD2    N111612   1.393   2.137  14.477  0.4725  0.4417 -0.7335
  787MPD2    H711613   1.304   2.162  14.520  2.3762  0.8865  3.0099
  788MPD2     C11614   1.878   0.077   0.990  0.6582  0.6074 -0.2336
  788MPD2    C111615   1.922   4.694   0.902 -0.7709  0.6641 -0.5573
  788MPD2    C211616   2.049   4.648   0.912 -0.0604 -0.1562  0.4155
  788MPD2    C311617   2.136   4.712   0.997  0.9032 -0.5646  0.2144
  788MPD2    C411618   2.093   0.084   1.086 -0.0223  0.6571  0.3900
  788MPD2    C511619   1.962   0.127   1.090 -0.2122 -0.2981  0.5611
  788MPD2     H11620   2.088   4.570   0.848 -1.0750 -0.5446  0.2661
  788MPD2    H111621   2.165   0.130   1.153 -1.9640  0.1843  2.8242
  788MPD2    H211622   1.773   0.100   0.992  1.1211  2.7033 -0.7184
  788MPD2    H311623   1.925   0.198   1.163 -0.6886  0.1312 -0.1023
  788MPD2     N11624   2.276   4.670   1.003  0.4873 -0.2254 -0.4237
  788MPD2    H511625   2.335   0.004   1.066 -0.3911  0.2127  0.0250
  788MPD2    N111626   1.844   4.634   0.802 -0.9569 -0.6512 -0.1148
  788MPD2    H711627   1.886   4.554   0.756 -0.9035 -1.2820  1.0459
  789MPD2     C11628   3.805   0.679  16.091  0.0955 -0.5220  0.4731
  789MPD2    C111629   3.707   0.585  16.112  0.3680 -0.1535  0.4750
  789MPD2    C211630   3.578   0.636  16.128  0.6138 -0.6144  1.0256
  789MPD2    C311631   3.555   0.774  16.128 -0.4137  0.4982  0.3174
  789MPD2    C411632   3.656   0.863  16.088 -0.3848  0.6245 -0.0790
  789MPD2    C511633   3.781   0.814  16.069 -0.5962  0.2078 -0.0141
  789MPD2     H11634   3.499   0.565  16.151 -0.1648  0.2518  1.0338
  789MPD2    H111635   3.633   0.967  16.065 -2.1519  0.7648  2.3226
  789MPD2    H211636   3.906   0.642  16.073  1.0250  1.3443  1.8882
  789MPD2    H311637   3.864   0.872  16.029 -1.3410 -0.5299 -2.6407
  789MPD2     N11638   3.433   0.836  16.150 -0.5335  0.7920 -0.2074
  789MPD2    H511639   3.426   0.931  16.117 -0.3563  0.3985 -1.3814
  789MPD2    N111640   3.729   0.447  16.129  1.1693 -0.2344  0.7611
  789MPD2    H711641   3.642   0.400  16.152  0.1291  0.4006 -1.9244
  790MPD2     C11642   4.711   2.367  13.507 -0.1875 -0.0154  0.5605
  790MPD2    C111643   4.672   2.238  13.487 -0.7979  0.5886 -0.1712
  790MPD2    C211644   4.597   2.206  13.376 -0.0552 -0.7646 -0.0564
  790MPD2    C311645   4.543   2.300  13.295  0.4731  0.6583  0.3104
  790MPD2    C411646   4.562   2.434  13.336 -0.2063  0.6470  0.6316
  790MPD2    C511647   4.653   2.462  13.432  0.2876  0.2008 -0.9176
  790MPD2     H11648   4.565   2.104  13.354 -0.9780 -1.1609  3.0735
  790MPD2    H111649   4.524   2.517  13.278 -1.8018 -1.5695 -1.5299
  790MPD2    H211650   0.058   2.388  13.590  0.7294  3.5386 -1.0544
  790MPD2    H311651   4.681   2.566  13.441  3.2092 -0.6833  0.3591
  790MPD2     N11652   4.482   2.260  13.174 -0.5547  0.0767 -0.5566
  790MPD2    H511653   4.484   2.162  13.150  0.5555  0.0692 -0.4451
  790MPD2    N111654   0.001   2.140  13.572  1.1511  0.4898  0.2794
  790MPD2    H711655   0.058   2.169  13.652  1.8210 -0.4969  0.1573
  791MPD2     C11656   3.755   2.392  12.783 -0.2032  0.2493  0.0294
  791MPD2    C111657   3.822   2.300  12.706  0.1680  0.5162  0.0713
  791MPD2    C211658   3.751   2.220  12.612  0.0856 -0.3431  0.1306
  791MPD2    C311659   3.620   2.251  12.587 -0.3308 -0.4882  0.6743
  791MPD2    C411660   3.564   2.361  12.642 -0.0500  0.0010 -0.0461
  791MPD2    C511661   3.629   2.428  12.742 -0.1477 -0.1582  0.0668
  791MPD2     H11662   3.797   2.139  12.556 -0.4035 -1.1846  0.9601
  791MPD2    H111663   3.465   2.398  12.621  0.2725  1.1327  0.4307
  791MPD2    H211664   3.805   2.451  12.859 -1.7590  0.9186  0.5309
  791MPD2    H311665   3.585   2.514  12.792 -1.1573 -0.9923  0.6179
  791MPD2     N11666   3.550   2.192  12.480 -0.4597 -0.2536 -0.3913
  791MPD2    H511667   3.594   2.119  12.426 -0.3467 -0.1433 -0.4467
  791MPD2    N111668   3.947   2.247  12.746 -0.2750 -0.0130 -0.8029
  791MPD2    H711669   3.976   2.170  12.687  3.1040  0.1203  0.6831
  792MPD2     C11670   0.259   2.303  11.283 -0.2585  0.7669 -0.2909
  792MPD2    C111671   0.152   2.343  11.207  0.4917  0.2818 -0.9003
  792MPD2    C211672   0.045   2.257  11.178  0.1647  0.5964 -0.0607
  792MPD2    C311673   0.056   2.127  11.230 -0.1522 -0.5753 -0.6080
  792MPD2    C411674   0.158   2.092  11.313  0.5666 -0.1010  0.0595
  792MPD2    C511675   0.266   2.174  11.330 -0.6607  0.3109  0.1797
  792MPD2     H11676   4.684   2.291  11.114  0.9651 -0.7603 -1.7975
  792MPD2    H111677   0.154   1.992  11.355  1.0533  0.2429  0.9252
  792MPD2    H211678   0.342   2.371  11.304 -0.5046  0.4816  1.6804
  792MPD2    H311679   0.349   2.129  11.384  0.6508  1.0646 -1.1981
  792MPD2     N11680   4.683   2.025  11.195  0.3764  0.2094 -0.5614
  792MPD2    H511681   4.690   1.940  11.251  2.3136  0.8847  0.2080
  792MPD2    N111682   0.169   2.477  11.154  0.0044 -0.2938  0.3764
  792MPD2    H711683   0.266   2.507  11.161 -0.4976  1.0206  1.4933
  793MPD2     C11684   4.071   2.248  10.478 -0.5042  0.7610  0.4195
  793MPD2    C111685   4.207   2.248  10.471 -0.0632  0.7001  0.4916
  793MPD2    C211686   4.280   2.182  10.570 -0.0854 -0.4453  0.4739
  793MPD2    C311687   4.206   2.101  10.658  0.5564  0.4433 -0.4274
  793MPD2    C411688   4.062   2.101  10.657  0.1376  0.5664 -0.0660
  793MPD2    C511689   3.996   2.174  10.571  0.3811 -0.8590 -0.0967
  793MPD2     H11690   4.388   2.171  10.569 -0.0424  0.3020 -4.2521
  793MPD2    H111691   4.010   2.035  10.726 -1.0289  1.6126  0.0384
  793MPD2    H211692   4.022   2.320  10.412 -1.8163 -0.8888 -0.4239
  793MPD2    H311693   3.888   2.171  10.568  0.3578  1.4570 -1.8821
  793MPD2     N11694   4.286   2.034  10.749  0.3659  0.8138 -0.0258
  793MPD2    H511695   4.386   2.039  10.731  0.9094 -0.0947  2.8047
  793MPD2    N111696   4.273   2.338  10.380 -0.4735  0.4919  0.9899
  793MPD2    H711697   4.220   2.391  10.311 -2.2841 -0.9935  1.2591
  794MPD2     C11698   3.569   1.502  17.491 -0.2635  0.3257  0.2467
  794MPD2    C111699   3.671   1.451  17.405  0.1920 -0.0264  1.5251
  794MPD2    C211700   3.730   1.533  17.309  0.3350  0.0427 -0.3097
  794MPD2    C311701   3.696   1.673  17.312  0.1392 -0.5395  0.0520
  794MPD2    C411702   3.604   1.720  17.399  0.1924  0.2273  0.6800
  794MPD2    C511703   3.542   1.640  17.490 -0.1753 -0.1387 -0.3357
  794MPD2     H11704   3.789   1.489  17.229  1.2818  1.2638 -0.2806
  794MPD2    H111705   3.583   1.826  17.408  1.7773  0.5638  0.3213
  794MPD2    H211706   3.526   1.438  17.567 -2.5904 -0.6136 -1.8542
  794MPD2    H311707   3.476   1.672  17.570  0.2409  0.2394 -0.1395
  794MPD2     N11708   3.743   1.771  17.222  0.0473 -0.9468 -1.3248
  794MPD2    H511709   3.714   1.868  17.227 -0.4952 -1.1622 -0.3521
  794MPD2    N111710   3.709   1.316  17.401 -0.4621  0.3692 -0.2346
  794MPD2    H711711   3.778   1.298  17.329  0.1005  1.3128  0.0716
  795MPD2     C11712   1.833   3.944  13.423  0.4729 -0.0190 -0.9190
  795MPD2    C111713   1.788   3.848  13.509  0.3616 -0.2749  0.3130
  795MPD2    C211714   1.892   3.781  13.586  0.7861  0.3303 -0.0773
  795MPD2    C311715   2.027   3.828  13.588  0.0763 -0.2922  0.4472
  795MPD2    C411716   2.059   3.925  13.497  0.2639 -0.3558 -0.6232
  795MPD2    C511717   1.967   3.986  13.424  0.4125 -0.2798  0.0823
  795MPD2     H11718   1.864   3.701  13.654 -0.0478 -1.4072 -2.4589
  795MPD2    H111719   2.157   3.972  13.494  0.6099 -1.0939 -1.0554
  795MPD2    H211720   1.766   4.002  13.361  0.0931  2.3570  1.6993
  795MPD2    H311721   1.990   4.061  13.348 -1.5225  0.5191  0.2690
  795MPD2     N11722   2.122   3.755  13.658  0.8076 -0.5114 -0.5422
  795MPD2    H511723   2.093   3.699  13.738 -0.8420  1.3395  0.1359
  795MPD2    N111724   1.652   3.819  13.519  0.1453 -0.0963  0.2869
  795MPD2    H711725   1.592   3.879  13.462  1.8077  1.6694  0.4100
  796MPD2     C11726   1.783   0.679  15.488  0.6175  0.2956  0.5242
  796MPD2    C111727   1.690   0.704  15.592  0.2525  0.2314 -0.0358
  796MPD2    C211728   1.619   0.823  15.594  0.1444 -0.6039 -0.1441
  796MPD2    C311729   1.641   0.917  15.495  0.2047  0.1812  0.1961
  796MPD2    C411730   1.745   0.899  15.404  0.2863 -0.3886 -0.0634
  796MPD2    C511731   1.807   0.778  15.396  0.3249  0.1561  0.8096
  796MPD2     H11732   1.537   0.828  15.666 -1.4286  1.7339 -2.1134
  796MPD2    H111733   1.779   0.974  15.333 -0.0925 -1.1435 -1.0354
  796MPD2    H211734   1.849   0.593  15.475 -1.4370 -1.0252 -1.2908
  796MPD2    H311735   1.885   0.760  15.322 -1.4123  0.7961 -1.1821
  796MPD2     N11736   1.575   1.037  15.503 -0.3000 -0.2830  0.0122
  796MPD2    H511737   1.614   1.112  15.447 -0.4743  0.5018  0.9616
  796MPD2    N111738   1.672   0.601  15.689  0.3032  0.5027 -0.6472
  796MPD2    H711739   1.718   0.514  15.665 -2.4700 -1.1650 -0.0139
  797MPD2     C11740   2.437   0.322  17.132 -0.1064 -0.1919  0.0343
  797MPD2    C111741   2.552   0.273  17.072 -0.3724  0.3302 -0.7525
  797MPD2    C211742   2.559   0.288  16.935  0.4608 -0.7127  0.2060
  797MPD2    C311743   2.461   0.346  16.853 -0.4180  0.1800  0.1143
  797MPD2    C411744   2.348   0.399  16.913  0.0472  0.0599 -0.2527
  797MPD2    C511745   2.337   0.375  17.047  0.1718  0.8731 -0.2405
  797MPD2     H11746   2.652   0.262  16.887  0.1072  0.8521 -1.3236
  797MPD2    H111747   2.273   0.460  16.865  0.5629  1.1778  0.3619
  797MPD2    H211748   2.426   0.308  17.239  3.8456  0.4711  0.5232
  797MPD2    H311749   2.256   0.434  17.087 -1.1968 -2.3953  1.7381
  797MPD2     N11750   2.494   0.373  16.719  0.1645 -0.3129  0.6952
  797MPD2    H511751   2.586   0.356  16.679 -0.3099  0.9144 -0.9130
  797MPD2    N111752   2.670   0.229  17.132 -0.3436 -1.0530 -0.4016
  797MPD2    H711753   2.756   0.217  17.079  0.0438 -1.5755  0.3309
  798MPD2     C11754   3.153   0.519  16.606  0.6836 -0.0633 -0.6541
  798MPD2    C111755   3.038   0.447  16.636  0.5128 -0.0592  0.2875
  798MPD2    C211756   3.023   0.397  16.768  0.6278 -0.8888 -0.0348
  798MPD2    C311757   3.112   0.403  16.867  1.0156  0.8709 -0.2188
  798MPD2    C411758   3.228   0.470  16.836  0.3303 -0.4420 -0.5964
  798MPD2    C511759   3.244   0.529  16.710 -0.8009 -0.0921  0.8089
  798MPD2     H11760   2.925   0.358  16.792 -0.0709 -0.6128 -2.4296
  798MPD2    H111761   3.300   0.491  16.915 -0.9105  1.3100  0.0760
  798MPD2    H211762   3.167   0.565  16.509 -2.0449 -2.5409 -2.2198
  798MPD2    H311763   3.332   0.589  16.690  0.5966 -2.1841  0.7548
  798MPD2     N11764   3.069   0.345  16.986 -0.2235  0.2371  0.0701
  798MPD2    H511765   2.974   0.307  16.980 -0.8839  1.8933  0.0848
  798MPD2    N111766   2.935   0.440  16.542 -0.0671 -0.2969  0.2546
  798MPD2    H711767   2.960   0.483  16.454  2.7710  2.7406  2.5207
  799MPD2     C11768   1.847   1.525  14.438 -0.6834  0.4578  1.3752
  799MPD2    C111769   1.795   1.474  14.321 -0.2397 -0.1810  0.3974
  799MPD2    C211770   1.681   1.536  14.268  0.2231 -0.3966  0.3506
  799MPD2    C311771   1.627   1.651  14.322 -0.1924  0.4948 -0.1126
  799MPD2    C411772   1.685   1.707  14.433  0.8815 -0.7554  0.0788
  799MPD2    C511773   1.795   1.645  14.492 -0.0178 -0.1613 -0.8849
  799MPD2     H11774   1.637   1.492  14.179  1.7208  1.2895 -1.2273
  799MPD2    H111775   1.655   1.806  14.464  0.9518 -0.6078 -0.3192
  799MPD2    H211776   1.942   1.488  14.477 -0.5493  0.0174  0.6393
  799MPD2    H311777   1.835   1.699  14.577  0.3738 -0.6370 -0.7618
  799MPD2     N11778   1.517   1.720  14.269  0.0871 -0.2338  0.9746
  799MPD2    H511779   1.483   1.807  14.309  1.0539 -0.3287  2.0165
  799MPD2    N111780   1.844   1.358  14.249 -0.3081 -0.5074 -0.5786
  799MPD2    H711781   1.801   1.338  14.159 -1.0149  1.1563 -0.6091
  800MPD2     C11782   1.474   2.860  14.096  0.4933 -0.4924 -0.5850
  800MPD2    C111783   1.610   2.872  14.086 -0.3510  0.0118 -0.0540
  800MPD2    C211784   1.662   2.847  13.960 -0.0573  0.5173  0.0664
  800MPD2    C311785   1.579   2.840  13.846  0.2237  0.3202 -0.0861
  800MPD2    C411786   1.446   2.839  13.860  0.1897  0.2537 -0.2654
  800MPD2    C511787   1.391   2.835  13.986  0.8262 -0.3409  0.3378
  800MPD2     H11788   1.768   2.856  13.935 -0.0748  0.8846  0.1319
  800MPD2    H111789   1.377   2.826  13.778  1.4727 -0.1511 -1.2876
  800MPD2    H211790   1.426   2.884  14.191 -0.8525 -0.5893 -1.2432
  800MPD2    H311791   1.284   2.824  13.996  1.0287 -2.5393  0.0976
  800MPD2     N11792   1.642   2.845  13.712  0.4446 -0.1569 -0.6507
  800MPD2    H511793   1.743   2.845  13.703  0.5898  0.7341  1.0679
  800MPD2    N111794   1.691   2.927  14.192  0.0507  0.3974 -0.2582
  800MPD2    H711795   1.645   2.938  14.282 -2.4193 -0.9781 -1.3719
  801MPD2     C11796   1.666   3.599  14.415  0.1837 -0.2895 -0.9183
  801MPD2    C111797   1.739   3.558  14.521  0.6441  0.2820 -1.0914
  801MPD2    C211798   1.780   3.656  14.608 -0.5839 -0.3810  0.2537
  801MPD2    C311799   1.736   3.794  14.599  0.5448  0.4158  0.4558
  801MPD2    C411800   1.660   3.829  14.491  0.2963  0.5115  0.2579
  801MPD2    C511801   1.636   3.732  14.399 -0.1479  0.2887 -1.1486
  801MPD2     H11802   1.850   3.621  14.682 -0.0426 -1.6058 -0.8413
  801MPD2    H111803   1.623   3.930  14.476 -0.2945  0.5992  2.1677
  801MPD2    H211804   1.649   3.531  14.332 -2.0452 -0.4590 -0.3291
  801MPD2    H311805   1.568   3.759  14.319 -0.9241 -0.6509 -0.8020
  801MPD2     N11806   1.778   3.901  14.688 -1.0543 -0.1453 -0.0825
  801MPD2    H511807   1.762   3.994  14.650  0.8614 -0.1657 -0.9384
  801MPD2    N111808   1.789   3.425  14.527  0.1097 -0.2704 -0.4725
  801MPD2    H711809   1.851   3.406  14.605  0.5868 -0.0726 -0.8012
  802MPD2     C11810   0.778   3.493  17.024 -0.0381 -0.1130 -0.4188
  802MPD2    C111811   0.858   3.474  17.131  0.0788 -0.0938 -0.9312
  802MPD2    C211812   0.994   3.440  17.115 -0.3884 -0.0858 -0.3247
  802MPD2    C311813   1.049   3.446  16.987  0.1382 -0.1581  0.2439
  802MPD2    C411814   0.967   3.468  16.876 -0.1755 -0.3751  0.3757
  802MPD2    C511815   0.832   3.501  16.899 -0.4303 -0.3711 -0.5302
  802MPD2     H11816   1.050   3.425  17.206  1.4334  0.1432 -1.3992
  802MPD2    H111817   1.012   3.479  16.778 -1.1865  0.9487  0.0682
  802MPD2    H211818   0.675   3.522  17.041 -0.0205  0.0350 -0.5639
  802MPD2    H311819   0.766   3.532  16.818 -1.1645  0.3667  0.3593
  802MPD2     N11820   1.183   3.408  16.973  0.4066 -0.2135 -0.0288
  802MPD2    H511821   1.235   3.400  17.060  0.6206 -0.8715 -0.2156
  802MPD2    N111822   0.811   3.493  17.261  0.1984 -0.5206 -0.7272
  802MPD2    H711823   0.868   3.467  17.341 -1.3714  1.6170  1.0770
  803MPD2     C11824   2.482   2.562  11.698 -0.3886 -0.3245 -0.7678
  803MPD2    C111825   2.557   2.526  11.802 -0.3568 -0.4070  0.1490
  803MPD2    C211826   2.506   2.449  11.903 -0.1298 -0.5897  0.0151
  803MPD2    C311827   2.375   2.406  11.900  1.2761  1.2403 -0.0516
  803MPD2    C411828   2.294   2.447  11.793 -0.6779  0.7176  0.1016
  803MPD2    C511829   2.349   2.523  11.698 -0.9296  0.3656 -0.5299
  803MPD2     H11830   2.576   2.429  11.983  1.7930  1.1297 -1.2489
  803MPD2    H111831   2.189   2.420  11.785 -0.5419 -0.3840  1.9386
  803MPD2    H211832   2.521   2.615  11.612  1.4078  1.9719  1.4596
  803MPD2    H311833   2.284   2.560  11.619 -0.2821  0.5138 -0.9955
  803MPD2     N11834   2.322   2.325  11.996  0.3202  0.7617 -0.3500
  803MPD2    H511835   2.221   2.314  11.992  0.6258 -1.6794 -1.4526
  803MPD2    N111836   2.695   2.564  11.803 -0.0088 -0.1418 -0.2847
  803MPD2    H711837   2.739   2.553  11.894  0.9090 -0.4688 -0.7610
  804MPD2     C11838   2.256   3.634  17.043 -0.2091  0.6259 -0.4504
  804MPD2    C111839   2.273   3.597  17.168 -0.1151 -0.0382 -0.7245
  804MPD2    C211840   2.300   3.690  17.266 -0.0482 -0.0195  0.0691
  804MPD2    C311841   2.336   3.819  17.226  0.3940 -0.6851  0.2421
  804MPD2    C411842   2.318   3.859  17.097 -0.1788 -0.6390  0.4305
  804MPD2    C511843   2.268   3.764  17.003  0.1304 -0.0266 -0.0108
  804MPD2     H11844   2.299   3.659  17.369  0.1644  0.9571  0.3602
  804MPD2    H111845   2.340   3.960  17.063 -2.8103 -0.2018  0.0747
  804MPD2    H211846   2.214   3.561  16.974 -0.1419  0.7062 -0.5753
  804MPD2    H311847   2.252   3.803  16.903 -3.5099 -1.2043  0.1085
  804MPD2     N11848   2.380   3.899  17.335 -0.1259 -0.6966 -0.4030
  804MPD2    H511849   2.355   3.872  17.430 -1.0542  0.6825 -0.2667
  804MPD2    N111850   2.258   3.463  17.212 -0.2291 -0.1465 -0.1491
  804MPD2    H711851   2.307   3.445  17.299 -0.5980  1.5753  0.4220
  805MPD2     C11852   1.522   1.199  15.209  0.1628 -0.3224 -0.2940
  805MPD2    C111853   1.462   1.317  15.251  0.0431 -0.3697 -0.4467
  805MPD2    C211854   1.539   1.429  15.284 -0.2899  0.0073 -0.0615
  805MPD2    C311855   1.676   1.422  15.292 -0.0884  0.1691 -0.1374
  805MPD2    C411856   1.736   1.302  15.261  0.3699 -0.6634  0.1887
  805MPD2    C511857   1.661   1.199  15.212 -0.9522  0.0561 -0.4196
  805MPD2     H11858   1.496   1.524  15.313 -1.7660 -0.9607  0.9218
  805MPD2    H111859   1.844   1.297  15.253  0.2965 -1.2829 -0.3580
  805MPD2    H211860   1.477   1.106  15.177 -0.2760  0.1787 -1.1012
  805MPD2    H311861   1.711   1.110  15.175  0.4313  1.8430 -2.7842
  805MPD2     N11862   1.751   1.532  15.351 -0.1682  0.1417  0.4697
  805MPD2    H511863   1.698   1.619  15.354  0.6770  0.7085 -1.0044
  805MPD2    N111864   1.319   1.332  15.269  0.2180 -0.6978  0.1027
  805MPD2    H711865   1.276   1.423  15.284 -1.1493 -1.3888  0.3672
  806MPD2     C11866   2.208   1.270   0.136 -0.2927 -0.7611 -0.4701
  806MPD2    C111867   2.304   1.334   0.204 -0.1764  0.4914  0.1096
  806MPD2    C211868   2.356   1.453   0.150  0.2412 -0.0498 -0.4420
  806MPD2    C311869   2.297   1.500   0.032  0.6143 -0.0339 -0.2394
  806MPD2    C411870   2.201   1.428  17.639  0.2763  0.0595  0.0520
  806MPD2    C511871   2.157   1.313   0.012 -0.3642  0.5703  0.4117
  806MPD2     H11872   2.439   1.505   0.198 -0.8395  3.6110 -2.5295
  806MPD2    H111873   2.163   1.454  17.541  0.6088  1.2050  0.2331
  806MPD2    H211874   2.166   1.179   0.178 -0.8701 -0.4827 -0.4526
  806MPD2    H311875   2.086   1.246  17.645  0.7643  1.2315 -2.1683
  806MPD2     N11876   2.355   1.618  17.667  0.0575  0.3219  0.5297
  806MPD2    H511877   2.436   1.655   0.034  1.3875 -0.1644 -1.3128
  806MPD2    N111878   2.357   1.279   0.325  0.1028 -0.3127  0.2999
  806MPD2    H711879   2.309   1.195   0.358 -1.3716  0.6632  0.6531
  807MPD2     C11880   2.021   1.454   0.969  0.3849  0.2456  0.3285
  807MPD2    C111881   2.044   1.322   0.965 -0.2129  0.2769  0.0817
  807MPD2    C211882   1.946   1.234   1.020  0.4329  0.0471 -0.0612
  807MPD2    C311883   1.840   1.286   1.090 -0.4036  0.1713  0.7178
  807MPD2    C411884   1.817   1.424   1.098  0.1151 -0.9648  0.3851
  807MPD2    C511885   1.916   1.502   1.045  0.5515  0.7417 -0.6803
  807MPD2     H11886   1.964   1.130   0.996 -1.1261 -0.8807  2.8576
  807MPD2    H111887   1.736   1.468   1.156 -0.1309  0.2888 -0.9102
  807MPD2    H211888   2.090   1.526   0.926  2.8303 -1.6509  1.0600
  807MPD2    H311889   1.900   1.609   1.038  1.5411  1.1456  3.1146
  807MPD2     N11890   1.761   1.185   1.157 -0.1818  0.3863 -0.4947
  807MPD2    H511891   1.795   1.090   1.165  0.4154  0.6911  0.5336
  807MPD2    N111892   2.148   1.267   0.883 -0.2784 -0.1340  0.1478
  807MPD2    H711893   2.145   1.169   0.858 -1.5410 -0.0768  0.0624
  808MPD2     C11894   2.019   2.656   8.683 -0.0095 -0.3206  0.1003
  808MPD2    C111895   2.055   2.527   8.718 -0.2815  0.3711 -0.6077
  808MPD2    C211896   2.184   2.505   8.752  0.3199 -0.5116  0.4249
  808MPD2    C311897   2.266   2.613   8.780  0.4169  0.0643  0.1072
  808MPD2    C411898   2.226   2.744   8.775  0.3755 -0.5192 -0.1962
  808MPD2    C511899   2.100   2.766   8.714  0.3751 -0.6157 -0.3023
  808MPD2     H11900   2.220   2.404   8.766 -0.4798 -1.3443 -3.3656
  808MPD2    H111901   2.291   2.827   8.798 -1.5292  0.4618  1.5462
  808MPD2    H211902   1.919   2.677   8.647  1.1107  0.8873 -2.3138
  808MPD2    H311903   2.072   2.868   8.690 -0.0793 -0.8593 -0.8069
  808MPD2     N11904   2.395   2.592   8.834 -0.2479  0.0648  0.0980
  808MPD2    H511905   2.432   2.674   8.881 -1.1421  0.6927 -0.2851
  808MPD2    N111906   1.974   2.414   8.693 -0.7043  0.1467 -0.0960
  808MPD2    H711907   2.013   2.324   8.717 -1.3228  0.2865  1.4364
  809MPD2     C11908   3.342   2.032   8.839  0.0461 -0.0371 -0.3332
  809MPD2    C111909   3.351   2.148   8.913  0.0388  0.0644 -0.3235
  809MPD2    C211910   3.240   2.208   8.968  0.1022  0.2818 -0.2361
  809MPD2    C311911   3.117   2.164   8.932  0.1187  0.3013 -0.0060
  809MPD2    C411912   3.106   2.042   8.859 -0.2283  0.1423  0.0477
  809MPD2    C511913   3.221   1.981   8.817  0.0224  0.1497  0.5463
  809MPD2     H11914   3.249   2.298   9.027  0.7297 -0.2864  0.5434
  809MPD2    H111915   3.011   2.001   8.828 -0.6292 -0.2147  1.7575
  809MPD2    H211916   3.432   1.981   8.806 -0.7772  1.0756 -4.2729
  809MPD2    H311917   3.210   1.888   8.762  0.2278  0.7023 -0.4293
  809MPD2     N11918   3.003   2.236   8.964  0.3537 -0.0946 -0.4839
  809MPD2    H511919   3.015   2.305   9.037 -1.2266  1.0746 -1.3361
  809MPD2    N111920   3.478   2.205   8.952 -0.0920 -0.7637 -0.3310
  809MPD2    H711921   3.477   2.277   9.023 -0.4008 -0.0594 -1.0476
  810MPD2     C11922   1.944   2.677   9.296 -0.4126 -0.5518 -0.2650
  810MPD2    C111923   1.872   2.601   9.385 -0.1797 -0.4113  0.3068
  810MPD2    C211924   1.902   2.611   9.520 -0.3044  0.9212  0.2083
  810MPD2    C311925   2.008   2.687   9.569 -0.9134 -0.2976  0.6096
  810MPD2    C411926   2.084   2.748   9.472  0.0865 -0.0192 -0.5184
  810MPD2    C511927   2.052   2.751   9.336  0.1265  1.0271  0.3682
  810MPD2     H11928   1.831   2.573   9.593  1.3918 -0.6932  1.0039
  810MPD2    H111929   2.155   2.826   9.495 -0.6593  0.7942 -0.9521
  810MPD2    H211930   1.915   2.672   9.191 -1.1228 -0.5275 -0.0641
  810MPD2    H311931   2.103   2.818   9.268  2.3781  0.2268  1.2820
  810MPD2     N11932   2.050   2.689   9.704  0.1967 -0.3430  0.0692
  810MPD2    H511933   1.988   2.644   9.771 -1.5240  0.7114 -0.8091
  810MPD2    N111934   1.779   2.515   9.331  0.7470  0.1793  0.0127
  810MPD2    H711935   1.760   2.534   9.233  1.3481 -0.4374 -0.2315
  811MPD2     C11936   0.952   2.529   9.211 -0.0717 -0.3764 -0.0176
  811MPD2    C111937   1.068   2.577   9.271 -0.7107  0.5654  0.1398
  811MPD2    C211938   1.075   2.711   9.304 -0.0258  0.1494 -0.1278
  811MPD2    C311939   0.982   2.805   9.282 -0.1853  0.2012 -0.6642
  811MPD2    C411940   0.873   2.759   9.213  0.3430 -0.5769 -0.7911
  811MPD2    C511941   0.858   2.625   9.182 -0.5974 -0.4934 -0.3180
  811MPD2     H11942   1.165   2.748   9.353 -0.3087 -1.6382  1.7906
  811MPD2    H111943   0.789   2.819   9.181 -1.4799 -1.7101  1.8531
  811MPD2    H211944   0.930   2.423   9.201  1.8991 -0.9048  1.2563
  811MPD2    H311945   0.768   2.579   9.144 -0.6393 -0.5282 -0.1765
  811MPD2     N11946   1.006   2.948   9.309 -0.2062  0.1508 -0.4266
  811MPD2    H511947   1.070   2.960   9.388 -0.2835 -0.8814 -0.2100
  811MPD2    N111948   1.176   2.486   9.285 -0.1436  0.3304 -0.0084
  811MPD2    H711949   1.162   2.391   9.251 -0.9036  0.4963 -0.1550
  812MPD2     C11950   0.784   2.317  12.015  0.1740 -0.2794  0.0761
  812MPD2    C111951   0.682   2.347  12.098  0.3477  0.5765  0.4182
  812MPD2    C211952   0.617   2.241  12.164  0.1471 -0.0424 -0.3416
  812MPD2    C311953   0.669   2.112  12.148 -0.3074 -0.4431 -0.5329
  812MPD2    C411954   0.783   2.090  12.076  1.0124 -0.1932  0.1110
  812MPD2    C511955   0.837   2.186  12.003 -0.0179  0.1236  0.1157
  812MPD2     H11956   0.532   2.259  12.229 -0.8578  3.0411 -2.5358
  812MPD2    H111957   0.829   1.992  12.065  0.0725 -0.5177 -0.8432
  812MPD2    H211958   0.836   2.396  11.962 -0.7452  0.7927  0.7581
  812MPD2    H311959   0.919   2.156  11.939  0.6488  2.0348  0.0756
  812MPD2     N11960   0.615   2.010  12.234  0.1481 -0.4460  0.3418
  812MPD2    H511961   0.543   2.042  12.299  0.0994 -0.4280  0.2789
  812MPD2    N111962   0.642   2.489  12.101  0.4246 -0.4514 -0.0086
  812MPD2    H711963   0.695   2.555  12.045  0.8227  0.9239  2.0124
  813MPD2     C11964   4.312   4.069  12.956 -0.5914 -0.6852  0.0789
  813MPD2    C111965   4.231   4.170  12.924 -0.9523  0.5542  0.5785
  813MPD2    C211966   4.089   4.170  12.946 -0.4302  0.5778  0.1782
  813MPD2    C311967   4.034   4.056  12.992 -0.4896  0.3433  0.4882
  813MPD2    C411968   4.115   3.947  13.019  0.3125 -0.4091 -0.8721
  813MPD2    C511969   4.251   3.951  12.992 -0.5260 -0.0693 -0.2795
  813MPD2     H11970   4.031   4.260  12.931 -2.2793 -0.6864 -0.2633
  813MPD2    H111971   4.070   3.857  13.058 -1.1315  0.0907 -1.3988
  813MPD2    H211972   4.419   4.070  12.936 -0.7370 -0.5069 -0.6552
  813MPD2    H311973   4.315   3.868  13.020 -0.7158 -0.2918 -0.5043
  813MPD2     N11974   3.895   4.050  13.013  0.3463 -0.5656  0.0526
  813MPD2    H511975   3.846   4.139  13.005 -1.4878 -1.3270  2.8997
  813MPD2    N111976   4.304   4.289  12.897 -0.4563  0.1815 -0.4328
  813MPD2    H711977   4.405   4.291  12.907 -0.4706  0.6054 -0.3865
  814MPD2     C11978   0.116   0.988  12.144  0.6376 -0.9257 -0.1981
  814MPD2    C111979   0.222   0.974  12.062  0.1929  0.6138  1.1901
  814MPD2    C211980   0.292   1.083  12.027 -0.2934  0.3739  0.3047
  814MPD2    C311981   0.256   1.212  12.061 -0.0164 -0.1880  0.0063
  814MPD2    C411982   0.147   1.231  12.140  0.0471  0.3216 -0.6317
  814MPD2    C511983   0.084   1.119  12.188  0.5097  0.2802  0.0352
  814MPD2     H11984   0.376   1.069  11.960  0.4281 -1.2267  1.5381
  814MPD2    H111985   0.105   1.328  12.163  1.7829  1.3245 -1.6996
  814MPD2    H211986   0.052   0.909  12.182  1.1140 -0.7851  0.8901
  814MPD2    H311987   4.714   1.132  12.246  0.9018 -0.0573  0.7194
  814MPD2     N11988   0.325   1.319  12.012 -0.0582  0.7059 -0.0065
  814MPD2    H511989   0.294   1.408  12.049 -0.1277  1.4548 -1.8482
  814MPD2    N111990   0.273   0.843  12.027  0.1712 -0.5483  0.1803
  814MPD2    H711991   0.213   0.769  12.062 -1.4492 -0.1628 -1.7710
  815MPD2     C11992   0.663   4.205  11.759  0.1465  0.1669  0.5404
  815MPD2    C111993   0.632   4.065  11.747 -0.6361 -0.7379  0.0450
  815MPD2    C211994   0.577   4.000  11.856 -0.0950  0.1863 -0.0186
  815MPD2    C311995   0.552   4.074  11.974  0.0825  0.0055  0.0529
  815MPD2    C411996   0.593   4.207  11.983  0.7426 -0.3018  0.0729
  815MPD2    C511997   0.630   4.274  11.868  0.3544  0.3952  0.8035
  815MPD2     H11998   0.539   3.899  11.853 -1.2995  0.5265  3.3234
  815MPD2    H111999   0.592   4.267  12.073 -1.2985 -0.9110  0.4394
  815MPD2    H212000   0.698   4.259  11.672 -3.0555  1.1522 -0.1285
  815MPD2    H312001   0.646   4.381  11.867 -0.6525  0.5488  0.5231
  815MPD2     N12002   0.488   4.004  12.074 -0.0167  0.4274  0.5002
  815MPD2    H512003   0.466   3.905  12.070 -1.4829  0.7278  1.1924
  815MPD2    N112004   0.669   3.991  11.626  0.5039 -0.9030  0.0962
  815MPD2    H712005   0.712   4.046  11.552 -1.5448 -1.7010 -1.6820
  816MPD2     C12006   0.521   3.243  17.438 -0.0841  0.0814  0.7700
  816MPD2    C112007   0.489   3.217  17.305  0.3332  0.0396  0.3284
  816MPD2    C212008   0.579   3.160  17.217 -0.3165 -0.3565  0.8272
  816MPD2    C312009   0.716   3.164  17.245  1.1709  0.5767 -0.0719
  816MPD2    C412010   0.750   3.189  17.377 -0.5742 -0.1338  0.0835
  816MPD2    C512011   0.653   3.229  17.470  0.1807 -0.3079  0.6483
  816MPD2     H12012   0.542   3.133  17.118  0.8321  0.8747  0.0589
  816MPD2    H112013   0.852   3.173  17.412 -0.8906 -1.6800  0.2965
  816MPD2    H212014   0.449   3.272  17.514  1.7670  2.3285  1.6440
  816MPD2    H312015   0.685   3.243  17.572 -0.8480  2.3231  0.6172
  816MPD2     N12016   0.817   3.117  17.156 -0.0142 -0.0690 -0.8368
  816MPD2    H512017   0.773   3.083  17.071  2.3247 -2.4765 -1.1099
  816MPD2    N112018   0.356   3.259  17.273  0.2819  0.3358  0.4404
  816MPD2    H712019   0.292   3.284  17.348 -1.4546  0.6711 -1.1552
  817MPD2     C12020   0.341   0.028  10.194 -0.1970  0.3088  0.1823
  817MPD2    C112021   0.411   0.035  10.083 -0.1345 -0.1452  0.1444
  817MPD2    C212022   0.436   0.160  10.032 -0.3669 -0.4278  0.3527
  817MPD2    C312023   0.404   0.279  10.095 -0.3753  0.8935 -0.5143
  817MPD2    C412024   0.333   0.266  10.215 -0.6640 -0.4386  0.0976
  817MPD2    C512025   0.298   0.140  10.261  0.2803  0.7375 -0.6107
  817MPD2     H12026   0.502   0.165   9.946 -0.6083 -2.5660  0.0402
  817MPD2    H112027   0.295   0.349  10.273 -0.1039  1.6516 -2.5225
  817MPD2    H212028   0.308   4.650  10.227  0.3050  0.2070  0.3890
  817MPD2    H312029   0.232   0.140  10.347 -2.4990  0.0620 -2.7485
  817MPD2     N12030   0.432   0.408  10.038 -0.4661  0.3437 -0.0313
  817MPD2    H512031   0.484   0.398   9.952  1.3284  1.0855  0.9651
  817MPD2    N112032   0.442   4.648  10.004  0.2557 -0.4346 -0.4707
  817MPD2    H712033   0.491   4.662   9.916  0.4990  0.3540 -0.2055
  818MPD2     C12034   3.974   4.510   9.861  0.2511 -0.6739 -0.3631
  818MPD2    C112035   3.896   4.404   9.900 -0.0436  0.2432  0.4596
  818MPD2    C212036   3.939   4.275   9.886  0.1927 -0.9282  0.0417
  818MPD2    C312037   4.063   4.254   9.827  0.2492  0.1321  0.1190
  818MPD2    C412038   4.142   4.354   9.784  0.1922  1.0626 -0.5291
  818MPD2    C512039   4.099   4.482   9.811 -1.2906  0.0754  0.2857
  818MPD2     H12040   3.868   4.201   9.920  0.9194 -2.8243 -2.5425
  818MPD2    H112041   4.243   4.329   9.752 -0.1241  0.1612 -0.8005
  818MPD2    H212042   3.941   4.613   9.862 -0.9359 -1.0524 -0.6970
  818MPD2    H312043   4.162   4.566   9.785 -3.0753  0.6067 -2.2436
  818MPD2     N12044   4.111   4.122   9.815 -0.3858  0.4154  0.0717
  818MPD2    H512045   4.198   4.096   9.770 -0.9270 -0.7055 -0.3464
  818MPD2    N112046   3.764   4.419   9.954 -0.8770  0.0818 -0.0457
  818MPD2    H712047   3.722   4.337   9.998  0.6318 -1.3482 -1.2572
  819MPD2     C12048   2.032   1.861  15.218 -0.5361  0.0893  0.9589
  819MPD2    C112049   2.043   1.740  15.154 -0.1892  0.4185 -0.3966
  819MPD2    C212050   2.133   1.651  15.205  0.5507  0.0971  0.0756
  819MPD2    C312051   2.220   1.681  15.310 -0.3238  0.4409 -0.4142
  819MPD2    C412052   2.209   1.804  15.372 -0.5947 -0.0847  0.7347
  819MPD2    C512053   2.111   1.891  15.324  0.1833 -0.5930  0.5489
  819MPD2     H12054   2.147   1.552  15.162  2.0934  0.2897  0.1369
  819MPD2    H112055   2.264   1.824  15.463  1.1116 -1.6735  0.0314
  819MPD2    H212056   1.967   1.943  15.189  0.7350  1.7010  2.6688
  819MPD2    H312057   2.103   1.986  15.375 -1.5873  0.2464 -1.2974
  819MPD2     N12058   2.307   1.581  15.357  0.8609  0.5989  0.2463
  819MPD2    H512059   2.327   1.491  15.315 -2.0505  0.4245 -0.8177
  819MPD2    N112060   1.958   1.712  15.045  0.2133  0.7441 -0.4460
  819MPD2    H712061   1.909   1.793  15.008  1.1133  0.8378 -1.4548
  820MPD2     C12062   0.986   1.851  14.925 -0.1869  0.3783 -0.5548
  820MPD2    C112063   1.060   1.766  15.005 -0.3692 -0.0361  0.0961
  820MPD2    C212064   1.199   1.754  14.979 -0.5048  0.5229  1.1082
  820MPD2    C312065   1.256   1.816  14.870  0.3365 -0.1457 -0.0261
  820MPD2    C412066   1.176   1.885  14.783 -0.0926  0.2755  0.2637
  820MPD2    C512067   1.048   1.906  14.817 -0.1117 -0.2535 -0.1024
  820MPD2     H12068   1.254   1.678  15.032  2.4262  1.3387 -0.7917
  820MPD2    H112069   1.217   1.930  14.694  1.4202 -0.3164  0.6723
  820MPD2    H212070   0.881   1.869  14.942 -0.4646 -1.9639  0.3148
  820MPD2    H312071   0.986   1.973  14.758 -1.0327 -0.8411  0.1986
  820MPD2     N12072   1.387   1.776  14.826  0.1715  0.3493  0.5443
  820MPD2    H512073   1.403   1.799  14.729  1.5351  1.1459  0.9573
  820MPD2    N112074   0.997   1.691  15.112 -0.7228 -0.2919 -0.2013
  820MPD2    H712075   0.895   1.685  15.107 -0.6749 -1.5334  0.3013
  821MPD2     C12076   1.639   3.152  12.902 -0.1035  0.6788  0.2002
  821MPD2    C112077   1.739   3.178  12.993 -0.5167 -0.0442 -0.1496
  821MPD2    C212078   1.841   3.264  12.962 -0.5977  0.0375 -0.0003
  821MPD2    C312079   1.851   3.330  12.843  1.4770 -0.2050 -0.3573
  821MPD2    C412080   1.755   3.310  12.747  0.1699 -0.1406  0.1449
  821MPD2    C512081   1.654   3.222  12.781 -0.2281  0.4717  0.5172
  821MPD2     H12082   1.911   3.286  13.042 -2.0598 -0.1632  1.3316
  821MPD2    H112083   1.744   3.361  12.652  0.6841 -0.2139  0.0464
  821MPD2    H212084   1.563   3.075  12.904  0.8738 -0.2443  1.1770
  821MPD2    H312085   1.581   3.206  12.703 -1.3870 -1.1038  1.9330
  821MPD2     N12086   1.948   3.431  12.817  0.3173 -0.5288  0.1890
  821MPD2    H512087   1.949   3.473  12.725 -1.2449 -2.0362 -0.5116
  821MPD2    N112088   1.747   3.104  13.113  0.3730 -0.1519  0.1434
  821MPD2    H712089   1.835   3.114  13.163  1.2939  0.0237 -1.4933
  822MPD2     C12090   2.496   2.889  15.852 -0.6126  0.2149  0.2292
  822MPD2    C112091   2.608   2.913  15.936  0.1520  0.0743 -0.4438
  822MPD2    C212092   2.621   3.016  16.033  0.0306  0.2045 -0.1329
  822MPD2    C312093   2.506   3.088  16.053  0.1678 -0.0442  0.1227
  822MPD2    C412094   2.391   3.062  15.983  0.5256  0.4682  0.4926
  822MPD2    C512095   2.386   2.964  15.882 -0.4889 -0.1014 -0.2069
  822MPD2     H12096   2.711   3.022  16.093  0.9246 -0.1009 -1.4570
  822MPD2    H112097   2.300   3.114  16.011 -0.7929 -0.6776 -1.6876
  822MPD2    H212098   2.491   2.817  15.772 -1.1834  0.6881 -0.1567
  822MPD2    H312099   2.291   2.948  15.831  1.1759 -0.9808 -3.0503
  822MPD2     N12100   2.503   3.187  16.157  0.1740 -0.8023 -0.1733
  822MPD2    H512101   2.414   3.227  16.185  1.7737  0.9730  2.3389
  822MPD2    N112102   2.723   2.849  15.917 -0.8965  0.2283  0.2076
  822MPD2    H712103   2.796   2.894  15.971 -2.2678  0.5981  1.7491
  823MPD2     C12104   2.587   3.287  17.005 -0.4380  0.2061 -0.3624
  823MPD2    C112105   2.606   3.220  16.889 -0.0305 -0.4073 -0.4669
  823MPD2    C212106   2.651   3.087  16.886  0.4134 -0.5732 -0.1278
  823MPD2    C312107   2.677   3.023  17.004  0.7523  0.3876  0.2688
  823MPD2    C412108   2.645   3.086  17.121 -0.0520  0.1237  0.2877
  823MPD2    C512109   2.600   3.212  17.121  0.4212 -0.8307  0.0414
  823MPD2     H12110   2.650   3.029  16.794 -2.2622  0.2805 -0.6507
  823MPD2    H112111   2.666   3.029  17.210  1.3072  0.2044  0.0234
  823MPD2    H212112   2.553   3.390  17.005  0.6149  0.5488 -0.1383
  823MPD2    H312113   2.589   3.266  17.214 -0.3844  0.4200 -0.7774
  823MPD2     N12114   2.722   2.887  17.014 -0.8803 -0.1529 -0.0722
  823MPD2    H512115   2.704   2.835  17.099 -0.6229  1.5776  1.0407
  823MPD2    N112116   2.579   3.294  16.768  0.3630  0.5029 -0.1045
  823MPD2    H712117   2.558   3.393  16.772 -1.5382  0.0398  1.2698
  824MPD2     C12118   3.030   2.077  15.738 -1.1046 -0.0041  0.3670
  824MPD2    C112119   3.137   2.157  15.776 -0.2980 -0.2251  0.0121
  824MPD2    C212120   3.265   2.106  15.772 -0.1655 -0.1477  0.2397
  824MPD2    C312121   3.287   1.975  15.735  0.5018  0.1300  0.3397
  824MPD2    C412122   3.175   1.890  15.714  0.0556  0.4146 -0.0005
  824MPD2    C512123   3.047   1.941  15.720 -0.1884  0.8155  0.1015
  824MPD2     H12124   3.344   2.174  15.798 -1.4020  1.1385  0.6335
  824MPD2    H112125   3.193   1.786  15.689  2.4881  0.1272  2.9312
  824MPD2    H212126   2.933   2.125  15.743 -1.5493 -1.0141  1.4414
  824MPD2    H312127   2.972   1.872  15.684 -1.2366  1.7125  0.5471
  824MPD2     N12128   3.422   1.930  15.715 -0.7287  0.0901 -0.6606
  824MPD2    H512129   3.486   2.004  15.743  0.0595 -1.0101  0.4575
  824MPD2    N112130   3.123   2.287  15.817 -0.5257  0.5578 -0.1999
  824MPD2    H712131   3.196   2.333  15.871 -0.2725 -0.5615  0.4075
  825MPD2     C12132   4.124   2.029  15.252 -0.7856  0.2975 -0.4990
  825MPD2    C112133   4.005   2.072  15.299 -0.5859 -0.2066  0.0165
  825MPD2    C212134   3.959   2.198  15.263 -0.0909 -0.5173 -0.0806
  825MPD2    C312135   4.025   2.269  15.161 -0.6695  1.0617 -0.3049
  825MPD2    C412136   4.139   2.214  15.107 -0.3826 -0.1640 -0.2465
  825MPD2    C512137   4.193   2.098  15.161  0.3905  0.0929 -1.2785
  825MPD2     H12138   3.864   2.238  15.295  0.2510  0.8910 -0.7971
  825MPD2    H112139   4.201   2.245  15.024 -0.8884  2.0283  0.1932
  825MPD2    H212140   4.157   1.928  15.275  0.5256  0.6158 -0.9673
  825MPD2    H312141   4.286   2.055  15.126  0.2062  0.3836 -2.1205
  825MPD2     N12142   3.967   2.395  15.128 -0.1765 -0.1818  0.1699
  825MPD2    H512143   3.872   2.422  15.150 -0.1377 -0.6393  0.8807
  825MPD2    N112144   3.942   1.988  15.393  0.1371  0.2206  0.1826
  825MPD2    H712145   3.993   1.911  15.434 -0.9775 -0.9397 -0.6455
  826MPD2     C12146   3.894   1.716  13.381  0.4541 -0.0606  0.0671
  826MPD2    C112147   3.813   1.765  13.280 -0.3889 -0.1897  0.3003
  826MPD2    C212148   3.740   1.881  13.309  0.4059  0.7038 -0.4831
  826MPD2    C312149   3.740   1.940  13.432 -0.1210 -0.4166 -0.0522
  826MPD2    C412150   3.818   1.884  13.535 -0.9986  0.6444  0.4791
  826MPD2    C512151   3.896   1.772  13.506 -0.4983  0.1584  0.4186
  826MPD2     H12152   3.688   1.937  13.232  1.7086  1.4050 -0.8584
  826MPD2    H112153   3.821   1.934  13.631  1.6591  0.0916  0.6849
  826MPD2    H212154   3.946   1.621  13.374  1.2582  0.4730 -0.9740
  826MPD2    H312155   3.953   1.730  13.588  0.9268  2.2576  0.5157
  826MPD2     N12156   3.672   2.056  13.465  0.5474  0.5141 -0.0278
  826MPD2    H512157   3.687   2.101  13.554  4.3944  1.3183 -1.0838
  826MPD2    N112158   3.818   1.696  13.156  0.4615  0.0135 -0.1208
  826MPD2    H712159   3.887   1.622  13.150  0.4990  0.1515 -1.3162
  827MPD2     C12160   4.380   3.550   9.821  0.2530  0.1739  0.2024
  827MPD2    C112161   4.406   3.429   9.879 -0.1327  0.2131 -0.4761
  827MPD2    C212162   4.366   3.315   9.810  0.5766 -0.2804  0.1297
  827MPD2    C312163   4.314   3.319   9.678  0.4895  0.0855 -0.1271
  827MPD2    C412164   4.305   3.447   9.619 -0.3924  0.5640 -0.9594
  827MPD2    C512165   4.327   3.562   9.694  0.0826 -0.1341 -0.0545
  827MPD2     H12166   4.380   3.214   9.847 -0.8660 -0.2852  0.6189
  827MPD2    H112167   4.285   3.458   9.513  1.1319 -1.1389 -1.4270
  827MPD2    H212168   4.409   3.643   9.870  2.2436 -1.3364  1.9122
  827MPD2    H312169   4.323   3.658   9.645  0.1240  0.0306  0.2604
  827MPD2     N12170   4.285   3.196   9.609 -0.2975  0.2015  0.1359
  827MPD2    H512171   4.285   3.110   9.662  1.1518  0.3097  0.3298
  827MPD2    N112172   4.467   3.431  10.003  0.1851 -0.1707  0.2173
  827MPD2    H712173   4.496   3.521  10.040 -0.7707 -0.6036  1.9950
  828MPD2     C12174   2.622   3.263  12.686 -0.1171 -0.2095  0.2295
  828MPD2    C112175   2.641   3.299  12.556 -0.1918  0.3806  0.3734
  828MPD2    C212176   2.767   3.280  12.509  0.4195 -0.3020 -0.4166
  828MPD2    C312177   2.870   3.223  12.584  0.4257 -0.3151  0.1123
  828MPD2    C412178   2.846   3.201  12.716  0.3541 -0.0261  0.5801
  828MPD2    C512179   2.725   3.215  12.764  0.2010 -0.0521  0.0959
  828MPD2     H12180   2.786   3.293  12.403  1.0023  2.0495 -0.0345
  828MPD2    H112181   2.927   3.173  12.783  0.2468 -0.7395  0.4105
  828MPD2    H212182   2.531   3.285  12.741 -1.7820 -1.5684 -2.0058
  828MPD2    H312183   2.701   3.191  12.867  0.7582 -3.8444 -0.6729
  828MPD2     N12184   3.005   3.208  12.542  0.6326  0.0907  0.6379
  828MPD2    H512185   3.073   3.158  12.599  1.2842  0.8294  0.5149
  828MPD2    N112186   2.540   3.344  12.473  0.1814 -0.7032  0.3516
  828MPD2    H712187   2.575   3.368  12.381  1.0029  1.3006  1.1889
  829MPD2     C12188   2.582   3.282  11.629  0.1935  0.7043 -0.2848
  829MPD2    C112189   2.446   3.271  11.653 -0.4336  0.1701 -1.4010
  829MPD2    C212190   2.392   3.299  11.777  0.2008 -0.6069 -0.1258
  829MPD2    C312191   2.472   3.328  11.886 -0.7134  0.6505  0.1966
  829MPD2    C412192   2.604   3.314  11.867  0.6343 -0.0055  0.1876
  829MPD2    C512193   2.665   3.301  11.738  0.3449  0.1247  0.3138
  829MPD2     H12194   2.285   3.310  11.787  0.0102 -2.9185  0.3629
  829MPD2    H112195   2.664   3.337  11.955  1.2596 -1.6254  0.1824
  829MPD2    H212196   2.631   3.275  11.532 -0.2695 -1.8314 -0.3456
  829MPD2    H312197   2.773   3.292  11.734  0.7151  4.2859  1.1417
  829MPD2     N12198   2.420   3.365  12.014 -0.3123 -0.7340  0.0994
  829MPD2    H512199   2.485   3.342  12.088 -0.9879 -0.2213  0.8521
  829MPD2    N112200   2.380   3.248  11.538  0.0744 -0.1841 -0.2068
  829MPD2    H712201   2.441   3.238  11.457 -0.5243  0.9501 -0.8020
  830MPD2     C12202   2.667   1.538  14.877  0.8322  0.1787 -0.1024
  830MPD2    C112203   2.753   1.508  14.983 -0.6162  0.3412  0.6818
  830MPD2    C212204   2.891   1.541  14.972 -0.1343 -0.2635  0.8405
  830MPD2    C312205   2.931   1.612  14.864 -0.0317  0.1444 -0.0978
  830MPD2    C412206   2.842   1.648  14.765 -0.3968  0.4792  0.4568
  830MPD2    C512207   2.709   1.614  14.770 -0.1247  0.5752  0.2906
  830MPD2     H12208   2.959   1.527  15.055 -1.0984 -1.5396  1.4121
  830MPD2    H112209   2.870   1.705  14.677 -2.4107 -0.7573 -1.0056
  830MPD2    H212210   2.561   1.516  14.876  1.1444 -1.3384 -0.6457
  830MPD2    H312211   2.637   1.648  14.697  0.0241  1.2858  0.4694
  830MPD2     N12212   3.066   1.648  14.842  0.1565  0.6057  0.1127
  830MPD2    H512213   3.082   1.697  14.755  0.3327 -1.9052 -1.2581
  830MPD2    N112214   2.695   1.451  15.101  0.0045 -0.2946 -0.0302
  830MPD2    H712215   2.594   1.443  15.106 -0.0919  1.0416  0.2063
  831MPD2     C12216   2.972   3.142  16.427 -0.1888 -0.3123 -0.8344
  831MPD2    C112217   2.960   3.080  16.308 -0.6112 -0.1264 -0.6172
  831MPD2    C212218   2.869   2.971  16.295 -0.1384  0.1055  0.4098
  831MPD2    C312219   2.793   2.943  16.403  0.5127 -0.3254 -0.0454
  831MPD2    C412220   2.792   3.021  16.521 -0.4027  0.2923 -0.0152
  831MPD2    C512221   2.886   3.123  16.530 -0.2254 -0.6964  0.1100
  831MPD2     H12222   2.876   2.908  16.206  1.3963 -1.7656  1.8361
  831MPD2    H112223   2.740   2.977  16.605 -0.9024 -0.6252 -0.8062
  831MPD2    H212224   3.050   3.215  16.446 -0.7893  0.3903 -1.0411
  831MPD2    H312225   2.903   3.177  16.622 -0.8841  0.0955 -0.2339
  831MPD2     N12226   2.704   2.837  16.408 -0.1376  0.2063  0.7635
  831MPD2    H512227   2.661   2.820  16.498 -0.4898  0.1272  0.5822
  831MPD2    N112228   3.051   3.106  16.200  0.6299 -0.2483 -0.0606
  831MPD2    H712229   3.133   3.164  16.215  0.2436  0.2428  0.1250
  832MPD2     C12230   1.045   3.982  17.264  0.8250  0.1763  0.1012
  832MPD2    C112231   1.030   4.110  17.216 -0.0647  0.1905  0.8425
  832MPD2    C212232   0.923   4.133  17.136  0.0829  0.0209  0.1538
  832MPD2    C312233   0.845   4.029  17.092 -0.6261 -0.6951 -0.6153
  832MPD2    C412234   0.874   3.901  17.136  0.4288  0.1191 -0.3142
  832MPD2    C512235   0.971   3.875  17.227 -0.1093  0.4119  0.3093
  832MPD2     H12236   0.913   4.231  17.092 -2.1555  0.2830  1.2486
  832MPD2    H112237   0.823   3.816  17.092  4.3734 -1.4704 -1.7988
  832MPD2    H212238   1.135   3.962  17.321  0.9244  1.3290  0.3650
  832MPD2    H312239   0.990   3.777  17.270 -2.0617 -0.2412 -0.3160
  832MPD2     N12240   0.734   4.047  17.013 -0.3715 -0.0470 -0.1480
  832MPD2    H512241   0.674   3.967  16.996  2.5049 -2.1305 -0.7261
  832MPD2    N112242   1.128   4.203  17.245 -0.5650 -0.2909 -0.2197
  832MPD2    H712243   1.216   4.168  17.282 -0.4627 -1.1753 -1.2945
  833MPD2     C12244   3.158   1.087  12.282 -0.3066  0.7091 -0.4364
  833MPD2    C112245   3.208   1.200  12.225  0.5681 -0.2053  0.1783
  833MPD2    C212246   3.317   1.199  12.136 -0.4069 -0.5645  0.3967
  833MPD2    C312247   3.365   1.076  12.094 -0.4175 -0.1129  0.2931
  833MPD2    C412248   3.309   0.958  12.143  0.6696  0.2446  0.4128
  833MPD2    C512249   3.201   0.969  12.228  0.3013 -0.1503  0.4760
  833MPD2     H12250   3.358   1.289  12.092  2.7689 -1.9210  0.5546
  833MPD2    H112251   3.342   0.858  12.118  1.3884 -0.1350  2.8609
  833MPD2    H212252   3.080   1.088  12.357 -0.2130  0.2270 -0.3363
  833MPD2    H312253   3.153   0.875  12.252  0.6723 -0.8922 -1.7207
  833MPD2     N12254   3.471   1.057  12.004 -0.3303 -0.0620  0.3810
  833MPD2    H512255   3.516   0.966  11.997 -0.6581 -0.2425  0.6487
  833MPD2    N112256   3.148   1.318  12.279  0.0363  0.2293 -0.1711
  833MPD2    H712257   3.062   1.307  12.331  0.3410  0.2280  0.3235
  834MPD2     C12258   3.282   0.408  11.438  0.7526  0.3871 -0.2542
  834MPD2    C112259   3.292   0.499  11.341 -0.2671 -0.2121 -0.2558
  834MPD2    C212260   3.363   0.618  11.364  0.4037 -0.0132  0.3568
  834MPD2    C312261   3.420   0.644  11.484 -0.0292  0.0221 -0.2859
  834MPD2    C412262   3.423   0.541  11.583 -0.2973  0.2252  0.0030
  834MPD2    C512263   3.352   0.431  11.557 -0.4174  0.8372  0.6398
  834MPD2     H12264   3.367   0.698  11.290  1.2677 -0.5028 -0.1343
  834MPD2    H112265   3.468   0.546  11.681 -1.3092  1.0174  0.4230
  834MPD2    H212266   3.224   0.317  11.432  1.0218  0.1207  1.2870
  834MPD2    H312267   3.353   0.351  11.630  0.9064  1.4751  1.3122
  834MPD2     N12268   3.475   0.773  11.507  0.0552  0.3783 -0.4917
  834MPD2    H512269   3.485   0.831  11.425 -1.7497 -0.7778 -1.5322
  834MPD2    N112270   3.214   0.478  11.231  0.4545  0.3958  0.0408
  834MPD2    H712271   3.154   0.397  11.226  0.9633 -0.0397  0.9210
  835MPD2     C12272   3.458   3.553  10.522  0.4725 -0.5347 -0.6555
  835MPD2    C112273   3.364   3.586  10.627 -0.3162 -0.3365 -0.0056
  835MPD2    C212274   3.394   3.564  10.761  0.3664 -0.7641  0.3915
  835MPD2    C312275   3.515   3.500  10.797 -0.4706 -0.7650  0.6248
  835MPD2    C412276   3.611   3.478  10.695  0.2754  0.0512 -0.4205
  835MPD2    C512277   3.577   3.504  10.562 -0.0779 -0.6933 -1.1268
  835MPD2     H12278   3.318   3.591  10.833  1.9934 -2.1012  2.5960
  835MPD2    H112279   3.697   3.419  10.725 -0.3232 -0.5165  0.1801
  835MPD2    H212280   3.440   3.570  10.416  0.2491  0.3372 -0.4825
  835MPD2    H312281   3.648   3.479  10.483  0.7980 -0.8903 -0.2871
  835MPD2     N12282   3.541   3.459  10.930 -0.1941 -0.2827  0.0155
  835MPD2    H512283   3.626   3.406  10.950  0.0451 -0.5374 -1.6564
  835MPD2    N112284   3.233   3.648  10.608  0.1518  0.6045  0.1989
  835MPD2    H712285   3.170   3.661  10.686 -0.7775 -1.7021 -0.1589
  836MPD2     C12286   3.354   3.393  11.835  0.2263 -0.3891  0.6248
  836MPD2    C112287   3.290   3.411  11.716 -0.9133 -0.2227 -0.5864
  836MPD2    C212288   3.159   3.456  11.710 -0.1206 -0.1033  0.4463
  836MPD2    C312289   3.098   3.491  11.828  0.0902  0.2484  0.0266
  836MPD2    C412290   3.162   3.463  11.953 -0.5407  0.4261 -0.6948
  836MPD2    C512291   3.295   3.416  11.951  0.4118 -0.3637 -0.4161
  836MPD2     H12292   3.107   3.475  11.617 -0.4627  2.4788  1.1541
  836MPD2    H112293   3.117   3.483  12.050 -2.2283 -0.8319 -1.2144
  836MPD2    H212294   3.456   3.358  11.842 -0.1424 -1.2736  1.6682
  836MPD2    H312295   3.348   3.399  12.043 -0.6053 -1.3337 -0.0033
  836MPD2     N12296   2.968   3.540  11.837  0.1608  0.5340  0.5593
  836MPD2    H512297   2.938   3.564  11.931 -0.9192 -0.5499  0.4979
  836MPD2    N112298   3.363   3.377  11.602  0.3960 -0.7981 -0.2849
  836MPD2    H712299   3.457   3.345  11.623  0.2139 -2.2685 -1.7915
  837MPD2     C12300   1.239   3.442   9.837  0.9751 -0.1720 -0.0293
  837MPD2    C112301   1.144   3.491   9.751 -0.1301 -0.1624  0.0550
  837MPD2    C212302   1.089   3.615   9.786  0.2964  0.1180 -0.6126
  837MPD2    C312303   1.134   3.686   9.892 -0.1475 -0.4385  0.2807
  837MPD2    C412304   1.227   3.633   9.978  0.1865  0.0002  0.1897
  837MPD2    C512305   1.279   3.505   9.953  0.2807  0.5108 -0.2115
  837MPD2     H12306   1.014   3.664   9.725 -1.9819 -1.4469  0.9249
  837MPD2    H112307   1.286   3.691  10.049  1.8350 -0.7552 -0.5545
  837MPD2    H212308   1.297   3.354   9.813  0.9322 -0.2114  0.0115
  837MPD2    H312309   1.362   3.474  10.016  0.3933 -2.3675 -1.7414
  837MPD2     N12310   1.077   3.816   9.905  0.6510  0.0118 -0.3155
  837MPD2    H512311   1.001   3.830   9.839  0.5410  0.3642 -0.1189
  837MPD2    N112312   1.110   3.429   9.629  0.2578  0.1946 -0.5071
  837MPD2    H712313   1.033   3.473   9.579 -0.7117 -1.2708 -0.3134
  838MPD2     C12314   4.591   0.866  10.939  0.7315  0.5416  0.6363
  838MPD2    C112315   4.618   0.976  11.014 -0.6094 -0.8676  0.5974
  838MPD2    C212316   4.517   1.033  11.090 -1.1894  0.2945 -0.0981
  838MPD2    C312317   4.394   0.977  11.097  0.0911  0.2710  0.2534
  838MPD2    C412318   4.364   0.862  11.025  0.5482 -0.1073  0.3025
  838MPD2    C512319   4.462   0.813  10.943  0.3092  0.0460  0.0496
  838MPD2     H12320   4.535   1.128  11.137 -2.1317  0.1979  0.4388
  838MPD2    H112321   4.273   0.804  11.034 -1.8617  3.6407  0.1318
  838MPD2    H212322   4.662   0.808  10.882 -0.2810 -1.7220  1.6415
  838MPD2    H312323   4.437   0.727  10.882 -1.9326 -0.3135  1.4877
  838MPD2     N12324   4.298   1.038  11.181 -0.4990 -0.5633 -0.1359
  838MPD2    H512325   4.329   1.116  11.237 -0.2102 -2.2011  1.9636
  838MPD2    N112326   0.038   1.015  11.030  0.7493 -0.2883  0.4963
  838MPD2    H712327   0.063   1.079  11.105 -1.8510  1.7892 -0.4407
  839MPD2     C12328   4.622   1.011  11.835 -0.8967  0.2577  0.1135
  839MPD2    C112329   4.618   0.914  11.732 -0.0272 -0.2038  0.2836
  839MPD2    C212330   4.712   0.906  11.635 -0.2145 -0.1565  0.2773
  839MPD2    C312331   0.095   0.991  11.632  0.5509  1.1678 -0.3336
  839MPD2    C412332   0.107   1.082  11.736  0.8355  0.4546  0.6677
  839MPD2    C512333   0.010   1.094  11.835  0.0447  0.3571  0.2903
  839MPD2     H12334   4.699   0.834  11.555 -0.3367  2.0754 -1.7454
  839MPD2    H112335   0.190   1.151  11.726  0.0678  1.4977  1.4497
  839MPD2    H212336   4.549   1.009  11.916 -0.1113 -0.9555  0.7917
  839MPD2    H312337   0.035   1.168  11.910 -0.8945  1.4942 -0.5305
  839MPD2     N12338   0.200   0.990  11.532 -0.2674 -0.7879  0.3444
  839MPD2    H512339   0.273   1.059  11.542 -0.3959 -0.7655  1.0914
  839MPD2    N112340   4.516   0.822  11.712  0.1010  0.2068  0.0917
  839MPD2    H712341   4.503   0.773  11.624  0.0319  2.6928 -1.2786
  840MPD2     C12342   0.227   3.836  10.103 -0.3172  0.0845  0.6325
  840MPD2    C112343   0.187   3.787  10.227 -0.0815 -0.3510 -0.0021
  840MPD2    C212344   0.228   3.851  10.342  0.6986 -0.2871  0.1319
  840MPD2    C312345   0.294   3.972  10.335  0.3610 -1.0713 -0.4227
  840MPD2    C412346   0.353   4.012  10.214  0.1635  0.9408 -0.7538
  840MPD2    C512347   0.307   3.945  10.103 -0.0258  0.3814  0.1528
  840MPD2     H12348   0.200   3.810  10.438  1.8490 -1.5387 -0.0599
  840MPD2    H112349   0.404   4.106  10.200 -0.0381  0.9234 -1.5943
  840MPD2    H212350   0.200   3.812  10.001  0.3999  0.4440  0.3594
  840MPD2    H312351   0.327   3.981  10.003 -1.6065  1.8552  0.3638
  840MPD2     N12352   0.336   4.045  10.445  0.0107 -0.0894 -0.2246
  840MPD2    H512353   0.389   4.129  10.425 -0.5089  0.0725 -0.9143
  840MPD2    N112354   0.128   3.655  10.229 -0.6195 -0.2004 -0.2848
  840MPD2    H712355   0.109   3.610  10.140 -1.7611  0.2576 -0.2737
  841MPD2     C12356   4.035   3.489  14.991 -0.7181  0.0580 -0.5112
  841MPD2    C112357   4.141   3.407  14.935 -0.4460  0.7698  0.0342
  841MPD2    C212358   4.225   3.458  14.844 -0.0387  0.0349  0.5319
  841MPD2    C312359   4.200   3.585  14.799  0.2633 -0.8274  0.7169
  841MPD2    C412360   4.101   3.667  14.856 -0.2101 -0.0680  0.7008
  841MPD2    C512361   4.022   3.617  14.955 -0.0661  0.1276  0.0098
  841MPD2     H12362   4.299   3.393  14.798  0.6918  1.0450  0.2750
  841MPD2    H112363   4.091   3.773  14.834 -1.4876 -0.5244 -0.9378
  841MPD2    H212364   3.959   3.444  15.054 -0.5318  0.3129 -0.1050
  841MPD2    H312365   3.949   3.681  15.003 -0.7928  1.0450 -2.3332
  841MPD2     N12366   4.292   3.632  14.708 -0.0433 -0.0257 -0.7132
  841MPD2    H512367   4.363   3.571  14.668  1.3467  0.2218  1.4129
  841MPD2    N112368   4.156   3.275  14.962  0.0658  0.1544 -0.6169
  841MPD2    H712369   4.217   3.221  14.901 -1.5438 -0.7866 -1.3977
  842MPD2     C12370   0.516   4.641  16.639 -0.0946  0.7405  0.1649
  842MPD2    C112371   0.392   4.591  16.665  0.6770 -0.5609 -0.6078
  842MPD2    C212372   0.353   4.555  16.795 -0.1357  0.1790  0.5424
  842MPD2    C312373   0.444   4.581  16.893 -1.0205  0.2603 -0.2390
  842MPD2    C412374   0.564   4.644  16.868  0.7350  0.3622 -0.9425
  842MPD2    C512375   0.606   4.664  16.740 -0.0663  0.0356  0.7788
  842MPD2     H12376   0.249   4.530  16.810  0.3075 -0.9872  1.6806
  842MPD2    H112377   0.625   4.682  16.949  0.6043  0.9533 -1.1198
  842MPD2    H212378   0.552   4.664  16.540  0.9789 -1.0096  0.1545
  842MPD2    H312379   0.699   4.715  16.715 -0.3692  0.4046  0.4081
  842MPD2     N12380   0.400   4.582  17.030 -0.4870  0.4620 -0.1813
  842MPD2    H512381   0.462   4.624  17.098 -1.1549  1.5950 -0.2718
  842MPD2    N112382   0.307   4.584  16.556  0.0339 -0.7392  0.1057
  842MPD2    H712383   0.345   4.630  16.474  2.1838  1.1766  2.1577
  843MPD2     C12384   2.286   4.454  17.450 -0.2314  0.0772  0.8475
  843MPD2    C112385   2.301   4.480  17.587  0.5541 -0.5441  0.0558
  843MPD2    C212386   2.374   4.594  17.626  0.6498  0.3174 -0.0882
  843MPD2    C312387   2.436   4.680  17.535 -0.4169  0.4539 -0.1992
  843MPD2    C412388   2.400   4.660  17.406 -0.0040  0.3261 -0.1146
  843MPD2    C512389   2.336   4.546  17.365 -0.2776 -0.3636  0.5323
  843MPD2     H12390   2.380   4.611   0.051  3.5412  1.0591 -0.3707
  843MPD2    H112391   2.422   0.013  17.328  0.5515 -0.5927 -0.8133
  843MPD2    H212392   2.231   4.373  17.403  1.7491 -0.0164 -1.3052
  843MPD2    H312393   2.320   4.534  17.259 -0.6546 -1.3522  0.7013
  843MPD2     N12394   2.513   0.070  17.571 -0.9399  0.1974  0.1428
  843MPD2    H512395   2.549   0.137  17.503  0.2900  1.2601  1.8375
  843MPD2    N112396   2.242   4.405   0.005 -0.5096  0.5021  0.7667
  843MPD2    H712397   2.248   4.447   0.098  1.9349  1.1910  0.2990
  844MPD2     C12398   0.643   3.683  16.531  0.0339 -0.4248  0.2030
  844MPD2    C112399   0.753   3.614  16.487 -0.1918  0.0786 -0.7652
  844MPD2    C212400   0.870   3.651  16.541  0.8157  0.0053  0.3829
  844MPD2    C312401   0.886   3.772  16.620 -0.1487 -0.9234  0.1653
  844MPD2    C412402   0.769   3.833  16.672  0.3974 -1.0428  0.2011
  844MPD2    C512403   0.649   3.783  16.625 -0.0478 -0.2236 -0.1170
  844MPD2     H12404   0.960   3.599  16.511  0.5901 -0.7831  1.0668
  844MPD2    H112405   0.770   3.909  16.749  1.3134 -0.3578 -0.4818
  844MPD2    H212406   0.546   3.653  16.495  0.0483 -1.0215  0.6655
  844MPD2    H312407   0.558   3.827  16.664  0.9836  1.2929  0.5706
  844MPD2     N12408   1.017   3.810  16.661 -0.2434  0.0191  0.1644
  844MPD2    H512409   1.102   3.756  16.647  0.5502  1.6248 -1.2030
  844MPD2    N112410   0.746   3.509  16.384  0.5323 -0.5551 -0.5606
  844MPD2    H712411   0.837   3.478  16.351  1.1661  2.5106 -1.6978
  845MPD2     C12412   1.446   4.673  16.988 -0.4188 -0.0876 -0.2540
  845MPD2    C112413   1.316   4.643  16.965 -0.4605  0.0757  0.3255
  845MPD2    C212414   1.290   4.510  16.918  0.9677 -0.2233  0.1421
  845MPD2    C312415   1.395   4.423  16.891  0.3737  0.1936 -0.1576
  845MPD2    C412416   1.522   4.460  16.919 -0.4921  0.3035 -0.0728
  845MPD2    C512417   1.548   4.586  16.962 -0.2344  0.3458 -0.4688
  845MPD2     H12418   1.195   4.481  16.875  0.5866  1.9912 -0.5264
  845MPD2    H112419   1.607   4.395  16.905 -0.9668 -0.4190  0.3857
  845MPD2    H212420   1.470   0.050  17.030 -0.6708 -0.0349 -0.2317
  845MPD2    H312421   1.651   4.617  16.974 -0.7185  1.0941  1.6895
  845MPD2     N12422   1.359   4.290  16.856  0.0027  0.8999 -0.3620
  845MPD2    H512423   1.264   4.260  16.875  0.6792 -0.1153  1.4493
  845MPD2    N112424   1.216   0.022  16.997  0.1361  0.8596 -0.2586
  845MPD2    H712425   1.257   0.110  17.026  1.0969  0.5929 -0.8102
  846MPD2     C12426   2.708   0.302  13.673  0.1661  0.9327  0.1790
  846MPD2    C112427   2.625   0.406  13.702 -0.8418  0.9756  0.2244
  846MPD2    C212428   2.574   0.429  13.834 -0.6737  0.2437 -0.6292
  846MPD2    C312429   2.613   0.345  13.941 -0.2112 -0.0451 -0.2389
  846MPD2    C412430   2.691   0.232  13.904 -0.2337 -0.1781  0.2557
  846MPD2    C512431   2.736   0.221  13.773  0.1339 -1.0544 -0.6311
  846MPD2     H12432   2.509   0.512  13.858  1.5152  2.0944 -1.1146
  846MPD2    H112433   2.738   0.166  13.976 -2.1661 -0.3763  1.3299
  846MPD2    H212434   2.747   0.288  13.572  1.5197  1.4158  0.6282
  846MPD2    H312435   2.796   0.136  13.743  2.2044  0.2021 -0.1115
  846MPD2     N12436   2.563   0.370  14.074  0.6783 -0.0490  0.4324
  846MPD2    H512437   2.506   0.452  14.087 -0.1702 -0.6928  0.7730
  846MPD2    N112438   2.594   0.497  13.599 -0.5580 -0.2963 -0.5359
  846MPD2    H712439   2.553   0.586  13.626  1.4374  0.6564 -0.6491
  847MPD2     C12440   2.723   1.782  13.685 -0.3743  0.3047 -0.4438
  847MPD2    C112441   2.828   1.872  13.708 -0.3212  0.3784  0.6074
  847MPD2    C212442   2.952   1.823  13.751 -0.3425  0.0666 -0.0712
  847MPD2    C312443   2.974   1.690  13.776 -0.3825  0.5335  0.0880
  847MPD2    C412444   2.870   1.606  13.762  0.0220  0.2803 -0.0566
  847MPD2    C512445   2.751   1.654  13.709 -0.2061  0.3314 -0.1735
  847MPD2     H12446   3.040   1.884  13.767 -0.0486 -0.4693  0.3530
  847MPD2    H112447   2.861   1.502  13.791 -0.2147  0.7139  1.4745
  847MPD2    H212448   2.627   1.815  13.646 -1.5114 -0.2130  1.8809
  847MPD2    H312449   2.674   1.583  13.682 -0.0819  0.4494 -0.8527
  847MPD2     N12450   3.102   1.653  13.838 -0.0928 -0.1588 -0.8010
  847MPD2    H512451   3.165   1.732  13.834  4.7268 -3.9585  0.5261
  847MPD2    N112452   2.820   2.012  13.675  0.2495 -0.6691  0.3902
  847MPD2    H712453   2.907   2.063  13.686 -0.8865  1.7604 -1.7214
  848MPD2     C12454   0.417   4.322  16.261 -0.1223  0.6451  1.2647
  848MPD2    C112455   0.521   4.357  16.336 -0.5364  0.4441  0.2258
  848MPD2    C212456   0.616   4.445  16.284 -0.4235 -0.5070 -0.9959
  848MPD2    C312457   0.601   4.497  16.155  0.6531 -0.4266  0.5319
  848MPD2    C412458   0.494   4.465  16.080 -0.3846  0.2208 -0.2834
  848MPD2    C512459   0.406   4.371  16.132 -0.6521 -0.1636  0.3747
  848MPD2     H12460   0.696   4.486  16.346 -1.8490 -0.6103  0.8978
  848MPD2    H112461   0.483   4.498  15.978 -1.0553 -0.3806 -0.4067
  848MPD2    H212462   0.342   4.249  16.288  1.6666 -1.2157  1.2518
  848MPD2    H312463   0.332   4.326  16.067  0.5204  0.3546 -1.3011
  848MPD2     N12464   0.696   4.585  16.098  0.8133  0.1796  0.6036
  848MPD2    H512465   0.683   4.620  16.003 -0.5544 -1.0924  0.3355
  848MPD2    N112466   0.546   4.306  16.460  0.5591  0.1224 -0.6886
  848MPD2    H712467   0.643   4.310  16.490  0.3668 -1.5931  0.1151
  849MPD2     C12468   4.445   4.390  14.474 -0.3375 -0.1338 -0.1480
  849MPD2    C112469   4.565   4.433  14.427  0.1719 -0.2893  0.0101
  849MPD2    C212470   4.673   4.395  14.501 -0.1354  0.2183  0.7977
  849MPD2    C312471   4.672   4.289  14.590  0.0725  1.1035 -0.1288
  849MPD2    C412472   4.552   4.240  14.621  0.2506 -0.1537 -0.0982
  849MPD2    C512473   4.440   4.303  14.579  0.1268 -0.0292  0.4778
  849MPD2     H12474   0.055   4.422  14.473 -0.1409 -1.9543 -1.2760
  849MPD2    H112475   4.541   4.160  14.692  0.2023 -0.0633 -0.0031
  849MPD2    H212476   4.348   4.414  14.431  0.0442  0.4441 -0.6715
  849MPD2    H312477   4.344   4.267  14.613 -0.8588  2.3298  0.1875
  849MPD2     N12478   0.067   4.230  14.635  0.0051  0.1568  0.4331
  849MPD2    H512479   0.059   4.136  14.672  3.6713 -0.1753  0.4057
  849MPD2    N112480   4.566   4.520  14.323  0.0256 -0.0570 -0.0385
  849MPD2    H712481   4.476   4.542  14.283 -1.8353 -3.1202  2.5284
  850MPD2     C12482   2.705   2.294  14.487 -0.2799  0.6801 -0.3676
  850MPD2    C112483   2.676   2.349  14.610 -0.1433 -0.3691  0.1256
  850MPD2    C212484   2.778   2.392  14.692  0.6067  0.1010  0.2098
  850MPD2    C312485   2.912   2.361  14.665 -0.2920  0.6344 -0.0355
  850MPD2    C412486   2.934   2.303  14.545 -0.3975 -1.0427  0.4294
  850MPD2    C512487   2.835   2.280  14.446  0.9291  0.3094  0.1960
  850MPD2     H12488   2.762   2.455  14.779  1.4442  1.0046 -0.2912
  850MPD2    H112489   3.030   2.261  14.519  0.7174 -0.3674  3.4390
  850MPD2    H212490   2.635   2.254  14.416 -1.9427 -2.3667  2.9914
  850MPD2    H312491   2.861   2.233  14.353 -0.1386 -1.2178  0.6778
  850MPD2     N12492   3.012   2.361  14.753 -0.6445  0.1403 -0.2537
  850MPD2    H512493   3.104   2.341  14.714  0.1865  3.4235  0.0020
  850MPD2    N112494   2.539   2.368  14.633 -0.5891 -0.1821  0.0829
  850MPD2    H712495   2.474   2.342  14.559  1.8037  2.7735 -3.0611
  851MPD2     C12496   2.955   2.185  15.339 -0.1958 -0.7469  0.8039
  851MPD2    C112497   2.926   2.162  15.207 -0.6553 -0.3594 -0.1981
  851MPD2    C212498   3.018   2.106  15.117 -0.0116 -0.3614 -1.0102
  851MPD2    C312499   3.147   2.076  15.149 -0.2195  0.0795  0.2925
  851MPD2    C412500   3.176   2.103  15.282 -0.3850 -0.4958 -0.4109
  851MPD2    C512501   3.081   2.156  15.373 -0.1572  0.0980  0.0682
  851MPD2     H12502   2.981   2.094  15.016 -0.3415 -1.1917 -0.7956
  851MPD2    H112503   3.270   2.074  15.328 -1.7910 -1.5748  1.7595
  851MPD2    H212504   2.883   2.230  15.406 -1.3567 -0.5355 -0.5740
  851MPD2    H312505   3.114   2.171  15.475 -0.0238  0.9466 -0.1078
  851MPD2     N12506   3.235   2.025  15.054 -0.7588 -0.7495 -0.0825
  851MPD2    H512507   3.183   2.018  14.967 -0.1008  0.9221 -0.6055
  851MPD2    N112508   2.797   2.205  15.172 -0.2985  0.5459  0.1919
  851MPD2    H712509   2.746   2.271  15.230  0.2236 -1.4484  2.9403
  852MPD2     C12510   2.043   0.028   9.957  0.1917 -0.1157  0.2299
  852MPD2    C112511   2.139   0.004  10.058  0.4857  0.4277 -0.0097
  852MPD2    C212512   2.265   0.065  10.044 -0.2792  0.4607 -0.7037
  852MPD2    C312513   2.295   0.150   9.943 -0.4375  0.2366  0.3656
  852MPD2    C412514   2.202   0.180   9.848  0.5303 -0.4824  0.3502
  852MPD2    C512515   2.082   0.106   9.850  0.3031  0.1189 -0.1359
  852MPD2     H12516   2.331   0.041  10.127 -2.4945 -3.6011 -0.1223
  852MPD2    H112517   2.213   0.249   9.766  1.7799 -0.7350  0.3035
  852MPD2    H212518   1.945   4.704   9.966  0.0147  0.1225 -0.5177
  852MPD2    H312519   2.009   0.113   9.770  1.3431 -0.4778 -1.1287
  852MPD2     N12520   2.425   0.212   9.944 -0.2974  0.1630 -0.3320
  852MPD2    H512521   2.468   0.209  10.036  2.1608 -2.2576 -1.5827
  852MPD2    N112522   2.114   4.669  10.190  0.1400 -0.1802 -0.3652
  852MPD2    H712523   2.188   4.660  10.259  0.3463  0.0268 -0.5606
  853MPD2     C12524   4.197   0.062  12.446  0.0656 -0.8354  0.5985
  853MPD2    C112525   4.075   0.067  12.394 -0.3020 -0.4043 -0.2650
  853MPD2    C212526   4.066   0.047  12.259  0.2627  1.0280 -0.2432
  853MPD2    C312527   4.179   0.030  12.184  0.1850  0.1584  0.3921
  853MPD2    C412528   4.305   0.039  12.240  0.1972  0.4268 -0.0665
  853MPD2    C512529   4.312   0.048  12.372 -0.1749  0.3125 -0.2426
  853MPD2     H12530   3.970   0.040  12.209  0.1149  0.0449  0.1708
  853MPD2    H112531   4.399   0.040  12.186 -0.2344 -1.2210 -0.8554
  853MPD2    H212532   4.205   0.078  12.553 -0.9538 -0.3016  0.5926
  853MPD2    H312533   4.409   0.063  12.418 -0.6248  0.3460  0.6932
  853MPD2     N12534   4.169   0.012  12.042 -0.1447  0.4169  0.4857
  853MPD2    H512535   4.260   4.716  11.999 -0.9567 -1.9618 -0.3815
  853MPD2    N112536   3.970   0.078  12.491 -0.4573 -0.0882 -0.1285
  853MPD2    H712537   4.001   0.082  12.587  0.4800  0.0769 -0.4384
  854MPD2     C12538   0.965   0.371  13.042  0.0621 -0.1180 -0.3022
  854MPD2    C112539   1.022   0.300  12.940  0.2551  0.3945 -0.1805
  854MPD2    C212540   1.059   0.169  12.962  0.4352  0.0384  0.3707
  854MPD2    C312541   1.062   0.114  13.087 -0.2165 -0.7487  0.1858
  854MPD2    C412542   1.011   0.189  13.188  0.3963 -0.5718 -0.0595
  854MPD2    C512543   0.959   0.311  13.166  0.3873  0.6022  0.1592
  854MPD2     H12544   1.100   0.108  12.883 -3.0263  0.2067 -1.5277
  854MPD2    H112545   1.006   0.143  13.286 -2.7418  2.2491  1.0948
  854MPD2    H212546   0.932   0.470  13.012 -1.4684 -0.9688 -1.4129
  854MPD2    H312547   0.914   0.355  13.254 -1.2948 -1.0034  0.1010
  854MPD2     N12548   1.117   4.707  13.120  0.4051 -0.2324  0.0041
  854MPD2    H512549   1.133   4.687  13.218 -0.3484 -1.7045 -0.1689
  854MPD2    N112550   1.041   0.367  12.814 -0.5759  0.2513 -0.3728
  854MPD2    H712551   1.015   0.465  12.812  0.2639  0.4696 -0.5698
  855MPD2     C12552   1.565   4.607  13.834  0.6885  0.3900 -0.0162
  855MPD2    C112553   1.589   4.481  13.778 -0.5182 -0.1648 -0.4621
  855MPD2    C212554   1.547   4.450  13.651 -0.6298 -0.2083  0.2931
  855MPD2    C312555   1.474   4.536  13.579  0.5057 -0.5738 -0.1042
  855MPD2    C412556   1.446   4.660  13.635  0.9503  0.4006 -0.2742
  855MPD2    C512557   1.494   4.695  13.761 -0.7459  0.8464  0.2729
  855MPD2     H12558   1.569   4.353  13.610  1.5590 -0.1388  1.3117
  855MPD2    H112559   1.370   4.718  13.585  1.5873  1.3576 -0.1434
  855MPD2    H212560   1.590   4.632  13.936 -2.3739  0.8213  0.6384
  855MPD2    H312561   1.471   0.073  13.803  0.1100  1.5415 -0.8947
  855MPD2     N12562   1.438   4.516  13.448  0.0866 -0.5215  0.3281
  855MPD2    H512563   1.392   4.599  13.411 -0.3652 -0.1670  1.6615
  855MPD2    N112564   1.655   4.385  13.853  0.0113 -0.1049  0.0891
  855MPD2    H712565   1.637   4.291  13.820  1.5942  0.6669 -2.9111
  856MPD2     C12566   3.709   0.632  13.453 -0.4230  0.5120 -0.1274
  856MPD2    C112567   3.804   0.729  13.435 -0.8874  0.0611 -0.3682
  856MPD2    C212568   3.778   0.865  13.444 -0.0747 -0.3140  0.1823
  856MPD2    C312569   3.645   0.903  13.476 -0.5488 -0.4655 -0.0751
  856MPD2    C412570   3.552   0.810  13.512  0.3244 -0.1653  0.3979
  856MPD2    C512571   3.583   0.676  13.498  0.0875  0.2657  0.7698
  856MPD2     H12572   3.859   0.934  13.427 -0.7051  0.1208 -1.0600
  856MPD2    H112573   3.451   0.835  13.543 -0.1553  1.3128 -2.3671
  856MPD2    H212574   3.738   0.527  13.446  1.8028  1.0882  0.4386
  856MPD2    H312575   3.499   0.615  13.529  0.8083 -0.9440  0.3445
  856MPD2     N12576   3.595   1.032  13.473  0.0123  0.1551 -0.7842
  856MPD2    H512577   3.496   1.039  13.496  0.3147  1.6155  0.0832
  856MPD2    N112578   3.943   0.694  13.405  0.1066 -0.0875 -0.1440
  856MPD2    H712579   4.004   0.774  13.387 -2.3076  1.9627  0.7248
  857MPD2     C12580   0.204   2.898  12.507  0.1595 -0.3122  0.4254
  857MPD2    C112581   0.314   2.870  12.577 -0.2776  0.3278  0.3658
  857MPD2    C212582   0.360   2.968  12.665 -0.3574 -0.9241 -0.4705
  857MPD2    C312583   0.294   3.089  12.679  0.2979 -0.5943 -0.1349
  857MPD2    C412584   0.179   3.111  12.602  0.3605 -0.4658 -0.3617
  857MPD2    C512585   0.133   3.012  12.528 -0.2971  0.3558 -0.4053
  857MPD2     H12586   0.449   2.952  12.725 -1.1351  0.7565  1.1300
  857MPD2    H112587   0.134   3.208  12.587  0.9069  0.3979  3.6855
  857MPD2    H212588   0.180   2.831  12.425 -2.1479  0.9721  0.0401
  857MPD2    H312589   0.041   3.027  12.473 -1.1738  2.7987  1.6967
  857MPD2     N12590   0.354   3.181  12.768 -0.1033  0.4073 -0.0205
  857MPD2    H512591   0.449   3.162  12.799  0.5489  2.8080 -0.5653
  857MPD2    N112592   0.379   2.746  12.552  0.1297  0.0497 -0.0688
  857MPD2    H712593   0.326   2.681  12.496 -0.1669  0.2273  0.0026
  858MPD2     C12594   1.121   2.115  16.664 -0.0751 -0.2250 -0.2683
  858MPD2    C112595   1.254   2.080  16.658  0.2974 -0.5242  0.0127
  858MPD2    C212596   1.342   2.140  16.751 -0.6172 -0.0417  0.3576
  858MPD2    C312597   1.296   2.228  16.845 -0.1952  0.1179  0.0653
  858MPD2    C412598   1.160   2.260  16.857 -0.2526 -0.0098 -0.5480
  858MPD2    C512599   1.076   2.195  16.768  0.2962  0.2553  0.5718
  858MPD2     H12600   1.447   2.113  16.755 -0.7172 -0.5054 -0.1988
  858MPD2    H112601   1.117   2.331  16.927  0.9427 -0.1805  0.3473
  858MPD2    H212602   1.054   2.066  16.595 -2.2604 -0.4171  2.0039
  858MPD2    H312603   0.968   2.202  16.775  0.2689  1.2115 -0.8182
  858MPD2     N12604   1.375   2.304  16.935  0.7937  0.0286 -0.1451
  858MPD2    H512605   1.336   2.367  17.004 -3.0708 -1.8813 -0.6191
  858MPD2    N112606   1.282   2.001  16.547  0.4642 -0.0547 -0.0018
  858MPD2    H712607   1.211   1.968  16.482  1.8297 -2.3240 -0.3496
  859MPD2     C12608   4.443   3.984  14.987 -0.3689  0.2979  0.7853
  859MPD2    C112609   4.582   4.001  15.009  0.1773 -0.0924 -0.2282
  859MPD2    C212610   4.652   3.888  15.045 -0.0007  0.7230  0.1415
  859MPD2    C312611   4.598   3.760  15.045 -0.2031  0.4067  0.2713
  859MPD2    C412612   4.462   3.752  15.025  0.0990  0.2307 -0.6861
  859MPD2    C512613   4.389   3.854  14.994 -0.5167 -0.2108 -0.3824
  859MPD2     H12614   0.034   3.912  15.075 -0.0844 -1.7595  2.4519
  859MPD2    H112615   4.419   3.653  15.019  1.6623 -0.4070 -1.4670
  859MPD2    H212616   4.369   4.061  14.972 -0.6626  0.2114  1.7804
  859MPD2    H312617   4.282   3.845  14.975 -1.1870  1.0936  2.8327
  859MPD2     N12618   4.674   3.645  15.083 -0.3604  0.1009 -0.3949
  859MPD2    H512619   4.631   3.554  15.075  1.0865 -0.8202  2.3614
  859MPD2    N112620   4.631   4.137  15.015 -0.1924 -0.6105 -0.1135
  859MPD2    H712621   4.558   4.207  15.016 -0.6998 -1.1158 -2.0048
  860MPD2     C12622   1.615   4.082  11.311  0.1009  0.1215 -0.6630
  860MPD2    C112623   1.711   4.143  11.390 -0.6989 -0.0454  0.2536
  860MPD2    C212624   1.698   4.143  11.528  0.7697 -0.5052 -0.7985
  860MPD2    C312625   1.573   4.110  11.580 -0.3529  0.6137  0.2659
  860MPD2    C412626   1.467   4.058  11.500  1.0468 -0.5013 -0.2569
  860MPD2    C512627   1.494   4.042  11.367 -0.4619  0.2464 -0.2749
  860MPD2     H12628   1.783   4.166  11.591  0.3418  0.9322 -0.7540
  860MPD2    H112629   1.368   4.044  11.544  0.8580 -0.1791 -0.5853
  860MPD2    H212630   1.627   4.080  11.204  0.6169  0.9405 -0.6125
  860MPD2    H312631   1.416   4.003  11.302  0.6474 -0.9863 -0.8674
  860MPD2     N12632   1.567   4.128  11.722  0.2469 -0.6752  0.7795
  860MPD2    H512633   1.647   4.170  11.767 -0.4977 -0.5284  1.9474
  860MPD2    N112634   1.834   4.194  11.347 -0.1586 -0.3374 -0.6255
  860MPD2    H712635   1.891   4.236  11.420 -1.0453  1.6013 -1.0554
  861MPD2     C12636   1.370   2.736  10.809 -0.6791  0.3062 -0.2794
  861MPD2    C112637   1.258   2.741  10.885  0.0944  0.7052  0.6118
  861MPD2    C212638   1.136   2.759  10.825  0.0046 -0.0311 -0.3946
  861MPD2    C312639   1.132   2.797  10.691  0.2964  0.5866  0.3027
  861MPD2    C412640   1.250   2.800  10.618 -0.4551 -0.1838  0.0164
  861MPD2    C512641   1.369   2.769  10.679  0.6718  0.3735 -0.8157
  861MPD2     H12642   1.050   2.758  10.891  1.8472  0.9054  2.0219
  861MPD2    H112643   1.249   2.829  10.514 -2.2576 -1.1435 -0.2258
  861MPD2    H212644   1.471   2.712  10.841 -1.3179 -1.0046  0.7441
  861MPD2    H312645   1.462   2.765  10.623  1.8269  1.4290  1.0234
  861MPD2     N12646   1.022   2.854  10.632  0.3608 -0.3085 -0.3911
  861MPD2    H512647   1.040   2.882  10.536  1.3454  2.8513  0.7190
  861MPD2    N112648   1.260   2.725  11.028 -0.3296  0.1855 -0.0293
  861MPD2    H712649   1.170   2.725  11.076 -0.5356 -1.0269 -0.4170
  862MPD2     C12650   0.670   3.007  10.022  0.4029  0.0599  0.0301
  862MPD2    C112651   0.761   2.938  10.095 -0.3634 -0.6890 -0.3799
  862MPD2    C212652   0.789   2.802  10.065  0.0077 -0.2002 -0.0464
  862MPD2    C312653   0.733   2.732   9.961 -0.2469  0.2344  0.6485
  862MPD2    C412654   0.635   2.797   9.891 -0.2152  0.0527 -0.0341
  862MPD2    C512655   0.606   2.930   9.923 -0.1695 -0.2199  0.6483
  862MPD2     H12656   0.850   2.754  10.141 -0.9618 -0.4053  0.5984
  862MPD2    H112657   0.586   2.753   9.804 -0.9829  0.7971  0.0168
  862MPD2    H212658   0.653   3.110  10.049  2.4315  0.0838  1.2746
  862MPD2    H312659   0.523   2.969   9.865 -0.4466 -0.8830  0.5942
  862MPD2     N12660   0.762   2.597   9.928  0.5399  0.4990 -0.1956
  862MPD2    H512661   0.691   2.547   9.875  0.5756  0.5411 -0.2826
  862MPD2    N112662   0.808   2.989  10.220  0.0343 -0.9708  0.7967
  862MPD2    H712663   0.845   2.919  10.284  0.0417 -1.2622  0.4710
  863MPD2     C12664   3.918   0.689  16.719  0.4044  0.2265 -0.3662
  863MPD2    C112665   3.962   0.816  16.723  0.3044 -0.1429 -0.2127
  863MPD2    C212666   4.093   0.836  16.770 -0.1898 -0.5005 -0.2015
  863MPD2    C312667   4.175   0.733  16.809  0.1613 -0.4220 -0.8865
  863MPD2    C412668   4.128   0.606  16.793  0.3506  0.5611  0.0467
  863MPD2    C512669   3.992   0.584  16.753 -0.2886  0.1603 -0.4157
  863MPD2     H12670   4.130   0.938  16.779  0.8518 -1.2198  3.5437
  863MPD2    H112671   4.190   0.519  16.814  2.7157  1.5204 -2.9714
  863MPD2    H212672   3.814   0.676  16.691 -0.6034  1.6690  2.6939
  863MPD2    H312673   3.954   0.483  16.744 -0.0277 -0.1186  1.6286
  863MPD2     N12674   4.308   0.745  16.865 -0.0018  0.0524  0.1565
  863MPD2    H512675   4.365   0.662  16.879  2.6086  1.8620  0.1916
  863MPD2    N112676   3.876   0.917  16.678 -0.2980  0.2492 -0.9322
  863MPD2    H712677   3.800   0.888  16.618 -0.5089  0.2767 -0.6783
  864MPD2     C12678   4.182   2.458  16.971  0.2297  0.2626  0.1652
  864MPD2    C112679   4.304   2.395  16.973  0.3794  0.1841 -0.0078
  864MPD2    C212680   4.384   2.411  16.859  0.3706  0.6942 -0.2078
  864MPD2    C312681   4.346   2.482  16.747  0.4518  0.8531 -0.7353
  864MPD2    C412682   4.222   2.546  16.755  0.1395 -0.6938 -0.6773
  864MPD2    C512683   4.147   2.542  16.871 -0.2289  0.1555 -0.2905
  864MPD2     H12684   4.484   2.368  16.862  0.6263  1.2158 -1.1100
  864MPD2    H112685   4.183   2.603  16.672  1.1238  1.5773  0.4282
  864MPD2    H212686   4.108   2.459  17.051  1.4709 -2.1478  1.3365
  864MPD2    H312687   4.057   2.603  16.874  2.0520  3.4602  1.2023
  864MPD2     N12688   4.424   2.502  16.628 -0.0402  0.0683 -0.4703
  864MPD2    H512689   4.379   2.561  16.559  0.1616 -1.1299 -1.6138
  864MPD2    N112690   4.322   2.304  17.078  0.2516  0.0113  0.2911
  864MPD2    H712691   4.244   2.276  17.136 -1.7231 -0.2942 -2.5241
  865MPD2     C12692   4.632   2.465  15.797 -0.4211  0.2252  0.3806
  865MPD2    C112693   4.606   2.420  15.925  0.0694 -0.4797 -0.1540
  865MPD2    C212694   4.574   2.512  16.021  0.3180 -0.4259  0.4492
  865MPD2    C312695   4.565   2.653  15.989 -0.8118  0.2824 -0.2433
  865MPD2    C412696   4.590   2.690  15.861 -0.1802 -0.0941  0.5270
  865MPD2    C512697   4.615   2.594  15.770 -0.1261  0.6669 -1.3009
  865MPD2     H12698   4.548   2.470  16.117 -0.4627  0.3496  0.5746
  865MPD2    H112699   4.580   2.793  15.826  0.9998  0.0943  0.7464
  865MPD2    H212700   4.661   2.388  15.727 -1.4247 -0.5795  0.8406
  865MPD2    H312701   4.616   2.613  15.663  2.7186 -2.0438 -1.7518
  865MPD2     N12702   4.527   2.757  16.078 -0.0699  0.0939  0.2523
  865MPD2    H512703   4.513   2.848  16.037  1.6116  0.0936 -0.3596
  865MPD2    N112704   4.639   2.290  15.954  0.7851  0.0644 -0.4701
  865MPD2    H712705   4.684   2.239  15.879  1.8077 -1.7698  1.4216
  866MPD2     C12706   1.887   2.794  11.217  0.0391 -0.2167  0.2390
  866MPD2    C112707   1.887   2.814  11.081 -0.5102  0.2060  0.7393
  866MPD2    C212708   1.776   2.880  11.035 -0.0094 -0.0966  0.5883
  866MPD2    C312709   1.678   2.930  11.120 -0.7594  0.3967  0.3927
  866MPD2    C412710   1.697   2.914  11.253  0.1073  0.0725 -0.6551
  866MPD2    C512711   1.798   2.843  11.303  0.3165  0.0517  0.3103
  866MPD2     H12712   1.768   2.885  10.927  0.9401  2.0331  0.6278
  866MPD2    H112713   1.624   2.959  11.319  0.4569 -0.8187  0.3346
  866MPD2    H212714   1.976   2.742  11.251 -0.1888  0.2911  1.5917
  866MPD2    H312715   1.812   2.833  11.410 -2.3066  0.9322  0.7530
  866MPD2     N12716   1.569   3.010  11.083  0.2873  0.4739  0.1195
  866MPD2    H512717   1.508   3.045  11.156  0.5275 -1.4342  1.2182
  866MPD2    N112718   1.992   2.761  11.000 -0.1123  0.2984 -0.2739
  866MPD2    H712719   2.066   2.709  11.047  0.0445 -0.0717 -0.9274
  867MPD2     C12720   3.805   2.485  16.786 -0.0666  0.7244  0.0793
  867MPD2    C112721   3.812   2.426  16.907 -0.5272  1.0701  1.1374
  867MPD2    C212722   3.811   2.502  17.017 -0.6373 -0.4288  0.0061
  867MPD2    C312723   3.825   2.642  17.011  0.4532  0.4271 -0.4148
  867MPD2    C412724   3.822   2.702  16.886 -0.3461  0.2812  0.2383
  867MPD2    C512725   3.804   2.620  16.774  0.1566  0.4221 -0.9863
  867MPD2     H12726   3.802   2.454  17.114  0.1132 -1.7237 -0.5829
  867MPD2    H112727   3.841   2.807  16.868  0.8633 -0.2995 -1.8538
  867MPD2    H212728   3.793   2.423  16.698  0.4260  0.4162  0.2319
  867MPD2    H312729   3.788   2.652  16.672  1.8246 -0.6381 -1.5779
  867MPD2     N12730   3.817   2.732  17.118  0.0162  0.0510  0.5082
  867MPD2    H512731   3.831   2.830  17.093 -0.6471 -0.0391 -0.2580
  867MPD2    N112732   3.804   2.286  16.898  0.1835  0.0434  0.0485
  867MPD2    H712733   3.800   2.245  16.805 -0.0741 -0.8598  0.4628
  868MPD2     C12734   0.853   1.451  12.587  0.3324  0.7247 -1.1772
  868MPD2    C112735   0.876   1.423  12.721  0.0380  0.1876 -0.3040
  868MPD2    C212736   0.782   1.464  12.817 -0.5824  0.4597 -0.2639
  868MPD2    C312737   0.676   1.543  12.775  0.4938  0.4960 -0.0137
  868MPD2    C412738   0.653   1.562  12.639 -0.0156  0.4433 -0.0892
  868MPD2    C512739   0.745   1.521  12.547 -0.0091  0.2917  0.4180
  868MPD2     H12740   0.793   1.444  12.922 -0.3134 -1.0683 -0.5832
  868MPD2    H112741   0.568   1.622  12.608 -0.7783 -0.7699 -0.3316
  868MPD2    H212742   0.928   1.425  12.513  1.8899  1.7450  0.0420
  868MPD2    H312743   0.732   1.532  12.440 -0.6299 -0.9597  0.3708
  868MPD2     N12744   0.593   1.596  12.877 -0.0716 -0.2222 -0.3681
  868MPD2    H512745   0.614   1.589  12.976  0.3560 -1.1125 -0.5250
  868MPD2    N112746   0.979   1.339  12.759 -0.0052 -0.0200  0.1200
  868MPD2    H712747   1.051   1.316  12.691 -0.8069  0.5779 -0.9206
  869MPD2     C12748   0.951   3.582   1.153 -0.6339 -0.0089  0.0815
  869MPD2    C112749   0.974   3.707   1.209 -0.0570 -0.5299  0.6162
  869MPD2    C212750   1.031   3.819   1.137  0.6847  0.3429  0.1497
  869MPD2    C312751   1.073   3.793   1.002 -0.0986 -0.2462 -0.0691
  869MPD2    C412752   1.039   3.668   0.949 -0.0039 -0.0907  0.4643
  869MPD2    C512753   0.983   3.565   1.025  0.2153 -0.3045 -0.0973
  869MPD2     H12754   1.048   3.914   1.186 -2.0303  0.0395  1.6837
  869MPD2    H112755   1.058   3.640   0.845  1.4905  0.2054  0.6494
  869MPD2    H212756   0.906   3.501   1.209 -2.1079  1.1222  0.5386
  869MPD2    H312757   0.970   3.470   0.974 -0.5533  0.5785 -1.5444
  869MPD2     N12758   1.128   3.892   0.922 -0.2417 -0.0312 -0.1150
  869MPD2    H512759   1.154   3.855   0.831 -0.8748 -0.4475 -0.1260
  869MPD2    N112760   0.936   3.717   1.344  0.2890  0.5220  0.8296
  869MPD2    H712761   0.876   3.641   1.377  3.5756 -2.0532  0.8184
  870MPD2     C12762   0.579   2.782   1.267  1.0454  0.5892  0.3421
  870MPD2    C112763   0.688   2.799   1.187  0.3516 -0.6473  0.3452
  870MPD2    C212764   0.665   2.830   1.051 -0.1809 -1.3567  0.5168
  870MPD2    C312765   0.538   2.842   1.001 -0.7207 -0.0612  0.7336
  870MPD2    C412766   0.431   2.824   1.087 -0.3526  0.8751 -0.4762
  870MPD2    C512767   0.455   2.812   1.223  0.1020  0.2562  0.4056
  870MPD2     H12768   0.748   2.832   0.981 -1.1907 -1.8899 -0.7103
  870MPD2    H112769   0.328   2.843   1.059  0.2147  2.8537 -1.2501
  870MPD2    H212770   0.599   2.750   1.368  0.0265  0.3803  0.4787
  870MPD2    H312771   0.364   2.806   1.282  0.0550 -0.4392  0.2563
  870MPD2     N12772   0.532   2.866   0.859 -0.1523  0.4591  0.7470
  870MPD2    H512773   0.621   2.867   0.811 -0.3253 -0.5082  0.3998
  870MPD2    N112774   0.820   2.792   1.243  0.6215 -0.0362 -0.1478
  870MPD2    H712775   0.843   2.753   1.334 -0.6488 -1.1058 -0.2939
  871MPD2     C12776   2.850   2.360  16.426  0.0604  0.7002 -0.8672
  871MPD2    C112777   2.862   2.300  16.547  0.0999  0.3423 -0.3149
  871MPD2    C212778   2.868   2.158  16.558 -0.1232 -0.1358 -0.2459
  871MPD2    C312779   2.860   2.076  16.448 -0.5230  0.7571  0.2919
  871MPD2    C412780   2.851   2.141  16.324 -0.3687 -0.0883 -0.1291
  871MPD2    C512781   2.827   2.277  16.318  0.8720  0.3378  0.6576
  871MPD2     H12782   2.892   2.122  16.657  0.5759 -1.9316 -1.0722
  871MPD2    H112783   2.821   2.087  16.235 -0.5454  0.4990 -0.4320
  871MPD2    H212784   2.860   2.468  16.427  3.4970  0.3118  3.8066
  871MPD2    H312785   2.807   2.323  16.222  3.2169  1.0644  0.5096
  871MPD2     N12786   2.866   1.937  16.463 -0.2548  0.9139 -0.3456
  871MPD2    H512787   2.882   1.896  16.554  1.2933 -0.6162 -1.3061
  871MPD2    N112788   2.859   2.386  16.668 -0.3193  0.0376 -0.0962
  871MPD2    H712789   2.868   2.484  16.644 -0.0873  0.3498  1.2932
  872MPD2     C12790   3.465   4.676  14.182  0.3936 -0.0097 -0.4987
  872MPD2    C112791   3.414   4.708  14.058 -0.1141 -0.1093  0.1446
  872MPD2    C212792   3.277   4.693  14.031 -0.1692  0.2917  0.1650
  872MPD2    C312793   3.195   4.630  14.121 -0.3760  0.1321 -0.3696
  872MPD2    C412794   3.248   4.580  14.239 -0.3003 -0.0881 -0.2410
  872MPD2    C512795   3.386   4.606  14.274 -0.1014 -1.1941 -0.1342
  872MPD2     H12796   3.235   0.007  13.936 -1.4822 -1.8680 -0.0262
  872MPD2    H112797   3.190   4.516  14.304  0.0488 -1.2638 -1.0935
  872MPD2    H212798   3.567   4.697  14.214 -0.2375  1.7260  0.3790
  872MPD2    H312799   3.424   4.562  14.366  3.5515 -1.9474 -2.0148
  872MPD2     N12800   3.062   4.594  14.097 -0.1201 -0.4053  0.8562
  872MPD2    H512801   3.022   4.521  14.156 -1.8528 -0.3025 -0.1927
  872MPD2    N112802   3.499   0.054  13.966  0.1446 -0.1862  0.7368
  872MPD2    H712803   3.591   0.082  14.000  0.8502  1.8539 -2.8741
  873MPD2     C12804   0.641   4.542   1.054  0.0629  0.2005  0.8999
  873MPD2    C112805   0.552   4.446   1.097 -0.1837 -0.2473  0.1663
  873MPD2    C212806   0.588   4.313   1.083 -0.1291  0.4562 -0.4008
  873MPD2    C312807   0.700   4.275   1.008 -0.1024  0.3437  0.5212
  873MPD2    C412808   0.785   4.375   0.969 -0.5297  0.2311 -0.4361
  873MPD2    C512809   0.755   4.504   0.991 -0.2490 -0.4389  0.3424
  873MPD2     H12810   0.520   4.242   1.127  0.5195  0.5207  0.7001
  873MPD2    H112811   0.881   4.354   0.922 -0.4100 -1.8434  0.7195
  873MPD2    H212812   0.627   4.643   1.090  1.2557  0.4938  0.5247
  873MPD2    H312813   0.826   4.581   0.962 -2.6990  2.2915  1.5655
  873MPD2     N12814   0.731   4.142   0.967  0.1411 -0.2421  0.4465
  873MPD2    H512815   0.801   4.140   0.894 -0.2936  2.6092 -0.0552
  873MPD2    N112816   0.444   4.486   1.180 -0.0794  0.1211  0.4780
  873MPD2    H712817   0.443   4.581   1.217 -0.1834  0.3786 -0.1939
  874MPD2     C12818   0.123   0.153  15.790  0.6836  0.3138 -0.4748
  874MPD2    C112819   0.200   0.100  15.894 -0.0073  0.2385 -0.3817
  874MPD2    C212820   0.339   0.102  15.880  0.0021 -0.0614  0.6927
  874MPD2    C312821   0.403   0.168  15.775 -0.0275 -0.4727 -0.0847
  874MPD2    C412822   0.322   0.241  15.693 -0.3318  0.4328  0.3366
  874MPD2    C512823   0.186   0.227  15.695 -0.3461 -0.2632 -0.1297
  874MPD2     H12824   0.400   0.049  15.952 -2.0447 -2.5529  0.5920
  874MPD2    H112825   0.358   0.322  15.631 -2.4057 -0.1164 -1.6018
  874MPD2    H212826   0.018   0.137  15.772  0.8891 -0.6865 -0.8236
  874MPD2    H312827   0.130   0.268  15.612  2.2367  1.7949 -0.8509
  874MPD2     N12828   0.543   0.157  15.762 -0.7384  0.8151  0.2056
  874MPD2    H512829   0.594   0.232  15.716  2.3643 -2.1112 -1.1430
  874MPD2    N112830   0.127   0.033  15.996  0.3003 -0.2118 -0.4555
  874MPD2    H712831   0.028   0.022  15.977  0.4447 -1.8445 -0.2846
  875MPD2     C12832   1.497   3.055  14.641  0.8176 -0.6271 -0.3444
  875MPD2    C112833   1.372   3.029  14.701  0.5443 -0.2946 -0.1674
  875MPD2    C212834   1.356   3.042  14.839 -0.2243 -0.2418 -0.4203
  875MPD2    C312835   1.460   3.088  14.920 -0.9188 -0.5679 -0.2412
  875MPD2    C412836   1.583   3.103  14.857  0.4405  0.6102  0.3926
  875MPD2    C512837   1.597   3.089  14.720 -0.4676 -0.2586 -0.0333
  875MPD2     H12838   1.257   3.021  14.879  0.3713 -2.0698  0.0641
  875MPD2    H112839   1.667   3.146  14.910  0.9439 -0.2404  0.2853
  875MPD2    H212840   1.513   3.061  14.534 -1.4376  2.1150 -0.5240
  875MPD2    H312841   1.688   3.121  14.671  0.9184 -2.3930  1.1357
  875MPD2     N12842   1.447   3.117  15.054  0.0176  0.1791 -0.2566
  875MPD2    H512843   1.525   3.164  15.100 -1.3759  0.7611  1.5227
  875MPD2    N112844   1.251   3.002  14.625  0.1525  0.1932  0.1038
  875MPD2    H712845   1.163   2.995  14.676 -0.6417  1.3253 -1.1103
  876MPD2     C12846   0.103   4.387  15.844  0.1246  0.2537  0.4384
  876MPD2    C112847   0.226   4.355  15.789 -0.1770  0.1464  0.5316
  876MPD2    C212848   0.281   4.226  15.805 -0.6624  1.3516 -0.3539
  876MPD2    C312849   0.214   4.129  15.875 -0.2404 -0.1064  0.3857
  876MPD2    C412850   0.088   4.158  15.926 -0.4482  0.4744  0.9269
  876MPD2    C512851   0.036   4.284  15.898 -0.0687  0.2298  0.3096
  876MPD2     H12852   0.368   4.194  15.748 -1.7807 -0.0387 -1.2663
  876MPD2    H112853   0.020   4.082  15.962  1.3337 -1.5014  0.0931
  876MPD2    H212854   0.053   4.477  15.810 -2.2054 -1.1721  0.0832
  876MPD2    H312855   4.658   4.308  15.939  0.2504  1.0707  0.5772
  876MPD2     N12856   0.275   4.000  15.886 -0.2753 -0.1352  0.0456
  876MPD2    H512857   0.351   3.981  15.822  0.0288  1.5266 -0.0727
  876MPD2    N112858   0.274   4.453  15.705 -0.3499  0.6427 -0.0067
  876MPD2    H712859   0.230   4.544  15.695 -0.6228  0.2470 -2.4560
  877MPD2     C12860   0.098   0.169  15.098  0.1726 -0.8350  0.6755
  877MPD2    C112861   0.235   0.181  15.117 -0.4858  0.3849 -0.2894
  877MPD2    C212862   0.313   0.229  15.014 -0.0863 -0.2788  0.3683
  877MPD2    C312863   0.256   0.250  14.893  0.3815  0.0233 -0.7558
  877MPD2    C412864   0.123   0.227  14.874 -0.5096 -0.0574  0.3018
  877MPD2    C512865   0.043   0.191  14.976  0.0040  0.1934 -0.3005
  877MPD2     H12866   0.420   0.241  15.030 -0.1364  0.8107 -0.0640
  877MPD2    H112867   0.085   0.234  14.773  0.9959  0.1615 -0.2504
  877MPD2    H212868   0.026   0.145  15.176 -2.5131 -1.9528 -2.1594
  877MPD2    H312869   4.655   0.182  14.966  0.0667 -1.9876  0.9199
  877MPD2     N12870   0.331   0.290  14.780  0.0025  0.4285 -0.3257
  877MPD2    H512871   0.292   0.283  14.686  1.0965 -0.9080 -0.6781
  877MPD2    N112872   0.308   0.139  15.238  0.2650  0.6958  0.0855
  877MPD2    H712873   0.409   0.136  15.246  0.2109  1.4608  1.0803
  878MPD2     C12874   4.579   4.277  13.361 -0.1015 -0.3992 -0.1548
  878MPD2    C112875   4.580   4.411  13.345 -0.5411  0.7071  0.0504
  878MPD2    C212876   4.582   4.486  13.459  0.2846  0.2411 -0.8425
  878MPD2    C312877   4.569   4.429  13.590 -0.3318  0.2127  0.3805
  878MPD2    C412878   4.555   4.291  13.600 -0.3418 -0.6116  0.8228
  878MPD2    C512879   4.574   4.221  13.485 -0.4678  0.0275  0.4726
  878MPD2     H12880   4.603   4.592  13.460  0.4211  0.2435 -3.9708
  878MPD2    H112881   4.546   4.243  13.697  0.0804  1.0799  1.7032
  878MPD2    H212882   4.575   4.215  13.272  0.0265 -0.2631 -0.2538
  878MPD2    H312883   4.567   4.113  13.494 -2.3215 -0.0881 -2.0590
  878MPD2     N12884   4.581   4.511  13.708 -0.1182  0.1253 -0.0396
  878MPD2    H512885   4.613   4.607  13.698 -0.9548  0.2589 -1.3347
  878MPD2    N112886   4.567   4.469  13.216 -0.0903 -0.2240 -0.1416
  878MPD2    H712887   4.565   4.412  13.131 -0.6352 -1.1137  0.4627
  879MPD2     C12888   0.841   0.907  16.751 -0.4836 -0.4562 -0.1729
  879MPD2    C112889   0.775   0.797  16.814 -0.0892  0.7882 -0.6533
  879MPD2    C212890   0.644   0.774  16.774 -0.4337 -0.2396 -0.3357
  879MPD2    C312891   0.578   0.853  16.680 -0.5775 -0.0244 -0.2311
  879MPD2    C412892   0.647   0.953  16.618 -0.1702  0.1712 -0.0577
  879MPD2    C512893   0.778   0.978  16.649  0.8922 -0.1915  0.1608
  879MPD2     H12894   0.590   0.702  16.834 -1.9333  1.1324 -0.0321
  879MPD2    H112895   0.604   1.033  16.558 -0.4532 -1.9792 -2.6976
  879MPD2    H212896   0.937   0.947  16.780  0.0786 -0.9202 -1.4162
  879MPD2    H312897   0.829   1.061  16.601 -0.0980 -0.0359 -0.6211
  879MPD2     N12898   0.448   0.832  16.628 -0.2901 -0.3156 -0.2965
  879MPD2    H512899   0.419   0.885  16.547  2.8482 -1.7186 -2.3601
  879MPD2    N112900   0.846   0.738  16.919 -1.2444  0.5271 -0.6025
  879MPD2    H712901   0.941   0.774  16.928 -1.2041  0.9431 -2.7376
  880MPD2     C12902   1.356   2.269   0.483  0.1153  0.2991 -0.1965
  880MPD2    C112903   1.456   2.314   0.398  0.2950  0.1317 -0.7829
  880MPD2    C212904   1.550   2.224   0.345  0.4688 -0.6119 -0.5884
  880MPD2    C312905   1.552   2.094   0.382 -0.0319  0.3351 -0.4610
  880MPD2    C412906   1.450   2.049   0.464  0.3249 -0.8447 -0.6583
  880MPD2    C512907   1.354   2.139   0.519  0.1753 -0.0459  0.8381
  880MPD2     H12908   1.619   2.268   0.273 -1.0577 -0.0780 -1.7263
  880MPD2    H112909   1.431   1.946   0.490 -1.1076 -0.4335 -0.0742
  880MPD2    H212910   1.280   2.331   0.529 -1.1585 -1.2315 -0.2793
  880MPD2    H312911   1.276   2.094   0.579  0.4788 -1.6761  0.0003
  880MPD2     N12912   1.648   2.007   0.331 -0.0572 -0.2579 -0.3500
  880MPD2    H512913   1.725   2.037   0.272  1.2130 -1.0028  0.9610
  880MPD2    N112914   1.463   2.458   0.384 -0.3835 -0.0971 -0.5755
  880MPD2    H712915   1.397   2.507   0.442  0.4324  1.7056 -1.1875
  881MPD2     C12916   1.900   3.407   0.033  0.4169  0.4032  0.1553
  881MPD2    C112917   1.936   3.273   0.011 -0.7718 -0.5608 -0.1183
  881MPD2    C212918   1.847   3.173   0.050 -0.0660 -0.2905 -0.0950
  881MPD2    C312919   1.754   3.202   0.146  0.4519 -0.2026  0.3389
  881MPD2    C412920   1.747   3.326   0.198  0.0583 -0.2604  0.2512
  881MPD2    C512921   1.816   3.431   0.143  0.3788 -0.0877  0.3183
  881MPD2     H12922   1.858   3.075   0.004 -1.2975 -0.3835 -0.1956
  881MPD2    H112923   1.685   3.352   0.283 -1.6689  1.8830 -1.6627
  881MPD2    H212924   1.956   3.483  17.660 -0.4599  2.0576  1.5663
  881MPD2    H312925   1.783   3.526   0.182  0.0665  1.1347 -2.9128
  881MPD2     N12926   1.672   3.102   0.209 -0.0101 -0.8424  0.4912
  881MPD2    H512927   1.611   3.127   0.286 -2.5788 -0.5702 -1.6388
  881MPD2    N112928   2.040   3.251  17.601 -0.1710 -0.5067  0.1823
  881MPD2    H712929   2.096   3.329  17.567  0.2847 -1.6969 -1.7915
  882MPD2     C12930   0.417   0.268  13.950  0.0105 -0.5583  0.5810
  882MPD2    C112931   0.343   0.304  14.064 -0.0042 -0.8234  0.2873
  882MPD2    C212932   0.204   0.306  14.057 -0.4013  0.4531 -0.2125
  882MPD2    C312933   0.139   0.255  13.942 -0.4607  0.5802  0.8272
  882MPD2    C412934   0.211   0.219  13.837 -1.0086 -0.2975 -0.2020
  882MPD2    C512935   0.351   0.235  13.833  0.0285 -0.3273  0.1073
  882MPD2     H12936   0.149   0.346  14.141 -0.5487  1.3407 -0.7343
  882MPD2    H112937   0.164   0.181  13.747  2.0533 -0.7300 -1.5881
  882MPD2    H212938   0.525   0.272  13.946 -0.2293  3.3430 -2.8186
  882MPD2    H312939   0.411   0.208  13.747  0.5824  0.1769  0.3395
  882MPD2     N12940   0.000   0.232  13.947 -0.6317 -0.3598  0.6353
  882MPD2    H512941   4.673   0.222  13.857 -1.3350  1.5926  0.7756
  882MPD2    N112942   0.426   0.345  14.173  0.6364  0.1120  0.3182
  882MPD2    H712943   0.525   0.321  14.173  1.0996  2.0087 -2.1428
  883MPD2     C12944   2.169   0.047  16.238 -0.5335 -0.1888 -0.5188
  883MPD2    C112945   2.280   4.716  16.168  0.0546 -0.1757  0.2053
  883MPD2    C212946   2.404   4.718  16.223 -0.6746 -0.2311 -0.5062
  883MPD2    C312947   2.436   0.045  16.349 -0.0462 -0.5358  0.5527
  883MPD2    C412948   2.327   0.096  16.417 -0.1124 -0.2914 -0.9252
  883MPD2    C512949   2.200   0.094  16.363 -0.0188 -0.2247 -0.5163
  883MPD2     H12950   2.488   4.685  16.162  0.1365  3.2543 -1.2850
  883MPD2    H112951   2.323   0.133  16.519  1.0748  0.0812 -1.0172
  883MPD2    H212952   2.070   0.062  16.196  0.0256 -1.6162 -2.3925
  883MPD2    H312953   2.118   0.136  16.420  0.9878 -0.1763  0.8952
  883MPD2     N12954   2.561   0.028  16.399 -0.0616 -0.6223 -0.5375
  883MPD2    H512955   2.626   0.003  16.326  0.8085  0.6702 -0.2012
  883MPD2    N112956   2.264   4.669  16.037 -0.2471  0.7286  0.3106
  883MPD2    H712957   2.354   4.661  15.990 -0.6071 -1.2437 -0.0285
  884MPD2     C12958   3.619   0.761  15.355 -0.4388 -0.0763 -0.1138
  884MPD2    C112959   3.612   0.705  15.235  0.6384 -0.0085 -0.1242
  884MPD2    C212960   3.541   0.774  15.135 -0.5256 -0.3172 -0.0891
  884MPD2    C312961   3.486   0.898  15.164 -0.3551  0.5939  0.7572
  884MPD2    C412962   3.482   0.948  15.288 -0.1958  0.2678 -0.5720
  884MPD2    C512963   3.556   0.885  15.376 -0.2177  0.4967 -0.3301
  884MPD2     H12964   3.534   0.718  15.043 -0.4118  0.8745 -0.8300
  884MPD2    H112965   3.419   1.035  15.306  1.5799  0.3826  4.9473
  884MPD2    H212966   3.675   0.708  15.432 -1.7816 -2.7570 -0.9887
  884MPD2    H312967   3.564   0.922  15.478 -0.9637 -2.0485  0.6600
  884MPD2     N12968   3.419   0.964  15.057 -0.4893 -0.1686  0.0005
  884MPD2    H512969   3.424   0.917  14.967 -0.7718  1.3838 -0.8272
  884MPD2    N112970   3.674   0.582  15.191  0.6756 -0.2006  0.4596
  884MPD2    H712971   3.637   0.545  15.104 -0.2713  2.6469 -0.3699
  885MPD2     C12972   1.992   0.852  17.509  0.2600  0.2526 -0.1831
  885MPD2    C112973   2.050   0.763  17.435  0.5822 -0.1777 -0.7652
  885MPD2    C212974   2.094   0.796  17.307  0.4122  0.3079  0.0019
  885MPD2    C312975   2.075   0.923  17.258 -0.0479 -0.1353 -0.4465
  885MPD2    C412976   2.014   1.015  17.342 -0.1356 -0.1678 -0.3925
  885MPD2    C512977   1.987   0.983  17.472 -0.4457  0.2287 -0.2592
  885MPD2     H12978   2.134   0.723  17.238  0.2420  0.2315 -0.0153
  885MPD2    H112979   2.000   1.118  17.312  1.2680  0.3516  0.7055
  885MPD2    H212980   1.971   0.825  17.612  2.0689 -2.4596 -0.5071
  885MPD2    H312981   1.933   1.054  17.535 -0.6955 -0.7555  0.6350
  885MPD2     N12982   2.122   0.953  17.125  0.5746 -0.1522  0.3734
  885MPD2    H512983   2.187   0.889  17.079  0.0451  0.1843 -0.8501
  885MPD2    N112984   2.087   0.645  17.498  0.0380  0.3390 -0.2367
  885MPD2    H712985   2.079   0.638  17.599 -0.2439 -0.7932 -0.3352
  886MPD2     C12986   3.465   4.044  14.966  0.9033 -0.3026 -0.7137
  886MPD2    C112987   3.598   4.072  14.995  0.0511 -0.1676 -0.4181
  886MPD2    C212988   3.645   4.202  14.967 -0.2767 -0.0180  0.1047
  886MPD2    C312989   3.557   4.306  14.923  0.1843  0.3779 -0.7839
  886MPD2    C412990   3.421   4.269  14.904 -0.5427  0.0438  0.5117
  886MPD2    C512991   3.382   4.142  14.931  0.8971 -0.4960  0.3123
  886MPD2     H12992   3.752   4.221  14.968  0.4092 -3.9389  3.2369
  886MPD2    H112993   3.343   4.338  14.875  0.1544 -0.3545 -2.3411
  886MPD2    H212994   3.415   3.950  14.989  0.9139 -0.1167  0.0771
  886MPD2    H312995   3.277   4.120  14.922  0.8481 -0.7336  1.4769
  886MPD2     N12996   3.593   4.443  14.902 -0.6968  0.9206  0.3712
  886MPD2    H512997   3.542   4.508  14.844 -1.1126  0.3652  0.1150
  886MPD2    N112998   3.692   3.986  15.054  0.3567  0.1386 -0.0248
  886MPD2    H712999   3.783   4.024  15.074 -0.5999  1.3523  1.9774
  887MPD2     C13000   4.351   4.085  15.293  0.0964  0.0292 -0.7770
  887MPD2    C113001   4.217   4.117  15.303  0.0706 -0.4228  0.8772
  887MPD2    C213002   4.181   4.248  15.336 -0.1734 -0.3596 -0.1825
  887MPD2    C313003   4.280   4.341  15.371  0.3495 -0.0441  0.6705
  887MPD2    C413004   4.417   4.301  15.363  0.0435 -1.1641  0.7986
  887MPD2    C513005   4.450   4.174  15.319  0.3173  0.2040  0.0073
  887MPD2     H13006   4.076   4.274  15.349 -0.0629 -0.2261  0.4475
  887MPD2    H113007   4.502   4.361  15.392  0.7210 -1.4187 -0.7092
  887MPD2    H213008   4.384   3.985  15.271  2.0379  0.4167  0.3402
  887MPD2    H313009   4.552   4.136  15.316  0.1614 -0.0536 -1.8296
  887MPD2     N13010   4.251   4.468  15.406 -0.4463  0.2084  0.9841
  887MPD2    H513011   4.150   4.479  15.407 -0.1698  2.8048 -0.4688
  887MPD2    N113012   4.112   4.031  15.269 -0.5414  0.1213 -0.2331
  887MPD2    H713013   4.021   4.074  15.255 -0.3482  0.2447 -1.0976
  888MPD2     C13014   1.222   4.286  14.997 -0.2921  0.3501 -0.0438
  888MPD2    C113015   1.235   4.299  15.131 -0.1844 -0.0258  0.7780
  888MPD2    C213016   1.329   4.388  15.180 -0.5856 -0.7814  0.5789
  888MPD2    C313017   1.429   4.451  15.095 -0.3883 -0.6511  0.2444
  888MPD2    C413018   1.418   4.420  14.962  0.2347  0.2652 -0.1624
  888MPD2    C513019   1.323   4.336  14.916  0.3570  0.3926 -0.1102
  888MPD2     H13020   1.318   4.417  15.284 -0.9244  2.6709 -0.4104
  888MPD2    H113021   1.485   4.460  14.886  1.4440  0.6118  1.0756
  888MPD2    H213022   1.151   4.225  14.942  0.3354 -0.7110  0.3006
  888MPD2    H313023   1.310   4.327  14.809  0.5599 -1.1633 -0.0046
  888MPD2     N13024   1.506   4.559  15.138 -0.2302  0.4173  0.6146
  888MPD2    H513025   1.478   4.600  15.227  2.5640 -0.0369  1.7088
  888MPD2    N113026   1.154   4.217  15.223  0.5986  0.0871 -0.0882
  888MPD2    H713027   1.189   4.210  15.318  0.5924 -1.6842 -0.2217
  889MPD2     C13028   0.587   3.956  12.888  0.3745  0.6989  0.0864
  889MPD2    C113029   0.465   3.906  12.928  0.6510  0.1511 -0.0528
  889MPD2    C213030   0.354   3.986  12.904 -0.0856  0.0307  0.1878
  889MPD2    C313031   0.370   4.128  12.883 -0.6640  0.1129 -1.1515
  889MPD2    C413032   0.500   4.184  12.858  0.3102 -0.2221 -0.4953
  889MPD2    C513033   0.599   4.088  12.856  0.2158  0.2834 -0.8910
  889MPD2     H13034   0.260   3.942  12.935 -0.6209  0.5438 -0.7050
  889MPD2    H113035   0.526   4.289  12.860  0.5590 -0.2826 -0.5279
  889MPD2    H213036   0.667   3.888  12.863 -1.1267 -0.8308 -0.5015
  889MPD2    H313037   0.704   4.106  12.837  0.3225  1.5789  0.9829
  889MPD2     N13038   0.257   4.211  12.905  0.1811 -0.0717  0.1413
  889MPD2    H513039   0.177   4.170  12.953 -0.0294  1.8975  1.4752
  889MPD2    N113040   0.442   3.764  12.950  0.2395 -0.8630 -0.2020
  889MPD2    H713041   0.348   3.728  12.939  0.3987 -1.2110 -0.4188
  890MPD2     C13042   0.197   0.691  14.518  0.4175  0.1730 -0.3474
  890MPD2    C113043   0.320   0.738  14.568  0.3539  0.5256  0.3126
  890MPD2    C213044   0.352   0.703  14.695 -0.0041 -0.3260 -0.0227
  890MPD2    C313045   0.265   0.644  14.786 -0.4026 -0.8103  0.1436
  890MPD2    C413046   0.147   0.594  14.732  0.3778 -0.5081  0.5696
  890MPD2    C513047   0.118   0.614  14.603 -0.2879  0.4135  0.4982
  890MPD2     H13048   0.446   0.747  14.727  0.7174 -1.3241 -0.7843
  890MPD2    H113049   0.077   0.526  14.779  1.1485  0.1466  2.6880
  890MPD2    H213050   0.172   0.691  14.413 -0.6227 -1.5875 -0.1034
  890MPD2    H313051   0.021   0.578  14.573  1.1980 -0.2870 -3.3780
  890MPD2     N13052   0.288   0.632  14.924 -0.1836  0.0602 -0.1711
  890MPD2    H513053   0.210   0.587  14.971 -1.7497  0.6115 -2.2594
  890MPD2    N113054   0.408   0.826  14.500 -0.1532 -0.5407 -0.4932
  890MPD2    H713055   0.468   0.887  14.555  0.2950  0.1022 -1.6919
  891MPD2     C13056   2.941   3.683  16.859  0.3454 -0.2268 -0.0002
  891MPD2    C113057   2.886   3.812  16.884 -0.6996  0.0837  0.2479
  891MPD2    C213058   2.953   3.903  16.954 -0.3619 -0.0136 -0.4008
  891MPD2    C313059   3.082   3.870  17.001 -0.1550 -1.0031  0.1596
  891MPD2    C413060   3.128   3.741  16.981 -0.2359  0.4413 -1.1542
  891MPD2    C513061   3.059   3.643  16.909  0.5359  0.0149  0.2257
  891MPD2     H13062   2.923   4.006  16.969 -0.7196  0.0247 -1.4241
  891MPD2    H113063   3.225   3.709  17.014 -0.4595 -1.1386 -2.0386
  891MPD2    H213064   2.898   3.601  16.803 -1.5027 -0.6185  2.0474
  891MPD2    H313065   3.097   3.543  16.891 -1.5143 -0.4915 -1.2606
  891MPD2     N13066   3.160   3.966  17.065  0.0325 -0.1249 -0.5871
  891MPD2    H513067   3.124   4.058  17.088  0.7760 -0.5026  2.1548
  891MPD2    N113068   2.763   3.830  16.815 -0.0961  0.1646  0.0175
  891MPD2    H713069   2.737   3.760  16.747  3.8559  0.2554 -1.5981
  892MPD2     C13070   4.061   0.731  14.518 -0.4290 -0.1649 -0.0211
  892MPD2    C113071   4.010   0.605  14.526 -0.3289  0.0233  0.3692
  892MPD2    C213072   4.071   0.502  14.452  0.3999  0.0614 -0.9224
  892MPD2    C313073   4.187   0.530  14.385 -0.5794  0.5103  0.2811
  892MPD2    C413074   4.242   0.654  14.385  0.2534 -0.5278  0.1786
  892MPD2    C513075   4.179   0.755  14.450  0.4229  0.5473  0.2946
  892MPD2     H13076   4.036   0.399  14.443 -0.0503  0.1403 -0.0332
  892MPD2    H113077   4.338   0.670  14.338  1.1715  0.3758  2.3088
  892MPD2    H213078   4.014   0.814  14.568  1.8346  1.7950 -1.1139
  892MPD2    H313079   4.223   0.853  14.442 -2.0159  1.4072 -2.3259
  892MPD2     N13080   4.256   0.430  14.306  0.0988 -0.1521 -0.2278
  892MPD2    H513081   4.344   0.470  14.274 -0.2867  1.2181  0.4019
  892MPD2    N113082   3.885   0.587  14.577  0.3902 -0.1660 -0.1822
  892MPD2    H713083   3.824   0.667  14.590  0.1396 -0.2224 -1.0370
  893MPD2     C13084   4.644   3.102   0.589  0.2700  0.4140  0.1463
  893MPD2    C113085   4.669   3.073   0.723 -0.0179  0.5435  0.2651
  893MPD2    C213086   4.603   2.970   0.782  0.2181  0.6623 -0.1974
  893MPD2    C313087   4.511   2.897   0.708 -0.0050 -0.1662 -0.0081
  893MPD2    C413088   4.494   2.914   0.576 -0.7047 -0.0560 -0.6221
  893MPD2    C513089   4.559   3.023   0.525  0.3390  0.7301  0.1627
  893MPD2     H13090   4.612   2.951   0.889  2.5119  0.8653 -0.3547
  893MPD2    H113091   4.425   2.856   0.516 -1.0208 -1.3414  0.9720
  893MPD2    H213092   4.705   3.174   0.537 -0.8231  2.1957  1.3450
  893MPD2    H313093   4.553   3.042   0.418  0.2072 -0.1589  0.0177
  893MPD2     N13094   4.427   2.795   0.760  0.5328  0.1877  0.5117
  893MPD2    H513095   4.359   2.744   0.705 -1.3251  1.1353  1.9364
  893MPD2    N113096   0.048   3.151   0.790 -0.3146 -0.0218 -0.2740
  893MPD2    H713097   0.100   3.217   0.733  0.2268 -0.2632 -0.0653
  894MPD2     C13098   3.076   0.683   1.076  0.4618  0.1898 -0.8014
  894MPD2    C113099   2.987   0.762   1.002  0.7062  0.7158  0.5487
  894MPD2    C213100   3.025   0.889   0.968 -0.3402 -0.2165  0.4573
  894MPD2    C313101   3.141   0.947   1.020  0.4310  0.0576 -0.8381
  894MPD2    C413102   3.223   0.869   1.100  0.0704  0.9250  0.2413
  894MPD2    C513103   3.194   0.739   1.121 -0.7632  0.3893 -0.2581
  894MPD2     H13104   2.967   0.946   0.896  2.2585 -2.4809 -3.4397
  894MPD2    H113105   3.320   0.898   1.140  0.3289 -1.1928  1.1228
  894MPD2    H213106   3.061   0.577   1.097 -3.7212  0.5570 -1.9944
  894MPD2    H313107   3.260   0.675   1.178 -2.2607 -0.6224  0.3345
  894MPD2     N13108   3.182   1.074   0.982  0.7714 -0.0612 -0.5081
  894MPD2    H513109   3.119   1.118   0.916  2.4704  0.8335 -1.5076
  894MPD2    N113110   2.866   0.704   0.955  0.2979 -0.0887 -0.0110
  894MPD2    H713111   2.812   0.770   0.901 -3.0548 -0.1936  3.1742
  895MPD2     C13112   3.110   4.581  13.258  0.2080  0.4184  0.4036
  895MPD2    C113113   3.049   4.479  13.182 -0.3986 -0.0724 -0.4902
  895MPD2    C213114   3.075   4.350  13.206  0.2539 -0.0441 -0.2072
  895MPD2    C313115   3.187   4.321  13.287 -0.2623 -0.5868  0.0814
  895MPD2    C413116   3.251   4.421  13.360  0.0390  0.4478  0.3288
  895MPD2    C513117   3.208   4.546  13.342 -0.4694 -0.2871 -0.1168
  895MPD2     H13118   3.024   4.272  13.151  1.1871 -0.1191 -0.9598
  895MPD2    H113119   3.316   4.392  13.441  0.9498  0.8624 -0.2502
  895MPD2    H213120   3.094   4.687  13.243 -0.2168  0.6004  2.2421
  895MPD2    H313121   3.252   4.611  13.417  0.7844 -1.0767 -0.1539
  895MPD2     N13122   3.224   4.186  13.300  0.8423 -0.0854 -0.6009
  895MPD2    H513123   3.160   4.125  13.251  0.4932 -0.2232  0.0370
  895MPD2    N113124   2.948   4.513  13.091 -0.7738  0.3474 -0.6123
  895MPD2    H713125   2.905   4.439  13.037 -0.0498 -0.5548  0.0402
  896MPD2     C13126   0.443   1.832   1.268 -0.4757  0.7967 -0.7016
  896MPD2    C113127   0.426   1.782   1.141  0.5480 -0.9029 -0.5655
  896MPD2    C213128   0.306   1.736   1.103 -0.3548 -1.1645  0.2693
  896MPD2    C313129   0.201   1.718   1.192 -0.4679  1.0391  0.2084
  896MPD2    C413130   0.214   1.774   1.321  0.2755 -0.4642  0.6333
  896MPD2    C513131   0.338   1.823   1.356  0.0023  0.0579 -0.0179
  896MPD2     H13132   0.288   1.698   1.003 -1.3019 -0.5524  0.2117
  896MPD2    H113133   0.124   1.768   1.382  0.0858  0.9490  0.4993
  896MPD2    H213134   0.529   1.884   1.308 -1.2678  0.0605  1.9784
  896MPD2    H313135   0.348   1.863   1.457  1.7009 -0.1436 -0.0916
  896MPD2     N13136   0.078   1.654   1.150  0.1339  0.4145  0.0728
  896MPD2    H513137   0.088   1.600   1.064  0.5128  0.8907 -0.1814
  896MPD2    N113138   0.538   1.801   1.051  0.5113 -0.2478  0.0385
  896MPD2    H713139   0.620   1.838   1.097  0.9410 -3.0806  1.5536
  897MPD2     C13140   1.624   3.451  10.111 -0.0611 -0.1036  0.4380
  897MPD2    C113141   1.573   3.576  10.134 -0.5761  1.0688 -0.4615
  897MPD2    C213142   1.539   3.602  10.266 -0.5527  0.2805 -0.2724
  897MPD2    C313143   1.538   3.508  10.362  0.0750  0.3527 -0.3039
  897MPD2    C413144   1.591   3.376  10.331 -0.4871  0.6193  0.5755
  897MPD2    C513145   1.634   3.349  10.203  0.1225 -0.2249  0.2919
  897MPD2     H13146   1.480   3.688  10.293 -3.4284 -1.7967 -0.0189
  897MPD2    H113147   1.600   3.295  10.402 -0.9636  1.6841  1.8574
  897MPD2    H213148   1.672   3.421  10.018  2.3381  1.1431  1.2530
  897MPD2    H313149   1.674   3.251  10.179 -0.2374 -0.4011  0.4155
  897MPD2     N13150   1.487   3.551  10.488 -0.7226  0.5544 -0.6603
  897MPD2    H513151   1.448   3.644  10.495 -1.7430 -0.0651  1.7942
  897MPD2    N113152   1.578   3.680  10.035 -0.7912 -0.3510 -0.2846
  897MPD2    H713153   1.608   3.645   9.944  0.8239  0.9727 -0.2682
  898MPD2     C13154   4.387   0.062  17.545 -0.8950  0.1357 -0.1503
  898MPD2    C113155   4.296   4.689  17.585 -0.0886  0.2045 -0.4081
  898MPD2    C213156   4.169   4.691  17.524  0.0787 -0.3309 -1.0829
  898MPD2    C313157   4.139   0.059  17.424  0.2495  0.0122  0.4819
  898MPD2    C413158   4.232   0.154  17.388 -0.2701  0.4565 -0.6874
  898MPD2    C513159   4.359   0.154  17.445  0.3900  0.1695 -0.8297
  898MPD2     H13160   4.099   4.615  17.556  0.9182 -0.4829  0.4079
  898MPD2    H113161   4.206   0.231  17.316 -0.4438 -0.8774 -2.0593
  898MPD2    H213162   4.488   0.061  17.583 -0.8119  0.8267 -0.3506
  898MPD2    H313163   4.431   0.228  17.413 -0.8415  0.8955 -1.9018
  898MPD2     N13164   4.009   0.060  17.364 -0.2082 -0.1335  0.1834
  898MPD2    H513165   3.936   0.005  17.408 -1.1928  0.0442 -1.2272
  898MPD2    N113166   4.324   4.595   0.008  0.2110 -0.1396 -0.6181
  898MPD2    H713167   4.247   4.531   0.027 -0.4595  1.4233  2.0311
  899MPD2     C13168   0.213   0.457  17.350 -0.5482  0.2780 -0.2711
  899MPD2    C113169   0.076   0.488  17.339  0.4711 -0.6260 -0.3224
  899MPD2    C213170   4.707   0.430  17.427 -0.1585 -0.1162 -0.6634
  899MPD2    C313171   0.040   0.349  17.528 -0.1806 -0.0003  1.0281
  899MPD2    C413172   0.172   0.317  17.534 -0.3108 -0.4876 -0.3053
  899MPD2    C513173   0.255   0.377  17.450  0.1049 -0.1824  0.4483
  899MPD2     H13174   4.602   0.457  17.423 -0.2360 -0.3676 -0.2069
  899MPD2    H113175   0.203   0.254  17.617  2.0592 -2.1571 -2.5009
  899MPD2    H213176   0.285   0.502  17.281  0.5126 -0.4790  0.3399
  899MPD2    H313177   0.363   0.369  17.459  0.1752 -0.0170 -0.2700
  899MPD2     N13178   4.686   0.304  17.632 -0.6911 -0.1927  0.2670
  899MPD2    H513179   4.714   0.223   0.006 -0.2274  0.4757  1.0129
  899MPD2    N113180   0.037   0.581  17.236 -0.4675 -0.1610 -0.2366
  899MPD2    H713181   0.105   0.616  17.170 -0.3054 -0.8956 -0.4578
  900MPD2     C13182   4.243   2.364  12.479  0.2120 -0.3625 -0.4962
  900MPD2    C113183   4.181   2.273  12.399  0.4433  0.7351 -0.0749
  900MPD2    C213184   4.046   2.285  12.364  0.2417  0.1142  0.2648
  900MPD2    C313185   3.978   2.400  12.408 -0.2230 -0.6319  0.3242
  900MPD2    C413186   4.038   2.489  12.497  0.2062  1.0335 -0.4747
  900MPD2    C513187   4.170   2.468  12.530  0.6820 -0.0149 -0.7286
  900MPD2     H13188   3.980   2.218  12.310 -0.4798 -0.8898  2.3630
  900MPD2    H113189   3.989   2.578  12.534 -0.0328  0.6675  0.0886
  900MPD2    H213190   4.347   2.356  12.505  0.4544 -1.4266 -1.7787
  900MPD2    H313191   4.216   2.540  12.597  2.6090 -1.4776 -0.4874
  900MPD2     N13192   3.855   2.427  12.347 -0.3804 -0.4497 -0.0570
  900MPD2    H513193   3.823   2.370  12.269 -0.1927 -0.0846 -0.4015
  900MPD2    N113194   4.251   2.157  12.361 -0.1181  0.0034  0.0318
  900MPD2    H713195   4.334   2.134  12.415  0.4817  1.1729 -0.3811
  901MPD2     C13196   4.001   1.146  11.995 -0.6148  0.1370 -0.4456
  901MPD2    C113197   4.128   1.143  12.043  0.1694  0.2817 -0.0113
  901MPD2    C213198   4.200   1.260  12.080  0.5423 -0.3004  0.3106
  901MPD2    C313199   4.137   1.389  12.072 -0.0674 -0.0414  0.7278
  901MPD2    C413200   4.002   1.391  12.023 -0.2422  0.0829  0.3040
  901MPD2    C513201   3.943   1.272  11.981 -0.1836 -0.4568  0.3617
  901MPD2     H13202   4.294   1.239  12.130 -0.3158 -1.6129  1.3927
  901MPD2    H113203   3.938   1.478  12.013 -0.3148  0.0672  0.6354
  901MPD2    H213204   3.943   1.063  11.958  0.8074 -1.1211  0.1360
  901MPD2    H313205   3.845   1.284  11.938  0.4942  1.7194 -0.6279
  901MPD2     N13206   4.202   1.496  12.128 -0.1912  0.0243  0.2924
  901MPD2    H513207   4.298   1.486  12.162 -0.6845 -3.8851  0.4913
  901MPD2    N113208   4.176   1.014  12.085  0.2528  0.2576 -0.7147
  901MPD2    H713209   4.111   0.940  12.059  0.8619 -0.4098 -0.3303
  902MPD2     C13210   3.087   4.680  12.545  0.6293  0.4001 -0.2974
  902MPD2    C113211   2.981   4.709  12.465 -0.0563  0.2916 -0.1807
  902MPD2    C213212   2.945   4.623  12.372  0.0202 -0.5241 -0.1961
  902MPD2    C313213   3.011   4.497  12.359 -0.2934  0.4016 -0.4375
  902MPD2    C413214   3.117   4.473  12.444  0.4601 -0.6075 -0.9869
  902MPD2    C513215   3.150   4.562  12.531 -0.5340 -0.3170  0.2007
  902MPD2     H13216   2.872   4.640  12.294  0.0158 -1.5974 -0.4258
  902MPD2    H113217   3.167   4.377  12.443  1.1129 -0.2801  1.5168
  902MPD2    H213218   3.109   0.027  12.628  0.6968 -1.3240  1.0797
  902MPD2    H313219   3.232   4.540  12.599  1.4543 -0.5302 -2.3050
  902MPD2     N13220   2.987   4.411  12.254 -0.0059  0.2682  0.1439
  902MPD2    H513221   3.051   4.333  12.251 -2.1117 -1.4776  0.0927
  902MPD2    N113222   2.901   0.103  12.497 -0.2495 -0.1903 -0.2201
  902MPD2    H713223   2.931   0.163  12.574  0.0220 -0.6708  0.0466
  903MPD2     C13224   2.691   3.926  11.522  0.3688 -0.3965 -0.2980
  903MPD2    C113225   2.669   4.051  11.571  0.3668  0.1860  0.4005
  903MPD2    C213226   2.573   4.127  11.514 -0.3205  0.5319 -0.3588
  903MPD2    C313227   2.500   4.084  11.402 -0.1695  0.4513 -0.2358
  903MPD2    C413228   2.527   3.959  11.359 -0.1289  0.3048 -0.3146
  903MPD2    C513229   2.616   3.874  11.422  0.4060  0.6480 -0.1873
  903MPD2     H13230   2.554   4.230  11.543 -1.7950 -0.2861  1.5521
  903MPD2    H113231   2.471   3.923  11.274  0.2969 -1.0864 -0.0150
  903MPD2    H213232   2.777   3.879  11.569 -0.9809 -2.0797  0.4760
  903MPD2    H313233   2.626   3.772  11.387  1.7141  1.4674 -2.2025
  903MPD2     N13234   2.406   4.162  11.340 -0.1701 -0.0016  0.0896
  903MPD2    H513235   2.392   4.256  11.378 -1.1541  0.0215 -0.3479
  903MPD2    N113236   2.747   4.092  11.677 -0.5841  0.1403  0.9295
  903MPD2    H713237   2.833   4.048  11.707  0.7576  1.7635 -0.5138
  904MPD2     C13238   2.421   4.006  13.923  0.3399  0.1418 -0.2945
  904MPD2    C113239   2.533   4.059  13.858 -0.1323 -0.0709  0.6280
  904MPD2    C213240   2.658   4.017  13.895  0.6698 -0.3301  0.1322
  904MPD2    C313241   2.672   3.911  13.979 -0.3816  0.0363 -0.1948
  904MPD2    C413242   2.565   3.859  14.044 -0.3734  0.4293 -0.5151
  904MPD2    C513243   2.434   3.905  14.009 -0.4155 -0.3046  0.1072
  904MPD2     H13244   2.752   4.054  13.855  0.5031 -0.6012 -0.5140
  904MPD2    H113245   2.569   3.772  14.108  0.6324  1.6755  1.0909
  904MPD2    H213246   2.324   4.045  13.898  0.3566 -0.8222 -1.8663
  904MPD2    H313247   2.346   3.851  14.041 -2.5110  3.5629  0.8116
  904MPD2     N13248   2.790   3.840  14.001 -0.1806 -0.4298  0.3607
  904MPD2    H513249   2.788   3.762  14.065  3.8702 -2.9560 -2.6274
  904MPD2    N113250   2.527   4.140  13.742  0.1860  0.0208 -0.4844
  904MPD2    H713251   2.615   4.153  13.695  1.4458  2.0428  2.4140
  905MPD2     C13252   2.631   3.702  13.359  0.1800 -0.1498 -0.4503
  905MPD2    C113253   2.682   3.825  13.314 -0.3721 -0.9487  0.5485
  905MPD2    C213254   2.817   3.827  13.275 -0.3206  0.3082  0.4679
  905MPD2    C313255   2.899   3.713  13.277 -0.1304 -0.3015 -0.2895
  905MPD2    C413256   2.839   3.592  13.311 -0.1804  0.3245 -0.9258
  905MPD2    C513257   2.702   3.582  13.353 -0.3157  0.4673 -0.3395
  905MPD2     H13258   2.854   3.926  13.254 -0.7222  0.5693  0.9844
  905MPD2    H113259   2.894   3.499  13.303  1.1181  0.7565  3.2867
  905MPD2    H213260   2.530   3.689  13.395  0.1714 -0.5792 -0.6270
  905MPD2    H313261   2.660   3.487  13.381  0.2290  0.4593  0.4362
  905MPD2     N13262   3.039   3.720  13.254  0.6339 -0.6102 -0.0014
  905MPD2    H513263   3.098   3.639  13.268  0.2358 -1.1662 -1.6451
  905MPD2    N113264   2.607   3.946  13.324 -0.0375 -0.1115  0.4058
  905MPD2    H713265   2.520   3.936  13.376 -0.4083  1.2124  0.0543
  906MPD2     C13266   0.312   4.063  11.327  0.6141  0.4119  0.4232
  906MPD2    C113267   0.339   3.970  11.232  0.5110  0.6469 -0.1955
  906MPD2    C213268   0.355   3.840  11.269  0.0683  0.2296  0.1035
  906MPD2    C313269   0.359   3.800  11.402  0.9347 -0.0130  0.0528
  906MPD2    C413270   0.329   3.898  11.498 -0.1847 -0.6673 -0.3594
  906MPD2    C513271   0.290   4.022  11.459 -0.4233  0.1132 -0.6177
  906MPD2     H13272   0.360   3.760  11.196 -0.4018  0.6622 -0.4079
  906MPD2    H113273   0.318   3.870  11.602 -0.5570 -1.0072 -0.4926
  906MPD2    H213274   0.280   4.164  11.303 -0.1791  0.5647  2.0988
  906MPD2    H313275   0.254   4.096  11.529 -1.9046 -1.8351  0.6906
  906MPD2     N13276   0.364   3.667  11.442  0.0590  0.1036  0.3840
  906MPD2    H513277   0.327   3.639  11.532  0.5240 -0.9261  0.2562
  906MPD2    N113278   0.362   4.000  11.093  0.2947 -0.6560 -0.0547
  906MPD2    H713279   0.373   3.919  11.032 -0.7514  0.4352 -1.6890
  907MPD2     C13280   3.778   3.095  15.340 -0.1122 -0.2331 -0.2275
  907MPD2    C113281   3.856   2.980  15.342  0.1901 -1.2545  0.9879
  907MPD2    C213282   3.938   2.957  15.451 -0.6631  0.4592  0.1617
  907MPD2    C313283   3.925   3.030  15.566 -0.2285  0.2989  0.3744
  907MPD2    C413284   3.844   3.140  15.566 -0.1637  0.4072 -0.1851
  907MPD2    C513285   3.772   3.171  15.450 -0.4292 -0.0000  0.0336
  907MPD2     H13286   3.986   2.860  15.461 -1.2080  0.2370  0.6143
  907MPD2    H113287   3.838   3.215  15.644 -1.8192  0.1135 -0.0157
  907MPD2    H213288   3.712   3.124  15.259 -0.6157  1.5063  0.8104
  907MPD2    H313289   3.718   3.264  15.443 -0.0280  0.1625 -0.9484
  907MPD2     N13290   4.008   3.001  15.680 -0.1757  0.4086 -0.3541
  907MPD2    H513291   4.066   2.919  15.670 -0.3903  0.0894  1.0382
  907MPD2    N113292   3.862   2.891  15.236  0.4905  0.7443  0.4341
  907MPD2    H713293   3.925   2.812  15.246 -1.9409 -1.1439  0.8774
  908MPD2     C13294   1.351   3.569   9.229 -0.1682  0.2647 -0.1317
  908MPD2    C113295   1.407   3.503   9.335 -0.2602 -0.1658 -0.2279
  908MPD2    C213296   1.439   3.577   9.443  0.2842 -0.1788  0.0442
  908MPD2    C313297   1.395   3.711   9.448 -0.8676 -0.7067 -0.3346
  908MPD2    C413298   1.325   3.774   9.348  0.4071 -1.3480  0.2584
  908MPD2    C513299   1.314   3.703   9.234  0.4617 -0.0022  0.3827
  908MPD2     H13300   1.486   3.544   9.535 -1.8434 -2.0314  0.4851
  908MPD2    H113301   1.286   3.875   9.352  0.3386 -1.3689  0.1148
  908MPD2    H213302   1.333   3.520   9.133 -0.2568  0.1994 -0.0821
  908MPD2    H313303   1.272   3.752   9.147  0.7849  0.4677  0.4941
  908MPD2     N13304   1.417   3.777   9.571 -0.3646  0.2453 -0.5833
  908MPD2    H513305   1.502   3.743   9.615 -1.0807  1.7227  1.9216
  908MPD2    N113306   1.458   3.374   9.317 -0.2691  0.1824  0.3313
  908MPD2    H713307   1.509   3.337   9.397  2.0653 -0.4912 -1.4956
  909MPD2     C13308   1.966   1.619  11.298  0.3260  0.5921 -0.0350
  909MPD2    C113309   2.001   1.755  11.288  0.5069  0.2394 -0.2051
  909MPD2    C213310   1.985   1.827  11.408 -0.9012 -1.0336 -0.3421
  909MPD2    C313311   1.960   1.769  11.529 -0.3985  0.4121  0.6678
  909MPD2    C413312   1.945   1.634  11.538  0.6198 -0.3765  0.1422
  909MPD2    C513313   1.929   1.563  11.421  0.0284  0.2834  0.2689
  909MPD2     H13314   2.016   1.930  11.403 -1.7101 -0.7999 -0.4724
  909MPD2    H113315   1.937   1.573  11.627  0.7921 -1.1854 -0.3953
  909MPD2    H213316   1.952   1.557  11.210 -0.3922  0.2767  0.2956
  909MPD2    H313317   1.895   1.462  11.438  2.6395 -0.1076  3.1644
  909MPD2     N13318   1.972   1.856  11.645  0.1610 -0.1003 -0.1215
  909MPD2    H513319   2.000   1.953  11.643 -0.3319  0.0876  2.2777
  909MPD2    N113320   2.022   1.823  11.168 -0.6963 -0.1038  0.1239
  909MPD2    H713321   2.029   1.924  11.176 -0.5018  0.0269 -1.6379
  910MPD2     C13322   2.770   3.550  15.341 -0.1457 -0.8172  0.5222
  910MPD2    C113323   2.879   3.575  15.264  0.6209 -0.2163 -0.1658
  910MPD2    C213324   2.870   3.649  15.152 -0.0525 -0.0941 -0.5939
  910MPD2    C313325   2.753   3.703  15.108  0.4830 -0.2648  0.1273
  910MPD2    C413326   2.632   3.680  15.178  0.0736  0.5868  0.2001
  910MPD2    C513327   2.649   3.593  15.286 -0.6078 -0.3605 -0.9087
  910MPD2     H13328   2.962   3.672  15.100  0.1019  0.2843 -0.1560
  910MPD2    H113329   2.538   3.720  15.142  1.5139  1.0275 -3.0745
  910MPD2    H213330   2.775   3.483  15.426  0.6974 -1.6539 -0.1851
  910MPD2    H313331   2.562   3.566  15.345 -0.0988  0.0191  0.0143
  910MPD2     N13332   2.742   3.790  14.993  0.2072 -0.4411  0.2461
  910MPD2    H513333   2.651   3.836  14.989  0.1804 -0.5924 -0.8215
  910MPD2    N113334   3.003   3.520  15.294  0.1439  0.0071 -0.1598
  910MPD2    H713335   3.067   3.517  15.216 -0.4470  0.1610 -0.6520
  911MPD2     C13336   1.074   3.821  16.313 -0.0445 -0.5003  0.5283
  911MPD2    C113337   1.154   3.931  16.313 -0.1339 -0.7314  0.0445
  911MPD2    C213338   1.115   4.041  16.240  1.1842 -0.2075 -0.4142
  911MPD2    C313339   0.990   4.042  16.178  0.2988  0.3683 -0.4559
  911MPD2    C413340   0.921   3.930  16.172 -0.0757 -0.1501  0.0789
  911MPD2    C513341   0.952   3.819  16.250 -0.6075  0.2804  0.4620
  911MPD2     H13342   1.173   4.132  16.254  2.2378 -1.1065  1.1079
  911MPD2    H113343   0.820   3.919  16.134 -0.2388 -1.1821  0.7831
  911MPD2    H213344   1.108   3.741  16.378  2.0545 -0.6630 -0.7680
  911MPD2    H313345   0.896   3.726  16.257  1.2825 -0.7808  1.4805
  911MPD2     N13346   0.948   4.154  16.097 -0.1729  0.8371  0.1514
  911MPD2    H513347   0.849   4.149  16.075  0.6713  0.6760 -3.6196
  911MPD2    N113348   1.275   3.915  16.390 -0.1478 -0.1089  0.5074
  911MPD2    H713349   1.293   3.821  16.423 -0.4618  0.3699  2.0649
  912MPD2     C13350   0.605   3.949  15.614 -0.0685  0.2490  0.1323
  912MPD2    C113351   0.640   3.986  15.739  0.1671 -0.0019 -0.7572
  912MPD2    C213352   0.677   3.883  15.828  0.2135 -0.2582 -0.4650
  912MPD2    C313353   0.674   3.743  15.791  0.9082 -0.5276 -0.8841
  912MPD2    C413354   0.666   3.717  15.653 -0.0822  0.2837  0.4931
  912MPD2    C513355   0.616   3.818  15.572 -1.0038 -0.1873  0.4908
  912MPD2     H13356   0.700   3.905  15.932 -1.1786 -0.7177 -0.0553
  912MPD2    H113357   0.666   3.625  15.595  0.4633  2.8583 -3.6179
  912MPD2    H213358   0.581   4.028  15.543  1.2880  1.9457  1.5560
  912MPD2    H313359   0.597   3.800  15.466 -2.4971 -1.1050  0.9138
  912MPD2     N13360   0.706   3.644  15.888 -0.6231 -0.5353  0.2483
  912MPD2    H513361   0.711   3.673  15.985  1.6320  0.5269 -0.1663
  912MPD2    N113362   0.645   4.123  15.769 -0.3506  0.0337  0.1201
  912MPD2    H713363   0.626   4.193  15.699 -1.2213 -0.6625 -0.3377
  913MPD2     C13364   1.702   0.941  10.552  0.2722 -0.0983 -0.0789
  913MPD2    C113365   1.817   1.013  10.542  0.1156  0.0505  0.3811
  913MPD2    C213366   1.886   1.011  10.425 -0.2775 -0.2121  0.0352
  913MPD2    C313367   1.852   0.921  10.323 -0.4241  0.4498  0.2557
  913MPD2    C413368   1.731   0.844  10.330 -0.2254 -0.3358 -0.5778
  913MPD2    C513369   1.656   0.864  10.446  0.0303  0.7647  0.7748
  913MPD2     H13370   1.975   1.071  10.406 -1.5324  1.3123 -0.9758
  913MPD2    H113371   1.708   0.765  10.260  0.6230 -0.4453 -0.7328
  913MPD2    H213372   1.638   0.925  10.638  1.3452  1.5191  1.0072
  913MPD2    H313373   1.562   0.813  10.465  0.2526 -0.0863 -0.4008
  913MPD2     N13374   1.922   0.900  10.202 -0.1857 -0.0214  0.5564
  913MPD2    H513375   1.883   0.825  10.145  4.3318 -0.5241 -1.8870
  913MPD2    N113376   1.858   1.079  10.659  0.3061  0.5231 -0.3461
  913MPD2    H713377   1.801   1.048  10.737  1.4852 -0.3943  0.1540
  914MPD2     C13378   3.897   0.583  11.639  0.0046  0.8117 -0.3055
  914MPD2    C113379   3.920   0.707  11.687  0.6334  1.1700 -0.3574
  914MPD2    C213380   3.959   0.722  11.819 -0.0751  0.3961  0.4746
  914MPD2    C313381   3.956   0.612  11.907 -0.2062  0.8645  0.0517
  914MPD2    C413382   3.941   0.484  11.851 -0.6047 -0.0102  0.3955
  914MPD2    C513383   3.906   0.475  11.720  0.2470 -0.0765 -0.0742
  914MPD2     H13384   3.979   0.821  11.859  0.6389  0.1957  0.6203
  914MPD2    H113385   3.928   0.394  11.910 -1.2494 -0.4450 -0.4011
  914MPD2    H213386   3.870   0.568  11.535 -1.0653  2.5316 -0.2705
  914MPD2    H313387   3.865   0.383  11.681  0.6461 -1.4972  2.8581
  914MPD2     N13388   4.002   0.644  12.033  0.0924  0.0304 -0.0571
  914MPD2    H513389   3.961   0.727  12.075 -1.8979 -0.6972 -0.5552
  914MPD2    N113390   3.926   0.810  11.598 -0.0999  0.5018  0.5414
  914MPD2    H713391   3.889   0.785  11.506  0.8538  1.7402 -0.1881
  915MPD2     C13392   2.513   0.416  15.421  0.7333 -0.0831  1.1310
  915MPD2    C113393   2.383   0.464  15.415  0.1722 -0.0467 -0.3609
  915MPD2    C213394   2.339   0.541  15.521 -0.2177 -0.3290  0.5966
  915MPD2    C313395   2.424   0.573  15.623 -0.0365 -0.2882  0.4159
  915MPD2    C413396   2.555   0.529  15.624  0.0630  0.0813  0.3831
  915MPD2    C513397   2.597   0.451  15.522  0.1103  0.0236 -0.2977
  915MPD2     H13398   2.244   0.592  15.526  0.9474  1.9416 -0.5810
  915MPD2    H113399   2.623   0.537  15.708  3.0795 -1.9945 -1.8542
  915MPD2    H213400   2.551   0.351  15.343 -0.1510  2.8931 -1.7998
  915MPD2    H313401   2.698   0.414  15.515 -0.9063 -2.6450 -1.2343
  915MPD2     N13402   2.365   0.645  15.726 -0.1967 -0.6809  0.0720
  915MPD2    H513403   2.264   0.661  15.722  0.2112  1.5177 -1.2641
  915MPD2    N113404   2.312   0.455  15.302  0.1623  0.0681 -0.4509
  915MPD2    H713405   2.353   0.417  15.217 -1.2906  1.2584 -1.6612
  916MPD2     C13406   0.396   3.608  15.443 -0.4101 -0.6945 -0.4238
  916MPD2    C113407   0.407   3.521  15.549  0.2814 -0.2182  0.0168
  916MPD2    C213408   0.461   3.395  15.524 -0.3662  0.0558  0.3070
  916MPD2    C313409   0.488   3.353  15.393  0.1717  0.1131  0.7645
  916MPD2    C413410   0.478   3.446  15.291 -0.2762  0.1247  0.7200
  916MPD2    C513411   0.426   3.570  15.317  0.4215 -0.7753  0.7870
  916MPD2     H13412   0.463   3.326  15.607  0.1278 -0.3324 -0.0251
  916MPD2    H113413   0.491   3.417  15.187  1.3345 -3.4009  1.8703
  916MPD2    H213414   0.351   3.706  15.456 -0.8623 -0.7436 -1.5847
  916MPD2    H313415   0.419   3.640  15.235 -0.9658 -0.5631  1.0917
  916MPD2     N13416   0.524   3.219  15.370  0.4557  0.5598 -0.2042
  916MPD2    H513417   0.502   3.154  15.446  0.2683  0.5274 -0.2858
  916MPD2    N113418   0.370   3.562  15.677  0.4041  0.6073 -0.2383
  916MPD2    H713419   0.345   3.660  15.687 -0.9080  0.2262  0.2778
  917MPD2     C13420   1.143   1.337  10.930  0.2938  0.0960 -0.2076
  917MPD2    C113421   1.178   1.421  11.029 -0.5451 -0.2707 -0.8548
  917MPD2    C213422   1.268   1.523  10.998  0.3314  0.0694 -0.3868
  917MPD2    C313423   1.295   1.559  10.863  0.3885 -0.5280 -0.0093
  917MPD2    C413424   1.236   1.484  10.766  0.1142  0.4007  0.7053
  917MPD2    C513425   1.159   1.369  10.795  0.6598  0.0080  0.6190
  917MPD2     H13426   1.318   1.582  11.074 -0.4112  0.7369 -0.4189
  917MPD2    H113427   1.267   1.501  10.664  0.1992  1.8299  0.9721
  917MPD2    H213428   1.080   1.253  10.955  2.2576 -1.2572  0.2188
  917MPD2    H313429   1.121   1.311  10.712  2.2416  0.7840 -0.6338
  917MPD2     N13430   1.367   1.670  10.824 -0.6082  0.7981  0.4185
  917MPD2    H513431   1.390   1.670  10.725  1.4669  0.3563  0.9041
  917MPD2    N113432   1.122   1.405  11.157 -0.7765 -0.2300  0.0071
  917MPD2    H713433   1.076   1.315  11.154  1.4289 -1.3513 -0.8288
  918MPD2     C13434   1.237   1.863  12.053 -0.2124 -0.5721  0.3011
  918MPD2    C113435   1.309   1.765  11.989  0.0965  0.0433  0.1467
  918MPD2    C213436   1.254   1.700  11.882 -0.1825  0.3256  0.3563
  918MPD2    C313437   1.134   1.741  11.827 -0.4897  0.0794 -0.0632
  918MPD2    C413438   1.067   1.841  11.891 -0.5060 -1.2758  0.1548
  918MPD2    C513439   1.112   1.898  12.005 -1.0415  0.6830  0.2080
  918MPD2     H13440   1.316   1.631  11.826 -0.9159 -0.0725  0.0302
  918MPD2    H113441   0.968   1.867  11.855  0.9667 -2.1204 -4.5388
  918MPD2    H213442   1.278   1.913  12.141 -1.0701  0.2609  0.2259
  918MPD2    H313443   1.047   1.973  12.048 -3.6617 -1.0541 -0.6998
  918MPD2     N13444   1.085   1.658  11.714 -0.3092 -0.5730 -0.0630
  918MPD2    H513445   1.149   1.589  11.675  0.2524 -0.1201  0.0562
  918MPD2    N113446   1.440   1.734  12.028 -0.3240 -0.0315  0.3364
  918MPD2    H713447   1.477   1.647  11.991 -0.4237  0.3388 -0.6346
  919MPD2     C13448   1.781   0.373  11.388 -0.2993  0.0775  0.3193
  919MPD2    C113449   1.739   0.242  11.400 -0.3363  0.8778  0.3854
  919MPD2    C213450   1.689   0.181  11.289 -0.1785  0.1917 -0.4956
  919MPD2    C313451   1.689   0.244  11.167 -0.5040  0.5846  0.1000
  919MPD2    C413452   1.740   0.367  11.156  0.2801  0.0720 -0.2882
  919MPD2    C513453   1.794   0.431  11.264  0.6744  0.4708  0.3342
  919MPD2     H13454   1.645   0.083  11.304 -1.1143  0.5875 -0.6532
  919MPD2    H113455   1.738   0.414  11.058 -0.2752  1.1535  0.2359
  919MPD2    H213456   1.817   0.436  11.468  1.5155  0.1897 -0.5826
  919MPD2    H313457   1.820   0.534  11.243 -1.4509  1.3105  1.7788
  919MPD2     N13458   1.627   0.181  11.054 -0.7555  0.8110 -0.0737
  919MPD2    H513459   1.612   0.236  10.970 -1.4267 -2.0383 -1.8016
  919MPD2    N113460   1.711   0.180  11.520  0.6810 -0.0261 -0.3155
  919MPD2    H713461   1.645   0.102  11.518 -0.7423  1.0929  2.5586
  920MPD2     C13462   1.512   0.373  10.116 -0.2768  0.4371 -0.2569
  920MPD2    C113463   1.445   0.447  10.204  0.4046  0.3927  0.0310
  920MPD2    C213464   1.415   0.400  10.333  0.2065  0.3191  0.5831
  920MPD2    C313465   1.450   0.268  10.367  0.4507 -0.6015 -0.6432
  920MPD2    C413466   1.516   0.189  10.273 -0.0390  0.1314  0.0317
  920MPD2    C513467   1.543   0.238  10.145  0.5146  0.2913 -0.1879
  920MPD2     H13468   1.364   0.462  10.405 -0.5303  0.2933  0.0826
  920MPD2    H113469   1.543   0.086  10.293 -1.2782 -0.3964 -1.0635
  920MPD2    H213470   1.538   0.410  10.018  0.4925  1.8362  0.4566
  920MPD2    H313471   1.588   0.177  10.068 -0.9160  2.8200 -3.0073
  920MPD2     N13472   1.426   0.236  10.503  0.7231 -0.3279 -0.1370
  920MPD2    H513473   1.363   0.300  10.550  1.1866  1.3194 -1.7425
  920MPD2    N113474   1.409   0.581  10.180  0.9825  0.2462 -0.0877
  920MPD2    H713475   1.348   0.620  10.252 -0.7426  0.1259 -1.4664
  921MPD2     C13476   2.136   4.380  16.849  0.8296  0.0234  0.0702
  921MPD2    C113477   2.157   4.286  16.748  0.7100  0.2798  0.4608
  921MPD2    C213478   2.049   4.254  16.668  0.7550 -0.1871 -0.1107
  921MPD2    C313479   1.922   4.290  16.705  0.3024 -0.4130 -0.5058
  921MPD2    C413480   1.900   4.369  16.816 -0.0102 -0.2985  0.0609
  921MPD2    C513481   2.012   4.421  16.880  1.0574 -0.1384 -0.4629
  921MPD2     H13482   2.065   4.192  16.580 -3.4541 -0.3327 -0.7794
  921MPD2    H113483   1.804   4.406  16.850 -1.2562 -0.8314 -2.8627
  921MPD2    H213484   2.219   4.409  16.913 -0.2483 -1.2790  2.0578
  921MPD2    H313485   2.002   4.485  16.966  0.1506 -1.2590  0.2627
  921MPD2     N13486   1.807   4.213  16.652  0.0487  0.1396 -0.5704
  921MPD2    H513487   1.719   4.216  16.702  0.1161  0.2138 -0.4570
  921MPD2    N113488   2.290   4.237  16.723 -0.2274 -0.5371  0.3810
  921MPD2    H713489   2.363   4.273  16.783  0.7671  1.4467 -1.9970
  922MPD2     C13490   3.436   1.452  17.129 -0.0696  0.5359 -0.3324
  922MPD2    C113491   3.368   1.571  17.132 -0.2195 -0.0139  0.4919
  922MPD2    C213492   3.277   1.588  17.237 -0.8293 -0.3567 -0.5499
  922MPD2    C313493   3.255   1.493  17.330 -0.0323 -0.0983 -0.3845
  922MPD2    C413494   3.322   1.377  17.323  1.0505  0.6169  0.7437
  922MPD2    C513495   3.414   1.357  17.227 -0.4578 -0.1261  0.4270
  922MPD2     H13496   3.216   1.677  17.246 -1.1785 -0.6785  0.2430
  922MPD2    H113497   3.305   1.297  17.395 -0.5694 -1.2027 -1.6938
  922MPD2    H213498   3.508   1.432  17.051  0.5312  2.0592 -0.1803
  922MPD2    H313499   3.462   1.261  17.214  1.8828  1.3413 -1.9290
  922MPD2     N13500   3.141   1.496  17.414 -0.5162  0.4636 -0.3011
  922MPD2    H513501   3.115   1.405  17.449  0.2105  0.2413 -0.3379
  922MPD2    N113502   3.380   1.682  17.044 -0.1958 -0.1801 -0.0598
  922MPD2    H713503   3.319   1.760  17.066 -1.1496 -0.8180 -0.4178
  923MPD2     C13504   4.201   4.439   9.030  0.4361  0.3812 -0.4979
  923MPD2    C113505   4.186   4.423   9.166 -1.1816  0.2902 -0.1352
  923MPD2    C213506   4.282   4.345   9.231  0.0686  0.3538  0.4753
  923MPD2    C313507   4.399   4.304   9.161 -0.2681  0.0327  0.3044
  923MPD2    C413508   4.411   4.332   9.025  0.1871  0.4500 -0.0160
  923MPD2    C513509   4.312   4.398   8.958 -0.6668  0.0870  0.0831
  923MPD2     H13510   4.284   4.339   9.339  1.0801  1.9456  0.5416
  923MPD2    H113511   4.490   4.285   8.966  2.0264  0.7408  2.2440
  923MPD2    H213512   4.120   4.483   8.973 -1.0608  1.2982  2.3118
  923MPD2    H313513   4.316   4.410   8.851 -2.4143 -2.0570 -0.2145
  923MPD2     N13514   4.515   4.252   9.217 -0.0773 -0.1026 -0.7569
  923MPD2    H513515   4.583   4.214   9.152 -1.1194 -1.6625 -0.9273
  923MPD2    N113516   4.073   4.482   9.234  0.3421  0.2822 -0.6315
  923MPD2    H713517   4.010   4.542   9.181 -0.8634  0.1936  0.7235
  924MPD2     C13518   4.197   2.300  15.516 -0.2888 -0.3570 -0.0691
  924MPD2    C113519   4.119   2.305  15.621  0.2277  0.7732  0.1499
  924MPD2    C213520   4.134   2.405  15.720  0.0720  0.3908  0.3192
  924MPD2    C313521   4.215   2.510  15.689  0.7101 -0.4782 -0.0950
  924MPD2    C413522   4.272   2.522  15.568 -0.2133  0.5540 -0.4076
  924MPD2    C513523   4.271   2.412  15.487 -0.2937  0.6276  0.7803
  924MPD2     H13524   4.079   2.399  15.814 -1.6643 -2.5142 -0.8947
  924MPD2    H113525   4.320   2.615  15.539 -1.3112  1.1620 -0.2503
  924MPD2    H213526   4.204   2.212  15.453  0.9377 -1.9356  2.2752
  924MPD2    H313527   4.328   2.416  15.395 -0.8430 -2.5087  0.3055
  924MPD2     N13528   4.234   2.623  15.772 -0.1078 -0.0525  0.4239
  924MPD2    H513529   4.287   2.704  15.741  2.0840 -2.1583 -1.3478
  924MPD2    N113530   4.031   2.199  15.638  0.2422 -0.0037 -0.1924
  924MPD2    H713531   4.058   2.108  15.601 -0.1553  0.2089 -1.0072
  925MPD2     C13532   2.513   4.320  14.403  0.3036 -0.3096 -0.2500
  925MPD2    C113533   2.620   4.401  14.371  0.7409  0.3567 -0.0923
  925MPD2    C213534   2.677   4.488  14.467 -0.3286 -0.4718  0.8447
  925MPD2    C313535   2.636   4.476  14.600 -0.2039 -0.5467 -0.3948
  925MPD2    C413536   2.536   4.390  14.632  0.2128 -0.1574 -0.3195
  925MPD2    C513537   2.475   4.316  14.533  0.4935 -0.2560 -0.3123
  925MPD2     H13538   2.750   4.561  14.436  0.0537 -0.1364  2.5115
  925MPD2    H113539   2.485   4.401  14.727  1.8042 -0.8264  0.5895
  925MPD2    H213540   2.459   4.254  14.336 -3.3793  0.5776  1.8508
  925MPD2    H313541   2.386   4.262  14.565 -0.5328  0.0973 -2.5850
  925MPD2     N13542   2.674   4.566  14.706  0.0171 -0.1222  0.1821
  925MPD2    H513543   2.650   4.539  14.801  1.5466 -0.5790  0.4518
  925MPD2    N113544   2.669   4.415  14.234 -0.2617  0.3037 -0.4997
  925MPD2    H713545   2.733   4.490  14.208  1.3896  0.0563  2.9501
  926MPD2     C13546   1.808   3.176  13.823 -0.4210  0.6728 -0.1452
  926MPD2    C113547   1.678   3.182  13.776  0.2758 -0.3044  0.2393
  926MPD2    C213548   1.653   3.221  13.641 -0.0231 -0.3301 -0.3602
  926MPD2    C313549   1.770   3.244  13.564 -0.4105  0.6687  0.0544
  926MPD2    C413550   1.896   3.212  13.614 -0.3508 -0.0798 -0.1761
  926MPD2    C513551   1.916   3.179  13.743  0.3850  0.1031 -0.8377
  926MPD2     H13552   1.558   3.263  13.609 -0.0075  0.5297  0.7078
  926MPD2    H113553   1.982   3.232  13.551  1.9070 -1.2050  2.5908
  926MPD2    H213554   1.825   3.154  13.928 -1.9809  0.4735  0.0673
  926MPD2    H313555   2.018   3.174  13.779 -0.0040 -1.5415  0.0320
  926MPD2     N13556   1.764   3.315  13.440  0.5484  0.6012  0.1463
  926MPD2    H513557   1.855   3.347  13.408  0.5842 -0.0030 -0.3550
  926MPD2    N113558   1.568   3.193  13.864  0.0375  0.0491  0.4191
  926MPD2    H713559   1.478   3.189  13.818  0.7913  0.0472 -1.0377
  927MPD2     C13560   1.515   1.441   0.003 -0.3370 -0.4635  0.1131
  927MPD2    C113561   1.505   1.323   0.076 -0.4448  0.4396 -0.6014
  927MPD2    C213562   1.546   1.205   0.016 -0.1967  0.3648 -0.2191
  927MPD2    C313563   1.586   1.207  17.568  0.4062  0.3327  0.1455
  927MPD2    C413564   1.603   1.322  17.497 -0.4589 -0.0915  1.0004
  927MPD2    C513565   1.565   1.441  17.554 -0.3344 -0.0134  0.3700
  927MPD2     H13566   1.565   1.113   0.069 -0.7108  0.3676 -0.0361
  927MPD2    H113567   1.631   1.335  17.393 -0.5576  0.1941  1.0097
  927MPD2    H213568   1.470   1.531   0.043 -1.2618 -1.0190  0.3361
  927MPD2    H313569   1.578   1.535  17.500  2.0904 -0.7386 -0.2977
  927MPD2     N13570   1.613   1.085  17.509  0.4160 -0.0067 -0.4735
  927MPD2    H513571   1.597   1.003  17.567 -0.6397  0.4665 -0.0878
  927MPD2    N113572   1.435   1.333   0.195  0.0826 -0.6399 -0.1172
  927MPD2    H713573   1.409   1.423   0.235  1.4527  1.1020 -3.1723
  928MPD2     C13574   4.098   3.248   0.448  0.4137 -0.1123  0.7176
  928MPD2    C113575   4.196   3.282   0.541  0.0596 -0.3920 -0.1815
  928MPD2    C213576   4.249   3.410   0.538  0.3007  0.3460 -0.6217
  928MPD2    C313577   4.220   3.498   0.441  0.4391  0.2278  0.4649
  928MPD2    C413578   4.125   3.464   0.344  0.1646 -0.4068  0.5581
  928MPD2    C513579   4.066   3.345   0.350  0.0980  0.0546  0.9235
  928MPD2     H13580   4.320   3.432   0.618 -1.2438  0.5049  0.7061
  928MPD2    H113581   4.089   3.535   0.270 -0.7869 -0.2473  1.1710
  928MPD2    H213582   4.045   3.153   0.446  1.3128 -0.5996  0.0372
  928MPD2    H313583   4.002   3.315   0.268  1.9067  0.5894 -0.6909
  928MPD2     N13584   4.285   3.621   0.424 -0.9677  0.5524 -0.0866
  928MPD2    H513585   4.287   3.662   0.331  0.8826 -0.5810 -0.5500
  928MPD2    N113586   4.193   3.189   0.643 -0.7295  0.1700 -0.5909
  928MPD2    H713587   4.150   3.101   0.618  0.0560 -0.6734  1.0447
  929MPD2     C13588   4.664   4.054  10.447  0.1950 -0.1045 -0.1815
  929MPD2    C113589   4.633   3.927  10.441  0.1173 -0.4286 -0.0844
  929MPD2    C213590   4.578   3.886  10.320  0.1785 -0.5662 -0.0740
  929MPD2    C313591   4.523   3.979  10.233 -0.2262 -0.0100  0.6222
  929MPD2    C413592   4.548   4.110  10.253  0.2079 -0.6452  0.1327
  929MPD2    C513593   4.626   4.146  10.352  0.2393  0.6733  0.7043
  929MPD2     H13594   4.554   3.781  10.305  0.1014 -0.5729  0.0899
  929MPD2    H113595   4.531   4.180  10.173  1.7453  2.5471  2.6224
  929MPD2    H213596   4.710   4.094  10.537 -0.0807  0.8018 -0.4411
  929MPD2    H313597   4.653   4.251  10.359 -0.2017  0.8942 -1.0438
  929MPD2     N13598   4.432   3.947  10.130  0.0695  0.2830 -0.1211
  929MPD2    H513599   4.367   4.018  10.097 -0.0881  1.1519  2.0222
  929MPD2    N113600   4.672   3.842  10.550  0.5103 -0.6368 -0.6837
  929MPD2    H713601   4.711   3.885  10.633 -0.2385 -1.4330  0.0763
  930MPD2     C13602   1.491   1.246  14.013  0.1561  0.3099  0.0224
  930MPD2    C113603   1.457   1.316  13.900  0.0427  0.2344  0.0655
  930MPD2    C213604   1.402   1.252  13.792  0.1197  0.9533  0.1267
  930MPD2    C313605   1.379   1.117  13.800 -1.0533  0.8375 -0.5192
  930MPD2    C413606   1.419   1.045  13.913 -0.2473 -0.6108 -0.0169
  930MPD2    C513607   1.477   1.109  14.021 -0.3071 -0.0235  0.5354
  930MPD2     H13608   1.385   1.305  13.699  0.0322 -2.2099 -1.6401
  930MPD2    H113609   1.414   0.937  13.906  3.3089 -0.7242 -0.9309
  930MPD2    H213610   1.538   1.300  14.096 -0.0077  1.5256 -0.6716
  930MPD2    H313611   1.508   1.052  14.109 -0.0009 -0.0588  0.4049
  930MPD2     N13612   1.320   1.051  13.691  0.4618  0.2057  0.3615
  930MPD2    H513613   1.340   0.954  13.672 -1.2283  0.2337 -1.4706
  930MPD2    N113614   1.505   1.447  13.891 -0.2450  0.0707  0.2130
  930MPD2    H713615   1.523   1.494  13.979  1.3662 -1.1724  0.5479
  931MPD2     C13616   1.206   1.208   1.086 -0.3949  0.0157  1.2121
  931MPD2    C113617   1.241   1.136   0.979  0.8548 -0.0834 -0.3325
  931MPD2    C213618   1.245   0.997   0.987 -0.5355  0.4705 -0.8638
  931MPD2    C313619   1.202   0.939   1.109  0.8716 -1.0076  0.1201
  931MPD2    C413620   1.163   1.021   1.211  0.6838  1.2144  0.1371
  931MPD2    C513621   1.172   1.155   1.206  0.1877  0.3227  0.2406
  931MPD2     H13622   1.257   0.928   0.904  0.2260 -1.7312  1.0610
  931MPD2    H113623   1.132   0.977   1.305 -0.3016 -0.4848 -0.9616
  931MPD2    H213624   1.193   1.314   1.073 -2.5055 -0.4027 -0.2081
  931MPD2    H313625   1.134   1.221   1.284 -2.6972  2.2215 -2.7866
  931MPD2     N13626   1.182   0.803   1.131  0.1998  0.0458 -0.1459
  931MPD2    H513627   1.155   0.775   1.225  0.5434 -1.9521 -0.6554
  931MPD2    N113628   1.263   1.207   0.856 -0.3868 -0.4862  0.0172
  931MPD2    H713629   1.233   1.304   0.858  1.7372  0.2025 -1.9955
  932MPD2     C13630   2.805   4.666  11.046 -0.0758 -0.2730  0.3422
  932MPD2    C113631   2.911   4.712  10.976 -0.3457  0.5167 -0.0177
  932MPD2    C213632   2.998   4.624  10.925  0.7670  0.0658 -0.8649
  932MPD2    C313633   2.983   4.486  10.956  0.0322  0.1489  0.1558
  932MPD2    C413634   2.873   4.443  11.023  0.1174 -0.0496  0.4569
  932MPD2    C513635   2.779   4.535  11.051 -0.2333  0.0002  0.0807
  932MPD2     H13636   3.085   4.640  10.864 -0.2858 -1.7270 -2.8304
  932MPD2    H113637   2.848   4.341  11.046 -0.2020 -0.1769 -0.4503
  932MPD2    H213638   2.731   0.011  11.093  0.5727  0.2686  0.6096
  932MPD2    H313639   2.682   4.501  11.085  0.8189 -1.4667  1.6530
  932MPD2     N13640   3.088   4.391  10.925 -0.2334 -0.3114  0.3992
  932MPD2    H513641   3.076   4.304  10.975 -0.2860 -0.0342  0.8677
  932MPD2    N113642   2.945   0.129  10.956 -0.3148 -0.0767  0.2247
  932MPD2    H713643   3.030   0.148  10.905 -1.9196  0.6411 -2.2074
  933MPD2     C13644   3.809   2.674   1.224 -0.5776 -0.0330  0.5477
  933MPD2    C113645   3.814   2.760   1.115  0.6191 -0.0572 -0.1226
  933MPD2    C213646   3.698   2.780   1.042 -0.2642  0.4866  0.4397
  933MPD2    C313647   3.587   2.705   1.059  0.4977  0.5352  0.9894
  933MPD2    C413648   3.587   2.619   1.165  0.3271 -0.4287 -0.2721
  933MPD2    C513649   3.691   2.609   1.252 -0.7522 -0.4778  0.0380
  933MPD2     H13650   3.698   2.840   0.952 -1.0292 -0.3975 -0.1455
  933MPD2    H113651   3.513   2.543   1.190 -1.7639  1.3525 -1.0070
  933MPD2    H213652   3.889   2.667   1.297  0.6827  0.8402 -0.7374
  933MPD2    H313653   3.677   2.538   1.333 -0.9948  0.1241  0.5252
  933MPD2     N13654   3.485   2.726   0.970  1.0934  0.2271  0.3024
  933MPD2    H513655   3.490   2.798   0.899 -0.4862  0.9310  0.8925
  933MPD2    N113656   3.929   2.838   1.093  0.4434 -0.5245  0.2250
  933MPD2    H713657   4.004   2.837   1.162  1.9327  3.4424 -1.3185
  934MPD2     C13658   4.414   2.092   1.815  0.6070  0.7170  0.2346
  934MPD2    C113659   4.482   1.971   1.843 -0.4528 -0.7754  0.4561
  934MPD2    C213660   4.441   1.863   1.766  0.0102 -0.0889  0.5289
  934MPD2    C313661   4.345   1.872   1.660  0.2600  0.5854  0.6397
  934MPD2    C413662   4.283   1.990   1.637 -0.0671  0.0621  0.2042
  934MPD2    C513663   4.323   2.098   1.713  0.2803  0.2151  0.5549
  934MPD2     H13664   4.507   1.777   1.768  1.0253  0.6921  1.1282
  934MPD2    H113665   4.207   1.995   1.559 -1.6236  0.2113  1.7449
  934MPD2    H213666   4.443   2.183   1.866  2.5961  0.1216  0.1692
  934MPD2    H313667   4.274   2.193   1.697  1.3084  0.6955  0.3023
  934MPD2     N13668   4.307   1.763   1.578  0.0809  0.3048  0.2725
  934MPD2    H513669   4.230   1.768   1.512 -0.1517 -3.2273  0.2913
  934MPD2    N113670   4.585   1.952   1.945 -0.1022  0.1061 -0.3759
  934MPD2    H713671   4.637   1.866   1.944  1.1663  0.8996 -1.9059
  935MPD2     C13672   4.662   0.844   1.326  0.1988  0.5149  0.1476
  935MPD2    C113673   4.525   0.843   1.316 -0.3098 -0.2216 -0.6235
  935MPD2    C213674   4.458   0.961   1.341  0.1198  0.0818 -0.2173
  935MPD2    C313675   4.525   1.081   1.350  0.3556 -0.4537  0.3364
  935MPD2    C413676   4.663   1.078   1.357 -0.3230 -0.8691  0.3616
  935MPD2    C513677   0.013   0.961   1.342 -0.1063 -1.0876 -0.5651
  935MPD2     H13678   4.350   0.952   1.348  0.2143 -1.6314 -1.0438
  935MPD2    H113679   4.704   1.176   1.378  0.8174 -1.3806  0.4860
  935MPD2    H213680   4.720   0.752   1.320 -1.1701 -0.2222 -1.5473
  935MPD2    H313681   0.121   0.962   1.349 -0.2664 -0.2846  1.6540
  935MPD2     N13682   4.451   1.205   1.378  0.0010  0.2540 -0.0332
  935MPD2    H513683   4.508   1.284   1.407  0.4976  0.2436 -0.9658
  935MPD2    N113684   4.442   0.726   1.306 -0.1676  0.1845  0.2161
  935MPD2    H713685   4.341   0.733   1.317 -0.0424  1.0087  0.7892
  936MPD2     C13686   3.297   3.593  12.381  0.1776  0.5450  0.9166
  936MPD2    C113687   3.364   3.508  12.463  0.5478 -0.1532  0.6254
  936MPD2    C213688   3.495   3.466  12.430 -0.3707  0.6723 -0.5074
  936MPD2    C313689   3.557   3.514  12.318 -0.0165 -0.0895  0.1979
  936MPD2    C413690   3.488   3.594  12.234  0.3272  0.3377  0.0137
  936MPD2    C513691   3.356   3.634  12.264 -0.0391 -0.1941 -0.4536
  936MPD2     H13692   3.556   3.403  12.494 -0.2205 -0.1708 -1.4776
  936MPD2    H113693   3.533   3.633  12.143  0.1402 -1.4677 -0.8620
  936MPD2    H213694   3.196   3.623  12.407  0.2073  1.8158 -0.4322
  936MPD2    H313695   3.314   3.711  12.200  2.0594  1.3285 -0.0233
  936MPD2     N13696   3.691   3.479  12.299 -0.3636 -0.3758 -0.1492
  936MPD2    H513697   3.737   3.435  12.379  0.3382  1.3849  0.4192
  936MPD2    N113698   3.321   3.465  12.589  0.5106  0.1666 -0.4845
  936MPD2    H713699   3.380   3.402  12.642  1.9953  0.3776 -1.8850
  937MPD2     C13700   1.330   4.375  11.585 -0.4467 -0.1545 -0.5518
  937MPD2    C113701   1.457   4.421  11.560 -0.0180 -0.8694 -0.6480
  937MPD2    C213702   1.493   4.428  11.425 -0.1511 -0.6254  0.9199
  937MPD2    C313703   1.417   4.369  11.324  0.1383 -0.2542 -0.5086
  937MPD2    C413704   1.298   4.306  11.356  0.4367 -0.2858 -0.5484
  937MPD2    C513705   1.264   4.313  11.488 -1.0283 -0.1115 -0.0474
  937MPD2     H13706   1.589   4.476  11.408  0.0921 -0.8855  1.5704
  937MPD2    H113707   1.238   4.248  11.287  3.0450 -0.8160 -2.3382
  937MPD2    H213708   1.286   4.375  11.684 -2.7422  0.1755 -1.5984
  937MPD2    H313709   1.171   4.261  11.504 -0.7650 -0.9982 -1.3861
  937MPD2     N13710   1.472   4.372  11.198  0.4389  0.4667 -0.0934
  937MPD2    H513711   1.560   4.423  11.197  1.5413 -1.4534  1.1757
  937MPD2    N113712   1.526   4.516  11.645 -0.4180  0.2424  0.0127
  937MPD2    H713713   1.606   4.563  11.604 -0.1520 -0.6633 -0.5006
  938MPD2     C13714   3.520   0.471   1.538  1.2112  0.6512  0.4686
  938MPD2    C113715   3.650   0.466   1.501  0.0011 -0.2950 -0.3096
  938MPD2    C213716   3.731   0.374   1.562 -0.0231  0.1267  0.5119
  938MPD2    C313717   3.681   0.278   1.651 -0.0759  0.4234  0.2826
  938MPD2    C413718   3.545   0.276   1.679  0.1394  0.7641 -0.0587
  938MPD2    C513719   3.463   0.375   1.625 -0.1335 -0.0418  0.2815
  938MPD2     H13720   3.826   0.368   1.510  0.2803 -0.0985  1.0937
  938MPD2    H113721   3.501   0.201   1.744 -0.8439  0.8692 -0.5962
  938MPD2    H213722   3.457   0.551   1.502  0.2412  0.1835  1.1404
  938MPD2    H313723   3.357   0.375   1.648 -0.4819 -0.5892 -1.3426
  938MPD2     N13724   3.764   0.172   1.693  0.0841  0.4476  0.3859
  938MPD2    H513725   3.710   0.103   1.744 -1.3351  1.6703  0.5433
  938MPD2    N113726   3.706   0.529   1.393  0.4159  0.6068 -0.9349
  938MPD2    H713727   3.802   0.516   1.364 -0.2343 -1.3115 -2.2456
  939MPD2     C13728   0.543   2.234   0.775 -0.1920  0.1250 -0.1075
  939MPD2    C113729   0.437   2.249   0.695  0.0622 -0.7945 -0.3062
  939MPD2    C213730   0.443   2.202   0.562 -0.5159  0.3757  0.4812
  939MPD2    C313731   0.560   2.151   0.513  0.0415 -0.0196 -0.0547
  939MPD2    C413732   0.672   2.142   0.593 -0.0301 -0.0138  0.5341
  939MPD2    C513733   0.658   2.184   0.724 -0.0001 -0.6121  0.6463
  939MPD2     H13734   0.352   2.219   0.505 -0.6288  1.8146  1.0943
  939MPD2    H113735   0.763   2.093   0.562 -1.8356 -2.6272 -0.6154
  939MPD2    H213736   0.535   2.267   0.878 -2.5260  0.0056 -0.2413
  939MPD2    H313737   0.739   2.166   0.794 -1.4230  1.8418  2.9500
  939MPD2     N13738   0.564   2.113   0.375  0.3162  0.3521 -0.6505
  939MPD2    H513739   0.473   2.114   0.330 -0.4306  0.2492  0.8952
  939MPD2    N113740   0.324   2.301   0.765 -0.2213  0.1031  0.4185
  939MPD2    H713741   0.329   2.344   0.857  2.3849  3.0186 -1.0723
  940MPD2     C13742   4.225   2.738  13.564 -1.1743  0.6791  0.3145
  940MPD2    C113743   4.353   2.800  13.589 -0.3313 -0.7386  0.4650
  940MPD2    C213744   4.432   2.841  13.478  0.0348 -0.4364 -0.7172
  940MPD2    C313745   4.379   2.821  13.351  0.2656  0.0244  0.4467
  940MPD2    C413746   4.256   2.768  13.327  0.7982  0.1861 -0.0122
  940MPD2    C513747   4.183   2.725  13.432  0.3483  0.7349  0.0585
  940MPD2     H13748   4.527   2.891  13.490  1.1142 -2.5969 -0.1956
  940MPD2    H113749   4.215   2.743  13.230  1.8188 -1.5329  0.0064
  940MPD2    H213750   4.156   2.705  13.641 -0.4280 -0.2870  0.5650
  940MPD2    H313751   4.083   2.685  13.425  0.4772  0.2102  1.0676
  940MPD2     N13752   4.448   2.860  13.231 -0.8210  0.1979 -0.5518
  940MPD2    H513753   4.394   2.847  13.147 -0.2077  0.1585 -0.9378
  940MPD2    N113754   4.405   2.820  13.713  0.2597 -0.1889  0.6932
  940MPD2    H713755   4.495   2.867  13.719  0.4016 -0.4891  0.9412
  941MPD2     C13756   3.929   2.101   9.263 -0.8135 -0.5101 -0.2896
  941MPD2    C113757   3.986   2.126   9.386  0.0508 -0.4985  0.1927
  941MPD2    C213758   3.914   2.120   9.503  0.6127 -0.1552 -0.2368
  941MPD2    C313759   3.782   2.085   9.509 -0.2229 -0.4920  0.5773
  941MPD2    C413760   3.723   2.056   9.385  0.0161 -0.3553  0.8377
  941MPD2    C513761   3.796   2.065   9.265 -1.0307 -0.0577  0.7916
  941MPD2     H13762   3.959   2.141   9.600 -0.6688 -0.7252  0.4847
  941MPD2    H113763   3.616   2.041   9.383  0.1223 -0.7486 -1.7271
  941MPD2    H213764   3.973   2.116   9.165  0.5974  0.0350  0.4254
  941MPD2    H313765   3.745   2.029   9.176 -0.7881  0.6190  0.3825
  941MPD2     N13766   3.708   2.073   9.631  0.0263  0.2847 -0.0556
  941MPD2    H513767   3.615   2.031   9.622  0.1293  0.0618 -0.0888
  941MPD2    N113768   4.119   2.165   9.391  0.5944  0.5368  0.5886
  941MPD2    H713769   4.161   2.198   9.477  3.0180 -1.4937  0.2081
  942MPD2     C13770   3.409   4.227   9.235  0.4538  0.0333  0.5259
  942MPD2    C113771   3.477   4.158   9.344 -0.2431  0.1198 -0.0764
  942MPD2    C213772   3.616   4.141   9.345 -1.2010  0.1184  0.5364
  942MPD2    C313773   3.691   4.198   9.248 -0.7079  0.6273  0.2408
  942MPD2    C413774   3.632   4.266   9.144 -0.0507 -0.5358  0.0004
  942MPD2    C513775   3.493   4.280   9.141 -0.4497  0.6256  0.4373
  942MPD2     H13776   3.663   4.085   9.425  0.1298 -0.0559 -0.3737
  942MPD2    H113777   3.689   4.304   9.061 -0.9957  1.2416  0.1500
  942MPD2    H213778   3.304   4.253   9.229  0.2673 -0.6007  1.0535
  942MPD2    H313779   3.450   4.332   9.056  0.7012  1.5793  0.4301
  942MPD2     N13780   3.829   4.179   9.249 -0.0566 -0.1027  0.2646
  942MPD2    H513781   3.879   4.203   9.164 -1.1195 -1.0464 -0.6264
  942MPD2    N113782   3.407   4.093   9.454  0.3149 -0.8678 -0.2255
  942MPD2    H713783   3.462   4.034   9.515  2.0583  0.7194 -0.2405
  943MPD2     C13784   2.060   2.311   9.065 -0.2585 -0.2073 -0.1731
  943MPD2    C113785   2.149   2.206   9.082 -0.5872 -0.6476 -0.7183
  943MPD2    C213786   2.281   2.234   9.117 -0.7901 -0.3504  0.5125
  943MPD2    C313787   2.323   2.362   9.144 -0.4218  0.3325 -0.4222
  943MPD2    C413788   2.232   2.466   9.129  0.6629  0.2483  0.5544
  943MPD2    C513789   2.100   2.445   9.089  0.2586  0.1772  0.2480
  943MPD2     H13790   2.353   2.155   9.133  2.3257  2.3257 -0.2659
  943MPD2    H113791   2.263   2.569   9.145 -1.0360  0.7802  0.3424
  943MPD2    H213792   1.957   2.297   9.036 -0.4717 -2.5311  1.7598
  943MPD2    H313793   2.044   2.534   9.064 -1.2613 -0.6833  0.5836
  943MPD2     N13794   2.434   2.387   9.228 -0.1541  0.1229  0.3448
  943MPD2    H513795   2.439   2.482   9.263 -0.8852  0.3059 -0.0367
  943MPD2    N113796   2.104   2.073   9.065 -0.4867  0.4925  0.1853
  943MPD2    H713797   2.005   2.059   9.047 -0.8161  4.0880 -0.7968
  944MPD2     C13798   2.479   1.131  10.699 -0.3444  0.7210  0.1391
  944MPD2    C113799   2.590   1.147  10.767 -0.2122 -0.1486  0.2601
  944MPD2    C213800   2.574   1.180  10.901  0.0065  0.0249  0.0376
  944MPD2    C313801   2.454   1.181  10.968  0.0482 -0.0019  0.6751
  944MPD2    C413802   2.341   1.144  10.896 -0.5394  0.0736  0.0523
  944MPD2    C513803   2.358   1.132  10.762  0.4667  0.8902  0.0290
  944MPD2     H13804   2.665   1.212  10.950 -0.8820  2.4512  0.1530
  944MPD2    H113805   2.245   1.132  10.945  0.1601  0.2476  1.4662
  944MPD2    H213806   2.473   1.108  10.593  1.8321  0.8243  0.0021
  944MPD2    H313807   2.272   1.106  10.702  1.3847 -0.3368 -0.7472
  944MPD2     N13808   2.451   1.202  11.101 -0.3295 -0.3065 -0.4892
  944MPD2    H513809   2.536   1.239  11.142 -0.6133  1.2434 -1.2861
  944MPD2    N113810   2.712   1.143  10.697  0.1366 -0.9101  0.2096
  944MPD2    H713811   2.715   1.127  10.597 -1.9200  0.8939 -0.1308
    1TCq1    O113812   4.511   2.242  15.235  0.0374 -0.4526  0.4542
    1TCq1    C113813   4.613   2.193  15.163  0.1694  0.2727 -0.4033
    1TCq1    O213814   4.671   2.087  15.184 -0.4030  0.3098  0.2603
    1TCq1    C213815   4.591   2.244  15.031  0.0663 -0.5621 -0.2815
    1TCq1    C313816   4.598   2.148  14.934 -0.2126  1.0540  0.3111
    1TCq1    C413817   4.615   2.190  14.801  0.5113 -0.6098  0.7908
    1TCq1    C513818   4.641   2.319  14.773 -0.1309  0.1027 -0.4153
    1TCq1    C613819   4.644   2.413  14.877 -0.6061  0.5750 -0.3558
    1TCq1    C713820   4.615   2.377  15.006  0.3397 -0.8802 -0.2672
    1TCq1    C813821   4.665   2.556  14.846 -0.5756 -0.9415 -0.0653
    1TCq1    O413822   4.668   2.635  14.942 -0.3531  0.2944 -0.2728
    1TCq1    C913823   4.606   2.094  14.694  0.1479  0.2188  1.2267
    1TCq1    O513824   4.661   2.121  14.590  0.6095  0.2475  0.0908
    1TCq1    O613825   4.582   1.975  14.738  0.1889 -0.5962 -0.2475
    1TCq1    H113826   4.471   2.320  15.191 -0.5098 -0.4254  1.0024
    1TCq1    H213827   4.600   2.042  14.957  1.7432  0.6640 -1.6997
    1TCq1    H313828   4.662   2.333  14.668  3.3451  1.7519  0.5008
    1TCq1    H413829   4.625   2.440  15.094 -0.6239 -0.6831 -0.2982
    2MPD2     C13830   0.110   2.912  14.509 -0.0035  0.0108 -0.0210
    2MPD2    C113831   0.113   2.785  14.443  0.5350  0.1371 -0.1507
    2MPD2    C213832   0.064   2.679  14.515 -0.1484  0.3033  0.3502
    2MPD2    C313833   0.025   2.686  14.651 -0.0857 -0.1089 -0.4470
    2MPD2    C413834   0.014   2.810  14.708 -0.7781 -0.6746 -0.1375
    2MPD2    C513835   0.061   2.919  14.642  0.2333 -0.9186  0.3398
    2MPD2     H13836   0.049   2.584  14.465  2.4939  0.2950 -0.3951
    2MPD2    H113837   4.703   2.824  14.811 -0.5823  1.9694 -0.4597
    2MPD2    H213838   0.154   3.002  14.466  0.8202 -0.3333  0.0924
    2MPD2    H313839   0.063   3.020  14.680 -1.9586 -0.6543 -0.2510
    2MPD2     N13840   4.707   2.566  14.717 -0.6378  0.3198 -0.3790
    2MPD2    H513841   0.004   2.480  14.666 -0.7297 -0.3488  0.7211
    2MPD2    N113842   0.166   2.791  14.316 -0.1229 -0.1438  0.0130
    2MPD2    H713843   0.191   2.884  14.284 -0.2467 -0.3264 -0.6243
    3TMC2    C113844   0.270   2.696  14.121  0.6897  0.1282  0.7524
    3TMC2    C213845   0.282   2.586  14.035 -0.7441  0.3900 -0.1571
    3TMC2    C313846   0.357   2.597  13.924 -0.1426 -0.4394 -0.1442
    3TMC2    C413847   0.362   2.796  14.117 -0.0386 -0.0359  0.0446
    3TMC2    C513848   0.449   2.787  14.013  0.3740 -0.0538 -0.5420
    3TMC2    C613849   0.447   2.695  13.915  1.1419 -0.3002 -1.0753
    3TMC2     C13850   0.175   2.679  14.237  0.2300  0.3110 -0.6015
    3TMC2     O13851   0.116   2.572  14.250 -0.3158  0.2043 -0.5294
    3TMC2     H13852   0.205   2.510  14.034 -1.5350  1.2049  0.1551
    3TMC2    H113853   0.364   2.874  14.193  0.0779  0.6848 -0.6963
    3TMC2    H213854   0.498   2.711  13.821  0.2758 -1.4792 -1.7311
    3TMC2    C713855   0.551   2.889  13.994  0.1569  0.7259 -0.0196
    3TMC2    C813856   0.348   2.517  13.803  0.3254  0.2058 -0.1080
    3TMC2    O113857   0.653   2.870  13.928  0.3048  0.6743  0.5473
    3TMC2    O213858   0.356   2.562  13.691 -0.0986 -0.1997 -0.0012
    3TMC2    O513859   0.315   2.394  13.844  0.8094 -0.3898 -0.0715
    3TMC2    H513860   0.322   2.391  13.942  2.5898 -0.0189 -0.1842
    4MPD2     C13861   4.310   3.739  13.972 -0.0343 -0.3244 -0.4365
    4MPD2    C113862   4.378   3.682  13.866  0.3306  0.6298 -0.0183
    4MPD2    C213863   4.516   3.694  13.866 -0.1208 -0.5243 -0.3528
    4MPD2    C313864   4.585   3.733  13.987  0.3335 -0.8491 -0.0383
    4MPD2    C413865   4.510   3.782  14.094  0.0002 -0.8450  0.6695
    4MPD2    C513866   4.370   3.780  14.081 -0.5600  0.3952  0.6544
    4MPD2     H13867   4.576   3.671  13.779  0.2574 -1.5764  0.1843
    4MPD2    H113868   4.548   3.824  14.187 -0.6489 -0.7713  0.9025
    4MPD2    H213869   4.202   3.747  13.981  0.0401  0.3362 -0.1438
    4MPD2    H313870   4.312   3.813  14.166  0.6786  0.2750  1.5450
    4MPD2     N13871   0.009   3.742  13.978 -0.3208  0.7723 -0.3624
    4MPD2    H513872   0.054   3.706  13.895  0.3302  0.8878 -0.0583
    4MPD2    N113873   4.306   3.640  13.749  0.3574  0.0888  0.0896
    4MPD2    H713874   4.205   3.645  13.748  0.4048  0.7143 -1.4561
    5TCq2    C113875   0.087   3.802  14.077 -0.3724 -1.2313  0.0146
    5TCq2    O213876   0.053   3.848  14.189  0.6851 -0.4267 -0.0572
    5TCq2    C213877   0.222   3.787  14.036 -0.6962 -0.5561 -0.3389
    5TCq2    C313878   0.243   3.804  13.904  0.6349  0.2298  0.0434
    5TCq2    C413879   0.360   3.756  13.848 -0.3870  0.5224  0.6296
    5TCq2    C513880   0.441   3.675  13.916  0.6576 -0.1862 -0.1643
    5TCq2    C613881   0.418   3.661  14.049  0.1981  0.9367 -0.3782
    5TCq2    C713882   0.310   3.717  14.119  0.8018  0.0548  0.0853
    5TCq2    C813883   0.448   3.528  14.088  0.0684  0.0852 -0.0834
    5TCq2    O413884   0.346   3.467  14.128 -0.4757 -0.6345  0.0367
    5TCq2    C913885   0.374   3.771  13.704  1.0125  0.3419 -0.5776
    5TCq2    O513886   0.283   3.835  13.639 -0.2951  0.2420 -0.2979
    5TCq2    O613887   0.490   3.738  13.658  0.0821 -0.1652 -0.1847
    5TCq2    H213888   0.169   3.851  13.841  0.7915 -1.5020 -1.4315
    5TCq2    H313889   0.533   3.635  13.876  1.1192  0.9901 -0.2618
    5TCq2    H413890   0.297   3.695  14.224 -0.1829  2.3520  0.4418
    6MPD1     C13891   3.068   4.054  12.312  0.1101 -0.1885  0.1482
    6MPD1    C113892   3.190   4.111  12.333 -0.1459 -0.1844 -0.7735
    6MPD1    C213893   3.274   4.042  12.412  0.1419  0.2000 -0.2083
    6MPD1    C313894   3.242   3.922  12.469  0.2823  0.1174  0.1969
    6MPD1    C413895   3.116   3.872  12.453  0.3486  0.2920 -1.0213
    6MPD1    C513896   3.032   3.939  12.369  0.4528  0.3802  0.0037
    6MPD1     H13897   3.368   4.094  12.425  0.3594 -0.6563  1.5773
    6MPD1    H113898   3.069   3.796  12.515  0.3098  0.9699 -0.2187
    6MPD1    H213899   2.999   4.105  12.246  1.6351  2.1822  0.3656
    6MPD1    H313900   2.933   3.902  12.345 -0.0762  0.8962  1.3885
    6MPD1     N13901   3.322   3.845  12.556  0.2333 -0.4699 -0.4253
    6MPD1    H513902   3.280   3.763  12.598 -2.6963  1.9937  1.4339
    6MPD1    N113903   3.229   4.228  12.265  0.2356  0.2375  0.0800
    6MPD1    H613904   3.253   4.219  12.166 -3.4715  0.8416 -0.9005
    6MPD1    H713905   3.318   4.260  12.300 -0.5546  0.4676  1.8648
    7MPD2     C13906   3.512   3.525  13.252 -0.5502  0.7685 -0.6118
    7MPD2    C113907   3.615   3.583  13.183 -0.2240  0.3745  0.0745
    7MPD2    C213908   3.736   3.565  13.241 -0.2705  0.7733  0.5733
    7MPD2    C313909   3.755   3.486  13.354 -0.3111 -0.6672 -1.0336
    7MPD2    C413910   3.649   3.419  13.411  0.4196  0.4864 -0.0555
    7MPD2    C513911   3.530   3.442  13.354 -0.2209 -0.6746  0.0036
    7MPD2     H13912   3.826   3.596  13.189 -0.9560  3.1067  0.7977
    7MPD2    H113913   3.661   3.350  13.494 -0.3725  1.6558  1.0323
    7MPD2    H213914   3.408   3.529  13.222  0.2098  2.1670 -3.0579
    7MPD2    H313915   3.452   3.380  13.397 -0.7733 -0.6190 -0.9199
    7MPD2     N13916   3.887   3.480  13.404 -0.5915  0.3066 -0.1625
    7MPD2    H513917   3.961   3.519  13.346  0.3082 -1.7886 -0.4319
    7MPD2    N113918   3.609   3.651  13.062  0.4907 -0.7806  0.1349
    7MPD2    H713919   3.693   3.693  13.022  0.8289 -2.9619 -1.4519
    8TMC3    C113920   4.078   3.405  13.506 -0.3496  0.2186  0.2839
    8TMC3    C213921   4.156   3.475  13.600  0.0517  0.4799  0.2507
    8TMC3    C313922   4.264   3.529  13.551 -0.0611 -0.6496  0.3161
    8TMC3    C413923   4.115   3.388  13.373  0.0827  0.2500 -0.9190
    8TMC3    C513924   4.228   3.445  13.324 -0.2199  0.3536  0.7541
    8TMC3    C613925   4.307   3.497  13.418 -0.7038  0.2350 -0.4855
    8TMC3     C13926   3.937   3.424  13.517 -0.2217  0.8058 -0.3987
    8TMC3     O13927   3.879   3.374  13.613 -0.0534 -0.6226  0.1839
    8TMC3     H13928   4.127   3.495  13.703  0.9286  0.2919  0.5299
    8TMC3    H113929   4.047   3.333  13.310 -0.4297 -1.8689  1.5243
    8TMC3    H213930   4.401   3.538  13.381 -0.3747  1.1914  1.4023
    8TMC3    C713931   4.186   3.533  13.222 -0.3566 -0.3279  0.0398
    8TMC3    C813932   4.367   3.575  13.643  0.8471 -0.3186 -0.1550
    8TMC3    O113933   4.084   3.588  13.246 -0.3158  0.3795  0.0594
    8TMC3    O213934   4.484   3.542  13.628  0.0639  0.5403  0.1921
    9TMC3    C113935   3.532   3.757  12.626 -0.2234 -0.1454 -0.0489
    9TMC3    C213936   3.665   3.746  12.603  0.2067  0.0883  0.0561
    9TMC3    C313937   3.737   3.682  12.699 -0.0444 -0.1271 -0.1929
    9TMC3    C413938   3.479   3.727  12.746  0.5958 -1.1535 -0.1307
    9TMC3    C513939   3.548   3.659  12.836 -0.3219 -0.3235  0.1627
    9TMC3    C613940   3.680   3.628  12.815  0.1758 -0.0851  0.2398
    9TMC3     C13941   3.458   3.847  12.549  0.4397 -0.0979  0.5405
    9TMC3     O13942   3.523   3.914  12.468  0.3360 -0.3047  0.6215
    9TMC3     H13943   3.713   3.760  12.507  2.5719 -0.9497  1.0848
    9TMC3    H113944   3.383   3.767  12.775  0.8580  0.3353 -1.3380
    9TMC3    H213945   3.732   3.557  12.878  0.3703  0.0463  0.2250
    9TMC3    C713946   3.497   3.650  12.975 -0.5164  0.2122 -1.0426
    9TMC3    C813947   3.879   3.671  12.675 -0.3265  0.1668  0.3766
    9TMC3    O113948   3.378   3.636  13.004 -0.3870 -0.4156  0.4928
    9TMC3    O213949   3.924   3.699  12.568  0.0443  0.0273  0.1402
   10MPD2     C13950   4.337   3.570  12.889  0.2240 -0.0649  0.4617
   10MPD2    C113951   4.237   3.571  12.986 -0.4010 -0.6692 -0.1680
   10MPD2    C213952   4.109   3.607  12.945  0.6760 -0.2505 -0.5991
   10MPD2    C313953   4.074   3.630  12.816 -0.1051  0.6455  0.0182
   10MPD2    C413954   4.170   3.628  12.717 -0.0896 -0.3929  0.2176
   10MPD2    C513955   4.304   3.605  12.755  0.4067 -0.4135  0.1609
   10MPD2     H13956   4.029   3.614  13.018  1.0349 -2.0495 -0.0200
   10MPD2    H113957   4.147   3.662  12.617  1.8392 -0.1262 -0.1396
   10MPD2    H213958   4.438   3.543  12.917  0.9252 -0.9525 -2.8688
   10MPD2    H313959   4.380   3.624  12.680  0.7233 -4.1980 -0.4924
   10MPD2     N13960   3.938   3.669  12.797 -0.1230 -0.4599 -0.1208
   10MPD2    H513961   3.895   3.702  12.884  1.5229  1.3415  0.0170
   10MPD2    N113962   4.273   3.535  13.118 -0.1045  0.3714 -0.2076
   10MPD2    H713963   4.366   3.498  13.134 -0.1256  0.8782  1.0836
   11MPD2     C13964   0.723   3.109  14.066  0.2955  0.3804  0.5227
   11MPD2    C113965   0.587   3.119  14.065 -0.1806 -0.1058 -0.0759
   11MPD2    C213966   0.530   3.245  14.088  0.2145 -0.1658 -0.9112
   11MPD2    C313967   0.621   3.352  14.083  0.7654  0.3618 -0.2068
   11MPD2    C413968   0.751   3.336  14.080  0.2664 -0.2398  0.3438
   11MPD2    C513969   0.804   3.216  14.075 -0.1011 -0.0243 -0.3518
   11MPD2     H13970   0.423   3.262  14.088  0.3169  0.4892 -0.6986
   11MPD2    H113971   0.828   3.413  14.084  1.0324 -1.0127  0.5982
   11MPD2    H213972   0.776   3.015  14.054 -0.1229  0.3089 -0.7548
   11MPD2    H313973   0.912   3.211  14.075 -0.1041  0.1263  0.9960
   11MPD2     N13974   0.581   3.486  14.071 -0.5336  0.5826  0.0967
   11MPD2    H513975   0.657   3.551  14.053  0.0839 -0.1175  0.1493
   11MPD2    N113976   0.506   3.010  14.049  0.0779 -0.0190 -0.0520
   11MPD2    H713977   0.412   3.016  14.087 -0.0546  0.9201 -0.5228
    1MPD1     C13978   1.447   4.675  16.583 -0.0308 -0.0580 -0.5224
    1MPD1    C113979   1.554   0.038  16.585  0.7212 -0.7047 -0.3977
    1MPD1    C213980   1.680   4.697  16.564  0.1598  0.4307  0.9977
    1MPD1    C313981   1.689   4.563  16.523  0.0146 -0.0832  0.0659
    1MPD1    C413982   1.573   4.484  16.517 -0.0062  0.6847  0.4342
    1MPD1    C513983   1.455   4.543  16.544 -0.4323  0.1399  0.2989
    1MPD1     H13984   1.758   0.052  16.570  0.1664  0.5011 -0.0480
    1MPD1    H113985   1.581   4.381  16.484  0.2198  0.2800  1.7509
    1MPD1    H213986   1.350   4.707  16.618  0.1144 -2.1838  1.7790
    1MPD1    H313987   1.363   4.485  16.547  0.3137 -1.1527 -1.9001
    1MPD1     N13988   1.804   4.512  16.463 -0.2652  0.6337  0.6269
    1MPD1    H513989   1.787   4.426  16.412  0.9869  2.0208 -2.1195
    1MPD1    N113990   1.541   0.163  16.653  0.1192  0.5228 -0.3481
    1MPD1    H613991   1.447   0.198  16.637  0.9118  2.3285 -1.0626
    1MPD1    H713992   1.607   0.236  16.626 -2.3725  2.7103 -0.4875
    2MPD1     C13993   2.701   4.434  16.840 -0.1566 -0.5050 -0.0852
    2MPD1    C113994   2.581   4.495  16.877 -0.5216  0.4771  0.2408
    2MPD1    C213995   2.482   4.502  16.785  0.0567  0.1752 -0.0057
    2MPD1    C313996   2.503   4.463  16.654 -0.2665  0.3898 -0.0782
    2MPD1    C413997   2.616   4.404  16.617 -0.6993 -0.0696  0.1220
    2MPD1    C513998   2.721   4.395  16.703  0.0159  0.3579  0.1082
    2MPD1     H13999   2.388   4.549  16.809 -0.4871 -1.0479  0.2973
    2MPD1    H114000   2.645   4.374  16.517  2.1235  0.3366  0.8001
    2MPD1    H214001   2.776   4.414  16.915  0.2682 -2.0339 -0.8975
    2MPD1    H314002   2.813   4.344  16.675  0.4305  0.7994  0.6660
    2MPD1     N14003   2.390   4.477  16.566  0.0954  0.1533  0.1269
    2MPD1    H514004   2.311   4.530  16.601  0.9791  1.4789  0.1046
    2MPD1    N114005   2.548   4.498  17.013 -0.4927  0.3686  1.0791
    2MPD1    H614006   2.626   4.525  17.073  0.5064 -0.9022  0.3554
    2MPD1    H714007   2.470   4.562  17.026 -1.4998 -0.5813 -0.3228
    3TMC3    C114008   2.244   4.434  16.380  0.0816  0.6914  0.0415
    3TMC3    C214009   2.219   4.352  16.270  0.6321  0.2287  0.5268
    3TMC3    C314010   2.086   4.346  16.229 -0.1099 -0.3000  0.3594
    3TMC3    C414011   2.146   4.500  16.450 -0.2945  0.0208  0.7109
    3TMC3    C514012   2.021   4.491  16.400 -0.3529  0.3787 -0.2274
    3TMC3    C614013   1.985   4.418  16.292 -0.1856 -0.4122  0.7869
    3TMC3     C14014   2.383   4.423  16.440  0.1226  0.3458 -0.2987
    3TMC3     O14015   2.472   4.382  16.365 -0.0575 -0.3784  0.4809
    3TMC3     H14016   2.308   4.299  16.238  1.7961  2.5158 -0.0464
    3TMC3    H114017   2.163   4.551  16.544 -3.4370  0.4655  1.0411
    3TMC3    H214018   1.885   4.411  16.251 -0.0783  1.5020  0.1958
    3TMC3    C714019   1.927   4.564  16.473 -0.2524 -0.0933 -0.2619
    3TMC3    C814020   2.050   4.267  16.116 -0.2838  0.4025  0.4738
    3TMC3    O114021   1.978   4.659  16.533 -0.3651 -0.0726  0.0770
    3TMC3    O214022   1.937   4.234  16.102  0.2472 -0.0442  0.0837
    4MPD1     C14023   2.185   3.962  15.721 -0.8854 -0.9245  0.0231
    4MPD1    C114024   2.290   4.038  15.767 -0.7568  0.3099 -0.2655
    4MPD1    C214025   2.278   4.127  15.870 -0.4907 -0.0769  0.2681
    4MPD1    C314026   2.155   4.146  15.926 -0.5498  0.1356  0.1130
    4MPD1    C414027   2.043   4.084  15.879 -0.3397 -0.4148  0.3147
    4MPD1    C514028   2.060   3.994  15.774  0.1003 -0.3132 -0.0523
    4MPD1     H14029   2.364   4.162  15.926  1.2798 -0.6641 -2.1339
    4MPD1    H114030   1.943   4.109  15.912  0.0974  0.8365  0.6604
    4MPD1    H214031   2.196   3.892  15.639  0.4533 -1.3016  0.5250
    4MPD1    H314032   1.975   3.942  15.732 -0.0026 -1.7117  1.8780
    4MPD1     N14033   2.153   4.233  16.032  0.3857 -0.1054 -0.2210
    4MPD1    H514034   2.236   4.290  16.043  0.4941 -0.1396 -0.8657
    4MPD1    N114035   2.419   4.001  15.725  0.6246  0.1447 -0.0448
    4MPD1    H614036   2.476   4.086  15.721 -2.1548  2.0930  1.5943
    4MPD1    H714037   2.424   3.959  15.633 -2.4222  0.0020 -0.1210
    1TCq1    O114038   3.640   4.687  10.391  0.1273 -0.2385  0.1269
    1TCq1    C114039   3.720   0.067  10.340 -0.4671 -0.5610  0.7172
    1TCq1    O214040   3.674   0.170  10.291 -0.4365  1.0468 -0.4740
    1TCq1    C214041   3.851   0.056  10.405 -0.9416  1.0692 -0.8780
    1TCq1    C314042   3.913   4.655  10.431 -0.0510 -0.6126 -0.2957
    1TCq1    C414043   4.040   4.650  10.482  0.2925  0.5002 -0.1184
    1TCq1    C514044   4.111   0.047  10.493  0.5413  0.0277  0.2323
    1TCq1    C614045   4.046   0.167  10.471 -0.3029 -0.0214 -0.7589
    1TCq1    C714046   3.910   0.175  10.437 -0.2798  0.9933  0.0562
    1TCq1    C814047   4.131   0.280  10.446  0.0572  0.9919  1.1597
    1TCq1    O414048   4.086   0.392  10.449 -0.3320 -0.2268 -0.1033
    1TCq1    C914049   4.125   4.535  10.462 -0.0882  0.3533 -0.3511
    1TCq1    O514050   4.075   4.434  10.407  0.3071  0.0707  0.7183
    1TCq1    O614051   4.237   4.544  10.519  0.5813 -0.8114 -0.2090
    1TCq1    H114052   3.692   4.629  10.452  0.4458 -0.5701 -0.4620
    1TCq1    H214053   3.879   4.564  10.382 -2.3171 -0.0160  0.1797
    1TCq1    H314054   4.213   0.040  10.529  0.9594  0.3622 -0.8981
    1TCq1    H414055   3.846   0.262  10.436 -1.1654  0.3136 -2.2985
    2MPD1     C14056   4.593   0.485  10.325 -0.2177 -0.4229 -0.2047
    2MPD1    C114057   4.609   0.351  10.343  0.8219 -0.2382  0.1574
    2MPD1    C214058   4.495   0.283  10.388 -0.5193 -0.6521 -0.1355
    2MPD1    C314059   4.364   0.327  10.391  0.2786 -0.1402 -0.1670
    2MPD1    C414060   4.353   0.460  10.355  0.4755  0.0038 -0.0062
    2MPD1    C514061   4.467   0.537  10.335 -0.2489 -0.1320  0.2163
    2MPD1     H14062   4.497   0.183  10.428  1.8776 -0.6088 -0.1141
    2MPD1    H114063   4.257   0.509  10.340  0.1149 -0.9726 -0.8249
    2MPD1    H214064   4.665   0.564  10.307  0.6464 -0.1186  4.5536
    2MPD1    H314065   4.462   0.642  10.305 -0.5489 -0.5095 -1.0590
    2MPD1     N14066   4.261   0.236  10.416  0.3723  0.5182 -0.5145
    2MPD1    H514067   4.277   0.136  10.415  0.1549  0.4887 -1.1604
    2MPD1    N114068   0.013   0.296  10.367 -0.5808  0.2909  0.3080
    2MPD1    H614069   0.009   0.195  10.356 -0.8084  0.2696  0.5708
    2MPD1    H714070   0.083   0.332  10.303  0.1958  0.1667  1.0949
    1TCq1    O114071   3.987   3.693   9.479  0.0132  0.3339  0.1236
    1TCq1    C114072   3.873   3.765   9.486  0.6768  0.7803 -0.2823
    1TCq1    O214073   3.823   3.800   9.595 -0.0667 -0.1715  0.0264
    1TCq1    C214074   3.791   3.757   9.362 -0.4744 -0.7007 -0.2838
    1TCq1    C314075   3.847   3.776   9.238  0.1106 -0.1824 -0.3139
    1TCq1    C414076   3.761   3.793   9.137 -0.1468  0.6718 -0.9915
    1TCq1    C514077   3.623   3.783   9.154 -0.4363  1.3257 -0.4200
    1TCq1    C614078   3.571   3.749   9.280  1.0989  0.6169  0.2154
    1TCq1    C714079   3.657   3.742   9.386  0.2018  0.5639 -0.3434
    1TCq1    C814080   3.429   3.771   9.317 -1.2450 -0.6900 -0.2895
    1TCq1    O414081   3.396   3.750   9.433  0.3436  0.1589  0.0304
    1TCq1    C914082   3.795   3.865   9.014  0.0253 -0.3657 -0.1274
    1TCq1    O514083   3.917   3.902   9.009 -0.0724 -0.3669  0.4304
    1TCq1    O614084   3.703   3.897   8.937  0.2367 -0.7690 -0.1918
    1TCq1    H114085   3.999   3.661   9.387  1.0174  0.5323  0.1830
    1TCq1    H214086   3.945   3.821   9.225  0.5272 -0.0551  3.3534
    1TCq1    H314087   3.559   3.774   9.067 -0.0111 -2.6170 -0.3232
    1TCq1    H414088   3.614   3.753   9.485 -1.3414 -0.9742 -0.8398
    2MPD1     C14089   2.970   3.967   9.254  0.3760 -0.1218  0.0442
    2MPD1    C114090   3.041   4.012   9.146  0.5116  0.2406 -0.0587
    2MPD1    C214091   3.166   3.956   9.129  0.3987  0.5264  0.4770
    2MPD1    C314092   3.223   3.879   9.229 -0.3765 -0.2400 -0.2796
    2MPD1    C414093   3.143   3.829   9.328 -0.5017 -0.0757 -0.0903
    2MPD1    C514094   3.016   3.860   9.324 -0.6983 -0.2960 -0.0531
    2MPD1     H14095   3.214   3.972   9.033  0.9885  1.2771  0.8891
    2MPD1    H114096   3.171   3.756   9.403 -1.4370  0.4379  0.7696
    2MPD1    H214097   2.874   4.004   9.288 -0.1758  0.4836 -2.1361
    2MPD1    H314098   2.949   3.830   9.404  0.3266 -1.5464  0.3412
    2MPD1     N14099   3.358   3.848   9.226  0.0207  0.5623  0.2012
    2MPD1    H514100   3.413   3.897   9.157  0.6236 -0.8823 -0.3445
    2MPD1    N114101   2.985   4.086   9.043  0.7991  0.0708  0.8003
    2MPD1    H614102   2.915   4.148   9.082  0.6958 -0.7960  1.9927
    2MPD1    H714103   3.045   4.149   8.988 -0.2727 -0.3184 -0.8147
    1MPD1     C14104   4.459   3.987  12.690  0.7052 -0.7138  0.2332
    1MPD1    C114105   4.575   3.934  12.745 -0.3161  0.2798 -0.2958
    1MPD1    C214106   4.701   3.979  12.702  0.2248 -0.5638  0.0773
    1MPD1    C314107   4.709   4.090  12.623  0.3727 -0.2106 -0.3098
    1MPD1    C414108   4.586   4.160  12.598  0.5164 -0.2487 -0.1015
    1MPD1    C514109   4.463   4.104  12.621  0.2344  0.3416  0.3232
    1MPD1     H14110   0.069   3.943  12.755 -0.4007 -0.5261  1.1403
    1MPD1    H114111   4.589   4.248  12.535 -1.1587 -1.2787 -1.5999
    1MPD1    H214112   4.363   3.943  12.714  0.4050  0.7095  1.6609
    1MPD1    H314113   4.368   4.147  12.591 -0.0318 -1.4798 -1.5527
    1MPD1     N14114   0.115   4.144  12.592 -0.2304  0.9790  0.3239
    1MPD1    H514115   0.197   4.100  12.633 -0.9445 -0.4843  0.1742
    1MPD1    N114116   4.559   3.812  12.824 -0.9221  0.6596  0.3668
    1MPD1    H614117   4.474   3.812  12.880 -1.0030  3.1702  0.2517
    1MPD1    H714118   4.636   3.788  12.887 -0.3727  0.6000 -0.3291
    2MPD1     C14119   0.049   4.653  11.479  0.5953 -0.1024 -0.0755
    2MPD1    C114120   0.123   0.031  11.413  0.2424  0.0730  0.1172
    2MPD1    C214121   0.221   4.716  11.315  0.2939 -0.2541 -0.0848
    2MPD1    C314122   0.245   4.578  11.287  0.4783 -0.4008 -0.1162
    2MPD1    C414123   0.163   4.477  11.349  0.2149  0.5660  0.5793
    2MPD1    C514124   0.070   4.520  11.445  0.5345  0.0226  0.6515
    2MPD1     H14125   0.281   0.072  11.266  2.4037 -2.9406 -1.6591
    2MPD1    H114126   0.186   4.373  11.328 -2.0929  0.2084 -0.1371
    2MPD1    H214127   4.694   4.683  11.552 -1.0944 -0.8815 -1.4520
    2MPD1    H314128   0.012   4.448  11.501  1.3363 -0.6089  0.6749
    2MPD1     N14129   0.340   4.535  11.195  0.8330 -0.0825  0.1990
    2MPD1    H514130   0.358   4.435  11.199 -0.0273 -0.1960  1.4249
    2MPD1    N114131   0.103   0.163  11.454 -0.6576 -0.6045 -0.7318
    2MPD1    H614132   0.009   0.174  11.490 -0.2430  3.2759 -0.7525
    2MPD1    H714133   0.110   0.220  11.370 -1.4863  0.1883 -0.2585
    3MPD1     C14134   0.908   0.316  10.511  0.5023 -0.0993 -0.3930
    3MPD1    C114135   0.814   0.349  10.609 -0.0262 -0.2472  0.2599
    3MPD1    C214136   0.773   0.249  10.696  0.0768  0.2075  0.6834
    3MPD1    C314137   0.792   0.113  10.674  0.1539 -0.4869  0.3237
    3MPD1    C414138   0.876   0.075  10.565 -0.1390  0.1288 -1.0357
    3MPD1    C514139   0.930   0.182  10.501 -1.1207  0.5015  0.6923
    3MPD1     H14140   0.699   0.271  10.771 -0.7103  0.3410 -0.1270
    3MPD1    H114141   0.908   4.693  10.544  1.7623  0.1558  1.8599
    3MPD1    H214142   0.971   0.386  10.457 -1.8177 -0.2486 -3.3001
    3MPD1    H314143   1.010   0.144  10.439 -1.2272 -1.3174  1.6649
    3MPD1     N14144   0.731   0.020  10.759  0.3505 -0.4416 -0.2691
    3MPD1    H514145   0.677   0.071  10.828 -0.7253 -1.6397 -0.2344
    3MPD1    N114146   0.784   0.477  10.644 -0.4368 -0.1087  0.2561
    3MPD1    H614147   0.701   0.477  10.702 -0.9111  1.7617 -0.4292
    3MPD1    H714148   0.775   0.539  10.564 -0.4461 -0.6363 -0.1563
    4MPD2     C14149   0.673   4.666  12.178  0.6253  0.2468 -0.3610
    4MPD2    C114150   0.701   4.549  12.248  0.0304 -0.5345 -0.1161
    4MPD2    C214151   0.791   4.461  12.200 -0.1459 -0.1638 -0.1532
    4MPD2    C314152   0.876   4.497  12.102  0.0715  0.2174  0.5896
    4MPD2    C414153   0.854   4.615  12.036 -0.3413  0.2414 -0.0228
    4MPD2    C514154   0.748   4.693  12.073 -0.5829 -0.1651  0.4947
    4MPD2     H14155   0.795   4.364  12.248  2.8226  0.7789  1.4985
    4MPD2    H114156   0.895   4.648  11.941  0.0018  0.0563  0.0611
    4MPD2    H214157   0.586   0.007  12.201 -1.2538 -2.2777 -0.7148
    4MPD2    H314158   0.718   0.051  12.004 -0.1157 -0.2455  0.2025
    4MPD2     N14159   0.970   4.403  12.045 -0.0712 -0.4757  0.8535
    4MPD2    H514160   1.008   4.426  11.953  2.1052 -0.8418  1.6611
    4MPD2    N114161   0.622   4.502  12.352  0.5512 -0.3013  0.4640
    4MPD2    H714162   0.638   4.407  12.383  0.1107 -0.1380  1.1919
    5TMC3    C114163   0.450   4.461  12.499  0.6040 -0.4541 -0.0958
    5TMC3    C214164   0.324   4.423  12.478 -0.1774 -0.0284 -0.5325
    5TMC3    C314165   0.289   4.293  12.514  0.1677 -0.4465  0.0634
    5TMC3    C414166   0.547   4.376  12.547 -0.3963  0.6360  0.3005
    5TMC3    C514167   0.509   4.245  12.562 -0.4955  0.4943  0.0698
    5TMC3    C614168   0.388   4.198  12.543 -0.1706  0.0781  0.5719
    5TMC3     C14169   0.502   4.554  12.407  0.2403 -0.0176  0.0896
    5TMC3     O14170   0.441   4.657  12.378 -0.2219  0.5138  0.5782
    5TMC3     H14171   0.250   4.492  12.441  2.4907  0.5508 -4.7697
    5TMC3    H114172   0.643   4.421  12.573  0.7354 -1.4436 -0.2650
    5TMC3    H214173   0.364   4.093  12.559 -2.1320  0.4734  0.2051
    5TMC3    C714174   0.618   4.170  12.504  0.8955  0.1230 -0.1715
    5TMC3    C814175   0.147   4.268  12.538 -0.1728 -0.7985  0.3255
    5TMC3    O114176   0.701   4.248  12.455  0.1040  0.5891 -0.3867
    5TMC3    O214177   0.079   4.340  12.466 -0.1902 -0.0442 -0.5140
    6TMC3    C114178   0.527   4.544  11.042  0.2377  0.0364  0.4442
    6TMC3    C214179   0.573   4.594  10.927 -1.0105 -0.4317 -0.0615
    6TMC3    C314180   0.689   4.539  10.878  0.1388 -0.8635  0.0422
    6TMC3    C414181   0.605   4.470  11.128 -0.0029 -0.1671 -0.1904
    6TMC3    C514182   0.726   4.429  11.081  0.0204  0.4842  0.6612
    6TMC3    C614183   0.766   4.455  10.958  0.3906  0.2692 -0.0801
    6TMC3     C14184   0.410   4.611  11.100  0.0456  0.4353  0.2510
    6TMC3     O14185   0.397   0.007  11.066 -0.4745  0.2146  0.1697
    6TMC3     H14186   0.504   4.646  10.862 -0.7552 -2.9972 -2.3953
    6TMC3    H114187   0.558   4.425  11.215 -1.7467  0.6723 -0.7009
    6TMC3    H214188   0.853   4.419  10.904  1.7137  0.4876  1.9045
    6TMC3    C714189   0.811   4.365  11.178  0.2961  0.6254 -0.5492
    6TMC3    C814190   0.748   4.606  10.761 -0.1694 -0.0863  0.9283
    6TMC3    O114191   0.786   4.385  11.297 -0.0633 -0.0585 -0.1218
    6TMC3    O214192   0.812   4.540  10.686  0.5949  0.4800 -0.4795
    7MPD2     C14193   0.762   3.758  12.230 -0.0593 -0.1875 -0.0921
    7MPD2    C114194   0.801   3.891  12.220  0.0205  0.5351 -0.3793
    7MPD2    C214195   0.754   3.985  12.315  0.2588  0.6114 -0.1312
    7MPD2    C314196   0.666   3.948  12.410  0.4030  0.1620 -0.7546
    7MPD2    C414197   0.633   3.818  12.421  0.2951 -0.6827  0.1762
    7MPD2    C514198   0.663   3.725  12.319 -0.2599 -0.0907  0.4519
    7MPD2     H14199   0.800   4.083  12.311  0.6241  0.4854  1.1700
    7MPD2    H114200   0.556   3.789  12.492  0.0065 -0.7533 -0.1648
    7MPD2    H214201   0.782   3.674  12.164 -0.3142  0.7139 -1.3081
    7MPD2    H314202   0.630   3.623  12.335 -0.9214  0.1749  0.7933
    7MPD2     N14203   0.593   4.036  12.493  0.0740  0.5239  0.5169
    7MPD2    H514204   0.519   4.002  12.554  0.1639  3.3389  2.1547
    7MPD2    N114205   0.901   3.934  12.135  0.1762 -0.1201 -0.1738
    7MPD2    H714206   0.929   4.031  12.145 -1.5368  0.2609  0.9027
    8TMC3    C114207   1.039   3.957  11.953 -0.4492 -0.3271 -0.1707
    8TMC3    C214208   1.005   3.976  11.822  1.2137  0.4222 -0.1878
    8TMC3    C314209   1.014   4.103  11.778  0.5158 -0.1902 -0.3433
    8TMC3    C414210   1.082   4.063  12.033  0.7976 -0.0519 -0.1455
    8TMC3    C514211   1.053   4.189  11.989  0.0655  0.0450  0.1289
    8TMC3    C614212   1.031   4.214  11.858  0.3840 -0.7267 -0.2378
    8TMC3     C14213   0.951   3.865  12.023  0.7279 -0.7119 -0.7719
    8TMC3     O14214   0.905   3.767  11.967  0.1337  0.3797  0.2235
    8TMC3     H14215   0.958   3.898  11.765  1.0052 -0.6707  1.4842
    8TMC3    H114216   1.111   4.042  12.136  2.4202  0.1415 -0.5663
    8TMC3    H214217   0.998   4.311  11.822  1.0914  0.9379  3.5924
    8TMC3    C714218   0.992   4.274  12.092  0.6639 -0.1104  0.0395
    8TMC3    C814219   0.960   4.131  11.646  0.6900  0.1116 -0.2876
    8TMC3    O114220   0.979   4.230  12.201  0.6685  0.4374 -0.1700
    8TMC3    O214221   0.930   4.246  11.622 -0.2157  0.5817  0.2158
    9MPD2     C14222   1.091   3.963  11.337 -0.1072 -0.5497  0.4223
    9MPD2    C114223   1.015   4.056  11.409  0.2787 -0.9987  0.4980
    9MPD2    C214224   0.945   4.152  11.342 -0.1915  0.3553  0.8320
    9MPD2    C314225   0.943   4.155  11.204  0.0921  0.4865  0.6850
    9MPD2    C414226   1.007   4.057  11.133  0.0356 -0.0039 -0.4135
    9MPD2    C514227   1.090   3.975  11.201 -0.2482  0.5926  0.0893
    9MPD2     H14228   0.886   4.224  11.397 -0.8164  2.0988 -2.1020
    9MPD2    H114229   1.013   4.065  11.026 -2.2264 -0.6496 -0.5865
    9MPD2    H214230   1.148   3.885  11.387 -3.0524 -0.8285  3.3589
    9MPD2    H314231   1.140   3.894  11.149  0.0360  0.4499  0.5899
    9MPD2     N14232   0.873   4.256  11.128 -0.1640  0.2050 -0.3938
    9MPD2    H514233   0.870   4.236  11.029  0.5654  0.4164 -0.4615
    9MPD2    N114234   1.010   4.041  11.548 -0.3078 -0.0853  0.4320
    9MPD2    H714235   1.062   3.963  11.588 -0.5786 -0.9221 -0.8237
    1MPD1     C14236   4.209   2.387  17.495  1.0258 -0.3338 -0.0176
    1MPD1    C114237   4.115   2.465  17.429  0.6745 -0.5036  0.8826
    1MPD1    C214238   4.165   2.553  17.330 -0.1298  0.4161  0.1489
    1MPD1    C314239   4.302   2.580  17.313 -0.2603 -0.6105  0.5278
    1MPD1    C414240   4.389   2.501  17.374  0.1306 -0.5639 -0.2001
    1MPD1    C514241   4.342   2.400  17.453  0.1543 -0.8036  0.1649
    1MPD1     H14242   4.085   2.606  17.279 -0.5995  0.0964  0.5618
    1MPD1    H114243   4.492   2.533  17.377 -0.4127  0.8863  2.8235
    1MPD1    H214244   4.176   2.310  17.565 -0.8050  1.0411  0.6189
    1MPD1    H314245   4.415   2.335  17.500 -1.0202 -3.4401 -1.6072
    1MPD1     N14246   4.351   2.682  17.227 -0.2142 -0.1971  0.1004
    1MPD1    H514247   4.452   2.685  17.215 -0.2926 -0.0857 -0.5252
    1MPD1    N114248   3.981   2.449  17.451  0.3274 -0.1510  0.0112
    1MPD1    H614249   3.952   2.447  17.549 -1.3243  1.6014 -0.4279
    1MPD1    H714250   3.941   2.528  17.399  1.4843  0.4155 -0.0230
    2MPD1     C14251   0.305   2.700  16.504 -0.5642  0.4862 -0.1432
    2MPD1    C114252   0.226   2.807  16.468 -0.2115 -0.2911 -0.3355
    2MPD1    C214253   0.103   2.834  16.535  0.5386  0.1358  0.6016
    2MPD1    C314254   0.061   2.747  16.637 -0.6614 -0.0513 -0.1235
    2MPD1    C414255   0.146   2.639  16.671 -0.4320 -0.0291  0.0778
    2MPD1    C514256   0.264   2.615  16.599  0.1768  0.1449 -0.2888
    2MPD1     H14257   0.048   2.924  16.511  0.4790  0.1364  0.7396
    2MPD1    H114258   0.119   2.567  16.747 -2.9205 -1.8226 -2.4967
    2MPD1    H214259   0.389   2.670  16.443 -0.8045 -0.9906  0.2377
    2MPD1    H314260   0.327   2.531  16.625  0.1893  0.8709  2.0486
    2MPD1     N14261   4.663   2.778  16.711 -0.7117 -0.2054  0.0164
    2MPD1    H514262   4.626   2.868  16.682  0.2103 -0.2137 -1.1998
    2MPD1    N114263   0.282   2.914  16.387  0.4041 -0.0946  1.0577
    2MPD1    H614264   0.337   2.872  16.312 -0.6334 -0.6622  0.5963
    2MPD1    H714265   0.207   2.960  16.335 -1.5963 -1.1271  3.0161
    3TCq2    C114266   4.614   2.717  16.826  0.3159  0.3572 -0.1576
    3TCq2    O214267   4.672   2.637  16.899  0.1690  0.0631 -0.9021
    3TCq2    C214268   4.485   2.777  16.864  0.6714 -0.2737 -0.6180
    3TCq2    C314269   4.424   2.872  16.790  0.7127  0.6741  0.2159
    3TCq2    C414270   4.310   2.925  16.842  0.7980  1.4178  0.7278
    3TCq2    C514271   4.278   2.917  16.972 -0.4942  0.0749 -0.1931
    3TCq2    C614272   4.341   2.819  17.048 -0.3017  0.2820 -0.3579
    3TCq2    C714273   4.442   2.744  16.991  0.2978  0.1722 -0.2630
    3TCq2    C814274   4.271   2.768  17.163 -0.8411 -0.6323  0.2752
    3TCq2    O414275   4.154   2.805  17.180 -0.0762 -0.0992 -0.0493
    3TCq2    C914276   4.239   3.020  16.763 -0.6275 -0.0832  0.3256
    3TCq2    O514277   4.300   3.067  16.662  0.0851 -0.0512 -0.4470
    3TCq2    O614278   4.128   3.058  16.807 -0.4822  0.3677  0.2322
    3TCq2    H214279   4.438   2.879  16.683 -0.2060  0.0156  0.0563
    3TCq2    H314280   4.190   2.964  17.014 -0.6401 -1.8779  1.7436
    3TCq2    H414281   4.500   2.665  17.039 -0.4756  0.4324  1.0876
    1TCq1    O114282   3.001   2.955  12.869  0.2233  0.2649  0.0154
    1TCq1    C114283   3.127   2.940  12.856 -0.1557 -0.0752  0.5425
    1TCq1    O214284   3.195   3.018  12.791  0.1346  0.2492 -0.9134
    1TCq1    C214285   3.176   2.827  12.931 -0.3818 -0.3907  0.3022
    1TCq1    C314286   3.098   2.721  12.967  0.2781 -0.4802  0.0914
    1TCq1    C414287   3.164   2.609  13.006 -0.5060 -0.4878  0.7090
    1TCq1    C514288   3.298   2.601  13.017 -0.1595 -0.1750 -0.3214
    1TCq1    C614289   3.373   2.713  12.978  0.1117  0.2007 -0.2111
    1TCq1    C714290   3.307   2.823  12.933 -0.3267  0.8712  0.9464
    1TCq1    C814291   3.518   2.737  13.003  0.3461 -0.2162 -0.8722
    1TCq1    O414292   3.565   2.845  12.979  0.3452  0.7024 -0.2496
    1TCq1    C914293   3.082   2.496  13.035 -0.1495 -0.4147 -0.7723
    1TCq1    O514294   2.961   2.502  13.002  0.3639 -0.2434  0.7763
    1TCq1    O614295   3.140   2.397  13.087 -0.4861  0.6946 -0.2070
    1TCq1    H114296   2.964   2.901  12.941 -1.1329  0.7370 -0.3344
    1TCq1    H214297   2.990   2.726  12.978  0.4254 -1.1584  1.9472
    1TCq1    H314298   3.344   2.519  13.071  1.9533 -0.3820 -2.4540
    1TCq1    H414299   3.363   2.912  12.907 -0.6940 -0.1596 -3.4137
    2MPD2     C14300   3.779   2.716  13.136 -0.2083 -0.5134 -0.4165
    2MPD2    C114301   3.702   2.609  13.110 -0.1276  0.3981 -0.2376
    2MPD2    C214302   3.751   2.476  13.138 -0.2938  0.0136  0.0768
    2MPD2    C314303   3.880   2.459  13.176 -0.2839  0.2401  0.4481
    2MPD2    C414304   3.953   2.568  13.209  0.0989 -0.1337 -0.7003
    2MPD2    C514305   3.905   2.698  13.189  0.9686  0.0229  0.2041
    2MPD2     H14306   3.689   2.390  13.116  0.7569 -0.5231 -0.7700
    2MPD2    H114307   4.057   2.556  13.237  0.1508  0.3078 -0.7091
    2MPD2    H214308   3.745   2.818  13.145  4.4974  0.7803  2.6408
    2MPD2    H314309   3.964   2.785  13.212 -1.5259  0.6208  4.3007
    2MPD2     N14310   3.934   2.329  13.198  0.2206  0.0501  0.3258
    2MPD2    H514311   4.030   2.334  13.231  0.7208 -1.7461 -0.8760
    2MPD2    N114312   3.574   2.618  13.048 -0.2546 -0.7401  0.5508
    2MPD2    H714313   3.512   2.539  13.059 -2.3905  0.9459  0.6210
    3TCq1    O114314   4.276   2.111  13.440  0.0949 -0.5189 -0.4471
    3TCq1    C114315   4.237   1.993  13.391  0.2088 -0.6470  0.7591
    3TCq1    O214316   4.289   1.890  13.430 -0.2220  0.5122  0.0529
    3TCq1    C214317   4.143   1.994  13.286 -0.0666 -0.2232 -0.0515
    3TCq1    C314318   4.165   1.907  13.183  0.2996  0.2923 -0.2523
    3TCq1    C414319   4.096   1.926  13.060 -0.0588 -0.4819 -0.4610
    3TCq1    C514320   3.988   2.019  13.048 -0.4299 -0.1958  0.3372
    3TCq1    C614321   3.980   2.110  13.154  0.4662  0.1045  0.1527
    3TCq1    C714322   4.053   2.094  13.271  0.4973  0.4583 -0.2319
    3TCq1    C814323   3.881   2.212  13.140  0.8373  0.3727  0.4503
    3TCq1    O414324   3.782   2.185  13.074  0.0602 -0.2738  0.5592
    3TCq1    C914325   4.128   1.838  12.954  0.7086  0.0458 -0.8730
    3TCq1    O514326   4.194   1.734  12.978 -0.1171  0.6060 -0.1967
    3TCq1    O614327   4.083   1.883  12.844  0.4830 -0.3104 -0.1394
    3TCq1    H114328   4.230   2.190  13.404 -0.5891 -0.6775  0.0869
    3TCq1    H214329   4.247   1.837  13.191 -0.5743 -0.7254 -0.2519
    3TCq1    H314330   3.934   2.027  12.954 -1.6764  3.1717  1.3424
    3TCq1    H414331   4.040   2.159  13.357  0.4231  1.0280 -0.6721
    1MPD2     C14332   2.859   4.043  14.300  0.6373 -0.0887 -0.3948
    1MPD2    C114333   2.768   3.965  14.366 -0.4606 -0.3083  0.7264
    1MPD2    C214334   2.810   3.850  14.423 -0.1781 -0.6235 -0.2011
    1MPD2    C314335   2.938   3.796  14.420 -0.1141 -0.1971  0.0520
    1MPD2    C414336   3.027   3.871  14.352 -0.3802 -0.3985  0.0527
    1MPD2    C514337   2.987   3.991  14.295 -0.7912 -0.2554  0.0588
    1MPD2     H14338   2.733   3.781  14.456  0.1649 -0.2418  1.4042
    1MPD2    H114339   3.131   3.841  14.350 -0.1361  0.4758 -0.9886
    1MPD2    H214340   2.831   4.139  14.258  0.3929  0.1616  0.3333
    1MPD2    H314341   3.057   4.043  14.230  0.4361 -0.4198  1.2559
    1MPD2     N14342   2.960   3.674  14.485  0.4703  0.3065 -0.0557
    1MPD2    H514343   2.878   3.647  14.537 -0.4996 -0.5024 -2.0491
    1MPD2    N114344   2.632   4.001  14.371 -0.4101 -0.4915 -1.2584
    1MPD2    H714345   2.607   4.094  14.338 -0.6581  0.1926  0.8645
    2TMC3    C114346   2.405   4.005  14.443  0.3163 -0.2558  0.1242
    2TMC3    C214347   2.354   3.977  14.571  0.0771 -0.6354 -0.2531
    2TMC3    C314348   2.234   3.918  14.584 -0.8054  0.0102 -0.3858
    2TMC3    C414349   2.315   3.994  14.337 -0.3418 -0.2346 -0.5821
    2TMC3    C514350   2.187   3.951  14.357 -0.8995 -0.8206 -0.3644
    2TMC3    C614351   2.146   3.908  14.482  0.3681 -0.1096 -0.3782
    2TMC3     C14352   2.530   3.935  14.443  0.6803 -0.1362 -0.2510
    2TMC3     O14353   2.532   3.836  14.517  0.8191  0.0628  0.0495
    2TMC3     H14354   2.421   3.989  14.656  0.1555 -0.8078 -0.2912
    2TMC3    H114355   2.348   3.989  14.234  0.6795 -0.1663 -0.2671
    2TMC3    H214356   2.049   3.861  14.489  0.5831 -0.6629 -1.0591
    2TMC3    C714357   2.094   3.940  14.243 -0.0919 -0.1343  0.6088
    2TMC3    C814358   2.210   3.820  14.684  0.3320  0.0287 -0.1284
    2TMC3    O114359   2.013   3.852  14.250 -0.1445 -0.6258  0.3336
    2TMC3    O214360   2.104   3.768  14.708  0.5003 -0.3134  0.0351
    3TCq1    O114361   1.862   0.069  13.283  0.9925 -0.8946 -0.1604
    3TCq1    C114362   1.819   4.670  13.314  0.3339  0.5874  0.2314
    3TCq1    O214363   1.768   4.593  13.238 -0.2795 -0.5079  0.2857
    3TCq1    C214364   1.860   4.642  13.452  0.3427 -0.1689 -0.6256
    3TCq1    C314365   1.864   0.017  13.546 -0.5374  0.1479  0.3658
    3TCq1    C414366   1.878   4.701  13.674  0.3606  0.3587  0.0346
    3TCq1    C514367   1.921   4.579  13.705 -0.6842 -0.4366  0.0891
    3TCq1    C614368   1.927   4.479  13.609  0.2475  0.5075 -0.0506
    3TCq1    C714369   1.886   4.510  13.481 -0.3725  0.4460  0.2321
    3TCq1    C814370   1.913   4.345  13.662  0.6132 -0.1674  0.6086
    3TCq1    O414371   1.823   4.277  13.610 -0.3288  0.4433 -0.3472
    3TCq1    C914372   1.859   0.085  13.772 -0.3062  0.5106 -0.0864
    3TCq1    O514373   1.812   0.193  13.733  0.0906 -0.1245  0.0150
    3TCq1    O614374   1.889   0.053  13.891 -0.0368 -0.5229  0.0189
    3TCq1    H114375   1.935   0.100  13.340 -0.1876  1.0617  0.2823
    3TCq1    H214376   1.832   0.119  13.527 -1.2314  0.0214  0.8747
    3TCq1    H314377   1.930   4.559  13.811 -1.4228  1.8436  0.5857
    3TCq1    H414378   1.891   4.442  13.397 -0.7876 -0.8137  1.2398
    4MPD2     C14379   1.917   4.072  13.780  0.6172  0.2384 -0.5504
    4MPD2    C114380   1.999   4.179  13.823 -0.1468 -0.0134  0.0453
    4MPD2    C214381   2.083   4.154  13.931 -0.3979  0.3789 -0.0454
    4MPD2    C314382   2.059   4.039  14.011  1.0481 -0.3088  0.2973
    4MPD2    C414383   1.966   3.944  13.977  0.0215 -0.5795  0.2735
    4MPD2    C514384   1.904   3.960  13.854  0.1609 -0.6352 -0.0798
    4MPD2     H14385   2.141   4.242  13.957  1.0506 -0.1082 -1.6297
    4MPD2    H114386   1.947   3.850  14.028 -2.1302  0.7354  1.8846
    4MPD2    H214387   1.856   4.069  13.691 -2.0937  1.3800  1.2806
    4MPD2    H314388   1.834   3.887  13.813 -3.2079  1.6317  1.5898
    4MPD2     N14389   2.128   4.027  14.136 -0.1833  0.8706 -0.1961
    4MPD2    H514390   2.197   4.099  14.149 -2.4591  2.9291  0.4270
    4MPD2    N114391   2.000   4.309  13.763  0.1173  0.1495  0.1040
    4MPD2    H714392   2.082   4.356  13.799  0.3504  0.7613 -1.2084
    5TMC2    C114393   2.887   3.429  14.724 -0.2616  0.0273  0.5645
    5TMC2    C214394   2.960   3.447  14.841 -0.3491  0.7337  0.6360
    5TMC2    C314395   3.090   3.489  14.833  0.3576  0.4173  0.5288
    5TMC2    C414396   2.944   3.454  14.600 -0.0494  0.1603  0.2699
    5TMC2    C514397   3.074   3.502  14.596 -0.0053 -0.1977  0.1358
    5TMC2    C614398   3.147   3.527  14.713  0.6435  0.2135 -0.0314
    5TMC2     C14399   2.755   3.493  14.722 -0.0525  0.0968 -0.6545
    5TMC2     O14400   2.727   3.572  14.629  0.0135  0.1665 -0.0097
    5TMC2     H14401   2.919   3.416  14.937  0.3843 -0.6512  0.4879
    5TMC2    H114402   2.887   3.426  14.512  0.6073 -1.0415  0.2292
    5TMC2    H214403   3.248   3.565  14.711  2.0984 -3.7070 -1.5664
    5TMC2    C714404   3.087   3.614  14.507 -0.5163  0.4160  0.0587
    5TMC2    C814405   3.181   3.479  14.949  0.0711  0.1559 -0.3525
    5TMC2    O114406   3.198   3.653  14.479 -0.1563 -0.6335 -0.0690
    5TMC2    O214407   3.157   3.512  15.064 -0.0719 -0.0823 -0.4126
    5TMC2    O514408   3.302   3.424  14.917 -0.0428 -0.0797 -0.1212
    5TMC2    H514409   3.295   3.370  14.836 -0.7826 -1.6471  0.9759
    6MPD2     C14410   2.297   3.589  14.879  0.2105 -0.7129 -0.2741
    6MPD2    C114411   2.375   3.668  14.801  0.2214  0.1254  0.3779
    6MPD2    C214412   2.503   3.626  14.784  0.0056  0.6499 -0.4906
    6MPD2    C314413   2.557   3.515  14.857  0.5939 -0.1256  0.1500
    6MPD2    C414414   2.487   3.448  14.953 -0.2495  0.5819 -0.4664
    6MPD2    C514415   2.356   3.487  14.956 -0.4358 -0.0685 -0.2276
    6MPD2     H14416   2.563   3.680  14.712  2.2426 -0.0522  0.8203
    6MPD2    H114417   2.534   3.382  15.026 -1.2190 -0.7960 -1.0918
    6MPD2    H214418   2.193   3.608  14.900  0.3278  0.8304 -1.1290
    6MPD2    H314419   2.298   3.440  15.035 -1.6169  1.0699 -0.4255
    6MPD2     N14420   2.692   3.467  14.839 -0.8443  0.4288  0.2870
    6MPD2    H514421   2.734   3.398  14.901 -0.7230  0.6410  0.4386
    6MPD2    N114422   2.335   3.776  14.719  0.2590 -0.7375  0.0757
    6MPD2    H714423   2.400   3.819  14.653 -1.1114  0.3886 -0.5314
  945NH3     N114424   3.786   4.235   2.910  0.2837 -0.1928 -0.5934
  945NH3     H214425   3.882   4.268   2.904  0.4062 -0.1784  1.3045
  945NH3     H314426   3.733   4.311   2.869  0.9477  0.1306 -0.8600
  945NH3     H414427   3.787   4.169   2.834 -2.3887  0.2926 -1.0367
  946SOD     NA14428   2.626   1.084  14.443 -0.1364  0.3781  0.0500
  947SOD     NA14429   0.361   3.374  16.425 -0.1794  0.0410  0.9053
  948SOD     NA14430   2.470   1.331   1.607  0.0619  0.2342 -0.4250
  949SOD     NA14431   3.652   3.743  10.176  0.3822  0.0887  0.0252
  950SOD     NA14432   3.492   0.880  10.789  0.1693  0.0022  0.5317
  951SOD     NA14433   2.848   3.147  11.125  0.2587  0.1927  0.1386
  952SOD     NA14434   0.082   2.088   0.455  0.2859 -0.1038  0.1657
  953SOD     NA14435   3.731   2.745  12.623  0.1516  0.0960 -0.3327
  954SOD     NA14436   3.673   0.057  10.880  0.1511  0.3105 -0.3762
  955SOD     NA14437   1.970   4.276  12.946  0.4547  0.0010 -0.1081
  956SOD     NA14438   0.895   3.378  15.615  0.2655 -0.2347 -0.3737
  957SOD     NA14439   2.633   4.567  12.318 -0.0307  0.0839  0.9528
  958SOD     NA14440   4.667   3.374  15.586  0.1140  0.1619 -0.0926
  959SOD     NA14441   2.380   3.274  14.180 -0.2677 -0.6008 -0.2201
  960SOD     NA14442   3.937   4.245  10.856 -0.0910 -0.1698 -0.5092
  961SOD     NA14443   0.879   1.880   2.692 -0.2230 -0.6720  0.3979
  962SOD     NA14444   2.111   3.265  10.237 -0.3707  0.1321 -0.8966
  963SOD     NA14445   2.321   0.176   2.561  0.7389  0.1978  0.0354
  964SOD     NA14446   3.579   2.638  11.671 -0.2720 -0.1945  0.3952
  965SOD     NA14447   1.902   4.299   2.333  0.0715 -0.9435 -0.3565
  966SOD     NA14448   0.650   2.463  14.984 -0.4758 -0.0932  0.1736
  967SOD     NA14449   3.310   0.307   1.050 -0.6536 -0.0756  0.0255
  968SOD     NA14450   3.485   1.422   8.001 -0.3658 -0.2382  0.1369
  969SOD     NA14451   4.361   3.737   1.112 -0.1616  0.2651 -0.1324
  970SOD     NA14452   1.111   4.095   7.461  0.6408 -0.1391  0.1071
  971SOD     NA14453   0.409   2.546  14.846 -0.3427  0.1777  0.6367
  972SOD     NA14454   2.144   1.960  12.904 -0.2615 -0.1410  0.0019
  973SOD     NA14455   3.056   2.155  10.180  0.3314 -0.0510  0.4781
  974SOD     NA14456   0.610   1.039   2.529 -0.5459  0.3884  0.1391
  975SOD     NA14457   2.097   1.269   6.907  0.1278 -0.2990  0.2126
  976SOD     NA14458   2.740   2.687  15.315  0.4293  0.3502 -0.0039
  977SOD     NA14459   3.420   2.391  11.722 -0.7467  0.3987 -0.2314
  978SOD     NA14460   1.005   0.982   4.341  0.3657  0.2779  0.3070
  979SOD     NA14461   3.596   2.065  13.026  0.4685  0.6115  0.2332
  980SOD     NA14462   4.636   1.472  17.138  0.3334  0.1337  0.6012
  981SOD     NA14463   3.651   2.445   1.707  0.3515 -0.4403 -0.6290
  982SOD     NA14464   0.185   2.169   1.238  0.0429 -0.1863  0.2503
  983SOD     NA14465   0.134   2.056   8.994  0.3706  0.4399  0.3180
  984SOD     NA14466   1.859   4.674  14.074  0.3406 -0.0556 -0.4904
  985SOD     NA14467   4.488   1.440  12.796  0.4853 -0.0179 -0.1782
  986SOD     NA14468   2.738   1.626   9.442 -0.1085  0.2129 -0.3261
  987SOD     NA14469   1.310   4.538   1.216  0.2060  0.2834  0.0931
  988SOD     NA14470   2.174   3.035  10.481 -0.4588  0.8766  0.1863
  989SOD     NA14471   4.149   3.741  17.475 -0.1163  0.3641 -0.3302
  990SOD     NA14472   1.052   0.299   9.369  0.0840  0.2047 -0.2460
  991SOD     NA14473   4.331   1.779  13.878  0.2039 -0.3378  0.3756
  992SOD     NA14474   4.491   3.194  11.463  0.6355  0.3964 -0.0321
  993SOD     NA14475   4.385   3.422   2.226 -0.4366  0.0460 -0.0389
  994SOD     NA14476   4.427   2.303  11.519  0.0718 -0.6412  0.6352
  995SOD     NA14477   3.987   3.462  14.482 -0.1384 -0.2528  0.3894
  996SOD     NA14478   3.491   1.999  10.488 -0.2681  0.0202  0.0521
  997SOD     NA14479   2.926   1.895   9.517  0.0052 -0.1162 -0.0284
  998SOD     NA14480   1.785   2.359  11.050 -0.1735 -0.0081 -0.2145
  999SOD     NA14481   4.653   1.544  17.484 -0.9610  0.2858  0.1278
 1000SOD     NA14482   3.870   1.460   9.002 -0.4097  0.2159 -0.0016
 1001SOD     NA14483   3.730   1.985  11.945 -0.6759  0.0374 -0.0319
 1002SOD     NA14484   0.876   2.540  12.914 -0.1964  0.0409  0.1211
 1003SOD     NA14485   4.251   1.370  17.102 -0.1656  0.0067 -0.1682
 1004SOD     NA14486   4.440   1.493  13.990  0.0216 -0.2468 -0.3285
 1005SOD     NA14487   3.083   1.511  15.309 -0.1591 -0.2007  0.4206
 1006SOD     NA14488   0.044   2.429   1.426  0.2172 -0.8178 -0.2475
 1007SOD     NA14489   2.105   3.620   8.788 -0.4079  0.1093  0.0568
 1008SOD     NA14490   0.230   4.629  14.534 -0.3460  0.3895  0.0585
 1009SOD     NA14491   0.366   2.589   9.460  0.4406 -0.2565  0.2921
 1010SOD     NA14492   3.036   2.125   9.819 -0.2240  0.0034  0.2378
 1011SOD     NA14493   4.648   1.575  14.196  0.0934  0.1829 -0.3566
 1012SOL     OW14494   3.959   2.742   5.497  0.4083 -0.0270  0.6203
 1012SOL    HW114495   3.872   2.702   5.496 -0.0748  1.0132  0.6562
 1012SOL    HW214496   3.987   2.731   5.587  1.7146  0.2187  0.2392
 1013SOL     OW14497   2.718   3.377   4.644  0.9963  0.5321  0.2950
 1013SOL    HW114498   2.679   3.445   4.590  1.3408  0.2177 -0.3548
 1013SOL    HW214499   2.707   3.409   4.734 -1.1754 -0.8104  0.4985
 1014SOL     OW14500   1.209   3.670  17.434  0.3706 -0.4097 -0.5579
 1014SOL    HW114501   1.292   3.661  17.480 -0.2247  0.3544  0.6821
 1014SOL    HW214502   1.175   3.740  17.491  1.0908  0.4229 -1.1595
 1015SOL     OW14503   1.645   2.967  17.505  0.2042 -0.5797  0.4178
 1015SOL    HW114504   1.673   2.886  17.462 -1.2935 -0.7239 -0.3174
 1015SOL    HW214505   1.687   2.950  17.589 -2.2767 -2.7980  1.2168
 1016SOL     OW14506   1.455   0.910   7.420  0.3511  0.0573 -0.2658
 1016SOL    HW114507   1.461   0.825   7.463 -1.7703  0.0752  0.0320
 1016SOL    HW214508   1.483   0.967   7.492 -0.3684 -1.5939  1.3258
 1017SOL     OW14509   0.171   1.310  17.312  0.8782  0.1908  0.2229
 1017SOL    HW114510   0.211   1.224  17.304 -2.7484 -1.6244  1.5522
 1017SOL    HW214511   0.145   1.336  17.223 -1.0824 -1.9030  0.1919
 1018SOL     OW14512   3.334   0.107   1.198 -0.4147 -0.2139 -0.3245
 1018SOL    HW114513   3.288   0.024   1.190 -2.4517  0.8105  0.9010
 1018SOL    HW214514   3.320   0.118   1.292  0.1596 -0.0417 -0.2599
 1019SOL     OW14515   3.960   3.947   8.697 -0.7263 -0.2979 -0.1755
 1019SOL    HW114516   3.953   3.879   8.764  1.9064  0.1827  0.6111
 1019SOL    HW214517   3.917   3.918   8.616  0.1210 -1.1079 -0.3374
 1020SOL     OW14518   4.064   4.011  10.917 -0.2929  0.4902 -0.1461
 1020SOL    HW114519   4.112   4.063  10.853  1.9232 -0.8275  0.4497
 1020SOL    HW214520   4.136   3.949  10.927 -0.7608 -0.0510 -0.1007
 1021SOL     OW14521   2.641   4.427   4.486  0.6456  0.1643 -0.1919
 1021SOL    HW114522   2.586   4.388   4.555 -0.1804  0.1377 -0.8686
 1021SOL    HW214523   2.577   4.434   4.415 -0.4484  0.4865  0.8142
 1022SOL     OW14524   3.874   2.334   5.013  0.1390  0.3048  0.3584
 1022SOL    HW114525   3.849   2.328   5.105  0.9126  3.0859  0.7459
 1022SOL    HW214526   3.896   2.427   5.006  2.0800 -0.3366 -1.8522
 1023SOL     OW14527   0.061   3.317  13.602  0.3609  0.1277 -0.3372
 1023SOL    HW114528   4.697   3.299  13.645  0.4122 -2.0121 -1.1154
 1023SOL    HW214529   0.038   3.398  13.557 -2.7508 -1.3645 -1.4520
 1024SOL     OW14530   3.754   3.367   1.673 -0.9551 -0.9227  0.3641
 1024SOL    HW114531   3.848   3.354   1.688 -0.5019 -2.0835 -3.5665
 1024SOL    HW214532   3.721   3.284   1.638  1.6544 -1.4146 -0.9550
 1025SOL     OW14533   0.663   2.066   2.357  0.1406 -0.9339 -0.0169
 1025SOL    HW114534   0.590   2.094   2.412 -1.1286 -0.5521 -1.9039
 1025SOL    HW214535   0.606   2.050   2.282  2.2225 -1.0920 -1.5872
 1026SOL     OW14536   1.669   1.539  12.843  0.1807 -0.5067  0.2419
 1026SOL    HW114537   1.665   1.495  12.758 -1.2860 -1.9317  1.0415
 1026SOL    HW214538   1.579   1.520  12.867 -0.8471  1.8957 -1.7981
 1027SOL     OW14539   0.376   3.498   4.390  0.5280  0.0432 -0.5142
 1027SOL    HW114540   0.409   3.426   4.443 -0.0860 -1.3884 -2.0583
 1027SOL    HW214541   0.427   3.483   4.310  2.6761  3.2900  0.2361
 1028SOL     OW14542   2.923   2.797   3.544  0.0510 -0.2033  0.4250
 1028SOL    HW114543   2.926   2.731   3.475  0.6989  0.8194 -0.5250
 1028SOL    HW214544   2.828   2.796   3.557 -0.2121 -0.3577 -1.4849
 1029SOL     OW14545   3.120   0.225  15.712  0.0815 -0.8690 -0.3775
 1029SOL    HW114546   3.154   0.285  15.778 -0.3563 -0.8921 -0.1309
 1029SOL    HW214547   3.046   0.181  15.754  0.8172 -1.3308  0.4266
 1030SOL     OW14548   0.221   2.766   4.352  0.4707 -0.1097  0.3212
 1030SOL    HW114549   0.250   2.809   4.272 -2.6518 -0.5954 -1.1074
 1030SOL    HW214550   0.198   2.841   4.406  0.4053  1.4298 -1.8146
 1031SOL     OW14551   4.297   4.634   3.065  0.5049 -0.0542  0.7604
 1031SOL    HW114552   4.359   4.569   3.031  0.4965 -0.2439  1.1124
 1031SOL    HW214553   4.219   4.608   3.017  2.2425  0.4053 -2.3586
 1032SOL     OW14554   0.785   4.204   2.394 -0.1821  0.2875  0.3529
 1032SOL    HW114555   0.823   4.168   2.314 -1.1035 -0.9273  0.4619
 1032SOL    HW214556   0.740   4.284   2.366 -2.3306 -1.1190 -0.2450
 1033SOL     OW14557   1.322   3.632  16.189 -0.8519  0.1415  0.0505
 1033SOL    HW114558   1.261   3.577  16.140  1.1641  1.4082 -3.8539
 1033SOL    HW214559   1.321   3.708  16.130 -2.8133 -0.6409 -0.9125
 1034SOL     OW14560   1.503   0.218   5.954  0.1936 -0.1509  0.8022
 1034SOL    HW114561   1.556   0.294   5.978 -1.1580  1.2517 -0.6475
 1034SOL    HW214562   1.570   0.156   5.924 -1.1742 -1.8279  1.2377
 1035SOL     OW14563   0.860   2.806   0.761 -0.3449  0.0850 -0.1771
 1035SOL    HW114564   0.874   2.859   0.682  0.7136 -0.9513 -0.6888
 1035SOL    HW214565   0.948   2.793   0.797  0.1113  1.2707 -0.8555
 1036SOL     OW14566   0.651   3.501   4.520 -0.8751 -0.2077 -0.1296
 1036SOL    HW114567   0.611   3.420   4.551 -0.8294 -0.4823 -0.7938
 1036SOL    HW214568   0.717   3.466   4.461  1.5064  0.2828  2.2245
 1037SOL     OW14569   1.480   2.651   1.623  0.2414 -0.3597  0.2650
 1037SOL    HW114570   1.552   2.684   1.677 -1.1494 -0.1916  2.0244
 1037SOL    HW214571   1.532   2.616   1.551  2.0507  0.6796  1.0781
 1038SOL     OW14572   3.940   0.258   8.922 -0.8619 -0.4270 -0.5762
 1038SOL    HW114573   3.980   0.215   8.847  0.7856 -0.5796  0.3859
 1038SOL    HW214574   3.859   0.213   8.948 -1.9503  1.9936  0.2760
 1039SOL     OW14575   2.700   0.528   4.559  0.2697 -0.1957  0.2602
 1039SOL    HW114576   2.675   0.451   4.508  0.9195  0.2196 -0.6844
 1039SOL    HW214577   2.778   0.490   4.600 -0.0128 -3.0469 -1.8867
 1040SOL     OW14578   2.729   2.102  10.963 -0.0744 -0.3740  0.4111
 1040SOL    HW114579   2.731   2.047  11.041 -0.7732 -0.1943  0.5514
 1040SOL    HW214580   2.634   2.108  10.961 -0.0822 -0.5520  0.1627
 1041SOL     OW14581   3.304   3.299  14.427  0.3870 -0.1321  0.7407
 1041SOL    HW114582   3.377   3.275  14.370  0.0365  0.3622  0.0818
 1041SOL    HW214583   3.254   3.350  14.363  0.6013 -2.5931 -1.4239
 1042SOL     OW14584   0.243   1.174   1.564  0.2727 -0.0025 -0.4320
 1042SOL    HW114585   0.157   1.160   1.602  0.6105  2.3581  1.2312
 1042SOL    HW214586   0.237   1.254   1.510 -0.7776 -0.9690 -1.7493
 1043SOL     OW14587   1.285   1.116  17.034  0.0612  0.6255  0.0754
 1043SOL    HW114588   1.289   1.202  16.992  1.9590  1.0567  1.1135
 1043SOL    HW214589   1.211   1.124  17.095  0.2467  0.8410  0.2750
 1044SOL     OW14590   4.025   4.570   2.953 -0.2852 -0.4396  0.0204
 1044SOL    HW114591   3.933   4.595   2.953 -0.5645 -1.5080 -0.7780
 1044SOL    HW214592   4.029   4.542   2.862  0.1193 -1.0334  0.2220
 1045SOL     OW14593   3.659   3.954   1.907 -0.6149 -0.2718  0.1082
 1045SOL    HW114594   3.661   3.880   1.847  0.9605 -0.6846  0.6674
 1045SOL    HW214595   3.649   4.028   1.847  0.4153 -0.8537 -0.7740
 1046SOL     OW14596   2.112   4.357   6.434 -0.1460 -0.0446  0.2344
 1046SOL    HW114597   2.191   4.409   6.451 -0.7510  1.3689 -1.2733
 1046SOL    HW214598   2.048   4.415   6.476  1.4021  1.4820  0.5119
 1047SOL     OW14599   0.268   2.672   5.594  0.1681 -0.8143 -0.4475
 1047SOL    HW114600   0.280   2.727   5.516  3.0341 -0.6299  0.1198
 1047SOL    HW214601   0.329   2.699   5.663 -1.4142  2.8057 -0.4660
 1048SOL     OW14602   2.057   1.338   3.604 -0.5996  0.1381 -0.1654
 1048SOL    HW114603   2.127   1.299   3.656  0.1036  0.4611 -0.8709
 1048SOL    HW214604   2.023   1.410   3.658 -0.5203  0.2858 -0.3131
 1049SOL     OW14605   4.617   1.732   2.255  0.1897 -0.0096  0.1050
 1049SOL    HW114606   4.679   1.683   2.202 -1.3208 -0.3671 -1.3614
 1049SOL    HW214607   4.535   1.731   2.205  0.1083  0.2081  0.2332
 1050SOL     OW14608   3.069   0.935   1.729  0.1012  0.1167  0.6586
 1050SOL    HW114609   3.082   1.026   1.703 -1.3397  0.1533  0.0501
 1050SOL    HW214610   3.153   0.906   1.695  0.4233  0.1731  1.4136
 1051SOL     OW14611   0.415   3.984   4.820 -0.4002 -0.2711  0.2285
 1051SOL    HW114612   0.414   4.061   4.762 -0.9962  0.1382  0.7944
 1051SOL    HW214613   0.446   4.022   4.902  1.3345 -1.1815 -0.0158
 1052SOL     OW14614   2.059   3.462  10.707 -0.8142 -0.1683  0.5692
 1052SOL    HW114615   2.025   3.522  10.773 -0.5427  1.4714 -0.7718
 1052SOL    HW214616   1.979   3.415  10.682 -0.3380  0.1443 -1.5691
 1053SOL     OW14617   3.698   1.979  10.586 -0.1531 -0.6108 -0.0375
 1053SOL    HW114618   3.738   1.995  10.672  0.0194 -0.0617 -0.2161
 1053SOL    HW214619   3.692   1.884  10.583 -0.1866 -0.5162 -2.4856
 1054SOL     OW14620   0.768   1.675   8.686  0.2680 -0.4802 -0.1947
 1054SOL    HW114621   0.862   1.686   8.701  0.4230 -0.5699 -1.0690
 1054SOL    HW214622   0.747   1.765   8.663 -0.3834 -1.1393 -2.2170
 1055SOL     OW14623   0.497   2.826  16.247 -0.3632  0.2510  0.2401
 1055SOL    HW114624   0.488   2.762  16.176 -1.8832  0.2008  0.4743
 1055SOL    HW214625   0.550   2.769  16.303  2.7088  0.4492 -2.4276
 1056SOL     OW14626   3.517   2.547  17.390 -0.6756  0.0337  0.3361
 1056SOL    HW114627   3.603   2.543  17.348 -1.6945  1.2115 -1.8380
 1056SOL    HW214628   3.464   2.577  17.317 -1.4362 -1.3685  0.3190
 1057SOL     OW14629   2.457   0.077   6.919  0.6950  0.3597  0.1399
 1057SOL    HW114630   2.372   0.109   6.887  0.7691 -0.5403 -0.9545
 1057SOL    HW214631   2.520   0.147   6.899  1.6635  0.0410  2.1660
 1058SOL     OW14632   2.277   3.641  13.343 -0.2734 -0.3389  0.2325
 1058SOL    HW114633   2.258   3.697  13.418  0.1465 -3.6929  2.8787
 1058SOL    HW214634   2.193   3.643  13.297 -0.8482  0.7892  1.3376
 1059SOL     OW14635   3.867   4.712  17.681  0.2976 -0.0448  0.1003
 1059SOL    HW114636   3.775   4.709   0.024  0.2155  1.9538  0.0139
 1059SOL    HW214637   3.879   0.086  17.667 -2.3706  0.2951  0.2115
 1060SOL     OW14638   0.480   2.656   8.032  0.0616  0.0543 -0.0119
 1060SOL    HW114639   0.563   2.617   8.058 -0.5557 -1.1255  0.1979
 1060SOL    HW214640   0.510   2.744   8.011  1.3569 -0.1042  1.1427
 1061SOL     OW14641   4.594   2.697   8.177  0.0123 -0.2315  0.1994
 1061SOL    HW114642   4.631   2.609   8.181 -0.8550 -0.6005 -0.0409
 1061SOL    HW214643   4.605   2.723   8.269 -2.6318  0.3733  0.3540
 1062SOL     OW14644   1.684   0.836   4.010  0.2880  0.3799 -0.0870
 1062SOL    HW114645   1.743   0.849   4.085 -0.3623  2.2802  0.0791
 1062SOL    HW214646   1.741   0.866   3.939  1.4147 -0.3116  0.5126
 1063SOL     OW14647   0.997   0.744   5.296 -0.1516 -0.3499 -0.1831
 1063SOL    HW114648   1.046   0.726   5.376 -0.6539  0.6619  0.3592
 1063SOL    HW214649   0.979   0.838   5.306  2.1885  0.2890 -1.8889
 1064SOL     OW14650   3.402   4.164  15.908 -0.4811  0.3019 -0.1240
 1064SOL    HW114651   3.346   4.172  15.832 -0.1419 -0.6461 -0.4765
 1064SOL    HW214652   3.478   4.128  15.861 -0.9077  1.0526 -1.3660
 1065SOL     OW14653   1.753   1.236   5.698  0.2750  0.5012 -0.0648
 1065SOL    HW114654   1.802   1.204   5.774  1.1125  2.2173  0.1167
 1065SOL    HW214655   1.673   1.258   5.745 -0.0415  0.6256 -0.6610
 1066SOL     OW14656   0.251   1.411   7.499  0.2364 -0.2348  0.5277
 1066SOL    HW114657   0.336   1.390   7.539  0.4639 -0.0484  0.1353
 1066SOL    HW214658   0.271   1.431   7.408  0.2466  2.6410  1.1482
 1067SOL     OW14659   4.366   3.022  11.315 -0.6307  0.3370  0.2174
 1067SOL    HW114660   4.453   2.984  11.301 -0.3926  0.0038  2.6178
 1067SOL    HW214661   4.311   2.947  11.293  0.2135 -0.4383  0.7437
 1068SOL     OW14662   1.579   2.342   4.510  0.7111  0.0915 -0.2884
 1068SOL    HW114663   1.502   2.316   4.561 -0.2058  0.6514 -1.4048
 1068SOL    HW214664   1.559   2.322   4.419  1.7933 -2.3217  0.0132
 1069SOL     OW14665   3.627   0.963   8.726  0.2881  0.3038  0.1747
 1069SOL    HW114666   3.575   1.012   8.790 -1.0441  0.1013 -0.7324
 1069SOL    HW214667   3.716   0.958   8.760  1.1779  0.0401 -2.1465
 1070SOL     OW14668   3.469   2.175   2.520  0.2752  0.1326 -0.7423
 1070SOL    HW114669   3.477   2.264   2.486  0.1647  0.4369  0.0249
 1070SOL    HW214670   3.533   2.177   2.592 -0.6982 -4.7598  0.2693
 1071SOL     OW14671   2.846   1.058   5.457  0.3770  0.2190 -0.3490
 1071SOL    HW114672   2.906   1.075   5.530 -1.4070  1.2165  0.8870
 1071SOL    HW214673   2.903   1.041   5.383 -2.4432 -0.4370 -2.3755
 1072SOL     OW14674   2.925   4.095   4.733 -0.6301  0.0463 -0.1322
 1072SOL    HW114675   2.874   4.023   4.768  2.7708 -1.5247  1.6262
 1072SOL    HW214676   2.991   4.059   4.673  0.0540  0.8677  0.1157
 1073SOL     OW14677   0.592   0.182   5.897  0.1930 -0.4580  0.5375
 1073SOL    HW114678   0.582   0.171   5.803 -1.7007  3.1829  0.3209
 1073SOL    HW214679   0.633   0.102   5.929 -0.8292 -0.1102  2.7165
 1074SOL     OW14680   3.470   3.441   6.157 -0.0814 -0.0079  0.2116
 1074SOL    HW114681   3.433   3.527   6.180 -0.1998  0.1319 -0.5125
 1074SOL    HW214682   3.528   3.435   6.233  2.5047  2.1587 -1.6162
 1075SOL     OW14683   0.690   4.547   2.576 -0.7693  0.3657 -0.0721
 1075SOL    HW114684   0.683   4.466   2.627 -2.8725 -0.3653 -1.5758
 1075SOL    HW214685   0.654   4.522   2.492  0.5347 -1.3537 -0.1233
 1076SOL     OW14686   4.671   4.005  13.721 -0.2960  0.2487  0.0740
 1076SOL    HW114687   0.022   4.068  13.706  1.6468 -1.3991  2.2797
 1076SOL    HW214688   4.685   3.977  13.811  1.1782  0.1220 -0.1821
 1077SOL     OW14689   0.372   3.955   6.299  0.3416 -0.0462 -0.4575
 1077SOL    HW114690   0.361   4.034   6.246  1.4520  0.6072  0.2745
 1077SOL    HW214691   0.463   3.927   6.291 -0.0801 -1.3329 -0.7872
 1078SOL     OW14692   2.947   1.211   2.784  0.5160  0.0442 -0.0984
 1078SOL    HW114693   3.005   1.228   2.858 -0.9784  0.5226  0.9682
 1078SOL    HW214694   3.003   1.246   2.715 -1.2189 -0.3622 -1.6921
 1079SOL     OW14695   2.571   0.829  11.083 -0.3423  0.2712  0.1113
 1079SOL    HW114696   2.476   0.822  11.085 -0.2615 -0.3725  1.7114
 1079SOL    HW214697   2.593   0.885  11.158  1.3244 -0.6103  0.2833
 1080SOL     OW14698   1.977   0.650   4.338  0.1759  0.1414 -0.1187
 1080SOL    HW114699   1.972   0.576   4.398 -2.3964  1.0078  0.7483
 1080SOL    HW214700   2.028   0.614   4.265  1.1444  0.1674  0.5458
 1081SOL     OW14701   3.125   1.893   1.141 -0.1815  0.1823 -0.1370
 1081SOL    HW114702   3.120   1.985   1.167  2.2406  0.3613 -0.3491
 1081SOL    HW214703   3.196   1.906   1.078 -0.8110  0.1053 -0.8638
 1082SOL     OW14704   3.461   3.164   4.302  0.2347  0.0555 -0.9998
 1082SOL    HW114705   3.417   3.249   4.304  1.7420  0.8575 -2.2879
 1082SOL    HW214706   3.435   3.134   4.215  1.7532  1.4848 -1.9501
 1083SOL     OW14707   3.352   4.291   2.581 -0.5823  0.1683 -0.0376
 1083SOL    HW114708   3.296   4.239   2.524  0.1845  1.9476 -2.3983
 1083SOL    HW214709   3.294   4.368   2.585  0.8854  1.3004 -0.4343
 1084SOL     OW14710   0.868   3.985   3.009  0.6087 -0.2254  0.3957
 1084SOL    HW114711   0.918   3.910   2.976 -2.9601 -2.2439 -0.4623
 1084SOL    HW214712   0.852   4.035   2.929 -1.4911 -0.9871  0.3323
 1085SOL     OW14713   0.204   1.086   7.241 -0.1299  0.4826 -0.2048
 1085SOL    HW114714   0.176   1.121   7.326  0.0528 -0.4521  0.2349
 1085SOL    HW214715   0.243   1.005   7.271  1.7774  1.9366  1.2582
 1086SOL     OW14716   4.289   4.549  14.215 -0.0182 -0.4721  1.0938
 1086SOL    HW114717   4.258   4.513  14.131 -0.6285  2.8106 -0.0769
 1086SOL    HW214718   4.212   4.558  14.272 -0.9117 -1.5177  0.0444
 1087SOL     OW14719   4.014   4.466   6.713  0.1560 -0.3401 -0.2723
 1087SOL    HW114720   3.990   4.420   6.794  3.5761 -0.3933  0.7323
 1087SOL    HW214721   4.008   4.394   6.650  0.4357  0.0601 -0.7595
 1088SOL     OW14722   2.466   4.473  10.032 -0.0214 -0.0386 -0.1346
 1088SOL    HW114723   2.423   4.509  10.110 -1.2879  0.9586 -1.3106
 1088SOL    HW214724   2.515   4.404  10.077 -0.1311  0.0582  0.1351
 1089SOL     OW14725   1.181   0.106   8.937 -0.2387  0.0994 -0.1009
 1089SOL    HW114726   1.171   0.169   8.866 -0.0029 -1.6726 -1.7172
 1089SOL    HW214727   1.274   0.088   8.930 -0.0896 -0.0346  2.3402
 1090SOL     OW14728   3.765   3.014   4.648 -0.2301 -0.1607 -0.1192
 1090SOL    HW114729   3.742   3.103   4.671 -1.3372  0.1761 -2.4978
 1090SOL    HW214730   3.843   3.032   4.595  0.3618  0.4791  0.9933
 1091SOL     OW14731   3.483   0.910   3.540  0.2414 -0.0916  0.6891
 1091SOL    HW114732   3.536   0.961   3.601  3.7276 -2.9825  0.0747
 1091SOL    HW214733   3.544   0.836   3.539  1.7162  1.0838  3.9775
 1092SOL     OW14734   3.394   2.236  10.852  0.3733 -0.2856  0.3036
 1092SOL    HW114735   3.372   2.296  10.781 -0.3000 -0.9338 -0.0458
 1092SOL    HW214736   3.342   2.271  10.924  1.8619  0.2506  1.1004
 1093SOL     OW14737   3.066   0.643  11.970 -0.0289  0.1349  0.1872
 1093SOL    HW114738   3.133   0.585  12.006  2.0713  1.9249 -0.8420
 1093SOL    HW214739   3.124   0.687  11.907  0.5291 -0.7470  0.0875
 1094SOL     OW14740   2.951   0.831   7.151  0.2090 -0.1347  0.4314
 1094SOL    HW114741   2.961   0.793   7.238 -0.3772  2.0310  1.4582
 1094SOL    HW214742   2.909   0.911   7.181 -1.2132 -1.2059  1.2669
 1095SOL     OW14743   3.729   4.258   5.662  0.2398  1.1054 -0.7904
 1095SOL    HW114744   3.713   4.255   5.568  0.0959 -0.2488 -0.7110
 1095SOL    HW214745   3.695   4.344   5.687  0.6230  0.3793  2.1993
 1096SOL     OW14746   0.274   0.802   1.240  0.1322  1.0542  0.0946
 1096SOL    HW114747   0.321   0.873   1.197  0.1295  2.4860  2.4751
 1096SOL    HW214748   0.316   0.809   1.326  1.2709 -3.5394 -0.0985
 1097SOL     OW14749   3.880   3.578   5.655 -0.6979 -0.4934  0.5609
 1097SOL    HW114750   3.818   3.647   5.679  0.1301  0.3016  0.3985
 1097SOL    HW214751   3.823   3.501   5.663 -2.5915  0.6171 -2.2471
 1098SOL     OW14752   1.200   1.862  11.114 -0.4632  0.1097 -0.3645
 1098SOL    HW114753   1.279   1.835  11.068 -0.8141 -3.7525  1.2863
 1098SOL    HW214754   1.197   1.787  11.174  1.2695  0.4464  0.1565
 1099SOL     OW14755   0.149   0.800   6.777 -0.0410 -0.3611  0.4884
 1099SOL    HW114756   0.158   0.705   6.775 -0.3779 -0.4209  1.7954
 1099SOL    HW214757   0.058   0.806   6.807 -0.7746 -1.2105 -1.5819
 1100SOL     OW14758   1.719   1.731  17.515 -0.5064 -0.5657 -0.3369
 1100SOL    HW114759   1.741   1.692  17.431  1.9831  0.4881 -0.1733
 1100SOL    HW214760   1.802   1.706  17.556 -0.9596 -1.3516  0.0950
 1101SOL     OW14761   3.708   1.686   7.069 -0.2577 -0.6347  0.4315
 1101SOL    HW114762   3.773   1.704   7.001 -0.7917  1.0621  0.3736
 1101SOL    HW214763   3.641   1.749   7.042  1.0621  0.7732  0.4197
 1102SOL     OW14764   2.778   3.384   8.606  0.1183 -0.4013 -0.4234
 1102SOL    HW114765   2.718   3.347   8.671 -0.1648 -1.1586 -1.1121
 1102SOL    HW214766   2.716   3.402   8.535  0.6899  1.3980 -0.4433
 1103SOL     OW14767   1.477   3.871   3.304  0.2448  0.0365 -0.2475
 1103SOL    HW114768   1.494   3.964   3.293  0.7209  0.1038  1.0777
 1103SOL    HW214769   1.550   3.847   3.360 -0.0247  1.2650  0.6257
 1104SOL     OW14770   1.244   2.685   3.400  0.1917 -0.1386 -0.1246
 1104SOL    HW114771   1.234   2.757   3.462 -3.3813  0.9070 -1.8749
 1104SOL    HW214772   1.258   2.619   3.468 -1.3257  1.1664  1.4611
 1105SOL     OW14773   4.188   3.260   2.964 -0.3167  0.1604 -0.3381
 1105SOL    HW114774   4.169   3.341   3.012  2.8561  0.6689  0.0866
 1105SOL    HW214775   4.263   3.285   2.910  0.8892 -1.3917  0.6048
 1106SOL     OW14776   1.070   1.795   1.877 -0.1389 -0.3945 -0.6647
 1106SOL    HW114777   1.079   1.768   1.969  1.0934 -1.5599 -1.1290
 1106SOL    HW214778   1.129   1.869   1.867  0.7072 -0.8016  1.3751
 1107SOL     OW14779   3.582   4.599  17.355  0.0735 -0.0485 -0.1171
 1107SOL    HW114780   3.504   4.652  17.338 -0.4468 -1.8054 -3.2752
 1107SOL    HW214781   3.545   4.521  17.396 -0.4472  0.0756 -0.3552
 1108SOL     OW14782   4.704   0.094   8.480 -0.1661  0.3457 -0.4605
 1108SOL    HW114783   4.623   0.054   8.447  1.3107 -2.7043 -0.3596
 1108SOL    HW214784   4.669   0.166   8.533  0.5698  0.3402  0.0262
 1109SOL     OW14785   1.875   0.823   8.913  0.5172  0.1808 -0.1103
 1109SOL    HW114786   1.939   0.844   8.845  0.7005  1.3111  0.4117
 1109SOL    HW214787   1.935   0.790   8.981  0.0814 -1.2012 -0.4004
 1110SOL     OW14788   3.998   1.000   7.240 -0.1893  0.5841 -0.1626
 1110SOL    HW114789   4.082   1.046   7.238 -1.1062  2.4266  2.6610
 1110SOL    HW214790   3.962   1.021   7.155 -0.1286 -0.0981 -0.3567
 1111SOL     OW14791   3.213   1.698   6.869 -0.6134 -0.4165 -0.2062
 1111SOL    HW114792   3.151   1.753   6.918 -0.7326 -0.7025 -0.0395
 1111SOL    HW214793   3.160   1.664   6.797 -0.1623  3.4784 -2.3912
 1112SOL     OW14794   4.100   1.254   8.634 -0.2509 -0.0014 -0.1390
 1112SOL    HW114795   4.129   1.318   8.570 -1.7665 -1.0282 -1.8579
 1112SOL    HW214796   4.183   1.230   8.676 -0.0897  1.1350  0.2034
 1113SOL     OW14797   1.545   3.480   4.116  0.7778  0.1024 -0.2758
 1113SOL    HW114798   1.489   3.556   4.101  2.2714  1.3016  0.3035
 1113SOL    HW214799   1.613   3.509   4.057  3.4772  0.8143  3.1876
 1114SOL     OW14800   2.359   0.860   4.606  0.0282 -0.1232  0.1656
 1114SOL    HW114801   2.450   0.874   4.578 -0.2424  3.5830  1.2147
 1114SOL    HW214802   2.368   0.831   4.697  1.8521 -2.6375 -0.8268
 1115SOL     OW14803   4.716   0.364  14.419  0.7032 -0.2619 -0.0357
 1115SOL    HW114804   4.702   0.318  14.337 -2.8407  2.5250 -0.9797
 1115SOL    HW214805   0.055   0.435  14.392 -0.1392 -1.0992 -4.0089
 1116SOL     OW14806   1.076   4.459  13.746  0.1238 -0.1291  0.1018
 1116SOL    HW114807   1.133   4.486  13.817 -0.3924 -0.1114  0.5079
 1116SOL    HW214808   1.033   4.541  13.721 -0.7113 -0.7049 -0.3583
 1117SOL     OW14809   0.355   4.659   7.096  0.4989 -0.4796  0.4370
 1117SOL    HW114810   0.393   4.680   7.181  2.1066  0.6134 -0.5412
 1117SOL    HW214811   0.263   4.651   7.120  0.7700  0.0485  1.6511
 1118SOL     OW14812   2.437   0.763  16.366 -0.4388  0.1441  0.1832
 1118SOL    HW114813   2.419   0.833  16.429 -1.0812 -0.4536  0.6611
 1118SOL    HW214814   2.355   0.715  16.358 -0.6047  0.6968 -1.4574
 1119SOL     OW14815   1.715   0.270   7.756  0.3159 -0.4868 -0.6836
 1119SOL    HW114816   1.793   0.279   7.701 -1.2155 -1.2626 -2.9722
 1119SOL    HW214817   1.763   0.256   7.838  1.8495  2.5424 -1.0607
 1120SOL     OW14818   2.522   2.853   8.920  0.2676 -0.6089 -0.2400
 1120SOL    HW114819   2.467   2.926   8.893  0.5074  0.1636  1.3564
 1120SOL    HW214820   2.606   2.888   8.950  0.2582 -0.8561  0.0811
 1121SOL     OW14821   3.910   4.071   4.518 -0.1525  0.3898  0.3530
 1121SOL    HW114822   3.994   4.111   4.493 -0.2762  0.5506  0.1949
 1121SOL    HW214823   3.909   3.991   4.465  1.8898 -0.1609  1.1479
 1122SOL     OW14824   4.529   2.529   8.447 -0.0278 -0.0579 -0.1622
 1122SOL    HW114825   4.605   2.540   8.504 -0.7781  2.9113  0.2459
 1122SOL    HW214826   4.504   2.620   8.460  0.2191 -0.2434  1.6401
 1123SOL     OW14827   2.881   2.599   3.356 -0.3656 -0.4097  0.2379
 1123SOL    HW114828   2.792   2.567   3.370 -1.6073  3.8488  2.0328
 1123SOL    HW214829   2.926   2.515   3.363 -0.4273 -0.1801  3.2209
 1124SOL     OW14830   3.960   3.538  11.159 -0.3844 -0.0755 -0.5218
 1124SOL    HW114831   3.978   3.447  11.183 -2.8331 -0.3539  0.2588
 1124SOL    HW214832   3.920   3.567  11.241 -0.9822  1.5236 -1.3762
 1125SOL     OW14833   4.234   1.689   7.406 -0.3546  0.2028 -0.0129
 1125SOL    HW114834   4.302   1.728   7.350 -0.0433 -1.9738 -1.1701
 1125SOL    HW214835   4.282   1.634   7.468 -0.0360  1.4154  0.8203
 1126SOL     OW14836   1.738   0.602  11.659  0.5995  0.6026 -0.0132
 1126SOL    HW114837   1.750   0.507  11.657 -1.0196  0.3244  2.6808
 1126SOL    HW214838   1.670   0.606  11.727  1.0699  1.0245  0.4363
 1127SOL     OW14839   3.931   1.428   7.546  0.2366 -0.0277 -0.4570
 1127SOL    HW114840   3.862   1.370   7.517 -0.5051  0.0632  1.0921
 1127SOL    HW214841   3.907   1.507   7.498 -2.2184 -1.7924 -2.1251
 1128SOL     OW14842   3.610   0.039   7.095  0.6814 -0.2744 -0.5650
 1128SOL    HW114843   3.684   4.698   7.094  0.5429 -0.4805  0.7622
 1128SOL    HW214844   3.570   0.008   7.014 -1.0517  0.3592  0.0284
 1129SOL     OW14845   2.680   0.016   4.732  0.4776  0.0018 -0.6631
 1129SOL    HW114846   2.662   4.695   4.817 -0.7049  2.9817  0.4983
 1129SOL    HW214847   2.613   0.084   4.732  1.7143  1.2185 -0.1214
 1130SOL     OW14848   3.692   0.068   5.363 -0.2819  0.0089  0.4179
 1130SOL    HW114849   3.690   0.034   5.273  0.4401  2.5373 -0.5528
 1130SOL    HW214850   3.651   0.153   5.351 -1.3698 -0.5351  0.2609
 1131SOL     OW14851   4.474   1.514   6.820  0.0471 -0.4596 -0.3529
 1131SOL    HW114852   4.445   1.544   6.907 -0.8797  1.1263 -1.1879
 1131SOL    HW214853   4.537   1.445   6.840 -0.3055 -1.2762 -2.1057
 1132SOL     OW14854   1.773   3.981   9.693  0.0644  0.1416  0.5895
 1132SOL    HW114855   1.804   3.916   9.756 -1.4014 -1.1240 -0.0075
 1132SOL    HW214856   1.727   3.923   9.633 -2.2953  0.8029  1.7626
 1133SOL     OW14857   0.719   0.681   8.693  0.1368  0.2392  0.1306
 1133SOL    HW114858   0.781   0.699   8.622  1.6266  0.6927  1.5672
 1133SOL    HW214859   0.725   0.761   8.746 -0.3062 -0.7510  1.6590
 1134SOL     OW14860   3.371   1.847  11.759 -0.0614  0.6482  0.2165
 1134SOL    HW114861   3.343   1.789  11.830 -0.7103  2.0549  1.1043
 1134SOL    HW214862   3.370   1.932  11.802 -0.9499  0.3455  0.7960
 1135SOL     OW14863   2.663   1.477  11.309 -0.7067 -0.4027  0.3473
 1135SOL    HW114864   2.750   1.475  11.270  0.4142  2.2745  2.6906
 1135SOL    HW214865   2.649   1.572  11.319  1.0347 -0.1285  0.1391
 1136SOL     OW14866   2.487   0.248   2.703 -0.3039 -0.0343  0.1881
 1136SOL    HW114867   2.522   0.337   2.692 -1.5819  0.6252  1.4320
 1136SOL    HW214868   2.571   0.205   2.718  0.4651  0.7322 -1.9856
 1137SOL     OW14869   4.146   0.379   9.479  0.2984 -0.3832 -0.1521
 1137SOL    HW114870   4.113   0.468   9.486 -0.0441 -0.3570 -2.1962
 1137SOL    HW214871   4.145   0.341   9.568 -3.3501  0.6180  0.2317
 1138SOL     OW14872   0.232   0.088  13.459  0.3660  0.1808  0.1503
 1138SOL    HW114873   0.243   0.180  13.485  0.1112  0.2140  0.1417
 1138SOL    HW214874   0.141   0.072  13.434  1.2184 -2.2502 -1.3842
 1139SOL     OW14875   2.243   1.733   7.626  0.0981  0.5506  0.4425
 1139SOL    HW114876   2.167   1.734   7.568  1.0550  0.4496 -0.8061
 1139SOL    HW214877   2.306   1.715   7.557 -1.1402 -1.0897 -0.2405
 1140SOL     OW14878   0.209   0.652   7.919 -0.9146 -0.3950  0.8534
 1140SOL    HW114879   0.211   0.687   7.830 -1.2057  1.4923  1.5892
 1140SOL    HW214880   0.294   0.609   7.919 -0.4721  0.5043 -0.2278
 1141SOL     OW14881   3.520   2.742   4.622  0.6569  0.5895 -0.5631
 1141SOL    HW114882   3.493   2.820   4.574 -2.5984  0.2952  0.8354
 1141SOL    HW214883   3.516   2.776   4.711 -1.0540  2.4002 -1.3403
 1142SOL     OW14884   4.461   2.467   3.092  0.0198 -0.6357 -0.4243
 1142SOL    HW114885   4.528   2.405   3.122  2.5458  2.1658 -0.2126
 1142SOL    HW214886   4.410   2.474   3.172  0.1493 -0.6815 -0.3370
 1143SOL     OW14887   1.434   2.211  11.805  0.3795 -0.7201 -0.5295
 1143SOL    HW114888   1.400   2.130  11.768 -0.0293 -1.1230  0.7299
 1143SOL    HW214889   1.486   2.179  11.878 -1.0504 -0.9986  0.3649
 1144SOL     OW14890   4.363   2.576   5.283  0.3197  0.3866  0.0210
 1144SOL    HW114891   4.340   2.491   5.246 -0.0815  0.4256  0.1909
 1144SOL    HW214892   4.424   2.598   5.212  0.8653  0.6828  0.5837
 1145SOL     OW14893   2.342   4.332   2.072  0.0051 -0.2660  0.4234
 1145SOL    HW114894   2.299   4.332   1.987  2.7485  0.3117 -0.9357
 1145SOL    HW214895   2.405   4.260   2.068  0.1528 -0.3054  3.2148
 1146SOL     OW14896   4.153   0.894   7.512  0.5987 -0.6233 -0.6858
 1146SOL    HW114897   4.141   0.979   7.469 -0.4233 -0.9832 -1.1124
 1146SOL    HW214898   4.127   0.829   7.447  3.1869 -0.8710 -1.4580
 1147SOL     OW14899   2.317   0.241   6.278  0.0146 -0.5877 -0.6314
 1147SOL    HW114900   2.333   0.276   6.366  0.1833 -1.3239 -0.3715
 1147SOL    HW214901   2.390   0.275   6.227  0.2888  1.0757  0.8518
 1148SOL     OW14902   1.964   2.085   3.773  0.0653  0.1093 -0.7727
 1148SOL    HW114903   1.997   2.169   3.805  1.6579 -0.3452 -1.1961
 1148SOL    HW214904   1.891   2.103   3.714  1.1564 -2.1067 -2.7982
 1149SOL     OW14905   0.954   2.125  17.066 -0.3204  0.2437  0.4644
 1149SOL    HW114906   0.896   2.075  17.122  0.3098  2.1856  2.8347
 1149SOL    HW214907   0.947   2.074  16.985 -1.0694  2.6833 -1.0016
 1150SOL     OW14908   1.542   1.430   2.232 -0.1333 -0.2961  0.3759
 1150SOL    HW114909   1.474   1.374   2.195 -0.4885 -0.5070  1.3281
 1150SOL    HW214910   1.490   1.510   2.245  0.8573  0.6728 -1.6384
 1151SOL     OW14911   1.626   1.378   6.381 -0.3355  0.2588  0.8171
 1151SOL    HW114912   1.556   1.429   6.421 -0.8069 -0.0700  0.4203
 1151SOL    HW214913   1.680   1.441   6.333  2.5408 -2.6724  0.1847
 1152SOL     OW14914   4.551   0.349   3.531 -0.3851 -0.2313  0.2250
 1152SOL    HW114915   4.592   0.282   3.477 -1.8954 -0.7457 -0.2997
 1152SOL    HW214916   4.459   0.320   3.530 -1.0834  1.9861 -0.6364
 1153SOL     OW14917   0.370   3.418  11.981  0.4269 -0.3957 -0.2062
 1153SOL    HW114918   0.301   3.421  11.915  1.3492 -0.5176 -1.1734
 1153SOL    HW214919   0.323   3.419  12.064  1.4090 -0.4675  0.3547
 1154SOL     OW14920   2.402   4.327   7.032 -0.0368 -0.1382  0.5773
 1154SOL    HW114921   2.428   4.392   6.967 -0.7772 -0.6765 -0.2581
 1154SOL    HW214922   2.308   4.322   7.011  0.7163 -0.1834 -2.8036
 1155SOL     OW14923   0.842   1.931  16.210  0.3739  0.4093  0.2868
 1155SOL    HW114924   0.910   1.988  16.245  0.6254 -0.3700  1.0706
 1155SOL    HW214925   0.805   1.907  16.295 -0.2608  0.6916  0.0906
 1156SOL     OW14926   2.185   4.003   2.063  0.0234 -0.0170 -0.7539
 1156SOL    HW114927   2.259   3.978   2.118 -1.4636 -2.4843  0.1503
 1156SOL    HW214928   2.221   3.988   1.976  0.2809 -0.3401 -0.5942
 1157SOL     OW14929   2.988   3.185  11.318 -0.0832  0.2837 -0.1945
 1157SOL    HW114930   3.015   3.258  11.373 -2.0203 -0.1671  1.3647
 1157SOL    HW214931   3.067   3.132  11.332 -0.0890  0.2973 -0.1094
 1158SOL     OW14932   1.623   2.497   3.380 -0.6064  0.0923  0.2513
 1158SOL    HW114933   1.596   2.405   3.383 -0.1850 -0.0402 -0.1164
 1158SOL    HW214934   1.570   2.542   3.446 -1.4469  0.1623 -0.4692
 1159SOL     OW14935   3.477   1.402   6.361  1.0366 -0.1215 -0.0646
 1159SOL    HW114936   3.435   1.487   6.352 -0.9569 -1.0409  0.6138
 1159SOL    HW214937   3.424   1.372   6.435  0.1375  1.1643 -0.1890
 1160SOL     OW14938   1.828   3.659  14.153  0.0252  0.2924  0.0829
 1160SOL    HW114939   1.771   3.736  14.149  1.5042  1.4600  1.8376
 1160SOL    HW214940   1.885   3.682  14.226 -1.5610 -0.7513  1.6585
 1161SOL     OW14941   2.158   2.484   4.022  0.6043 -0.4398 -0.0475
 1161SOL    HW114942   2.195   2.436   4.096 -1.6406 -1.7561  0.2099
 1161SOL    HW214943   2.227   2.542   3.990  2.1253 -1.3368  1.6092
 1162SOL     OW14944   0.646   2.663  10.638 -0.2037 -0.2938  0.3001
 1162SOL    HW114945   0.699   2.649  10.716  3.3694 -0.7840 -2.2013
 1162SOL    HW214946   0.665   2.584  10.587  3.5502  0.7234  0.1523
 1163SOL     OW14947   0.482   3.773   9.008  0.4549  0.2652  0.0219
 1163SOL    HW114948   0.477   3.734   9.096  0.5200  0.7684  0.2485
 1163SOL    HW214949   0.389   3.792   8.996  0.6641  2.1436  1.2971
 1164SOL     OW14950   3.552   1.019   2.182 -0.2901 -0.0551  0.2891
 1164SOL    HW114951   3.506   1.100   2.162 -0.7546 -0.3360  0.2182
 1164SOL    HW214952   3.528   0.953   2.116  2.3328  0.0443 -0.8001
 1165SOL     OW14953   0.890   4.676   2.222 -0.5170 -0.2432 -0.1646
 1165SOL    HW114954   0.852   4.644   2.304  1.6888 -1.8069  0.2330
 1165SOL    HW214955   0.897   4.598   2.167 -1.4314 -0.6854  0.3356
 1166SOL     OW14956   2.259   4.602   2.052  0.7612 -0.0922 -0.4875
 1166SOL    HW114957   2.332   4.651   2.015  1.4021 -0.0537  0.8482
 1166SOL    HW214958   2.299   4.517   2.067  0.6984 -0.1630 -0.7143
 1167SOL     OW14959   3.022   2.703  14.756 -0.5944 -0.4952 -0.2142
 1167SOL    HW114960   3.103   2.701  14.707 -1.6395 -0.2686 -1.9423
 1167SOL    HW214961   2.976   2.626  14.722 -0.8269  0.0508 -1.1309
 1168SOL     OW14962   1.957   0.876   2.289 -0.2889 -0.0895  0.8539
 1168SOL    HW114963   1.863   0.860   2.299 -0.4655  0.0904 -0.5741
 1168SOL    HW214964   1.978   0.817   2.217  0.0749 -0.8135  1.5453
 1169SOL     OW14965   1.072   1.939   3.038  0.0585  0.4278 -0.4068
 1169SOL    HW114966   1.051   1.989   2.959 -1.0233 -2.4592 -1.9398
 1169SOL    HW214967   1.167   1.942   3.024  0.3447 -0.5727  1.3897
 1170SOL     OW14968   0.227   2.463   3.399  0.5741  0.2112 -0.3092
 1170SOL    HW114969   0.307   2.413   3.388  1.0598  0.3764  2.5495
 1170SOL    HW214970   0.243   2.550   3.363 -3.5945  0.9024 -0.5178
 1171SOL     OW14971   0.493   2.007   4.695 -0.0367  0.2302 -0.0633
 1171SOL    HW114972   0.455   1.998   4.782  1.2226  1.6842  0.6316
 1171SOL    HW214973   0.480   2.101   4.683 -0.8157  0.0743 -0.4999
 1172SOL     OW14974   1.529   3.938   5.806  0.6044  0.0226 -0.0367
 1172SOL    HW114975   1.450   3.897   5.842  0.1594 -1.3730 -2.6506
 1172SOL    HW214976   1.530   4.025   5.846 -2.2216  0.4651 -0.9217
 1173SOL     OW14977   2.439   3.905   6.003  0.1412 -0.0708 -0.1756
 1173SOL    HW114978   2.369   3.849   6.035 -0.0113 -0.2071 -0.7412
 1173SOL    HW214979   2.389   3.987   5.997  0.3519  0.1797  1.7044
 1174SOL     OW14980   3.652   0.234   6.252  0.1783 -0.3919  0.1796
 1174SOL    HW114981   3.696   0.174   6.312 -0.0771 -1.7993 -1.0388
 1174SOL    HW214982   3.580   0.264   6.308  0.5886  2.6503 -0.9474
 1175SOL     OW14983   2.203   2.775  16.399  0.3639 -0.0922  0.0680
 1175SOL    HW114984   2.128   2.753  16.344 -0.7676  1.6346  0.9105
 1175SOL    HW214985   2.273   2.783  16.334  1.4210 -1.7745  0.9922
 1176SOL     OW14986   1.117   2.860   9.607 -0.6791  0.0534 -0.1277
 1176SOL    HW114987   1.027   2.830   9.606 -1.2504  1.7098  0.5075
 1176SOL    HW214988   1.147   2.837   9.695 -0.1831 -0.1587 -0.3518
 1177SOL     OW14989   1.426   3.929   1.547 -0.1791  0.6101 -0.1045
 1177SOL    HW114990   1.477   3.864   1.595  0.3016 -0.0918 -1.5900
 1177SOL    HW214991   1.356   3.956   1.608 -0.1602  0.7905 -0.1622
 1178SOL     OW14992   0.650   2.301   7.965 -0.1824  0.4654 -0.3608
 1178SOL    HW114993   0.633   2.368   8.031 -2.6908 -0.9005  0.3679
 1178SOL    HW214994   0.571   2.248   7.955 -1.3406  2.2093 -0.4730
 1179SOL     OW14995   1.226   4.526  17.591 -0.3541 -0.0131  1.1429
 1179SOL    HW114996   1.190   4.438  17.603 -1.1996  0.2235  0.2983
 1179SOL    HW214997   1.319   4.511  17.610 -0.6556 -4.0810 -0.6569
 1180SOL     OW14998   1.046   3.456   3.135 -0.1761  0.0482 -0.4962
 1180SOL    HW114999   0.955   3.458   3.163 -0.0687 -0.6218 -0.0980
 1180SOL    HW215000   1.080   3.398   3.203  0.2517 -1.0236 -1.6418
 1181SOL     OW15001   3.503   1.838   5.225  0.5025 -0.1436 -0.2086
 1181SOL    HW115002   3.453   1.898   5.170 -1.0572 -2.2649 -1.1228
 1181SOL    HW215003   3.475   1.855   5.315  0.1810 -3.5899  0.3337
 1182SOL     OW15004   4.141   1.990  11.562  0.3936 -0.1422 -0.3383
 1182SOL    HW115005   4.198   1.921  11.529  1.4918  1.1992 -1.2435
 1182SOL    HW215006   4.076   1.947  11.618 -0.0662  1.4856  0.3934
 1183SOL     OW15007   2.212   1.756   1.972 -0.3187  0.0815 -0.4189
 1183SOL    HW115008   2.155   1.813   2.024  2.4215  1.5378  0.9766
 1183SOL    HW215009   2.257   1.708   2.042  1.0268  0.0156 -1.3462
 1184SOL     OW15010   1.219   4.702   6.324 -0.4865 -0.1578 -0.1597
 1184SOL    HW115011   1.220   4.632   6.390 -2.9641  0.3797  0.4500
 1184SOL    HW215012   1.137   4.680   6.279  0.1604  1.1784 -1.9714
 1185SOL     OW15013   3.602   0.286  10.559  0.1159 -0.2413 -0.0122
 1185SOL    HW115014   3.526   0.340  10.539 -0.0969 -0.6368 -0.2791
 1185SOL    HW215015   3.607   0.249  10.471  0.5644 -0.5574  0.1498
 1186SOL     OW15016   1.075   2.022   0.218  0.1254  0.2513  0.3444
 1186SOL    HW115017   0.993   2.070   0.232  0.9034  1.7858 -0.3180
 1186SOL    HW215018   1.133   2.083   0.173 -1.8458  1.9719  0.1437
 1187SOL     OW15019   4.460   1.865   8.420  0.2505  0.3561  0.1371
 1187SOL    HW115020   4.394   1.889   8.354  1.5178 -0.1794 -1.3135
 1187SOL    HW215021   4.430   1.775   8.429  0.0178  0.2444 -1.7480
 1188SOL     OW15022   4.576   0.570  16.269 -0.1958  0.2909 -0.7594
 1188SOL    HW115023   4.497   0.575  16.323  0.1497 -2.0029 -0.0555
 1188SOL    HW215024   4.598   0.663  16.257  1.8594  0.0203  0.9462
 1189SOL     OW15025   0.577   1.178   5.581 -0.3711 -0.2768 -0.0334
 1189SOL    HW115026   0.485   1.183   5.556  0.3737  1.3238 -2.4291
 1189SOL    HW215027   0.592   1.271   5.598  0.5325 -0.6894  1.3897
 1190SOL     OW15028   1.852   4.498   4.457 -0.1102 -0.3465  0.5152
 1190SOL    HW115029   1.919   4.520   4.522  0.5684 -0.3466 -0.1925
 1190SOL    HW215030   1.888   4.547   4.384 -0.0400 -1.0829  0.0617
 1191SOL     OW15031   1.240   3.984   3.661 -0.2369 -0.1165 -0.4933
 1191SOL    HW115032   1.214   3.998   3.570 -0.3992  1.5843 -0.1891
 1191SOL    HW215033   1.200   4.058   3.706  1.4393  0.5972 -0.1886
 1192SOL     OW15034   4.108   0.974   3.268 -0.2689 -0.5798  0.0903
 1192SOL    HW115035   4.078   1.025   3.193  0.7540 -0.1814 -0.0534
 1192SOL    HW215036   4.114   1.044   3.333 -0.9141  0.3488 -0.8564
 1193SOL     OW15037   2.002   3.172  13.256 -0.0389 -0.4620 -0.1677
 1193SOL    HW115038   2.009   3.254  13.305 -3.7110  0.3431 -0.9960
 1193SOL    HW215039   2.086   3.161  13.211  0.7771 -1.1724  1.5570
 1194SOL     OW15040   0.677   4.187   6.971 -0.2384  0.1186 -0.5014
 1194SOL    HW115041   0.700   4.204   6.880  1.4852  0.2234 -0.0496
 1194SOL    HW215042   0.582   4.191   6.960 -0.1336  1.1297 -0.9717
 1195SOL     OW15043   2.882   1.765  11.287  0.1646 -0.1819  1.0621
 1195SOL    HW115044   2.851   1.825  11.220  0.9917 -0.4014  0.4807
 1195SOL    HW215045   2.803   1.723  11.320 -1.1092  1.1656 -0.2856
 1196SOL     OW15046   0.432   0.741   1.466 -0.4005 -0.0818  0.0586
 1196SOL    HW115047   0.368   0.679   1.502 -1.4888  1.1117  0.1625
 1196SOL    HW215048   0.472   0.686   1.399  0.8562  0.7545  0.1183
 1197SOL     OW15049   1.025   2.516  10.586  0.0990  0.2887  0.2462
 1197SOL    HW115050   1.057   2.452  10.649  0.4931  1.2680  1.0411
 1197SOL    HW215051   1.046   2.596  10.634  1.2620  0.2086 -0.1265
 1198SOL     OW15052   1.448   0.986   8.646  0.1379  0.1759 -0.4456
 1198SOL    HW115053   1.532   1.030   8.649  1.7408 -3.0038  1.9333
 1198SOL    HW215054   1.406   1.052   8.592  0.7125  1.2255  0.3920
 1199SOL     OW15055   1.093   1.481   9.245 -0.2753  0.0564 -0.3209
 1199SOL    HW115056   1.181   1.460   9.277 -1.5606 -0.0238  3.1766
 1199SOL    HW215057   1.116   1.530   9.166  0.8430  0.7220  0.4159
 1200SOL     OW15058   1.772   0.692   8.690 -0.6212 -0.2668 -0.0901
 1200SOL    HW115059   1.763   0.755   8.762 -0.5893 -0.6935  0.2911
 1200SOL    HW215060   1.763   0.754   8.618 -0.2576 -0.9268 -0.6966
 1201SOL     OW15061   4.604   0.340   1.954  0.0162 -0.0246 -0.0386
 1201SOL    HW115062   4.654   0.314   1.876  1.2378  0.4102  0.5876
 1201SOL    HW215063   4.671   0.310   2.017  0.9805  2.2725  0.0171
 1202SOL     OW15064   3.512   0.036   2.327 -0.1861 -0.5529 -0.3142
 1202SOL    HW115065   3.586   0.062   2.381  0.6025 -1.2643 -1.0474
 1202SOL    HW215066   3.538   0.085   2.248  1.6381  0.1264  0.7121
 1203SOL     OW15067   2.702   4.211   6.093  0.1065 -0.2051 -0.3137
 1203SOL    HW115068   2.764   4.223   6.165 -0.3279 -2.7463  0.4881
 1203SOL    HW215069   2.628   4.269   6.112 -0.5273  0.0066 -3.4580
 1204SOL     OW15070   1.395   2.010  15.095  0.5944 -0.3721  0.1379
 1204SOL    HW115071   1.405   1.922  15.059  0.6547 -1.0415  1.7977
 1204SOL    HW215072   1.312   2.031  15.051  0.2265 -1.4049  0.3328
 1205SOL     OW15073   3.362   3.985   4.850  0.3762 -0.1575  0.5010
 1205SOL    HW115074   3.367   3.901   4.804 -1.1058 -0.6036  1.1669
 1205SOL    HW215075   3.319   4.041   4.785 -2.0346 -0.7038  1.6300
 1206SOL     OW15076   0.823   3.309  16.624 -0.9898 -0.4425  0.1809
 1206SOL    HW115077   0.798   3.360  16.701  1.6805 -0.4262  1.0398
 1206SOL    HW215078   0.905   3.262  16.637 -1.4210 -1.0695  0.6068
 1207SOL     OW15079   3.007   2.366   5.520 -0.5142 -0.5742  0.2435
 1207SOL    HW115080   3.102   2.373   5.528 -0.5879 -0.4935  1.0461
 1207SOL    HW215081   2.991   2.333   5.432 -0.6133 -2.5337  1.0155
 1208SOL     OW15082   4.211   4.659  17.031  0.2254 -0.1261 -0.4183
 1208SOL    HW115083   4.305   4.663  17.045  0.2525  0.5449 -0.7590
 1208SOL    HW215084   4.185   0.017  17.081 -2.0587 -1.2525  0.1690
 1209SOL     OW15085   4.084   1.104   4.194  0.0655  0.2476 -0.3141
 1209SOL    HW115086   4.124   1.023   4.227 -1.6230 -1.0249 -1.3740
 1209SOL    HW215087   4.022   1.066   4.131 -0.7781  2.5461 -0.8681
 1210SOL     OW15088   2.093   3.053   1.390 -0.6571  0.2725 -0.0736
 1210SOL    HW115089   2.074   3.145   1.371  0.9574  0.3833 -1.1528
 1210SOL    HW215090   2.034   3.011   1.327 -3.1467  2.4528  0.8098
 1211SOL     OW15091   1.268   3.734   4.717 -1.0217  0.0832 -0.0158
 1211SOL    HW115092   1.242   3.804   4.657  2.8559  1.5527 -0.0441
 1211SOL    HW215093   1.331   3.693   4.657  1.8202  1.2910  2.1203
 1212SOL     OW15094   3.054   0.986   5.300  0.5902  0.2189  0.0875
 1212SOL    HW115095   3.050   0.994   5.204 -1.8817  1.2363  0.2901
 1212SOL    HW215096   3.098   0.903   5.318 -1.4772 -1.2759 -1.7650
 1213SOL     OW15097   1.335   0.529   2.125 -0.1465  0.1835 -0.2494
 1213SOL    HW115098   1.298   0.520   2.213  0.1461 -1.8735 -0.3337
 1213SOL    HW215099   1.274   0.481   2.070  1.2638  0.6588 -2.2496
 1214SOL     OW15100   2.133   0.035  17.196 -0.3396  0.3924 -0.2849
 1214SOL    HW115101   2.100   0.025  17.285 -0.0360 -0.3844 -0.2587
 1214SOL    HW215102   2.046   0.057  17.164 -0.4752  0.8678  0.4087
 1215SOL     OW15103   3.437   0.662   0.580  0.2000 -0.0427 -0.0600
 1215SOL    HW115104   3.477   0.638   0.664 -2.3939  0.5181  1.3428
 1215SOL    HW215105   3.373   0.592   0.570  2.1471 -1.8841  0.4307
 1216SOL     OW15106   2.733   3.551  14.210 -0.4501  0.5494  0.1824
 1216SOL    HW115107   2.670   3.552  14.282 -0.4554 -0.1593  0.1961
 1216SOL    HW215108   2.803   3.496  14.246  0.2545  1.5575  0.3411
 1217SOL     OW15109   3.068   2.388   7.272  0.2567 -0.5508  0.0951
 1217SOL    HW115110   3.067   2.363   7.365 -0.6176 -1.8659 -0.2646
 1217SOL    HW215111   2.984   2.361   7.236  0.6995  0.1716 -1.4715
 1218SOL     OW15112   4.665   1.788   9.027 -0.3434 -0.0646  0.9329
 1218SOL    HW115113   4.573   1.765   9.042 -0.8014  1.4862  0.5119
 1218SOL    HW215114   4.661   1.883   9.040 -2.8341 -0.3525  2.2354
 1219SOL     OW15115   2.362   2.256   6.968  0.0064  0.5890  0.1601
 1219SOL    HW115116   2.435   2.220   6.918  0.4539 -0.8265  1.8151
 1219SOL    HW215117   2.347   2.184   7.030 -1.2716  0.8270  0.1317
 1220SOL     OW15118   1.738   3.217   6.821 -0.4107 -0.0221  0.0613
 1220SOL    HW115119   1.785   3.136   6.838  0.2649  0.2633 -0.4611
 1220SOL    HW215120   1.802   3.288   6.827  0.0152 -0.3781 -0.2154
 1221SOL     OW15121   1.994   3.140   7.215 -0.2844  0.0333  0.1042
 1221SOL    HW115122   1.916   3.176   7.256 -0.0045  2.6236 -1.6066
 1221SOL    HW215123   2.005   3.059   7.264  2.0239  0.2541 -0.0284
 1222SOL     OW15124   1.887   2.655  14.061  0.1475 -0.4846 -0.2658
 1222SOL    HW115125   1.964   2.626  14.110 -0.1869 -3.3800 -1.4451
 1222SOL    HW215126   1.909   2.747  14.054  2.7502 -1.2103 -1.6732
 1223SOL     OW15127   3.197   1.795  16.537 -0.2440  0.2458  0.1047
 1223SOL    HW115128   3.225   1.739  16.465 -0.7392  2.3060 -1.6970
 1223SOL    HW215129   3.207   1.876  16.485  0.7313  0.6827  0.9655
 1224SOL     OW15130   4.444   0.327   9.065 -0.0412  0.0154 -0.0615
 1224SOL    HW115131   4.472   0.280   9.144  1.6537 -0.1132 -0.7442
 1224SOL    HW215132   4.353   0.342   9.091  0.1436 -0.6552  1.0139
 1225SOL     OW15133   0.662   2.612   4.812 -0.7433 -1.2808  0.1589
 1225SOL    HW115134   0.668   2.704   4.835  2.0067 -0.8976 -2.1288
 1225SOL    HW215135   0.583   2.583   4.858 -2.9720  2.2954 -1.4575
 1226SOL     OW15136   3.639   1.475   7.608  0.3258 -0.3324  0.2746
 1226SOL    HW115137   3.699   1.528   7.660 -0.0311  0.0169  0.3289
 1226SOL    HW215138   3.554   1.494   7.648  0.4979 -0.7973  0.8626
 1227SOL     OW15139   2.174   2.654   7.106  0.0852  0.0385 -0.1879
 1227SOL    HW115140   2.152   2.695   7.023 -0.6043  0.5509  0.2548
 1227SOL    HW215141   2.137   2.722   7.162 -0.4729  0.0000 -0.5159
 1228SOL     OW15142   1.922   1.309   2.574 -0.1669  0.1551  0.5232
 1228SOL    HW115143   1.860   1.305   2.647 -1.9795 -0.3364 -1.0394
 1228SOL    HW215144   1.875   1.292   2.492 -0.2769  1.0378  0.3976
 1229SOL     OW15145   2.457   4.141  12.679 -0.0676 -0.4168 -0.1577
 1229SOL    HW115146   2.400   4.202  12.632 -0.2245 -1.2749 -1.0627
 1229SOL    HW215147   2.516   4.127  12.605 -0.2399  1.2351 -0.6183
 1230SOL     OW15148   0.541   0.569   6.220 -0.4480  0.0784  0.2197
 1230SOL    HW115149   0.528   0.507   6.292  0.3388  1.5856  1.6720
 1230SOL    HW215150   0.576   0.648   6.262  1.7745 -0.3534 -0.8381
 1231SOL     OW15151   1.827   1.970  14.072  0.1167 -0.3528  0.7182
 1231SOL    HW115152   1.872   2.024  14.007  0.1432 -1.9638 -0.6169
 1231SOL    HW215153   1.740   1.967  14.032  0.6657 -1.3645 -0.4094
 1232SOL     OW15154   0.719   1.098   2.131 -0.7508  0.3481 -0.5658
 1232SOL    HW115155   0.668   1.123   2.208 -1.9731  2.6396 -2.0944
 1232SOL    HW215156   0.686   1.169   2.076 -0.1677  1.2121  0.2030
 1233SOL     OW15157   1.336   1.783   6.971 -0.1293  0.5331  0.0874
 1233SOL    HW115158   1.284   1.787   6.891  1.9390 -1.0566 -1.3297
 1233SOL    HW215159   1.270   1.815   7.033  0.2337  0.0922  0.7083
 1234SOL     OW15160   1.846   1.368   7.271  0.2235  0.2361  0.3584
 1234SOL    HW115161   1.842   1.440   7.333 -2.9023  1.2828 -1.0349
 1234SOL    HW215162   1.758   1.334   7.289  0.5336 -0.0209  1.3756
 1235SOL     OW15163   4.219   0.623   2.323  0.3842 -0.5434 -0.0261
 1235SOL    HW115164   4.282   0.560   2.287 -0.8716 -0.0136 -3.1814
 1235SOL    HW215165   4.266   0.659   2.398 -0.7380  0.8555  0.0013
 1236SOL     OW15166   1.534   1.997   7.089 -0.3547  0.3892  0.0841
 1236SOL    HW115167   1.511   2.088   7.070 -1.1434  0.3689  0.9727
 1236SOL    HW215168   1.473   1.972   7.158 -0.1881 -0.3788 -0.0402
 1237SOL     OW15169   0.855   4.225   0.706 -0.1888  0.1469  0.3250
 1237SOL    HW115170   0.789   4.184   0.650  0.3056 -0.2233  0.0095
 1237SOL    HW215171   0.841   4.317   0.684  3.4113 -0.1949 -3.3066
 1238SOL     OW15172   4.411   3.721   0.884 -0.4299 -0.2764 -0.0623
 1238SOL    HW115173   4.442   3.810   0.865  0.0886 -0.2422  0.9213
 1238SOL    HW215174   4.387   3.697   0.795 -0.6148 -0.5216  0.0536
 1239SOL     OW15175   3.100   2.539   6.180 -0.4473 -0.1391 -0.2132
 1239SOL    HW115176   3.158   2.611   6.204  0.9654 -1.1536 -0.5746
 1239SOL    HW215177   3.043   2.579   6.115  1.3978  1.5283 -0.8257
 1240SOL     OW15178   4.156   3.929   3.008 -0.3276 -0.7080 -0.1372
 1240SOL    HW115179   4.109   3.850   2.982 -1.3444 -0.4374  0.8478
 1240SOL    HW215180   4.108   3.989   2.951 -0.3453  0.5964  1.2559
 1241SOL     OW15181   4.573   3.782   9.076 -0.0958  0.1692  0.6009
 1241SOL    HW115182   4.658   3.809   9.110 -0.4656  0.7459  1.0784
 1241SOL    HW215183   4.545   3.861   9.029 -0.0924  0.7043  1.5126
 1242SOL     OW15184   0.430   3.039   3.845 -0.5253  0.2698  0.0165
 1242SOL    HW115185   0.380   3.097   3.902 -0.9726 -1.4893  1.4311
 1242SOL    HW215186   0.480   2.980   3.901  0.9946  1.4394 -0.1172
 1243SOL     OW15187   2.105   0.905  11.091 -0.4193  0.2126 -0.4301
 1243SOL    HW115188   2.136   0.995  11.088  0.7379 -0.2812 -3.7217
 1243SOL    HW215189   2.185   0.871  11.131 -0.3019  0.7539 -0.2172
 1244SOL     OW15190   3.650   4.473   5.260  0.2054 -0.0889 -0.7027
 1244SOL    HW115191   3.695   4.470   5.176 -0.0341  0.5321 -0.8566
 1244SOL    HW215192   3.612   4.385   5.262 -0.0209  0.0404  0.9355
 1245SOL     OW15193   2.808   3.355   2.724  0.2093  0.4907 -0.6272
 1245SOL    HW115194   2.792   3.430   2.667  0.9967  0.7723 -0.4778
 1245SOL    HW215195   2.736   3.362   2.787  1.0441 -2.8479  0.6985
 1246SOL     OW15196   0.766   2.372   8.809 -0.0114 -0.1164 -0.2027
 1246SOL    HW115197   0.783   2.463   8.787 -1.0768 -0.3893 -2.1111
 1246SOL    HW215198   0.727   2.340   8.728 -0.7620 -0.6709  0.3771
 1247SOL     OW15199   2.539   1.420   2.531  0.0879 -0.4237 -0.4813
 1247SOL    HW115200   2.463   1.462   2.571  0.0899 -2.5483  1.7386
 1247SOL    HW215201   2.554   1.348   2.591 -1.1020 -0.4372 -0.2056
 1248SOL     OW15202   1.291   3.920   2.763 -0.1018 -0.2002 -0.3338
 1248SOL    HW115203   1.273   3.827   2.751 -0.8341  0.2450 -2.6788
 1248SOL    HW215204   1.374   3.911   2.809  0.2705 -0.6767 -1.0979
 1249SOL     OW15205   2.365   3.072   8.863 -0.1190 -0.0284  0.4840
 1249SOL    HW115206   2.345   3.139   8.798  0.6068 -0.6933 -0.4228
 1249SOL    HW215207   2.337   3.124   8.939  0.7975  1.2194 -0.0431
 1250SOL     OW15208   3.655   4.014   8.032  0.0807  0.1797  0.1439
 1250SOL    HW115209   3.727   4.075   8.042 -0.9049  0.9240  2.8828
 1250SOL    HW215210   3.577   4.068   8.046  0.8781  1.3088  0.1716
 1251SOL     OW15211   1.457   0.818   0.578 -0.1186 -0.2738 -0.4356
 1251SOL    HW115212   1.456   0.858   0.664  1.7341  0.7572 -0.8713
 1251SOL    HW215213   1.372   0.857   0.556  1.6491  3.0049 -1.5423
 1252SOL     OW15214   2.575   3.649   5.604  0.1477 -0.5927  0.3160
 1252SOL    HW115215   2.564   3.616   5.693  0.9594  1.0034  1.0070
 1252SOL    HW215216   2.521   3.588   5.553 -0.4891 -0.3852  0.7534
 1253SOL     OW15217   4.649   1.000  14.436 -0.3311 -0.1003  0.0917
 1253SOL    HW115218   4.606   0.914  14.433 -0.0026 -0.2462 -0.3855
 1253SOL    HW215219   4.713   0.990  14.366  1.4484  0.9127  1.5796
 1254SOL     OW15220   1.823   1.570   7.458 -0.2461 -0.5983 -0.3289
 1254SOL    HW115221   1.848   1.637   7.394 -1.0404  1.5237  1.5887
 1254SOL    HW215222   1.729   1.585   7.463 -0.4889 -2.3174  0.0906
 1255SOL     OW15223   1.492   3.153   6.908 -0.1468 -0.4812  0.1970
 1255SOL    HW115224   1.501   3.058   6.895 -1.7073 -0.7650  1.2846
 1255SOL    HW215225   1.585   3.177   6.904  0.3393 -2.4835 -0.6090
 1256SOL     OW15226   1.347   4.181   5.406  0.4536  0.1627 -0.3515
 1256SOL    HW115227   1.384   4.098   5.436 -1.3471 -0.6033 -0.2504
 1256SOL    HW215228   1.412   4.204   5.339 -0.3935 -0.5127 -1.4187
 1257SOL     OW15229   1.572   4.060   6.886 -0.5171  0.4593 -0.3149
 1257SOL    HW115230   1.546   4.046   6.977 -1.1228  0.7899 -0.4358
 1257SOL    HW215231   1.488   4.082   6.845 -0.5830 -0.4473 -0.6788
 1258SOL     OW15232   1.087   1.146   5.529  0.5023  0.2404  0.2144
 1258SOL    HW115233   1.180   1.128   5.512  0.5385  0.9774 -0.4089
 1258SOL    HW215234   1.074   1.075   5.592  0.5490  1.0658  1.1655
 1259SOL     OW15235   1.910   1.921   7.588  0.3654 -0.8938 -0.0694
 1259SOL    HW115236   1.993   1.894   7.549  0.2726 -2.1194  0.5827
 1259SOL    HW215237   1.934   1.907   7.680  0.1630 -0.5589  0.0337
 1260SOL     OW15238   0.653   1.225   1.553  0.3733 -0.0849  0.4185
 1260SOL    HW115239   0.668   1.146   1.501  1.5119  1.7984 -2.1539
 1260SOL    HW215240   0.743   1.258   1.552 -0.4105  2.0247 -2.9955
 1261SOL     OW15241   4.503   2.148   4.938 -0.0403  0.0502  0.1192
 1261SOL    HW115242   4.485   2.055   4.927  0.7151 -0.1537  0.5674
 1261SOL    HW215243   4.546   2.164   4.853 -1.5362  1.0183 -0.4530
 1262SOL     OW15244   1.090   0.794   8.750 -0.3772  0.0389 -0.4066
 1262SOL    HW115245   1.178   0.760   8.765 -1.1256 -1.5600  0.3091
 1262SOL    HW215246   1.098   0.889   8.761 -0.9327 -0.1720  1.7885
 1263SOL     OW15247   3.655   0.454   6.993  0.2068  0.0647 -0.2367
 1263SOL    HW115248   3.589   0.503   7.042 -2.5191 -2.3897 -1.5441
 1263SOL    HW215249   3.712   0.417   7.061 -0.7788  0.1057  0.6030
 1264SOL     OW15250   3.009   4.328   1.323 -0.4798 -0.0589 -0.2595
 1264SOL    HW115251   2.959   4.293   1.249  0.3593  1.4266 -1.5357
 1264SOL    HW215252   2.941   4.349   1.387 -2.7260 -1.2639 -2.2407
 1265SOL     OW15253   2.210   3.694   4.965  0.1636 -0.0868 -0.2242
 1265SOL    HW115254   2.279   3.649   5.014 -0.3366  0.1053  0.6627
 1265SOL    HW215255   2.258   3.732   4.893 -0.9648  1.2894 -0.2467
 1266SOL     OW15256   1.035   2.348   8.463  0.1353 -0.4450 -0.0718
 1266SOL    HW115257   1.100   2.280   8.444 -0.3107 -1.0897  0.6877
 1266SOL    HW215258   0.991   2.306   8.537  0.6055 -0.4369  0.2068
 1267SOL     OW15259   3.882   4.132   5.038 -0.1941  0.1748 -0.2757
 1267SOL    HW115260   3.902   4.077   5.114 -0.1579 -0.0982 -0.4838
 1267SOL    HW215261   3.792   4.106   5.017  1.1736 -3.4305 -1.7729
 1268SOL     OW15262   0.857   2.136   4.029  0.5795  0.8059  0.4115
 1268SOL    HW115263   0.924   2.181   3.978 -0.2281  0.5992 -0.8305
 1268SOL    HW215264   0.788   2.122   3.965  0.5583  0.7845  0.4387
 1269SOL     OW15265   0.218   1.678   0.693  0.2584 -0.1724  0.5419
 1269SOL    HW115266   0.149   1.633   0.741 -0.3967  3.0041  2.6115
 1269SOL    HW215267   0.281   1.685   0.765 -0.0283  3.5428  0.4291
 1270SOL     OW15268   1.765   2.710   6.465 -0.7626  0.5772  0.4175
 1270SOL    HW115269   1.823   2.636   6.447 -0.5279  0.7551  0.4518
 1270SOL    HW215270   1.680   2.665   6.467 -2.2904  3.4502  0.9919
 1271SOL     OW15271   0.101   1.685   3.032 -0.1846 -0.1534  0.1260
 1271SOL    HW115272   0.115   1.767   2.985 -1.4886  0.0094  0.0219
 1271SOL    HW215273   0.036   1.641   2.977 -0.3289 -0.2797  0.4017
 1272SOL     OW15274   1.167   4.544  11.828 -0.4306 -0.5524 -0.4667
 1272SOL    HW115275   1.162   4.588  11.743 -0.4109  3.1210  1.4345
 1272SOL    HW215276   1.262   4.540  11.828 -0.3647  0.8903 -0.0933
 1273SOL     OW15277   4.630   4.064  10.767  0.4812 -0.6177  0.3224
 1273SOL    HW115278   4.660   4.044  10.856  1.0450 -1.4100 -0.0479
 1273SOL    HW215279   4.546   4.107  10.783  0.6820  0.0788 -0.5084
 1274SOL     OW15280   3.508   2.306   1.859  0.2057 -0.7245 -0.4062
 1274SOL    HW115281   3.489   2.254   1.937  2.7237  0.6768  1.1382
 1274SOL    HW215282   3.424   2.322   1.816  0.5237 -1.5982 -1.3407
 1275SOL     OW15283   3.291   3.367   4.824 -0.3438 -0.2962 -0.4215
 1275SOL    HW115284   3.243   3.443   4.857 -2.0847 -1.0687 -1.2036
 1275SOL    HW215285   3.216   3.318   4.789 -0.2376  1.0970 -2.5474
 1276SOL     OW15286   0.283   4.136   6.136  0.0974 -0.2026  0.1833
 1276SOL    HW115287   0.188   4.132   6.150 -0.0680  2.6138 -0.1269
 1276SOL    HW215288   0.283   4.231   6.120 -1.8021 -0.1534  0.4053
 1277SOL     OW15289   3.086   4.370   2.672 -0.5799 -0.3156 -0.4116
 1277SOL    HW115290   3.098   4.379   2.578  1.2647  1.0732 -0.0489
 1277SOL    HW215291   3.019   4.303   2.683 -0.0465 -0.3365  2.9142
 1278SOL     OW15292   1.912   4.496  13.026 -0.5974  0.0343 -0.5547
 1278SOL    HW115293   1.864   4.525  13.104  0.3935  0.1946  0.0016
 1278SOL    HW215294   1.847   4.524  12.961 -0.8073 -1.1001 -0.8338
 1279SOL     OW15295   3.115   1.603   2.832 -0.3081 -0.4708 -0.0884
 1279SOL    HW115296   3.201   1.604   2.789 -0.0813  0.4673  0.3827
 1279SOL    HW215297   3.125   1.659   2.909  1.6173  0.4095 -0.9626
 1280SOL     OW15298   0.079   4.531   8.472 -0.2211 -0.1633 -0.0958
 1280SOL    HW115299   0.007   4.489   8.426 -0.3817 -0.6689  0.6291
 1280SOL    HW215300   0.067   4.625   8.456 -3.1080 -0.4668  0.3046
 1281SOL     OW15301   4.365   0.913   7.984 -0.1488  0.0478 -0.1885
 1281SOL    HW115302   4.416   0.889   8.061  1.2665  0.2522 -1.0560
 1281SOL    HW215303   4.309   0.836   7.971  2.4306 -1.4063 -2.6664
 1282SOL     OW15304   0.653   2.523   0.495  0.1613  0.1282 -0.0257
 1282SOL    HW115305   0.578   2.572   0.460 -2.9837 -3.7509  1.3802
 1282SOL    HW215306   0.727   2.580   0.470  0.4871 -0.6764 -0.8826
 1283SOL     OW15307   3.828   1.771   8.485  0.0159  0.4711 -0.2103
 1283SOL    HW115308   3.895   1.829   8.450  0.8901 -0.7438 -0.5432
 1283SOL    HW215309   3.881   1.718   8.544 -0.2596  0.4416  0.0110
 1284SOL     OW15310   0.066   0.921   5.934  0.1473 -0.5360 -0.1228
 1284SOL    HW115311   0.079   0.961   5.848 -0.9197  0.8966  0.3842
 1284SOL    HW215312   0.002   0.981   5.972  0.4539 -2.1504  2.9566
 1285SOL     OW15313   3.890   3.949  14.524 -0.1289  0.2534 -0.1359
 1285SOL    HW115314   3.971   3.999  14.508 -0.1165 -0.5762 -2.6895
 1285SOL    HW215315   3.859   3.945  14.434 -0.3497 -1.1744  0.0060
 1286SOL     OW15316   4.029   3.662  16.564  0.8637 -0.3886 -0.2867
 1286SOL    HW115317   4.086   3.712  16.621  1.5700  1.0616 -2.2570
 1286SOL    HW215318   4.012   3.588  16.622 -2.7426  1.5779  1.1597
 1287SOL     OW15319   0.731   0.381  14.106 -0.3502 -0.6729  0.0641
 1287SOL    HW115320   0.696   0.462  14.070 -2.1703  0.2243  3.8955
 1287SOL    HW215321   0.816   0.417  14.132 -0.2584 -1.8148  1.3706
 1288SOL     OW15322   3.274   2.123   4.514  0.9288  0.3854  0.6851
 1288SOL    HW115323   3.244   2.207   4.478 -1.0364 -0.7354 -0.3466
 1288SOL    HW215324   3.366   2.128   4.490  0.4522  1.4798 -0.9664
 1289SOL     OW15325   4.475   1.840  14.544 -0.6481  0.3085  0.0554
 1289SOL    HW115326   4.522   1.878  14.618  1.4319 -0.8182 -0.7068
 1289SOL    HW215327   4.546   1.816  14.485  0.0293  1.3396  0.4757
 1290SOL     OW15328   3.331   4.581   0.736 -0.3362  0.2650 -0.0476
 1290SOL    HW115329   3.304   4.665   0.701  1.8520  0.9588 -0.0993
 1290SOL    HW215330   3.302   4.592   0.827 -0.4272  1.1115 -0.1824
 1291SOL     OW15331   0.839   0.817  15.276 -0.5881 -0.3045 -0.1280
 1291SOL    HW115332   0.932   0.795  15.274 -0.5335  0.1103 -2.0806
 1291SOL    HW215333   0.829   0.857  15.362 -0.5363 -0.0973 -0.2174
 1292SOL     OW15334   2.940   0.346   9.498 -0.0465  0.3955  0.4156
 1292SOL    HW115335   2.967   0.314   9.584  0.6699  2.7206  1.0675
 1292SOL    HW215336   2.867   0.288   9.477 -1.0894  2.0588 -0.5634
 1293SOL     OW15337   4.598   2.180   4.199  0.5734  0.3138 -0.3987
 1293SOL    HW115338   4.666   2.146   4.258 -0.7808  1.5184  1.8751
 1293SOL    HW215339   4.635   2.248   4.143 -0.4109  1.2149  0.0301
 1294SOL     OW15340   4.348   2.509  11.941  0.2897 -0.1768  0.7778
 1294SOL    HW115341   4.302   2.569  11.882 -0.7145 -1.1067  0.6193
 1294SOL    HW215342   4.326   2.553  12.023  0.2567  1.3595 -0.0516
 1295SOL     OW15343   4.094   1.685   3.319  0.3403  0.4072 -0.2653
 1295SOL    HW115344   4.044   1.764   3.341 -0.3345 -0.0816 -0.0417
 1295SOL    HW215345   4.181   1.715   3.295  0.6326  1.0277  1.5328
 1296SOL     OW15346   2.639   3.719   1.681  0.0275 -0.9464  0.0301
 1296SOL    HW115347   2.685   3.647   1.638 -0.9764  0.1411 -2.8433
 1296SOL    HW215348   2.574   3.663   1.725  0.2324  1.3453  3.2279
 1297SOL     OW15349   2.577   3.160   9.236  0.1564  0.0807  0.2865
 1297SOL    HW115350   2.522   3.093   9.197  0.5558 -0.8688  1.3535
 1297SOL    HW215351   2.642   3.163   9.165 -0.3211  2.3920 -0.0801
 1298SOL     OW15352   0.946   0.388  15.206  0.3102 -0.0180 -0.2562
 1298SOL    HW115353   0.913   0.453  15.267 -0.1279  0.7919 -1.3529
 1298SOL    HW215354   0.882   0.405  15.137  2.0015  0.9914 -1.5739
 1299SOL     OW15355   3.587   0.315   5.629  0.2133  0.6849 -0.1233
 1299SOL    HW115356   3.518   0.337   5.691 -1.2722 -1.5517 -0.9841
 1299SOL    HW215357   3.638   0.396   5.625 -0.9120  1.3922  0.0121
 1300SOL     OW15358   4.452   3.692   5.241 -0.1626  0.5030  0.0155
 1300SOL    HW115359   4.471   3.601   5.262 -3.1498 -0.2360 -0.5761
 1300SOL    HW215360   4.476   3.695   5.149 -0.7686 -1.7048 -0.2057
 1301SOL     OW15361   4.460   3.767  17.115  0.2767  0.8313  0.2529
 1301SOL    HW115362   4.553   3.782  17.094  0.8233 -0.7558  1.5782
 1301SOL    HW215363   4.465   3.705  17.188  0.0384 -2.6050 -2.6633
 1302SOL     OW15364   4.293   4.332   2.798 -0.3068 -0.5650 -0.1597
 1302SOL    HW115365   4.344   4.377   2.866  0.7310 -1.2862 -0.4538
 1302SOL    HW215366   4.360   4.283   2.751 -0.4636 -0.6740 -0.2660
 1303SOL     OW15367   3.841   0.430   5.563  0.1141 -0.1783 -0.3522
 1303SOL    HW115368   3.856   0.340   5.534  0.0636 -0.1606 -0.4338
 1303SOL    HW215369   3.860   0.483   5.485  1.2324 -0.0078  0.0257
 1304SOL     OW15370   3.759   1.434  16.953 -0.9782 -0.0217 -0.1725
 1304SOL    HW115371   3.806   1.494  17.012  2.0678 -1.8948 -0.7005
 1304SOL    HW215372   3.695   1.493  16.913 -0.2512  0.8885  0.0148
 1305SOL     OW15373   3.080   4.566   6.540  0.7272 -0.0233  0.3639
 1305SOL    HW115374   3.126   4.643   6.508 -1.4691 -0.5746 -4.2253
 1305SOL    HW215375   2.993   4.605   6.544  0.0792 -1.5678  1.3643
 1306SOL     OW15376   2.881   2.232   2.558  0.2619 -0.3350  0.0097
 1306SOL    HW115377   2.892   2.300   2.624 -0.1526 -1.0498  0.8159
 1306SOL    HW215378   2.970   2.224   2.524  0.7951  2.2522  0.8123
 1307SOL     OW15379   1.134   3.344   2.808 -0.3726 -0.0883  0.3935
 1307SOL    HW115380   1.128   3.415   2.873 -0.1012  0.7581 -0.5124
 1307SOL    HW215381   1.052   3.345   2.759  0.7367 -0.5788 -1.4654
 1308SOL     OW15382   1.384   0.715   8.711  0.5702 -0.3636  0.3900
 1308SOL    HW115383   1.399   0.796   8.662  1.2604 -1.6157 -1.4761
 1308SOL    HW215384   1.458   0.709   8.772  1.5915  0.3349 -0.7609
 1309SOL     OW15385   3.290   1.121  13.230 -1.1569  0.3612 -0.1333
 1309SOL    HW115386   3.217   1.071  13.191 -0.8767  0.7095 -1.1079
 1309SOL    HW215387   3.299   1.184  13.159 -0.3578 -0.4823 -0.7780
 1310SOL     OW15388   3.774   1.194   1.979  0.3437 -0.0962 -0.6682
 1310SOL    HW115389   3.780   1.120   1.918 -0.3164 -1.0146  0.3723
 1310SOL    HW215390   3.726   1.141   2.043  1.3492  1.2584  1.2110
 1311SOL     OW15391   0.707   4.234   8.678  0.4888  0.6008  0.9424
 1311SOL    HW115392   0.698   4.302   8.744  1.8618  0.9735  0.7345
 1311SOL    HW215393   0.662   4.167   8.729 -0.3179  0.6728  0.3230
 1312SOL     OW15394   1.135   3.611   2.546 -0.1512 -0.4654 -0.6954
 1312SOL    HW115395   1.096   3.699   2.553 -3.0529 -1.8012 -0.2922
 1312SOL    HW215396   1.073   3.564   2.491 -0.8191 -1.4302  0.8725
 1313SOL     OW15397   1.236   3.559   2.979  0.0410  0.0105  0.1978
 1313SOL    HW115398   1.156   3.535   3.026 -0.9013 -0.8753 -1.8512
 1313SOL    HW215399   1.267   3.641   3.018 -2.1391  1.1645 -0.4604
 1314SOL     OW15400   3.928   2.047  11.066  0.0477 -0.3831 -0.1996
 1314SOL    HW115401   3.985   2.086  11.133  0.2476 -1.7058  0.3827
 1314SOL    HW215402   3.997   2.005  11.014  0.7374  1.9532 -1.2067
 1315SOL     OW15403   2.634   3.850   7.394  0.5416 -0.8047 -0.0358
 1315SOL    HW115404   2.576   3.844   7.318  2.1932 -0.0455 -1.3478
 1315SOL    HW215405   2.696   3.919   7.372 -1.9508  1.3150 -0.3796
 1316SOL     OW15406   3.786   1.788  14.725 -0.0539 -0.0423 -0.2810
 1316SOL    HW115407   3.871   1.755  14.695 -0.2698 -0.8231 -0.0311
 1316SOL    HW215408   3.753   1.727  14.791  1.5385 -2.0159 -1.2736
 1317SOL     OW15409   0.637   0.066   4.248  0.6940  0.5818 -0.2070
 1317SOL    HW115410   0.682   0.040   4.167 -3.0432 -4.3151 -0.7330
 1317SOL    HW215411   0.579   4.711   4.259 -1.1387  2.2171  1.0665
 1318SOL     OW15412   3.195   3.743   8.685  0.4626 -0.0982  0.0170
 1318SOL    HW115413   3.116   3.784   8.722  0.0724 -1.2516  0.4406
 1318SOL    HW215414   3.244   3.820   8.654 -1.1006  0.1427 -1.8385
 1319SOL     OW15415   3.779   4.688  15.318  0.7757  0.5278 -0.3717
 1319SOL    HW115416   3.778   4.619  15.384 -1.1060  1.6424  0.7719
 1319SOL    HW215417   3.722   0.037  15.353  0.2579 -0.3238  0.4732
 1320SOL     OW15418   0.649   4.010   5.256  0.6954  0.3758  0.4190
 1320SOL    HW115419   0.600   4.023   5.337  0.0317  0.6209 -0.0196
 1320SOL    HW215420   0.734   4.045   5.284  1.9880 -1.5817 -1.1105
 1321SOL     OW15421   0.146   2.310   4.834  0.0798  0.0249 -0.2311
 1321SOL    HW115422   0.213   2.335   4.771 -0.3066  1.3980 -0.1035
 1321SOL    HW215423   0.076   2.265   4.787 -0.9088 -0.0591  1.2981
 1322SOL     OW15424   2.066   1.205  13.086 -0.0675  0.4543 -0.1514
 1322SOL    HW115425   2.142   1.263  13.090 -1.1773  1.9027  0.0858
 1322SOL    HW215426   2.087   1.153  13.009  0.7588 -1.1420  1.1450
 1323SOL     OW15427   0.090   4.106  13.285  0.3467 -0.0351 -0.1385
 1323SOL    HW115428   0.157   4.170  13.311  2.2491 -2.2425  0.4603
 1323SOL    HW215429   0.087   4.058  13.368 -1.2449  1.1552  0.4979
 1324SOL     OW15430   4.285   3.469   6.103 -0.1445  0.0776 -0.1722
 1324SOL    HW115431   4.316   3.466   6.012 -2.1678 -0.3208 -0.8486
 1324SOL    HW215432   4.267   3.378   6.126 -0.1996  0.0191 -0.4411
 1325SOL     OW15433   2.859   2.099   2.815 -0.0600 -0.0894 -0.0942
 1325SOL    HW115434   2.945   2.103   2.857 -0.3277  2.1382  0.2737
 1325SOL    HW215435   2.873   2.174   2.756 -2.7685  1.2565  0.9693
 1326SOL     OW15436   2.507   4.290   9.555  0.0839  0.0656  0.4521
 1326SOL    HW115437   2.517   4.239   9.636  0.3800  0.5904  0.7547
 1326SOL    HW215438   2.573   4.356   9.579  0.7189 -1.2624  2.3581
 1327SOL     OW15439   4.418   1.949  14.014  0.0696 -0.0632  0.0014
 1327SOL    HW115440   4.465   2.015  13.963 -2.4328  1.0744 -0.8037
 1327SOL    HW215441   4.365   2.009  14.066  0.5435 -0.4485  0.9324
 1328SOL     OW15442   0.692   2.213   5.286 -0.2267  0.6922 -0.3027
 1328SOL    HW115443   0.736   2.146   5.338 -0.2951  0.3961 -0.6245
 1328SOL    HW215444   0.705   2.179   5.198  3.2270 -1.8826  1.1910
 1329SOL     OW15445   3.522   3.774   5.303  0.3113 -0.4273 -0.4667
 1329SOL    HW115446   3.480   3.833   5.240  2.0370  0.8310 -0.4447
 1329SOL    HW215447   3.606   3.820   5.303  0.5258 -0.8354  0.8729
 1330SOL     OW15448   1.989   2.311  16.029  0.4675 -0.5031  0.8422
 1330SOL    HW115449   1.896   2.303  16.007  1.0028 -0.1977 -1.5150
 1330SOL    HW215450   1.981   2.373  16.101 -1.3024  1.5704 -1.1769
 1331SOL     OW15451   1.372   1.200   4.661  0.5423 -0.4631 -0.3089
 1331SOL    HW115452   1.435   1.224   4.729  1.5042  0.2810 -1.4722
 1331SOL    HW215453   1.437   1.156   4.608  1.0347  1.0049 -0.9376
 1332SOL     OW15454   1.805   2.258   2.200 -0.2883 -0.4268  0.4684
 1332SOL    HW115455   1.847   2.318   2.261 -1.3616 -0.7943  1.5588
 1332SOL    HW215456   1.803   2.183   2.259 -0.8055 -0.1372  0.8097
 1333SOL     OW15457   3.290   1.922   3.524  0.0204 -0.4231  0.3582
 1333SOL    HW115458   3.298   1.831   3.554 -0.5017  0.1291  2.1716
 1333SOL    HW215459   3.327   1.984   3.587  1.0811  0.9010 -1.5652
 1334SOL     OW15460   1.995   4.633   8.095 -0.0470 -0.4058 -0.0394
 1334SOL    HW115461   2.021   4.696   8.028  0.4962 -0.9863 -0.3753
 1334SOL    HW215462   1.962   4.692   8.162  0.0812  0.7251 -0.9778
 1335SOL     OW15463   0.150   0.815   5.543 -0.4961 -0.5222 -0.1520
 1335SOL    HW115464   0.135   0.847   5.454 -1.3004  4.0035  1.6041
 1335SOL    HW215465   0.137   0.895   5.595  1.9402 -1.4579  1.9006
 1336SOL     OW15466   1.036   0.916   5.716 -0.6149  0.4173  0.2316
 1336SOL    HW115467   1.051   0.862   5.638 -1.0703  2.4026 -1.2335
 1336SOL    HW215468   1.001   0.850   5.775  1.6394 -1.2429 -0.2692
 1337SOL     OW15469   2.618   4.053   6.718 -0.1481 -0.2414 -0.3709
 1337SOL    HW115470   2.538   4.076   6.670 -1.3810 -0.0800  1.7666
 1337SOL    HW215471   2.581   4.030   6.803 -1.2979  2.3195 -0.1815
 1338SOL     OW15472   3.280   2.227  13.227  0.3937  0.2791 -0.1311
 1338SOL    HW115473   3.235   2.297  13.180 -0.1705  0.7753  1.1481
 1338SOL    HW215474   3.335   2.187  13.159  0.1109 -1.5521  0.7380
 1339SOL     OW15475   2.411   3.010  15.149  0.8146 -0.7302  0.3478
 1339SOL    HW115476   2.426   2.968  15.064  4.1528  3.1601 -0.9783
 1339SOL    HW215477   2.337   2.965  15.189 -0.2568 -0.3389 -1.1949
 1340SOL     OW15478   1.651   0.789   4.835  0.5286 -0.0861 -0.4467
 1340SOL    HW115479   1.665   0.801   4.741 -0.7810 -0.9250 -0.7564
 1340SOL    HW215480   1.561   0.757   4.833  0.5686 -0.2424  0.4946
 1341SOL     OW15481   2.019   2.929   3.431 -0.1174  0.0820  0.1770
 1341SOL    HW115482   2.092   2.972   3.477  2.2165 -2.7044 -0.8856
 1341SOL    HW215483   1.999   2.852   3.483  0.8899 -2.0388 -2.5782
 1342SOL     OW15484   1.662   4.080   4.683  0.1427 -0.3166 -0.1182
 1342SOL    HW115485   1.721   4.042   4.749  0.0056  0.0577  0.2148
 1342SOL    HW215486   1.686   4.032   4.604  0.9509  0.9740 -0.6482
 1343SOL     OW15487   3.327   2.132   7.736  0.1113  0.4374 -0.7826
 1343SOL    HW115488   3.388   2.203   7.754 -0.3333  0.3065  1.2453
 1343SOL    HW215489   3.299   2.113   7.825 -1.4293  2.0473 -0.9245
 1344SOL     OW15490   0.191   4.396   2.750 -0.0878 -0.0510 -0.0744
 1344SOL    HW115491   0.217   4.321   2.697 -0.0988 -0.5507  0.6254
 1344SOL    HW215492   0.219   4.472   2.699  1.9767  0.4879  1.8518
 1345SOL     OW15493   2.917   1.060   2.388 -0.1783  0.4571 -0.4757
 1345SOL    HW115494   2.830   1.061   2.348  0.1889 -2.0575 -1.3170
 1345SOL    HW215495   2.890   1.074   2.479 -2.0113  1.5127 -1.1933
 1346SOL     OW15496   3.678   2.928  16.519  0.1459  0.4056  0.3744
 1346SOL    HW115497   3.772   2.948  16.514  0.5134 -1.3882  0.1958
 1346SOL    HW215498   3.673   2.911  16.613  1.2853 -1.3425  0.1118
 1347SOL     OW15499   0.749   3.131   1.420 -0.5468 -0.3904 -0.4805
 1347SOL    HW115500   0.701   3.118   1.338 -1.3081 -0.0824 -0.0771
 1347SOL    HW215501   0.837   3.147   1.385 -0.1264  2.1023  1.7461
 1348SOL     OW15502   4.496   2.633   2.866  0.2911  0.4799 -0.3409
 1348SOL    HW115503   4.472   2.564   2.804  2.9455 -0.1158 -0.6839
 1348SOL    HW215504   4.477   2.589   2.949  2.8034 -2.0682 -1.1321
 1349SOL     OW15505   3.682   1.602  11.789  0.0556  0.1872  0.3752
 1349SOL    HW115506   3.660   1.695  11.792 -1.5953 -0.2509  2.0247
 1349SOL    HW215507   3.620   1.575  11.857  2.2015 -0.9746  1.8627
 1350SOL     OW15508   3.584   0.048   5.602 -0.3198 -0.3497 -0.3066
 1350SOL    HW115509   3.625   0.028   5.518  1.6008  0.6227  0.3717
 1350SOL    HW215510   3.616   0.137   5.620 -1.4320 -0.2944  1.4360
 1351SOL     OW15511   2.980   0.486   4.600 -0.1237 -0.1690  0.1172
 1351SOL    HW115512   3.026   0.418   4.649 -0.9692 -1.7789 -1.2915
 1351SOL    HW215513   2.993   0.441   4.516  4.4607 -1.1900  1.3472
 1352SOL     OW15514   3.841   3.477   3.389 -0.8639 -0.1145  0.5297
 1352SOL    HW115515   3.801   3.532   3.457  1.6932  0.4834  1.5567
 1352SOL    HW215516   3.760   3.436   3.359 -0.4159  0.4223 -1.4037
 1353SOL     OW15517   2.241   1.589   5.499 -0.0937  0.2226  0.1504
 1353SOL    HW115518   2.314   1.645   5.526  1.9175 -1.7981 -1.1484
 1353SOL    HW215519   2.164   1.646   5.493  0.4898  0.8547 -1.2552
 1354SOL     OW15520   1.119   4.497   6.754 -0.0098 -0.2054 -0.4351
 1354SOL    HW115521   1.208   4.525   6.734 -0.2176  0.6668 -0.1640
 1354SOL    HW215522   1.134   4.423   6.813  1.1925  0.3837  0.0053
 1355SOL     OW15523   4.200   3.011  12.474  0.1690  1.1444  0.1056
 1355SOL    HW115524   4.234   3.087  12.522  0.7926  0.4433  0.7780
 1355SOL    HW215525   4.136   2.979  12.537 -0.9836  0.2489 -1.5349
 1356SOL     OW15526   1.459   2.633   7.033 -0.8546  0.0205 -0.0580
 1356SOL    HW115527   1.456   2.562   7.096 -0.7936  0.1659  0.1080
 1356SOL    HW215528   1.463   2.581   6.953 -0.6538  0.5058 -0.3654
 1357SOL     OW15529   3.531   3.442   9.593  0.1962 -0.0683  0.4611
 1357SOL    HW115530   3.460   3.499   9.622  0.8869  0.4033  1.2343
 1357SOL    HW215531   3.609   3.489   9.620 -0.6386  1.4246  0.2682
 1358SOL     OW15532   3.220   2.192  11.581 -0.1780 -0.2434  0.2129
 1358SOL    HW115533   3.167   2.258  11.537  3.0204  0.9858 -1.7274
 1358SOL    HW215534   3.236   2.134  11.506 -0.5419  0.2212 -0.2190
 1359SOL     OW15535   1.498   2.908  11.821  0.3713 -0.1781  0.4694
 1359SOL    HW115536   1.467   2.993  11.852  2.6964  1.1068 -0.8193
 1359SOL    HW215537   1.426   2.874  11.768  0.4429  0.6693 -0.1637
 1360SOL     OW15538   1.765   3.703   3.094  0.1096  0.0290 -0.0977
 1360SOL    HW115539   1.739   3.668   3.009 -1.0913 -1.3091  0.8272
 1360SOL    HW215540   1.845   3.751   3.071 -0.1881 -0.0851 -1.3873
 1361SOL     OW15541   1.206   2.722   3.967 -0.8544 -0.0844 -0.0735
 1361SOL    HW115542   1.117   2.705   3.935 -1.1117  1.4811 -0.1827
 1361SOL    HW215543   1.184   2.767   4.048 -0.7646  0.4540 -0.3474
 1362SOL     OW15544   2.805   1.125   7.936 -0.1490 -0.4163 -0.0068
 1362SOL    HW115545   2.860   1.187   7.985  0.4496  0.5112 -1.8697
 1362SOL    HW215546   2.851   1.105   7.855  3.0793  0.5479  1.5702
 1363SOL     OW15547   1.346   2.989   4.119 -0.0538  0.0822  0.6832
 1363SOL    HW115548   1.407   2.916   4.130  0.0246  0.3564  2.0457
 1363SOL    HW215549   1.265   2.938   4.109  0.5169 -0.4263 -1.3402
 1364SOL     OW15550   0.531   3.310   3.865  0.1397  0.0443  0.1253
 1364SOL    HW115551   0.543   3.383   3.805  1.9816 -1.4182 -1.3135
 1364SOL    HW215552   0.456   3.265   3.826  1.7477 -1.6489 -1.0226
 1365SOL     OW15553   2.277   0.895  11.478 -0.1175 -0.5361 -0.4593
 1365SOL    HW115554   2.305   0.910  11.569  1.4905 -0.0440 -1.0454
 1365SOL    HW215555   2.186   0.923  11.481  0.1886  0.5355 -1.1908
 1366SOL     OW15556   0.439   3.081   8.562 -0.1684  0.0795 -0.2304
 1366SOL    HW115557   0.518   3.133   8.544 -1.3236  2.1853  0.9218
 1366SOL    HW215558   0.419   3.052   8.473  0.7247  1.9858 -1.0544
 1367SOL     OW15559   4.066   0.760   3.586 -0.3089  0.7384  0.2404
 1367SOL    HW115560   4.113   0.693   3.536  1.2117  2.4004 -0.5740
 1367SOL    HW215561   4.099   0.838   3.541 -1.9979  0.1569 -2.0378
 1368SOL     OW15562   1.693   2.660  14.713  0.2084 -0.5942  0.7179
 1368SOL    HW115563   1.714   2.570  14.688 -0.9081 -0.5707 -0.3259
 1368SOL    HW215564   1.639   2.651  14.792 -0.1022  0.3860  0.6237
 1369SOL     OW15565   2.730   4.704   4.461  0.3609  0.8653  0.1202
 1369SOL    HW115566   2.709   0.016   4.549  0.5012 -1.1544  0.8819
 1369SOL    HW215567   2.750   4.612   4.474  0.8686  0.7417 -1.4479
 1370SOL     OW15568   4.270   2.322   5.462 -0.4651  0.0353  0.1493
 1370SOL    HW115569   4.331   2.287   5.397  0.5095 -0.2924  1.2440
 1370SOL    HW215570   4.327   2.383   5.508 -0.7263 -2.5961  3.9692
 1371SOL     OW15571   1.229   3.912   6.883 -0.3888  0.4424 -0.0403
 1371SOL    HW115572   1.322   3.894   6.871 -0.4736 -0.9859  1.5635
 1371SOL    HW215573   1.236   3.993   6.934  0.7890 -0.1407  0.7012
 1372SOL     OW15574   3.846   0.082   8.664 -0.3558  0.2694  0.3035
 1372SOL    HW115575   3.902   0.043   8.731 -1.7310 -0.7068  0.8851
 1372SOL    HW215576   3.807   0.006   8.620  1.6221 -0.0545 -0.8538
 1373SOL     OW15577   1.351   2.778   2.017  0.0810 -0.3588  0.2637
 1373SOL    HW115578   1.413   2.841   1.981  0.5087 -0.9686 -0.0690
 1373SOL    HW215579   1.360   2.696   1.969 -2.0578  0.3293 -1.3203
 1374SOL     OW15580   2.648   3.253   3.187 -0.1339  0.2173 -0.0613
 1374SOL    HW115581   2.584   3.189   3.218  0.8229 -0.7866 -0.1357
 1374SOL    HW215582   2.718   3.250   3.253 -0.2661 -1.2760  0.0056
 1375SOL     OW15583   2.986   2.568  12.597 -0.0881 -0.0398 -0.0163
 1375SOL    HW115584   2.983   2.606  12.510 -0.6110  0.6751  0.3174
 1375SOL    HW215585   2.969   2.474  12.590 -0.2226 -0.2185  2.5307
 1376SOL     OW15586   3.222   4.480  11.442 -0.2676 -0.3067 -0.1146
 1376SOL    HW115587   3.316   4.494  11.456 -0.4993 -0.9818  2.0009
 1376SOL    HW215588   3.217   4.417  11.370  3.0753  0.8550 -1.3839
 1377SOL     OW15589   0.618   3.069  15.849 -0.6194 -1.1707  0.3890
 1377SOL    HW115590   0.690   3.026  15.894  0.5330 -1.2780 -1.5850
 1377SOL    HW215591   0.548   3.004  15.845 -0.3032 -1.4378 -0.5800
 1378SOL     OW15592   1.485   0.086   9.104 -0.1019  0.9070 -0.4866
 1378SOL    HW115593   1.468   0.138   9.183 -0.9947 -1.3801  0.8102
 1378SOL    HW215594   1.556   0.139   9.067  1.1230 -0.3485  0.0656
 1379SOL     OW15595   1.901   0.195  16.348 -0.2660  0.0835 -0.2201
 1379SOL    HW115596   1.920   0.101  16.341  0.4246  0.2883 -1.0466
 1379SOL    HW215597   1.916   0.230  16.260  1.6953  1.7710  0.7987
 1380SOL     OW15598   1.201   0.931   3.258  0.3687 -0.1264 -0.2895
 1380SOL    HW115599   1.168   0.842   3.244 -1.6742  0.2522  2.0248
 1380SOL    HW215600   1.241   0.970   3.180 -1.3114  1.1656 -0.4987
 1381SOL     OW15601   2.734   1.805   4.640 -0.1878 -0.6697 -0.3043
 1381SOL    HW115602   2.732   1.721   4.594 -0.8259 -0.2057 -1.1373
 1381SOL    HW215603   2.823   1.832   4.617 -1.4980  1.8304 -2.4308
 1382SOL     OW15604   3.806   4.538   6.500 -0.1764 -0.0084 -0.0365
 1382SOL    HW115605   3.869   4.466   6.499  1.9709  1.8826  0.6597
 1382SOL    HW215606   3.793   4.536   6.594  1.4250  0.7922  0.1991
 1383SOL     OW15607   3.880   3.671   2.062  0.3603  0.7073 -0.1516
 1383SOL    HW115608   3.839   3.585   2.073 -1.4680  1.4237 -1.2869
 1383SOL    HW215609   3.970   3.644   2.082  0.0751  0.6311  1.0218
 1384SOL     OW15610   4.021   3.927   6.971 -0.1862  0.7388 -0.4824
 1384SOL    HW115611   3.995   3.937   6.879  1.0528  1.5951 -0.7371
 1384SOL    HW215612   3.959   3.981   7.020 -1.5304 -1.3151  0.1057
 1385SOL     OW15613   0.197   3.796   4.930  0.1787  0.5560 -0.1775
 1385SOL    HW115614   0.275   3.844   4.903 -2.9022  3.4434 -3.9573
 1385SOL    HW215615   0.179   3.833   5.016 -1.5990  2.9149 -1.5529
 1386SOL     OW15616   1.641   2.954  11.606  0.3904 -0.2156 -0.1420
 1386SOL    HW115617   1.602   2.944  11.693  0.0251  0.9457 -0.1743
 1386SOL    HW215618   1.714   3.013  11.620 -0.2429  0.1644  1.5478
 1387SOL     OW15619   4.457   3.658   8.566  0.0728 -0.0790 -0.3047
 1387SOL    HW115620   4.406   3.577   8.557  0.3730 -0.1557 -1.3436
 1387SOL    HW215621   4.399   3.706   8.626  2.0969  0.4026  1.2613
 1388SOL     OW15622   4.547   0.332   7.584  0.8400 -0.6069 -0.1475
 1388SOL    HW115623   4.468   0.313   7.534 -0.5090  0.8408  1.4489
 1388SOL    HW215624   4.565   0.421   7.552 -1.5861  0.1361  0.5192
 1389SOL     OW15625   3.444   0.855   7.100  0.4707 -0.7575  0.5511
 1389SOL    HW115626   3.350   0.866   7.086  1.4071  2.2082 -3.3726
 1389SOL    HW215627   3.482   0.890   7.020 -1.0345 -0.8282 -0.2018
 1390SOL     OW15628   4.498   2.232  12.139  0.3858  0.0067 -0.1120
 1390SOL    HW115629   4.427   2.210  12.079  0.4913  0.5083 -0.4233
 1390SOL    HW215630   4.528   2.319  12.112 -0.1787  0.3945  0.5181
 1391SOL     OW15631   4.304   2.996  10.100 -0.1539  0.9146 -0.0461
 1391SOL    HW115632   4.222   3.030  10.135  0.7429  3.4442 -0.4155
 1391SOL    HW215633   4.346   3.076  10.066 -0.3031  0.9972 -0.0348
 1392SOL     OW15634   3.095   3.745   3.997  0.4855 -0.4738  0.3368
 1392SOL    HW115635   3.087   3.698   4.080 -1.2162 -3.0983 -1.3176
 1392SOL    HW215636   3.188   3.766   4.003  0.5007 -0.4209 -0.0811
 1393SOL     OW15637   0.798   0.711   4.127 -0.5325  0.4343  0.0084
 1393SOL    HW115638   0.765   0.677   4.044 -0.7908  0.8201 -0.0458
 1393SOL    HW215639   0.721   0.706   4.183 -1.2524 -0.5664 -1.0715
 1394SOL     OW15640   4.405   3.262   8.793  0.0256  0.0154 -0.0046
 1394SOL    HW115641   4.434   3.284   8.881  0.9475 -1.7619  0.1476
 1394SOL    HW215642   4.384   3.169   8.801  1.1557 -0.1867  0.6436
 1395SOL     OW15643   3.857   2.518   7.121 -0.2328  0.2296  0.0058
 1395SOL    HW115644   3.929   2.507   7.183 -1.8844  0.8917  2.0591
 1395SOL    HW215645   3.789   2.458   7.150  0.6968  0.6902  3.0834
 1396SOL     OW15646   2.194   0.447   7.030 -1.0088  0.3337 -0.2430
 1396SOL    HW115647   2.114   0.491   7.003 -1.1680 -0.4320 -1.0240
 1396SOL    HW215648   2.258   0.509   6.994 -0.7290  0.6657  0.8320
 1397SOL     OW15649   0.570   0.558   7.537 -0.1367  0.5382  0.1800
 1397SOL    HW115650   0.536   0.551   7.448 -1.7054 -0.7544  0.8935
 1397SOL    HW215651   0.649   0.505   7.535  0.2318  1.1576 -2.1519
 1398SOL     OW15652   4.632   3.518  13.409 -0.6389 -0.4271 -0.0927
 1398SOL    HW115653   4.708   3.576  13.420 -0.7221 -0.4033  0.3679
 1398SOL    HW215654   4.588   3.537  13.492  0.1299  1.0774 -0.0076
 1399SOL     OW15655   4.599   1.201   3.300 -0.3292  0.0187 -0.0265
 1399SOL    HW115656   4.599   1.278   3.243  1.6517 -0.1292 -0.2195
 1399SOL    HW215657   4.525   1.218   3.358  1.3789  5.4454  0.5389
 1400SOL     OW15658   0.231   1.489   7.222 -0.3279  0.0749 -0.4664
 1400SOL    HW115659   0.153   1.519   7.175 -0.4224 -0.3807 -0.5956
 1400SOL    HW215660   0.303   1.550   7.205 -0.8140  0.7276 -0.1769
 1401SOL     OW15661   2.935   3.952   3.036 -0.2754 -0.6024 -0.2555
 1401SOL    HW115662   2.966   3.877   3.086  0.6985 -0.7174 -1.0275
 1401SOL    HW215663   2.987   3.943   2.956  0.3607 -0.6452  0.1675
 1402SOL     OW15664   3.283   0.982   8.200  0.0075  0.1302  0.0047
 1402SOL    HW115665   3.262   0.971   8.107 -0.3494  0.6689  0.0192
 1402SOL    HW215666   3.259   0.901   8.244  0.6547  0.2902  0.6595
 1403SOL     OW15667   2.877   2.787   0.353 -0.2348  0.9542 -0.0610
 1403SOL    HW115668   2.834   2.766   0.436 -1.3981  1.1188 -0.6303
 1403SOL    HW215669   2.806   2.785   0.290  1.3926  0.2177 -1.8554
 1404SOL     OW15670   0.613   0.872   1.652 -0.0817  0.0155  0.5032
 1404SOL    HW115671   0.545   0.925   1.693 -0.3394 -0.2974  0.4756
 1404SOL    HW215672   0.558   0.806   1.609  1.1469 -1.6421  1.4655
 1405SOL     OW15673   2.287   3.051   7.548 -0.4562 -0.0737  0.6381
 1405SOL    HW115674   2.363   3.067   7.603  1.2724 -0.8271 -1.5209
 1405SOL    HW215675   2.279   3.141   7.514 -0.1338  0.4528  1.9436
 1406SOL     OW15676   0.509   2.981   0.079 -0.5347  0.0134  0.0107
 1406SOL    HW115677   0.490   2.888   0.066 -4.0747  0.2353  3.3576
 1406SOL    HW215678   0.578   2.996   0.015  1.9756 -0.1706  2.6595
 1407SOL     OW15679   2.662   3.798   2.331 -0.3162  0.0265 -0.2686
 1407SOL    HW115680   2.586   3.779   2.386  0.9975 -1.5479  0.9997
 1407SOL    HW215681   2.701   3.870   2.380  0.8119 -0.9675  0.2889
 1408SOL     OW15682   0.500   4.056   2.157  0.9811 -0.3499  0.0827
 1408SOL    HW115683   0.565   4.074   2.089  2.2589 -1.4181  1.0099
 1408SOL    HW215684   0.457   3.978   2.122  0.0338 -0.4774  1.5074
 1409SOL     OW15685   4.015   4.200  13.294 -0.2205  0.1822  0.3009
 1409SOL    HW115686   4.092   4.183  13.347  0.4081 -0.2146 -0.7439
 1409SOL    HW215687   4.039   4.142  13.222  0.3049 -1.2661  1.6391
 1410SOL     OW15688   0.900   4.186  12.600 -0.3699 -0.1879 -0.6694
 1410SOL    HW115689   0.914   4.098  12.635 -1.3922  0.3687  1.1361
 1410SOL    HW215690   0.850   4.176  12.519  1.1568  0.5609 -1.7126
 1411SOL     OW15691   0.214   0.908  12.532 -0.1013 -0.2686  0.2385
 1411SOL    HW115692   0.274   0.835  12.518 -3.2236 -3.3249  2.9873
 1411SOL    HW215693   0.274   0.978  12.506  0.0024  0.1007  1.4644
 1412SOL     OW15694   3.069   1.485   5.288 -0.8618 -0.6200 -0.8960
 1412SOL    HW115695   3.114   1.412   5.331 -0.1399  0.6849  0.5451
 1412SOL    HW215696   2.996   1.495   5.350 -0.2534  2.8146 -0.7111
 1413SOL     OW15697   0.925   4.500   6.392  0.1967 -0.1904  0.5275
 1413SOL    HW115698   0.863   4.487   6.320  1.6808 -1.0696 -0.5858
 1413SOL    HW215699   0.983   4.424   6.380  0.1782 -0.1089 -0.0468
 1414SOL     OW15700   1.055   4.226   3.629  0.4740 -0.4419 -0.2257
 1414SOL    HW115701   1.101   4.309   3.619  1.8044 -1.2589 -0.8767
 1414SOL    HW215702   0.970   4.258   3.657  0.5424 -0.5468  0.1034
 1415SOL     OW15703   1.141   4.148   1.515  0.3848 -0.3233 -0.1760
 1415SOL    HW115704   1.076   4.183   1.576  0.0062 -0.5745 -0.4347
 1415SOL    HW215705   1.094   4.066   1.497  0.5055  0.1231 -2.4870
 1416SOL     OW15706   0.407   3.012  16.621  0.0152 -0.2597  0.2336
 1416SOL    HW115707   0.381   2.973  16.538 -0.8232  2.9606 -1.0351
 1416SOL    HW215708   0.498   3.001  16.648 -0.5638  1.0493  2.6900
 1417SOL     OW15709   0.788   2.663  13.128 -0.0008 -0.2019  0.8434
 1417SOL    HW115710   0.858   2.722  13.158 -0.6217  2.1213 -2.2759
 1417SOL    HW215711   0.718   2.728  13.131 -0.1086 -0.2525 -0.8114
 1418SOL     OW15712   2.831   3.131   5.832 -0.0436  0.4931 -0.5256
 1418SOL    HW115713   2.738   3.146   5.818 -0.2648  1.7416  2.3119
 1418SOL    HW215714   2.824   3.094   5.920  2.1503  1.6644  0.1430
 1419SOL     OW15715   3.607   0.393   8.158 -0.4692 -0.2602  0.3686
 1419SOL    HW115716   3.680   0.430   8.208 -0.1141  0.0549 -0.3779
 1419SOL    HW215717   3.622   0.300   8.174 -2.5040 -0.6374  0.0510
 1420SOL     OW15718   2.749   1.862   5.276  0.5219  0.2970 -0.0674
 1420SOL    HW115719   2.719   1.777   5.310 -0.1700  0.7161  0.3815
 1420SOL    HW215720   2.716   1.916   5.348 -1.1067 -2.1467  1.0176
 1421SOL     OW15721   1.788   0.587  17.672  0.2063  0.0747 -0.2253
 1421SOL    HW115722   1.771   0.535   0.068 -1.0284  0.7472 -0.0490
 1421SOL    HW215723   1.761   0.522  17.607 -0.6586 -0.2093  0.4179
 1422SOL     OW15724   2.601   0.553   2.881 -0.0385 -0.2009 -0.1004
 1422SOL    HW115725   2.637   0.603   2.808 -1.0593 -0.4222 -0.7481
 1422SOL    HW215726   2.661   0.577   2.952  0.7105  3.3113 -1.9358
 1423SOL     OW15727   3.517   2.289   7.186 -0.2879  0.5183  0.9133
 1423SOL    HW115728   3.573   2.215   7.209  0.5351  0.3555 -1.6261
 1423SOL    HW215729   3.530   2.343   7.264  0.2894  1.6255  0.0398
 1424SOL     OW15730   3.084   2.178   2.971 -0.3443 -0.1550  0.4584
 1424SOL    HW115731   3.132   2.111   3.019  0.1662 -1.0414 -1.2605
 1424SOL    HW215732   3.158   2.230   2.939 -1.6419  1.8288  0.6923
 1425SOL     OW15733   2.693   0.573  11.704 -0.0156 -0.1331 -0.1809
 1425SOL    HW115734   2.735   0.631  11.767 -0.2332  0.6584 -0.7526
 1425SOL    HW215735   2.740   0.491  11.716  0.4462 -0.0173 -1.1711
 1426SOL     OW15736   4.427   2.304   8.332 -0.2597 -0.4294  0.3036
 1426SOL    HW115737   4.379   2.299   8.415 -1.7838 -0.6365 -0.5891
 1426SOL    HW215738   4.471   2.383   8.364 -0.5484  0.9337 -2.7082
 1427SOL     OW15739   0.373   0.689  12.488 -0.4272  0.1159  0.7883
 1427SOL    HW115740   0.377   0.686  12.393 -0.6210 -1.9220  0.8387
 1427SOL    HW215741   0.465   0.700  12.511 -0.0358 -0.8181 -0.3368
 1428SOL     OW15742   2.704   1.591   3.800  0.4355  0.0910 -0.2211
 1428SOL    HW115743   2.609   1.602   3.801  0.5895  1.4873 -0.7319
 1428SOL    HW215744   2.711   1.539   3.720  0.5200 -0.8913  0.4272
 1429SOL     OW15745   2.944   3.132   3.897 -1.1541  0.1169 -0.2589
 1429SOL    HW115746   2.875   3.188   3.931 -1.0683  0.1946 -0.2114
 1429SOL    HW215747   2.917   3.134   3.806 -3.6056  0.8896  0.4968
 1430SOL     OW15748   3.015   2.768  10.754 -0.4024 -0.1154  0.6709
 1430SOL    HW115749   2.933   2.808  10.783 -1.5780 -2.0551 -0.0185
 1430SOL    HW215750   3.070   2.786  10.831 -0.5257 -1.1750  0.9985
 1431SOL     OW15751   2.725   1.625   7.473  0.3079 -0.0087  0.6253
 1431SOL    HW115752   2.638   1.611   7.434 -0.2283  0.9664  1.4622
 1431SOL    HW215753   2.702   1.642   7.565  0.9229 -0.6732  0.8995
 1432SOL     OW15754   0.131   0.582   1.119  0.4664  0.0549 -0.1075
 1432SOL    HW115755   0.044   0.587   1.158 -0.0747 -2.1486 -1.0121
 1432SOL    HW215756   0.184   0.622   1.188  1.6191 -2.3554  0.4058
 1433SOL     OW15757   1.303   1.959  11.336  0.6261 -0.4845 -0.0103
 1433SOL    HW115758   1.342   1.876  11.365 -2.2222 -0.8771  2.7436
 1433SOL    HW215759   1.289   1.940  11.244  1.3661 -3.4517  0.4879
 1434SOL     OW15760   3.556   0.963   5.023 -0.0529 -0.0316  0.6469
 1434SOL    HW115761   3.617   0.895   5.051  0.6554 -0.5627 -2.1789
 1434SOL    HW215762   3.572   1.037   5.081  2.8569  1.5462 -2.1565
 1435SOL     OW15763   0.624   3.774  16.156 -0.2005 -0.4848 -0.2003
 1435SOL    HW115764   0.554   3.784  16.221  0.0469  1.5178 -0.2566
 1435SOL    HW215765   0.682   3.847  16.176  0.0670 -0.7822  0.1014
 1436SOL     OW15766   0.003   2.559   5.859  0.7539  0.4190  0.5748
 1436SOL    HW115767   0.011   2.635   5.801 -0.6248  1.5077  1.8125
 1436SOL    HW215768   4.630   2.576   5.875  1.2824  1.9713  1.9367
 1437SOL     OW15769   2.271   1.641  11.385 -0.0909  0.4757  0.3237
 1437SOL    HW115770   2.228   1.581  11.447  1.0541  0.7401  1.3760
 1437SOL    HW215771   2.230   1.616  11.302  0.8257  2.0977 -0.6135
 1438SOL     OW15772   1.842   2.835  16.628 -0.2522 -0.7071  0.4696
 1438SOL    HW115773   1.882   2.852  16.543  0.5215  0.7636  1.1296
 1438SOL    HW215774   1.921   2.848  16.680 -0.1904  1.3163 -0.1133
 1439SOL     OW15775   0.441   0.004  13.167  0.4199 -0.2929 -0.8470
 1439SOL    HW115776   0.519   4.681  13.132  0.2920 -0.7754 -0.5353
 1439SOL    HW215777   0.430   0.068  13.097 -2.5459 -0.8318 -0.8773
 1440SOL     OW15778   0.430   1.085  13.082 -0.0774 -0.0729  0.3078
 1440SOL    HW115779   0.440   1.169  13.036 -3.0694  0.1563  0.0632
 1440SOL    HW215780   0.481   1.023  13.030  0.9659  0.7147  0.3899
 1441SOL     OW15781   0.785   0.800   7.498 -0.6322 -0.1578 -0.0242
 1441SOL    HW115782   0.694   0.789   7.524 -0.3060  1.0393  1.6411
 1441SOL    HW215783   0.822   0.713   7.517  2.8079  1.5180  0.8998
 1442SOL     OW15784   0.937   0.965  13.571 -0.2289  0.6369 -0.1932
 1442SOL    HW115785   0.936   0.991  13.479 -0.3623  1.0325 -0.0769
 1442SOL    HW215786   0.875   1.019  13.619  0.0194  0.1318  0.6928
 1443SOL     OW15787   3.100   1.371   4.897  0.0260 -0.3979  0.1122
 1443SOL    HW115788   3.075   1.417   4.817 -0.5448 -0.4230  0.2730
 1443SOL    HW215789   3.191   1.352   4.876  0.7306  0.5623  2.3619
 1444SOL     OW15790   3.892   1.711   5.629 -0.1170 -0.3817 -0.3770
 1444SOL    HW115791   3.892   1.692   5.536 -5.3690  0.2215 -0.4494
 1444SOL    HW215792   3.953   1.785   5.632  0.3983 -0.8249  0.1014
 1445SOL     OW15793   2.189   0.071   0.280  0.2027 -0.1460  0.0866
 1445SOL    HW115794   2.242   4.712   0.270  1.1412  0.4496  0.3990
 1445SOL    HW215795   2.197   0.082   0.374  1.9189  2.0392 -0.3177
 1446SOL     OW15796   4.218   2.733   5.916  0.5135 -0.0656 -0.2050
 1446SOL    HW115797   4.164   2.812   5.923 -0.0680 -0.5739  1.1051
 1446SOL    HW215798   4.172   2.706   5.837  0.1963  0.2240 -0.1225
 1447SOL     OW15799   3.622   3.070   2.419  0.6955 -0.0453 -0.3487
 1447SOL    HW115800   3.528   3.071   2.433  0.6822 -2.6220 -0.3046
 1447SOL    HW215801   3.631   3.103   2.330 -1.3038  0.6228 -0.3072
 1448SOL     OW15802   3.410   4.648   6.623 -0.0361  1.0189 -0.6098
 1448SOL    HW115803   3.461   4.672   6.545  2.0399 -1.6529 -0.0673
 1448SOL    HW215804   3.325   4.674   6.587 -0.9044 -1.8963 -0.6322
 1449SOL     OW15805   0.379   2.275   8.112  0.4982 -0.3197 -0.1994
 1449SOL    HW115806   0.326   2.210   8.065  0.6080 -1.9606  1.9814
 1449SOL    HW215807   0.321   2.349   8.097  0.8594 -0.2613 -1.3292
 1450SOL     OW15808   0.010   4.273  14.194  0.2375 -0.4624  0.2048
 1450SOL    HW115809   0.089   4.234  14.232 -0.4707 -1.4373  0.7167
 1450SOL    HW215810   0.017   4.363  14.226 -0.7437  0.2303 -1.5550
 1451SOL     OW15811   1.803   4.719   7.120  0.6155  0.0505 -0.7444
 1451SOL    HW115812   1.795   0.083   7.166 -0.6251 -0.3057 -0.3199
 1451SOL    HW215813   1.805   4.654   7.189  1.2446  0.4603 -0.3689
 1452SOL     OW15814   2.932   1.446   8.311 -0.2425  0.0238 -0.0256
 1452SOL    HW115815   2.921   1.373   8.372  3.6687 -0.9000 -0.4405
 1452SOL    HW215816   3.018   1.479   8.337 -0.4832  1.6062 -1.2499
 1453SOL     OW15817   0.478   1.731   0.538  0.4732  0.7536  0.1838
 1453SOL    HW115818   0.423   1.772   0.472  0.9969  0.1379 -0.6426
 1453SOL    HW215819   0.415   1.674   0.582 -0.0927  1.1141 -0.1653
 1454SOL     OW15820   3.974   0.011   6.753  0.3540 -0.0025 -0.4795
 1454SOL    HW115821   4.046   0.064   6.718 -0.4731  0.1539 -1.9654
 1454SOL    HW215822   4.001   4.643   6.728 -0.4869 -1.0071  2.1189
 1455SOL     OW15823   3.614   1.230   8.448  0.1400 -0.0787  0.1891
 1455SOL    HW115824   3.639   1.140   8.465 -0.6938 -0.7066 -1.9263
 1455SOL    HW215825   3.526   1.226   8.411  0.2427 -0.3431 -0.0270
 1456SOL     OW15826   3.342   1.798   2.936 -0.3216 -0.2318 -0.1535
 1456SOL    HW115827   3.365   1.740   3.009  2.2733 -1.0056 -1.5716
 1456SOL    HW215828   3.257   1.828   2.967 -0.3422 -1.6694  1.1894
 1457SOL     OW15829   0.176   1.163   6.574  0.8709 -0.1262  0.2099
 1457SOL    HW115830   0.084   1.188   6.567  1.4025  1.4537 -1.3906
 1457SOL    HW215831   0.206   1.187   6.662 -0.3024  2.7419 -0.1779
 1458SOL     OW15832   2.986   4.620   3.876 -0.1150  0.0024 -0.5353
 1458SOL    HW115833   3.053   4.606   3.944  0.1575 -1.2269 -1.0721
 1458SOL    HW215834   2.973   4.715   3.884  0.6043  0.0731 -0.1270
 1459SOL     OW15835   0.444   3.786   7.548  0.2718  0.5149 -0.6609
 1459SOL    HW115836   0.518   3.743   7.591  1.4516  2.3244 -0.8893
 1459SOL    HW215837   0.440   3.734   7.468 -0.7348  0.9114 -0.8637
 1460SOL     OW15838   1.340   3.809   6.435 -0.1526  0.0147 -0.3666
 1460SOL    HW115839   1.317   3.772   6.520  1.5812 -1.1072 -0.3873
 1460SOL    HW215840   1.340   3.727   6.386 -2.4677 -0.9686  1.3130
 1461SOL     OW15841   2.404   2.068   3.177 -0.8549 -0.1970 -0.4865
 1461SOL    HW115842   2.433   2.098   3.263 -1.8160 -0.5719 -0.0267
 1461SOL    HW215843   2.483   2.035   3.133 -0.6175  2.4954 -2.0863
 1462SOL     OW15844   3.061   1.889   7.630 -0.6319  0.2756  0.3314
 1462SOL    HW115845   3.156   1.897   7.642 -0.4407  0.3930 -1.1947
 1462SOL    HW215846   3.040   1.980   7.649 -1.9112 -0.0646  0.5416
 1463SOL     OW15847   4.714   3.058   3.884  0.3243 -0.2774 -0.0354
 1463SOL    HW115848   0.078   3.034   3.846 -0.2396 -1.0720 -0.7922
 1463SOL    HW215849   4.697   2.981   3.939  0.2914  0.2546  0.6894
 1464SOL     OW15850   3.328   0.528   0.937 -0.3140 -0.0548 -0.2467
 1464SOL    HW115851   3.268   0.568   0.874 -1.1565 -0.9327  0.0017
 1464SOL    HW215852   3.412   0.536   0.891 -0.8587 -1.0723 -1.4173
 1465SOL     OW15853   3.244   0.264   0.404  0.0449  0.1958  0.6717
 1465SOL    HW115854   3.159   0.283   0.364 -1.2492 -2.4538  2.1868
 1465SOL    HW215855   3.305   0.305   0.343 -0.9603 -1.6757 -1.5546
 1466SOL     OW15856   0.347   1.212   5.441  0.2032 -0.3459  0.6282
 1466SOL    HW115857   0.361   1.305   5.459  0.5759 -0.0789 -1.0705
 1466SOL    HW215858   0.253   1.208   5.456  0.0902 -1.5226 -0.4059
 1467SOL     OW15859   4.307   4.486   3.737 -0.3991  0.0062 -0.2764
 1467SOL    HW115860   4.321   4.581   3.732 -2.5480  0.3034 -0.8835
 1467SOL    HW215861   4.396   4.451   3.742 -1.6086 -3.1348 -1.0716
 1468SOL     OW15862   4.214   2.213   9.699  1.0582  0.1463 -0.4467
 1468SOL    HW115863   4.190   2.128   9.737 -3.4554  1.8857  0.5492
 1468SOL    HW215864   4.262   2.259   9.767  1.3183 -0.6202 -0.1029
 1469SOL     OW15865   1.628   1.009   3.264  0.5992  0.1414  0.7128
 1469SOL    HW115866   1.611   0.953   3.340 -0.0666 -1.8591 -0.8851
 1469SOL    HW215867   1.720   0.990   3.246  0.1612  0.0365 -1.5315
 1470SOL     OW15868   0.137   3.578   4.518  0.8008 -0.3446 -0.2415
 1470SOL    HW115869   0.116   3.493   4.557  0.2558 -1.1923 -2.3321
 1470SOL    HW215870   0.224   3.564   4.481  0.9774  0.6145 -0.1765
 1471SOL     OW15871   0.070   0.252   1.751 -0.2666 -0.3287 -0.5460
 1471SOL    HW115872   0.124   0.331   1.753  1.5182 -1.6209  1.9120
 1471SOL    HW215873   0.138   0.185   1.746  1.3995  1.3032  0.3347
 1472SOL     OW15874   3.107   0.074   7.547  0.1839 -0.1898  0.1752
 1472SOL    HW115875   3.153   0.095   7.628  0.0013 -0.2699  0.2993
 1472SOL    HW215876   3.176   0.070   7.481  1.7183 -0.3698  1.7931
 1473SOL     OW15877   1.004   2.641   6.647  0.4098 -0.0607  0.2271
 1473SOL    HW115878   1.056   2.658   6.569  0.2573  1.1057  0.3795
 1473SOL    HW215879   1.012   2.717   6.705  0.1852  0.5790 -0.5825
 1474SOL     OW15880   3.407   2.843   9.486 -0.2397 -0.3589  0.2831
 1474SOL    HW115881   3.472   2.843   9.415 -0.8024 -0.4872 -0.2332
 1474SOL    HW215882   3.377   2.752   9.482 -1.2858 -0.0798  1.9822
 1475SOL     OW15883   2.308   2.182   4.938 -0.6923  0.3483  0.2141
 1475SOL    HW115884   2.268   2.197   4.853  1.0823 -2.0812 -1.0374
 1475SOL    HW215885   2.353   2.099   4.924 -2.4848 -0.5638 -0.1609
 1476SOL     OW15886   1.921   0.868  14.360  0.3334 -0.3471  0.1098
 1476SOL    HW115887   1.844   0.813  14.346  0.4591  0.1958 -2.7961
 1476SOL    HW215888   1.887   0.951  14.393 -2.2051 -1.2505 -0.2140
 1477SOL     OW15889   3.938   1.665   4.971  0.2992  0.6252 -0.1164
 1477SOL    HW115890   3.848   1.694   4.987  0.5084  0.1471  1.9363
 1477SOL    HW215891   3.995   1.728   5.014 -0.2564  1.4481 -0.5866
 1478SOL     OW15892   2.629   2.447   6.394 -0.1853  0.1873  0.2776
 1478SOL    HW115893   2.590   2.527   6.427 -2.6706 -1.8664  2.3114
 1478SOL    HW215894   2.718   2.478   6.376 -0.8039  1.1538 -1.0952
 1479SOL     OW15895   2.086   3.849   5.921 -0.2679  0.8076 -0.5680
 1479SOL    HW115896   2.164   3.905   5.923 -0.1875  0.7151 -1.1714
 1479SOL    HW215897   2.091   3.818   5.830 -1.7976  1.7578 -0.9726
 1480SOL     OW15898   3.561   1.302   5.419  0.2392 -1.0758 -0.1071
 1480SOL    HW115899   3.606   1.330   5.340  0.9648  1.2775  1.1259
 1480SOL    HW215900   3.508   1.381   5.430 -0.7086 -2.0373  2.3812
 1481SOL     OW15901   3.928   2.954  16.627  0.1807  0.2200 -0.1941
 1481SOL    HW115902   3.953   3.040  16.595  0.1816  0.2456 -0.1239
 1481SOL    HW215903   3.983   2.943  16.704 -0.2125  2.5722  0.3996
 1482SOL     OW15904   1.135   3.950   5.131  0.3506  0.3245 -0.1465
 1482SOL    HW115905   1.197   3.888   5.169  1.2307  1.7335  0.6920
 1482SOL    HW215906   1.075   3.879   5.107 -0.3932  0.8806  0.0759
 1483SOL     OW15907   2.517   4.379   6.178  0.0544 -0.0301 -0.1827
 1483SOL    HW115908   2.432   4.388   6.135 -0.1742  1.4763  0.5868
 1483SOL    HW215909   2.580   4.433   6.130  0.4363 -0.0790  0.2654
 1484SOL     OW15910   2.400   1.402  10.448  0.1048  0.0110 -0.9557
 1484SOL    HW115911   2.330   1.351  10.406  2.0784 -2.3537 -1.3820
 1484SOL    HW215912   2.370   1.491  10.427 -2.2652 -0.3221  0.9860
 1485SOL     OW15913   2.267   3.848   3.478 -0.4082  0.7281 -0.1668
 1485SOL    HW115914   2.308   3.799   3.549  2.0383  1.9159 -0.7677
 1485SOL    HW215915   2.177   3.814   3.480  0.1436 -0.7311  0.2317
 1486SOL     OW15916   2.473   0.123   0.401 -0.2343  0.9749  0.1362
 1486SOL    HW115917   2.474   0.036   0.361 -1.3073  1.0397 -0.0400
 1486SOL    HW215918   2.428   0.178   0.337 -0.0083  0.0659 -0.7949
 1487SOL     OW15919   4.634   0.333   1.424  0.3997 -0.2250 -0.4528
 1487SOL    HW115920   4.574   0.347   1.498  0.6627  0.5193 -0.3766
 1487SOL    HW215921   4.713   0.381   1.445  1.0943 -1.5217 -0.1205
 1488SOL     OW15922   1.696   3.951   4.458  0.1960 -1.1020 -0.3896
 1488SOL    HW115923   1.777   3.972   4.410  1.1522 -0.9927  1.2910
 1488SOL    HW215924   1.639   3.936   4.382  1.0296  0.0479 -1.2482
 1489SOL     OW15925   1.839   2.978   6.596  0.0810  0.2076  0.2408
 1489SOL    HW115926   1.771   3.032   6.557 -0.8382 -0.6311  0.6682
 1489SOL    HW215927   1.800   2.891   6.586 -0.5722  0.8193 -2.5192
 1490SOL     OW15928   2.170   2.913   4.516 -0.0700 -0.2514  0.2276
 1490SOL    HW115929   2.082   2.933   4.548 -0.2727  1.2521 -1.2972
 1490SOL    HW215930   2.228   2.956   4.578 -0.7092  1.7301 -0.5599
 1491SOL     OW15931   4.533   1.260   7.912 -0.1194  0.1331  0.0199
 1491SOL    HW115932   4.579   1.336   7.878 -0.0188  1.1042  2.3287
 1491SOL    HW215933   4.611   1.206   7.921 -1.1955 -2.0777 -3.8227
 1492SOL     OW15934   1.736   3.713   3.724 -0.1014 -0.0754 -0.2313
 1492SOL    HW115935   1.736   3.745   3.814 -0.9537  0.0236 -0.2631
 1492SOL    HW215936   1.695   3.791   3.687 -0.3598  0.1868  0.6136
 1493SOL     OW15937   3.588   1.450  12.332  0.8741  0.2646 -0.3891
 1493SOL    HW115938   3.610   1.534  12.292  0.6584  1.1667  1.4137
 1493SOL    HW215939   3.511   1.425  12.280  0.2564 -0.3400  0.8087
 1494SOL     OW15940   4.263   1.562   3.052 -0.5911 -0.1751  0.5926
 1494SOL    HW115941   4.188   1.613   3.022 -1.0234  0.4679  2.7955
 1494SOL    HW215942   4.333   1.606   3.003 -1.2447 -0.6628 -0.7891
 1495SOL     OW15943   2.402   0.135   2.988  0.4349  0.0336 -0.0040
 1495SOL    HW115944   2.387   0.163   3.078  0.3698 -0.7546  0.2303
 1495SOL    HW215945   2.466   0.064   2.999  0.9407  0.4595 -0.1837
 1496SOL     OW15946   4.110   1.728  11.354 -0.5804  0.3665 -0.4069
 1496SOL    HW115947   4.058   1.770  11.285 -0.7449 -2.1232 -1.7981
 1496SOL    HW215948   4.053   1.652  11.371 -0.3588 -0.6079 -4.1788
 1497SOL     OW15949   4.090   4.417   8.316 -0.3830  0.0944 -1.1645
 1497SOL    HW115950   4.078   4.337   8.367 -4.2805  0.1331 -2.0247
 1497SOL    HW215951   4.137   4.474   8.376 -0.4009 -0.7872 -0.3051
 1498SOL     OW15952   0.880   0.480   2.459  0.2148  0.0052 -0.7322
 1498SOL    HW115953   0.894   0.508   2.550 -0.2532 -1.8986 -0.0738
 1498SOL    HW215954   0.862   0.567   2.422  0.2392  0.3155 -0.0308
 1499SOL     OW15955   4.490   3.176   9.054 -0.0012  0.2960 -0.5470
 1499SOL    HW115956   4.470   3.090   9.091  2.1198 -1.2107 -2.9509
 1499SOL    HW215957   4.584   3.179   9.038  0.0926  2.0283  0.2256
 1500SOL     OW15958   2.632   0.160   1.964 -0.1553  0.2306  0.0035
 1500SOL    HW115959   2.597   0.120   1.884 -0.7367 -0.1699  0.4606
 1500SOL    HW215960   2.724   0.147   1.942 -0.2030 -2.0347  1.1437
 1501SOL     OW15961   2.735   3.129   9.011 -0.4194 -0.0071 -0.1102
 1501SOL    HW115962   2.717   3.174   8.928 -1.0438  0.8899  0.5007
 1501SOL    HW215963   2.823   3.161   9.029  0.2993 -1.4546 -1.0642
 1502SOL     OW15964   3.132   1.094   0.393  0.3142  0.3266  0.0772
 1502SOL    HW115965   3.150   1.154   0.466  1.1860 -0.1121  0.2191
 1502SOL    HW215966   3.088   1.025   0.442  1.8348 -1.6616 -1.4125
 1503SOL     OW15967   0.195   0.326   6.216  0.1834  0.3499 -0.2759
 1503SOL    HW115968   0.161   0.237   6.222  2.6487 -0.4576  1.7954
 1503SOL    HW215969   0.277   0.319   6.168  1.0885 -2.0404  1.6429
 1504SOL     OW15970   0.279   2.501   0.436  0.6721 -0.1961  0.0230
 1504SOL    HW115971   0.241   2.438   0.497  0.6369 -1.8854 -1.7389
 1504SOL    HW215972   0.205   2.561   0.431 -0.3032 -1.2864  1.3610
 1505SOL     OW15973   0.566   4.238   8.137  0.1651 -0.2072 -0.1701
 1505SOL    HW115974   0.562   4.327   8.170  1.5807  0.0866 -0.7981
 1505SOL    HW215975   0.471   4.225   8.139  0.0875  0.7983  3.0001
 1506SOL     OW15976   0.907   0.065   2.982 -0.0574  0.2288  0.1886
 1506SOL    HW115977   0.862   4.702   2.994  2.0273 -0.8363  0.6927
 1506SOL    HW215978   0.948   0.049   2.897 -0.8701 -0.6761 -0.0221
 1507SOL     OW15979   1.242   1.936   5.154 -0.0931  0.5015 -0.1665
 1507SOL    HW115980   1.190   2.012   5.127 -0.4067  0.0780 -0.7786
 1507SOL    HW215981   1.180   1.866   5.133 -0.4319 -0.0089  2.5556
 1508SOL     OW15982   3.734   4.216   4.695 -0.8635  0.1279 -0.5059
 1508SOL    HW115983   3.778   4.141   4.653 -1.6556  0.2963 -1.6362
 1508SOL    HW215984   3.645   4.204   4.661 -0.9347 -0.4629 -0.1134
 1509SOL     OW15985   1.633   2.475   8.026 -0.3268  0.6844 -0.2330
 1509SOL    HW115986   1.623   2.405   8.090  1.4708  1.9864  1.4849
 1509SOL    HW215987   1.610   2.549   8.084 -0.1845  0.7098 -0.2086
 1510SOL     OW15988   0.627   1.361   4.198 -0.2614 -0.9116 -0.0857
 1510SOL    HW115989   0.555   1.320   4.246 -1.3965  1.6649  0.4348
 1510SOL    HW215990   0.675   1.409   4.265  2.8001 -2.0595 -1.4597
 1511SOL     OW15991   0.528   1.067   9.249  0.1810  0.3808  0.5328
 1511SOL    HW115992   0.507   0.982   9.288 -2.9766  1.3684  0.9969
 1511SOL    HW215993   0.498   1.120   9.323 -0.5965 -0.3247  0.7176
 1512SOL     OW15994   1.955   2.908  10.485 -0.2330  0.3323  0.4540
 1512SOL    HW115995   1.913   2.926  10.401 -1.2958 -0.0285  0.9150
 1512SOL    HW215996   1.923   2.826  10.523 -1.5374 -0.0294 -1.4409
 1513SOL     OW15997   4.117   3.055  13.162 -0.1525  0.0312 -0.0928
 1513SOL    HW115998   4.048   3.013  13.110  0.2267  1.2407 -1.5556
 1513SOL    HW215999   4.064   3.062  13.241 -0.6348 -1.1233 -0.3063
 1514SOL     OW16000   2.975   3.114   8.296  0.1832 -0.0841 -0.1819
 1514SOL    HW116001   2.978   3.138   8.388 -0.5754 -0.5951 -0.0271
 1514SOL    HW216002   3.057   3.065   8.288  0.3764  0.1785  0.1764
 1515SOL     OW16003   0.262   3.041   2.321 -0.2673  0.3486  1.1821
 1515SOL    HW116004   0.177   3.052   2.365 -0.3953 -0.3993  1.1200
 1515SOL    HW216005   0.259   2.948   2.297  1.3888  0.2608  1.3193
 1516SOL     OW16006   4.334   0.021   3.738 -0.2134  0.2391  0.3979
 1516SOL    HW116007   4.420   0.048   3.770  0.3592 -1.7386  0.5186
 1516SOL    HW216008   4.340   0.071   3.657  1.3912 -0.2967  0.1979
 1517SOL     OW16009   1.203   3.735  10.265  0.2527 -0.0843  0.3755
 1517SOL    HW116010   1.185   3.788  10.188 -2.8294 -0.4942  0.8187
 1517SOL    HW216011   1.247   3.803  10.317 -0.8251  1.1864 -0.3673
 1518SOL     OW16012   0.148   3.823   4.651 -0.4901  0.5781  0.2190
 1518SOL    HW116013   0.137   3.822   4.746 -0.5718 -0.5959  0.1955
 1518SOL    HW216014   0.144   3.729   4.632 -0.7751  0.2225  2.0196
 1519SOL     OW16015   1.742   1.746  11.156 -0.2026  0.3942  0.5645
 1519SOL    HW116016   1.702   1.660  11.146 -1.1459  0.4825  3.5921
 1519SOL    HW216017   1.833   1.724  11.134 -0.7711  0.3773 -1.7514
 1520SOL     OW16018   3.695   3.111   8.694  0.2951 -0.0581 -0.7117
 1520SOL    HW116019   3.627   3.132   8.758  1.1226 -1.8645  0.7328
 1520SOL    HW216020   3.714   3.018   8.700  3.2855  0.5886  0.0762
 1521SOL     OW16021   4.173   0.718   8.169  0.0061 -0.7456  0.3361
 1521SOL    HW116022   4.137   0.651   8.227 -0.2112  1.3464  2.5937
 1521SOL    HW216023   4.113   0.792   8.167 -1.6348 -2.0724  0.8602
 1522SOL     OW16024   0.818   1.239  10.594 -0.1607  0.3679 -0.2573
 1522SOL    HW116025   0.821   1.252  10.499 -1.6194  0.3011 -0.3163
 1522SOL    HW216026   0.812   1.330  10.624  1.0326 -0.1486  1.5343
 1523SOL     OW16027   3.975   0.206   2.339  0.5037 -0.0079  0.7577
 1523SOL    HW116028   4.039   0.136   2.344  1.0280  0.4312  0.2218
 1523SOL    HW216029   4.013   0.272   2.282  0.1859 -0.3331  0.1680
 1524SOL     OW16030   1.871   1.780   6.051  0.2934 -0.9244  0.3529
 1524SOL    HW116031   1.776   1.784   6.063  0.1879 -2.0302 -0.1100
 1524SOL    HW216032   1.895   1.868   6.079 -1.6200 -0.2503 -0.1447
 1525SOL     OW16033   0.802   4.272   2.646 -0.1383  0.2465  0.6678
 1525SOL    HW116034   0.869   4.340   2.639 -1.1722  1.2312  0.4304
 1525SOL    HW216035   0.787   4.244   2.556 -0.3350 -0.5080  0.9370
 1526SOL     OW16036   1.094   3.214   4.207  0.6607 -0.4437  0.1954
 1526SOL    HW116037   1.078   3.128   4.245  1.1434  0.5213  2.5691
 1526SOL    HW216038   1.156   3.193   4.137  1.2584 -1.6662  1.0900
 1527SOL     OW16039   0.493   4.211   3.978 -0.1876  0.3665  0.3170
 1527SOL    HW116040   0.407   4.198   3.938 -0.6796 -0.4283  1.6480
 1527SOL    HW216041   0.482   4.285   4.037  1.3496 -0.2233  1.3470
 1528SOL     OW16042   2.045   0.110  16.742 -0.1169 -0.1323  0.2144
 1528SOL    HW116043   2.012   0.054  16.672 -1.1699  1.5787 -0.6382
 1528SOL    HW216044   2.134   0.074  16.750 -0.7653 -1.5065  1.1884
 1529SOL     OW16045   2.836   0.238   8.518  0.4518  0.0596  0.0244
 1529SOL    HW116046   2.775   0.304   8.484  0.4892  1.1952  2.1227
 1529SOL    HW216047   2.882   0.294   8.581  1.5746 -1.2428  0.3433
 1530SOL     OW16048   0.580   0.965   6.589 -0.0206  0.0542  0.2409
 1530SOL    HW116049   0.578   1.046   6.537  1.8740  0.9253  1.5096
 1530SOL    HW216050   0.486   0.946   6.581  0.2204 -0.9016 -0.2955
 1531SOL     OW16051   2.806   4.223   8.507  0.2532 -0.2030  0.2292
 1531SOL    HW116052   2.880   4.172   8.472  0.4357 -0.5613  1.1458
 1531SOL    HW216053   2.742   4.221   8.435 -0.1927 -1.9675  0.6787
 1532SOL     OW16054   4.380   4.165  17.002 -0.1665  0.0083  0.0020
 1532SOL    HW116055   4.392   4.260  16.991  0.0662  0.1346  1.3595
 1532SOL    HW216056   4.448   4.139  17.063  1.4267  0.7044 -1.4890
 1533SOL     OW16057   3.161   3.766   8.207  0.8109  0.5181 -0.1544
 1533SOL    HW116058   3.082   3.717   8.183 -0.4039  2.0497  0.7327
 1533SOL    HW216059   3.227   3.732   8.147  0.9337 -0.8723  0.7504
 1534SOL     OW16060   0.423   2.323   7.507  0.4674  0.1861  0.4001
 1534SOL    HW116061   0.414   2.416   7.484  1.1556  0.7763  2.5083
 1534SOL    HW216062   0.469   2.333   7.590  1.5838 -2.1218  0.0435
 1535SOL     OW16063   0.646   2.282  17.383  0.3467 -0.0804 -0.1880
 1535SOL    HW116064   0.625   2.335  17.306 -0.0755  1.2557  0.8618
 1535SOL    HW216065   0.566   2.286  17.435  0.8442 -1.3136  0.6764
 1536SOL     OW16066   2.897   0.383   8.731  0.0296 -0.4253  0.5782
 1536SOL    HW116067   2.943   0.404   8.812  2.9497  2.2410 -1.7636
 1536SOL    HW216068   2.826   0.444   8.748  0.2885  0.6041 -2.0301
 1537SOL     OW16069   3.840   4.241  17.458  0.0718 -0.2421  0.5217
 1537SOL    HW116070   3.926   4.277  17.438 -0.8643  1.5758 -0.2221
 1537SOL    HW216071   3.800   4.306  17.516 -0.2972 -0.4270  0.4793
 1538SOL     OW16072   0.425   3.025   6.317 -0.4017 -0.2088 -0.3049
 1538SOL    HW116073   0.496   3.005   6.378 -2.6989 -0.2491  2.3239
 1538SOL    HW216074   0.363   2.953   6.332  0.8452 -1.1488  0.4164
 1539SOL     OW16075   2.858   4.692   1.488 -0.1212  0.0362  0.4475
 1539SOL    HW116076   2.830   4.628   1.554  1.2086 -0.1360  0.8616
 1539SOL    HW216077   2.862   0.059   1.530 -1.4171 -0.4495  1.5673
 1540SOL     OW16078   0.975   1.934   6.189 -1.0256 -0.5703  0.2507
 1540SOL    HW116079   0.936   1.955   6.104  0.2733  1.8562  0.2474
 1540SOL    HW216080   0.984   2.021   6.228  0.8224 -1.7990  2.5042
 1541SOL     OW16081   2.177   0.164   9.526  0.4710  0.1636  0.3959
 1541SOL    HW116082   2.254   0.170   9.470 -0.3620 -2.2891 -1.0209
 1541SOL    HW216083   2.142   0.253   9.528 -1.4928 -0.5774 -0.4093
 1542SOL     OW16084   4.457   4.219   3.184  0.0971  0.2197 -0.0553
 1542SOL    HW116085   4.426   4.167   3.109  0.4269  0.7070 -0.5261
 1542SOL    HW216086   4.538   4.170   3.199  0.2240  0.3461 -0.3399
 1543SOL     OW16087   3.369   4.523   1.068  0.7804  0.1117 -0.0867
 1543SOL    HW116088   3.406   4.459   1.006 -1.2492 -1.6563  0.5154
 1543SOL    HW216089   3.425   4.598   1.049  0.8629  0.5228  1.7854
 1544SOL     OW16090   4.051   1.115   6.730  0.1562  0.6238  0.3792
 1544SOL    HW116091   4.141   1.101   6.702  0.1156  1.1932 -0.0460
 1544SOL    HW216092   4.011   1.121   6.643 -2.0682 -0.8650  1.3178
 1545SOL     OW16093   3.091   0.285   1.401  0.4887 -0.0147  0.4520
 1545SOL    HW116094   3.142   0.218   1.446  0.4055 -0.7317 -0.5202
 1545SOL    HW216095   3.163   0.330   1.355  1.0279 -1.9809 -0.6127
 1546SOL     OW16096   1.017   0.875   7.333  0.5404 -0.3868 -0.1865
 1546SOL    HW116097   0.932   0.894   7.372 -0.1717  0.6697 -2.2179
 1546SOL    HW216098   1.053   0.963   7.328  1.0859 -0.6562 -1.1441
 1547SOL     OW16099   0.424   3.347   8.319 -0.2819 -0.0201  0.2860
 1547SOL    HW116100   0.398   3.399   8.243 -1.2764  0.2177  0.7998
 1547SOL    HW216101   0.340   3.332   8.361 -2.3006 -0.1923 -3.7594
 1548SOL     OW16102   4.227   0.357   4.521 -0.5106  0.0428  0.1117
 1548SOL    HW116103   4.274   0.274   4.517  1.8501  1.4118 -0.7077
 1548SOL    HW216104   4.172   0.344   4.598 -0.0738 -0.2841  0.3671
 1549SOL     OW16105   3.432   1.565   4.185 -0.4589  0.2707  0.1126
 1549SOL    HW116106   3.427   1.643   4.130  1.2704  1.0554  1.0796
 1549SOL    HW216107   3.462   1.506   4.115 -0.4602 -0.1078  0.4310
 1550SOL     OW16108   0.697   1.384   5.236  0.1460 -0.3536 -0.0060
 1550SOL    HW116109   0.744   1.334   5.170  1.6211  1.5751 -0.4495
 1550SOL    HW216110   0.751   1.366   5.314  1.2766  0.0462 -0.6931
 1551SOL     OW16111   3.716   0.480   5.887 -0.1968  0.1862 -0.1731
 1551SOL    HW116112   3.658   0.406   5.870 -1.9802  1.3937  0.6215
 1551SOL    HW216113   3.666   0.525   5.955 -0.8093 -1.3927  0.4187
 1552SOL     OW16114   1.950   1.186   2.953 -0.1494  0.5041 -0.2539
 1552SOL    HW116115   2.000   1.231   2.884 -2.5140  1.6594 -1.2028
 1552SOL    HW216116   2.015   1.145   3.012  0.3550 -0.3239 -1.3873
 1553SOL     OW16117   2.967   1.461   3.573  0.2738  0.2219 -0.5730
 1553SOL    HW116118   2.964   1.368   3.549 -0.6570  0.4404 -1.2963
 1553SOL    HW216119   2.992   1.461   3.665 -3.9058 -1.8139  0.5274
 1554SOL     OW16120   2.004   4.447   1.122  0.1438  0.2745 -0.3637
 1554SOL    HW116121   1.933   4.397   1.081  0.2102  0.0755 -0.2380
 1554SOL    HW216122   2.056   4.454   1.042  0.3453 -2.0447 -0.4315
 1555SOL     OW16123   1.715   2.865   8.528 -0.1202  0.6653  0.2976
 1555SOL    HW116124   1.732   2.827   8.614 -3.6285 -0.8473  0.3251
 1555SOL    HW216125   1.797   2.849   8.480 -0.7338 -0.6348 -0.2968
 1556SOL     OW16126   4.264   3.709   1.331  0.0564 -0.4709  0.0344
 1556SOL    HW116127   4.282   3.798   1.361  1.1611 -0.3636 -0.9188
 1556SOL    HW216128   4.189   3.680   1.382 -0.9840 -0.5494 -1.5394
 1557SOL     OW16129   0.499   0.861   9.469 -0.0427  0.1121 -0.2703
 1557SOL    HW116130   0.414   0.824   9.446 -0.2324  0.1412  0.3933
 1557SOL    HW216131   0.536   0.786   9.515 -0.1181  0.4088  0.2701
 1558SOL     OW16132   0.089   1.606  15.895 -0.2696  0.5356 -0.3271
 1558SOL    HW116133   0.067   1.640  15.809  0.4493  1.8892  0.0106
 1558SOL    HW216134   0.008   1.629  15.939  0.7958  1.4185  1.1876
 1559SOL     OW16135   1.024   4.427   2.627  0.2044 -0.4996  0.4905
 1559SOL    HW116136   1.120   4.429   2.627  0.1842 -0.1787  3.1258
 1559SOL    HW216137   1.009   4.425   2.532  0.1711 -0.0298  0.4844
 1560SOL     OW16138   0.996   2.915   6.281  0.6706  0.3327  0.0210
 1560SOL    HW116139   0.968   2.824   6.268 -1.5660  1.2379 -1.5032
 1560SOL    HW216140   1.092   2.913   6.275  0.6679  0.5507 -0.0934
 1561SOL     OW16141   2.042   4.202  11.567 -0.0158  0.2571 -0.0152
 1561SOL    HW116142   2.122   4.254  11.581 -1.7252  2.9373 -0.1713
 1561SOL    HW216143   2.068   4.118  11.604 -1.1243  0.3507  0.9627
 1562SOL     OW16144   4.176   4.017   4.995  0.4412  0.1964 -0.9080
 1562SOL    HW116145   4.196   4.103   4.958 -0.8042  0.6508 -0.5212
 1562SOL    HW216146   4.091   4.005   4.953  0.6699  2.6036 -2.0301
 1563SOL     OW16147   0.380   2.446  10.832 -0.0824  0.1246  0.2989
 1563SOL    HW116148   0.465   2.432  10.791  0.9665  1.6542  1.9353
 1563SOL    HW216149   0.364   2.366  10.882 -1.1496 -1.2699 -2.2368
 1564SOL     OW16150   2.322   3.004   9.191  0.5522 -0.2093  0.1199
 1564SOL    HW116151   2.366   2.990   9.275  2.1434  1.6109 -0.4204
 1564SOL    HW216152   2.248   3.061   9.211  0.1283 -1.1631  1.2878
 1565SOL     OW16153   4.274   2.103   7.671  0.6472  0.4492 -0.0668
 1565SOL    HW116154   4.287   2.060   7.755 -1.3834 -1.4784 -0.7324
 1565SOL    HW216155   4.353   2.072   7.626 -0.0841 -0.5366 -0.6807
 1566SOL     OW16156   4.132   4.719   2.450 -0.1271 -0.3982 -0.3350
 1566SOL    HW116157   4.172   4.633   2.463 -3.0872 -1.7068  0.0415
 1566SOL    HW216158   4.215   0.045   2.437  0.2868 -0.8219  0.7661
 1567SOL     OW16159   1.398   3.195   1.356 -0.2864  0.0493  0.7811
 1567SOL    HW116160   1.402   3.279   1.310  0.3192 -1.6166 -2.1970
 1567SOL    HW216161   1.388   3.136   1.282  1.2491  3.3764 -2.0812
 1568SOL     OW16162   0.317   2.578   7.457  0.2978  0.2746 -0.6530
 1568SOL    HW116163   0.290   2.572   7.366  1.0558  1.8996 -0.9911
 1568SOL    HW216164   0.228   2.592   7.488  1.1205  0.3615  1.6643
 1569SOL     OW16165   1.747   4.214   3.472 -0.1454  0.0567 -0.0913
 1569SOL    HW116166   1.802   4.217   3.550 -0.9480 -1.9704  0.5768
 1569SOL    HW216167   1.799   4.233   3.394  1.5750  1.1971  1.3620
 1570SOL     OW16168   1.510   3.984   9.141  0.6485  0.5879 -0.6817
 1570SOL    HW116169   1.503   3.961   9.049 -0.5689 -1.3792 -0.1036
 1570SOL    HW216170   1.448   4.057   9.142  0.3487  0.3257  0.1906
 1571SOL     OW16171   1.487   0.672  15.290 -0.1828  0.4245 -0.3141
 1571SOL    HW116172   1.565   0.672  15.234 -1.5198  2.0380 -2.1736
 1571SOL    HW216173   1.469   0.578  15.284  0.0114  0.4003 -0.5310
 1572SOL     OW16174   3.423   0.391   1.237  0.1145  1.0561 -0.0677
 1572SOL    HW116175   3.474   0.344   1.302 -1.2416 -0.4984 -0.1250
 1572SOL    HW216176   3.460   0.479   1.241 -0.1312  1.1283  0.6632
 1573SOL     OW16177   0.739   2.358   5.580  0.2048 -0.3414 -0.3084
 1573SOL    HW116178   0.661   2.346   5.526 -0.9604 -0.8972  1.4761
 1573SOL    HW216179   0.787   2.409   5.515 -1.1037  0.1229 -0.9253
 1574SOL     OW16180   1.399   3.386  11.818  0.0174 -0.7065 -0.1432
 1574SOL    HW116181   1.447   3.414  11.741  1.1129  0.9425  1.1183
 1574SOL    HW216182   1.340   3.462  11.813  0.6162 -0.3224 -1.2642
 1575SOL     OW16183   2.006   1.625  13.128  0.1534 -0.0667 -0.2053
 1575SOL    HW116184   1.931   1.686  13.125  0.5060  0.3772 -0.0052
 1575SOL    HW216185   1.981   1.553  13.070  1.5488 -1.0073  0.3902
 1576SOL     OW16186   0.627   1.289  15.907  0.4940 -0.4483  0.2327
 1576SOL    HW116187   0.678   1.209  15.890  0.4785 -0.0091 -1.7685
 1576SOL    HW216188   0.693   1.357  15.899 -0.7405  0.4617 -1.9886
 1577SOL     OW16189   0.241   2.798   2.739  0.1520 -0.2995 -0.3796
 1577SOL    HW116190   0.261   2.890   2.759  1.4689 -0.9993  1.5297
 1577SOL    HW216191   0.147   2.806   2.722 -0.4962 -0.8219  2.9921
 1578SOL     OW16192   0.829   1.376   5.482 -0.2114  0.0606 -0.3686
 1578SOL    HW116193   0.778   1.363   5.562 -0.7233 -1.6091 -0.9712
 1578SOL    HW216194   0.919   1.367   5.512  0.6034  0.5684 -2.6237
 1579SOL     OW16195   3.277   3.781  17.401 -0.5110  0.3073  0.1549
 1579SOL    HW116196   3.210   3.772  17.333  0.2990  0.8219 -0.7150
 1579SOL    HW216197   3.316   3.693  17.397 -0.3227  0.4145 -0.3843
 1580SOL     OW16198   3.058   0.490   8.973 -0.7787  0.4493 -0.2608
 1580SOL    HW116199   3.025   0.477   9.062 -0.0785 -0.2972 -0.1043
 1580SOL    HW216200   3.004   0.562   8.942  0.4631  0.8951 -1.4028
 1581SOL     OW16201   4.542   3.910   2.383  0.2384  0.2489 -0.5205
 1581SOL    HW116202   4.513   3.861   2.306 -1.4366 -1.6670  1.3268
 1581SOL    HW216203   4.637   3.906   2.380  0.1859  0.1811 -1.8289
 1582SOL     OW16204   2.181   0.584  14.108 -0.3670 -0.1483  0.4886
 1582SOL    HW116205   2.189   0.570  14.203  0.8740  1.8219  0.6749
 1582SOL    HW216206   2.103   0.542  14.071 -0.4895 -1.6766  2.4254
 1583SOL     OW16207   0.725   0.647  14.815  0.2060  0.8109  0.1546
 1583SOL    HW116208   0.754   0.691  14.895  1.3453 -0.9873  0.7515
 1583SOL    HW216209   0.631   0.649  14.827  0.3962 -1.6670  2.0686
 1584SOL     OW16210   4.052   1.782   3.935 -0.0345 -0.5153 -0.3429
 1584SOL    HW116211   3.970   1.734   3.946  0.9543 -2.1100  0.0911
 1584SOL    HW216212   4.025   1.866   3.973  1.5716 -1.3288  2.6354
 1585SOL     OW16213   0.407   1.480   5.501  0.5379  0.4671 -0.5298
 1585SOL    HW116214   0.419   1.505   5.593  0.0473  0.6770 -0.5246
 1585SOL    HW216215   0.461   1.542   5.452 -0.3589  0.7613 -1.1456
 1586SOL     OW16216   1.926   4.492   2.444  0.3579 -0.2769  0.4698
 1586SOL    HW116217   1.854   4.536   2.491  0.1154 -1.4679  1.2445
 1586SOL    HW216218   1.962   4.563   2.392  0.2910 -0.7469 -0.2082
 1587SOL     OW16219   2.431   0.987   9.080 -0.1697  0.4297  0.6896
 1587SOL    HW116220   2.379   0.934   9.140 -1.6790  2.0494  0.7986
 1587SOL    HW216221   2.519   0.975   9.115 -0.5013  0.4391  1.5203
 1588SOL     OW16222   0.077   1.113   5.409  0.1952  0.8178 -0.2166
 1588SOL    HW116223   4.708   1.121   5.372 -0.6170 -1.8770  1.2088
 1588SOL    HW216224   0.117   1.041   5.362 -0.9144 -1.4809  2.3978
 1589SOL     OW16225   1.656   2.249   5.109  0.0175  0.7403 -0.3091
 1589SOL    HW116226   1.735   2.211   5.148 -1.8033 -2.6568  0.0633
 1589SOL    HW216227   1.695   2.267   5.024  0.1276  0.1411 -0.3850
 1590SOL     OW16228   0.402   0.907   4.506 -0.0028 -0.4151  0.0208
 1590SOL    HW116229   0.379   0.819   4.538  1.6544 -0.2189  1.7052
 1590SOL    HW216230   0.361   0.967   4.568  1.0394 -0.2879  0.5685
 1591SOL     OW16231   3.900   4.494   1.273 -0.0003  0.3781  0.2978
 1591SOL    HW116232   3.908   4.488   1.368  2.1257 -1.1048  0.0249
 1591SOL    HW216233   3.814   4.535   1.265  0.6008  1.4473 -0.6571
 1592SOL     OW16234   1.687   4.712   9.419 -0.2737 -0.3229 -0.0074
 1592SOL    HW116235   1.718   4.668   9.340 -1.0872 -0.6128 -0.1571
 1592SOL    HW216236   1.771   0.006   9.465 -1.9502  1.6435  2.4651
 1593SOL     OW16237   4.625   4.096   2.997 -0.4952  0.1954  0.2662
 1593SOL    HW116238   4.651   4.188   3.005  0.8025 -0.1193 -0.4095
 1593SOL    HW216239   4.707   4.064   2.959 -0.3062 -1.0156  1.6934
 1594SOL     OW16240   1.961   4.711   3.512 -0.1040 -0.3335  0.0414
 1594SOL    HW116241   2.013   4.631   3.517  1.4237  0.6805  0.0833
 1594SOL    HW216242   1.885   4.678   3.463 -0.2720 -0.8402  0.6426
 1595SOL     OW16243   3.683   3.219  11.964 -0.4788 -0.2296 -0.3946
 1595SOL    HW116244   3.609   3.170  11.999 -0.8719  0.3187 -0.4747
 1595SOL    HW216245   3.740   3.145  11.941 -0.2042 -0.4355  0.9441
 1596SOL     OW16246   1.998   4.094   3.158 -0.6575  0.3089 -0.0561
 1596SOL    HW116247   1.936   4.167   3.168 -0.1361  0.7407  0.0409
 1596SOL    HW216248   2.017   4.074   3.250 -0.6860 -1.4523 -0.4285
 1597SOL     OW16249   0.070   1.662   4.501 -0.3861  0.1820  0.0237
 1597SOL    HW116250   0.099   1.734   4.557 -2.5750  0.5767  0.6297
 1597SOL    HW216251   0.014   1.699   4.432  0.3222  0.1492 -0.5773
 1598SOL     OW16252   4.516   2.279   5.705 -0.2736  0.3299 -0.0279
 1598SOL    HW116253   4.565   2.266   5.786 -1.0217 -1.1918  0.1911
 1598SOL    HW216254   4.592   2.299   5.652  0.1427  1.3126  0.9489
 1599SOL     OW16255   0.889   3.988   7.032 -0.4657  0.4229 -0.6948
 1599SOL    HW116256   0.830   4.060   7.012  0.5305  1.0488 -1.3559
 1599SOL    HW216257   0.852   3.953   7.113  0.9323 -0.2303 -0.3315
 1600SOL     OW16258   0.835   2.230   7.778 -0.0823 -0.2255  0.4920
 1600SOL    HW116259   0.759   2.246   7.834  0.2720  1.0212  0.6147
 1600SOL    HW216260   0.903   2.204   7.840  0.0209  1.9041  1.2752
 1601SOL     OW16261   0.552   0.277   3.347  0.2748 -0.0925  0.1583
 1601SOL    HW116262   0.480   0.340   3.340 -0.6762 -1.4028 -1.7766
 1601SOL    HW216263   0.500   0.209   3.305 -0.2103  1.4895 -1.7964
 1602SOL     OW16264   3.700   4.525   8.517 -0.3191  0.0748  0.1253
 1602SOL    HW116265   3.704   4.575   8.435 -0.6350 -1.5923 -0.8988
 1602SOL    HW216266   3.739   4.444   8.486  1.2212  0.7429  0.3017
 1603SOL     OW16267   2.646   3.817   8.744  0.3821 -1.1228 -0.3940
 1603SOL    HW116268   2.700   3.873   8.799 -0.9003  1.9269 -2.2105
 1603SOL    HW216269   2.660   3.735   8.791  1.0928 -0.5340  0.4013
 1604SOL     OW16270   4.181   0.959   9.573 -0.3228  0.6678 -0.5207
 1604SOL    HW116271   4.208   0.962   9.664  0.3310  0.1327 -0.7015
 1604SOL    HW216272   4.106   1.020   9.576  0.2961  1.2892  1.7945
 1605SOL     OW16273   1.660   4.198   1.610 -0.2923  0.0597  0.0982
 1605SOL    HW116274   1.685   4.242   1.691  0.4024 -0.1257 -0.0140
 1605SOL    HW216275   1.565   4.207   1.614 -0.1848  0.2312  2.2420
 1606SOL     OW16276   2.182   0.791   3.261 -0.0226  0.3716 -0.1534
 1606SOL    HW116277   2.174   0.841   3.180  0.3355  0.3593 -0.1957
 1606SOL    HW216278   2.214   0.704   3.236  0.1144  0.8645 -1.6485
 1607SOL     OW16279   3.405   1.702   8.276  0.5794 -0.2732 -0.1358
 1607SOL    HW116280   3.448   1.779   8.313  2.1067 -1.3796  0.3629
 1607SOL    HW216281   3.413   1.646   8.352 -0.3153 -2.2080 -1.4810
 1608SOL     OW16282   2.202   1.052   5.699  0.1500 -0.1811  0.1919
 1608SOL    HW116283   2.138   0.981   5.695 -0.1211  0.0636  0.1882
 1608SOL    HW216284   2.161   1.119   5.644 -0.0780 -0.1562  0.3934
 1609SOL     OW16285   3.386   1.984  14.410  0.0542 -0.2072  0.1610
 1609SOL    HW116286   3.369   2.065  14.458 -3.2746  0.3820 -2.0235
 1609SOL    HW216287   3.481   1.986  14.397 -0.0398 -0.8451 -0.5973
 1610SOL     OW16288   2.293   0.486   4.231 -0.5502 -0.0052  0.1397
 1610SOL    HW116289   2.298   0.554   4.299  0.4155  0.3553 -0.2963
 1610SOL    HW216290   2.377   0.493   4.186 -0.8891 -0.0742 -0.4944
 1611SOL     OW16291   1.392   0.375  11.257 -0.6842  0.0875 -0.5218
 1611SOL    HW116292   1.317   0.323  11.286 -0.7310 -0.7104 -2.0206
 1611SOL    HW216293   1.457   0.309  11.283 -0.7910 -1.0294 -3.0656
 1612SOL     OW16294   1.840   2.894   1.567  0.3611 -0.0998  0.4754
 1612SOL    HW116295   1.879   2.943   1.640  0.7067 -0.1172  0.3034
 1612SOL    HW216296   1.842   2.966   1.504 -4.1733  0.0400  0.5460
 1613SOL     OW16297   2.421   0.683  17.307 -0.2020  0.5602 -0.3727
 1613SOL    HW116298   2.414   0.677  17.402 -0.9072  0.2387 -0.4467
 1613SOL    HW216299   2.419   0.588  17.295 -0.9794  0.3964  1.0461
 1614SOL     OW16300   0.917   2.347  17.374  0.6785 -0.4037  1.0191
 1614SOL    HW116301   0.830   2.309  17.363 -0.7551  2.5959  1.9098
 1614SOL    HW216302   0.928   2.339  17.469  0.6802  1.2052  1.1550
 1615SOL     OW16303   1.197   1.563   5.981  0.0357  0.0333  0.3679
 1615SOL    HW116304   1.143   1.633   5.946  0.5049  0.5505  0.6814
 1615SOL    HW216305   1.256   1.551   5.907 -1.4063 -1.2371 -0.5687
 1616SOL     OW16306   1.272   0.806  11.559  0.4111 -0.6063 -0.7662
 1616SOL    HW116307   1.177   0.803  11.548  0.4123  0.9176 -1.1633
 1616SOL    HW216308   1.290   0.712  11.551  3.3113 -0.1658  0.8918
 1617SOL     OW16309   2.878   2.674  14.359 -0.0421  0.6833  0.3867
 1617SOL    HW116310   2.823   2.643  14.287 -1.1676 -1.3418  2.1400
 1617SOL    HW216311   2.815   2.715  14.417  0.3508  1.3872  0.3156
 1618SOL     OW16312   2.243   3.809   9.317 -0.4543  0.3756 -0.4585
 1618SOL    HW116313   2.249   3.750   9.242 -3.4801 -0.4242 -0.0827
 1618SOL    HW216314   2.207   3.889   9.277  0.9308  1.3967  0.3126
 1619SOL     OW16315   4.716   4.260   4.118 -0.0472  0.0675 -0.2615
 1619SOL    HW116316   4.692   4.196   4.184  1.8907 -1.7239 -1.2597
 1619SOL    HW216317   4.633   4.307   4.118 -0.5896 -0.8896 -1.3755
 1620SOL     OW16318   3.705   1.315   8.910  0.4980  0.0836 -0.6976
 1620SOL    HW116319   3.764   1.293   8.838  1.6241 -1.9145  0.8329
 1620SOL    HW216320   3.628   1.351   8.867  0.0028  0.3387  0.3933
 1621SOL     OW16321   0.794   2.821  11.334 -0.1183  0.4530 -0.1903
 1621SOL    HW116322   0.777   2.888  11.268 -1.1684 -1.0909 -1.4911
 1621SOL    HW216323   0.706   2.793  11.359 -0.4204  0.9949 -0.6438
 1622SOL     OW16324   3.183   1.173  14.152 -0.2574 -0.5446 -0.5473
 1622SOL    HW116325   3.278   1.171  14.145 -0.2314  0.1810 -0.4233
 1622SOL    HW216326   3.166   1.091  14.199  1.2192 -0.4619  0.1407
 1623SOL     OW16327   4.126   0.815   1.463  0.4453  0.3881  0.5102
 1623SOL    HW116328   4.096   0.725   1.452 -1.0798  0.8926  0.5793
 1623SOL    HW216329   4.104   0.853   1.378  0.3558  1.1918  0.8862
 1624SOL     OW16330   1.029   1.752   2.576 -0.0635  0.1487 -0.5755
 1624SOL    HW116331   1.087   1.809   2.525  0.5028 -1.2029 -1.4704
 1624SOL    HW216332   1.068   1.670   2.545 -0.0910  0.0134 -0.2509
 1625SOL     OW16333   4.658   0.735  11.997  0.0798 -0.3488  0.1966
 1625SOL    HW116334   4.571   0.766  12.020 -0.0747 -1.8019  1.5219
 1625SOL    HW216335   4.650   0.751  11.903  2.0572 -1.8669 -0.2290
 1626SOL     OW16336   3.702   1.529   9.138  0.0131  0.6607  0.4870
 1626SOL    HW116337   3.648   1.600   9.104  0.6402 -0.2764 -2.3909
 1626SOL    HW216338   3.642   1.485   9.199  1.7731  0.3104  1.9888
 1627SOL     OW16339   4.697   1.180   2.324  0.8842  0.2674 -0.8339
 1627SOL    HW116340   4.653   1.194   2.408  1.2724  0.2927 -0.6376
 1627SOL    HW216341   4.634   1.130   2.272  0.0722 -0.7009  1.0853
 1628SOL     OW16342   3.000   3.983   2.054 -0.5669  0.0002  0.2588
 1628SOL    HW116343   3.039   4.069   2.067  0.7999 -0.6278  0.3605
 1628SOL    HW216344   2.930   3.998   1.990  0.4402 -1.4792 -1.1842
 1629SOL     OW16345   2.547   3.170   4.813  0.9484  0.0239  0.1658
 1629SOL    HW116346   2.585   3.223   4.743  2.1477 -0.5144  0.4179
 1629SOL    HW216347   2.625   3.146   4.863  1.2882  0.8918  0.0537
 1630SOL     OW16348   1.868   1.732   4.046 -0.3121 -0.3316  0.0625
 1630SOL    HW116349   1.904   1.671   3.982 -1.1544  0.1985 -0.9197
 1630SOL    HW216350   1.774   1.716   4.039  0.2931 -3.3772 -1.0150
 1631SOL     OW16351   3.393   2.520   8.768  0.0875  0.3866  0.0318
 1631SOL    HW116352   3.316   2.568   8.799 -0.4769 -1.5362  1.6107
 1631SOL    HW216353   3.433   2.485   8.848  0.4142  1.2555  0.2526
 1632SOL     OW16354   2.299   2.669   1.498  0.0557  0.4338  0.1012
 1632SOL    HW116355   2.281   2.719   1.418 -0.9634 -0.2364 -0.0975
 1632SOL    HW216356   2.215   2.666   1.544 -0.8801  2.1712 -1.4682
 1633SOL     OW16357   2.574   4.629   4.042  0.2835  0.4423 -0.1879
 1633SOL    HW116358   2.579   4.636   4.138 -2.7267  0.8282 -0.0559
 1633SOL    HW216359   2.644   4.566   4.026 -1.1733 -0.8805 -1.3852
 1634SOL     OW16360   0.226   2.376  15.709  0.0415  0.2629  0.3011
 1634SOL    HW116361   0.234   2.357  15.802 -2.1898 -0.6248  0.3186
 1634SOL    HW216362   0.270   2.460  15.703  1.4161 -0.4101  0.9226
 1635SOL     OW16363   4.717   2.450   8.157 -0.2018 -0.1424 -0.0131
 1635SOL    HW116364   0.088   2.481   8.157 -0.0580 -0.5624  0.2612
 1635SOL    HW216365   0.011   2.356   8.170  0.3366 -0.4126 -2.5519
 1636SOL     OW16366   3.550   2.749   7.420 -0.7342 -0.0143 -0.0307
 1636SOL    HW116367   3.547   2.842   7.443  1.9483  0.7259 -2.6859
 1636SOL    HW216368   3.463   2.738   7.381 -1.6093  1.7494  1.3806
 1637SOL     OW16369   1.694   2.549  10.996 -0.3799  0.7788  0.7874
 1637SOL    HW116370   1.682   2.606  10.919  1.5053  0.9399  0.6102
 1637SOL    HW216371   1.630   2.598  11.047 -2.2704 -0.7245 -0.1333
 1638SOL     OW16372   1.434   3.472   1.343 -0.6714  0.2239  0.7750
 1638SOL    HW116373   1.516   3.503   1.382 -1.0581  0.1762  1.6172
 1638SOL    HW216374   1.363   3.528   1.373 -0.4152  1.2084 -0.4223
 1639SOL     OW16375   0.040   2.697   1.861  0.0753 -0.6491 -0.3253
 1639SOL    HW116376   0.120   2.655   1.893  1.8705  1.1623 -2.4892
 1639SOL    HW216377   0.067   2.741   1.781 -0.3213 -1.7727 -1.0818
 1640SOL     OW16378   3.885   3.375  14.745 -0.3014 -0.4258 -0.0185
 1640SOL    HW116379   3.832   3.347  14.820 -1.3545  0.4294 -0.4540
 1640SOL    HW216380   3.945   3.428  14.799 -1.7316 -0.9085  2.0540
 1641SOL     OW16381   3.077   1.362   2.609 -0.5141 -0.1783 -0.0402
 1641SOL    HW116382   3.047   1.364   2.518 -2.4291 -1.8405  0.5506
 1641SOL    HW216383   3.136   1.437   2.606 -2.5409  1.3656 -1.3654
 1642SOL     OW16384   0.692   3.469   3.694  0.1996 -0.2417 -0.5677
 1642SOL    HW116385   0.743   3.413   3.636  1.0664  0.1956 -0.2359
 1642SOL    HW216386   0.753   3.532   3.733  1.5150 -0.7121 -1.9019
 1643SOL     OW16387   1.582   1.252   1.647 -0.2895 -0.5097 -0.1624
 1643SOL    HW116388   1.626   1.168   1.662 -1.3352 -0.5104  2.9534
 1643SOL    HW216389   1.492   1.220   1.642  0.0677 -1.6650  0.8180
 1644SOL     OW16390   3.481   2.176  14.587 -0.6791  0.0462 -0.0867
 1644SOL    HW116391   3.552   2.115  14.571 -1.5968 -0.5340 -1.9107
 1644SOL    HW216392   3.493   2.209  14.676  0.6003 -2.8521  0.7835
 1645SOL     OW16393   1.729   0.488   8.480  0.0744 -0.1186  0.0096
 1645SOL    HW116394   1.734   0.562   8.540 -1.7501  0.8592 -1.0464
 1645SOL    HW216395   1.782   0.416   8.516  1.2420 -0.2680 -1.9983
 1646SOL     OW16396   4.527   3.038   4.627  0.4396 -0.4741  0.0836
 1646SOL    HW116397   4.613   3.060   4.663  0.1653 -0.3301  0.6469
 1646SOL    HW216398   4.529   2.944   4.645  0.5784 -0.6727 -0.9825
 1647SOL     OW16399   1.030   4.363  12.429 -0.4200 -0.1957 -0.3750
 1647SOL    HW116400   0.979   4.342  12.352  0.6653 -1.1155 -0.8472
 1647SOL    HW216401   0.981   4.320  12.499 -1.4182 -0.6618 -1.3808
 1648SOL     OW16402   1.823   2.948  15.512  0.1969  0.2492 -0.6210
 1648SOL    HW116403   1.885   2.897  15.565 -0.2903 -1.5958 -1.8454
 1648SOL    HW216404   1.811   3.031  15.558 -0.1235  0.6244 -1.3838
 1649SOL     OW16405   0.326   0.405   8.670  0.3364 -0.4292  0.2409
 1649SOL    HW116406   0.244   0.373   8.706 -1.3463  1.9486 -1.4725
 1649SOL    HW216407   0.305   0.373   8.583 -0.8241  1.0842 -0.0417
 1650SOL     OW16408   0.413   1.725   4.369 -0.1360  0.7830  0.0001
 1650SOL    HW116409   0.354   1.665   4.413  1.3660 -0.5933  0.1373
 1650SOL    HW216410   0.412   1.703   4.276  1.1403 -2.1906  0.6981
 1651SOL     OW16411   3.344   4.610  14.822 -0.1595  0.7333 -0.0876
 1651SOL    HW116412   3.301   4.541  14.874  1.1412  0.6206  0.8232
 1651SOL    HW216413   3.274   4.612  14.756 -0.2873 -1.9582 -0.0413
 1652SOL     OW16414   3.609   2.123  15.814  0.4021  0.1697  0.3792
 1652SOL    HW116415   3.611   2.159  15.903  2.1099  3.2959 -0.9457
 1652SOL    HW216416   3.703   2.133  15.799  0.4799 -0.9027  0.2004
 1653SOL     OW16417   1.658   0.782   0.301 -0.0155  0.3407  0.2648
 1653SOL    HW116418   1.615   0.702   0.331 -0.6022 -0.2959 -2.2288
 1653SOL    HW216419   1.641   0.851   0.365 -0.0790  0.3132  0.2772
 1654SOL     OW16420   0.061   4.232   4.545 -0.1660 -0.0206 -0.5935
 1654SOL    HW116421   0.046   4.264   4.634 -0.4050  1.2664 -1.0916
 1654SOL    HW216422   4.706   4.272   4.501 -0.0681  0.8067 -0.0018
 1655SOL     OW16423   4.089   1.182   7.743  0.0987 -0.2065 -0.0369
 1655SOL    HW116424   4.172   1.141   7.766  1.3239  2.4143  0.1917
 1655SOL    HW216425   4.062   1.221   7.826 -2.8817 -3.9866  0.7688
 1656SOL     OW16426   2.177   2.223   5.180 -0.5741 -0.7364  0.0957
 1656SOL    HW116427   2.234   2.299   5.192  0.1428 -1.0133 -1.6788
 1656SOL    HW216428   2.204   2.193   5.094 -3.9255  0.2463 -1.2933
 1657SOL     OW16429   1.360   0.790   5.396  0.6163  0.4010 -0.1271
 1657SOL    HW116430   1.381   0.876   5.362 -2.4786  2.2261  2.6035
 1657SOL    HW216431   1.419   0.790   5.472 -1.2007  0.9146  1.2631
 1658SOL     OW16432   0.898   0.686  13.171  0.5563  0.4369  0.5193
 1658SOL    HW116433   0.838   0.713  13.101  0.8966  0.1056  0.0957
 1658SOL    HW216434   0.974   0.741  13.152 -0.5415  1.7551 -0.0923
 1659SOL     OW16435   4.294   3.125   6.733 -0.0884 -0.2059  0.1111
 1659SOL    HW116436   4.389   3.135   6.739 -0.2041  0.7715  0.3358
 1659SOL    HW216437   4.259   3.193   6.676 -0.3867 -1.0200 -0.6921
 1660SOL     OW16438   0.128   2.422  10.730  0.0581 -0.0514 -0.5539
 1660SOL    HW116439   0.221   2.437  10.750 -0.3344  1.4064  0.1090
 1660SOL    HW216440   0.118   2.333  10.765 -0.9627  0.7068  1.0713
 1661SOL     OW16441   0.191   0.147  14.510  0.4275  0.5223  0.3075
 1661SOL    HW116442   0.110   0.197  14.518 -1.1797 -1.9506 -0.7373
 1661SOL    HW216443   0.233   0.193  14.437 -0.2048  0.5436 -0.0405
 1662SOL     OW16444   2.109   3.647   1.236 -0.2444  0.1698  0.5693
 1662SOL    HW116445   2.131   3.734   1.269  1.2617 -0.7942  2.1227
 1662SOL    HW216446   2.192   3.602   1.222 -0.1665 -0.1793  2.1475
 1663SOL     OW16447   1.755   1.002   7.553 -0.4035  0.2082 -0.1245
 1663SOL    HW116448   1.840   0.960   7.541 -0.7149  0.0022 -1.6610
 1663SOL    HW216449   1.721   0.960   7.631 -0.0867  0.4008  0.1167
 1664SOL     OW16450   1.019   4.438   7.152 -0.2037  0.5418  0.1718
 1664SOL    HW116451   1.072   4.510   7.116 -0.7723  1.0388  0.3330
 1664SOL    HW216452   1.064   4.366   7.108 -1.9593 -2.4154  3.2647
 1665SOL     OW16453   0.907   0.920   3.127 -0.2171 -0.6032 -0.5515
 1665SOL    HW116454   0.960   0.847   3.160  2.3029  0.5707 -1.9975
 1665SOL    HW216455   0.913   0.983   3.199 -1.2043 -0.8740 -0.2408
 1666SOL     OW16456   3.065   0.874   6.347  0.7276 -0.1601  0.2805
 1666SOL    HW116457   3.104   0.946   6.296 -1.6905  1.0907  0.2140
 1666SOL    HW216458   3.125   0.804   6.322  0.8219  0.3442 -0.9136
 1667SOL     OW16459   0.900   0.148   8.281 -0.4071  0.3784 -0.9188
 1667SOL    HW116460   0.983   0.101   8.280 -1.5399 -1.6565  0.6399
 1667SOL    HW216461   0.889   0.155   8.186  1.4219  1.3237 -1.0719
 1668SOL     OW16462   2.372   2.205  14.464  0.0751  0.2341  0.3207
 1668SOL    HW116463   2.431   2.137  14.496  1.1475  0.9903 -0.0852
 1668SOL    HW216464   2.415   2.234  14.384  0.5630  0.4171  0.6538
 1669SOL     OW16465   3.684   2.636   5.087 -0.3250  0.4337  0.0190
 1669SOL    HW116466   3.645   2.597   5.009  2.5224 -0.3174 -1.0211
 1669SOL    HW216467   3.624   2.709   5.100 -0.8417 -0.0360  0.2770
 1670SOL     OW16468   2.657   2.631   4.511 -0.0900  0.0507  0.1727
 1670SOL    HW116469   2.737   2.618   4.562  0.0442  0.5957  0.1070
 1670SOL    HW216470   2.666   2.722   4.483  0.8041 -0.0857  0.0196
 1671SOL     OW16471   2.580   2.215  12.436 -0.1777 -0.4931 -0.2170
 1671SOL    HW116472   2.509   2.209  12.500  0.8066  3.7690  1.3423
 1671SOL    HW216473   2.586   2.308  12.413  2.8305 -0.4773  0.5996
 1672SOL     OW16474   2.586   2.746  10.265  0.3641 -0.3238 -0.7317
 1672SOL    HW116475   2.556   2.670  10.215  1.0377 -0.0377 -1.5684
 1672SOL    HW216476   2.519   2.742  10.333 -0.7839 -1.8139 -1.9555
 1673SOL     OW16477   0.577   4.650   1.793  0.0575  0.1388  0.4776
 1673SOL    HW116478   0.603   4.626   1.704 -0.0068  1.1880  0.1851
 1673SOL    HW216479   0.531   4.569   1.816  0.6591 -0.0991  0.8615
 1674SOL     OW16480   1.757   4.040  10.842  0.1155 -0.0226  0.3823
 1674SOL    HW116481   1.815   4.058  10.915  0.1594  1.1540  0.0482
 1674SOL    HW216482   1.817   4.071  10.774 -0.3537 -1.4415 -0.6815
 1675SOL     OW16483   1.933   3.817   0.621 -0.1140  0.3359 -0.4983
 1675SOL    HW116484   2.014   3.862   0.601  1.1557 -1.2617  1.0035
 1675SOL    HW216485   1.860   3.876   0.602  0.3731  1.6944  1.9201
 1676SOL     OW16486   2.103   1.970   4.256  0.3971 -0.0705 -0.2615
 1676SOL    HW116487   2.039   1.998   4.191 -1.8936 -1.2582  1.5222
 1676SOL    HW216488   2.182   1.955   4.203 -0.1126 -0.9343 -0.7745
 1677SOL     OW16489   3.554   1.413  10.890 -0.1804 -0.3050  0.3773
 1677SOL    HW116490   3.498   1.336  10.898 -0.1046 -0.2997  0.9361
 1677SOL    HW216491   3.502   1.463  10.828  2.2605  0.0033 -1.4411
 1678SOL     OW16492   3.339   0.844  13.195 -0.0165  0.1675 -0.1308
 1678SOL    HW116493   3.273   0.798  13.247  0.5992 -2.7427 -1.9161
 1678SOL    HW216494   3.308   0.934  13.209  0.4204  0.2705  0.1842
 1679SOL     OW16495   0.683   0.692   9.291 -0.1854  0.0273 -0.3382
 1679SOL    HW116496   0.601   0.677   9.337  0.3106  1.3289  0.9842
 1679SOL    HW216497   0.650   0.723   9.207 -0.2950  0.8221 -0.0029
 1680SOL     OW16498   3.084   4.490   5.198 -0.1068  0.1947  0.4591
 1680SOL    HW116499   3.050   4.533   5.120  0.1452  1.9941  1.3558
 1680SOL    HW216500   3.091   4.562   5.261  0.3516  0.3123  0.2707
 1681SOL     OW16501   1.719   0.253   3.017  0.3051 -0.0736  0.4208
 1681SOL    HW116502   1.775   0.327   3.038 -0.8064  1.0367 -0.5851
 1681SOL    HW216503   1.665   0.250   3.096 -0.3488 -2.3917 -0.1178
 1682SOL     OW16504   0.361   4.070   6.984  0.0179  0.4394 -0.0163
 1682SOL    HW116505   0.376   4.164   6.996  2.1740  0.0628  0.2322
 1682SOL    HW216506   0.306   4.057   7.062 -0.7114  0.1027 -0.5895
 1683SOL     OW16507   0.952   0.048   5.759  0.1167 -0.1113  0.0859
 1683SOL    HW116508   0.972   0.133   5.798 -1.7237  0.1645  0.4066
 1683SOL    HW216509   0.887   0.005   5.814  0.5130 -1.6104 -0.6144
 1684SOL     OW16510   2.429   0.775   5.956 -0.1359 -0.1975  0.8692
 1684SOL    HW116511   2.454   0.830   6.031  2.1270 -1.5334  1.0988
 1684SOL    HW216512   2.340   0.750   5.980  0.0040 -0.6504  0.9151
 1685SOL     OW16513   1.431   1.454  12.954 -0.2326 -0.4187  0.4452
 1685SOL    HW116514   1.404   1.542  12.928  2.5016  0.4285  0.4920
 1685SOL    HW216515   1.363   1.437  13.020 -0.5846 -1.5677 -0.2054
 1686SOL     OW16516   1.860   2.109  14.311 -0.0609 -0.0433 -0.1141
 1686SOL    HW116517   1.831   2.200  14.325  1.1652  0.2185  0.6868
 1686SOL    HW216518   1.820   2.076  14.231  0.9473  1.4344 -1.2023
 1687SOL     OW16519   1.494   0.211   7.103 -0.7716  0.2815  0.4851
 1687SOL    HW116520   1.575   0.228   7.151  0.3242  0.2218 -1.3286
 1687SOL    HW216521   1.428   0.222   7.171  1.6675 -0.1464  2.9222
 1688SOL     OW16522   0.219   0.759   6.353  0.0765  0.6067  0.6456
 1688SOL    HW116523   0.254   0.783   6.439 -1.3386  0.8368  1.1477
 1688SOL    HW216524   0.189   0.670   6.371  2.5431 -0.2958  0.2680
 1689SOL     OW16525   0.629   3.768   7.100 -0.2466  0.0337 -0.4307
 1689SOL    HW116526   0.689   3.694   7.090 -0.2492 -0.0569  0.2364
 1689SOL    HW216527   0.546   3.731   7.070  0.3627 -0.4622 -1.5048
 1690SOL     OW16528   4.533   4.453   2.159  0.2935  0.0181 -0.4438
 1690SOL    HW116529   4.468   4.390   2.189 -0.9756  0.3334 -2.5511
 1690SOL    HW216530   4.496   4.473   2.073  0.6878  1.3162 -0.3174
 1691SOL     OW16531   1.228   4.233   9.463 -0.3647  0.1533  0.4172
 1691SOL    HW116532   1.295   4.167   9.482 -2.1162 -1.4995  0.8296
 1691SOL    HW216533   1.215   4.226   9.368  0.6625 -0.6578  0.3273
 1692SOL     OW16534   2.686   1.974   3.210 -0.2001 -0.7642  0.2956
 1692SOL    HW116535   2.697   2.024   3.291 -2.5317 -1.4303  1.0040
 1692SOL    HW216536   2.635   1.905   3.251 -0.5995 -0.6442 -0.0027
 1693SOL     OW16537   2.084   2.011   6.641 -0.4179  0.2298  0.6022
 1693SOL    HW116538   2.094   2.106   6.632  2.2139  0.0454  1.5212
 1693SOL    HW216539   2.056   1.988   6.553  2.0424  0.9409 -0.3491
 1694SOL     OW16540   3.604   0.048   0.060 -0.2426  0.0163 -0.8215
 1694SOL    HW116541   3.513   0.034   0.085 -0.4622  1.1284 -0.9905
 1694SOL    HW216542   3.596   0.074  17.650  0.0656 -0.8349 -1.0946
 1695SOL     OW16543   3.580   1.323   3.387 -0.0526 -0.2971  0.3891
 1695SOL    HW116544   3.584   1.410   3.346 -0.3761 -0.2530  0.4474
 1695SOL    HW216545   3.588   1.256   3.319 -0.3132  0.1044 -0.0402
 1696SOL     OW16546   1.946   4.468   7.676 -0.7686  0.6972 -0.0231
 1696SOL    HW116547   2.008   4.534   7.646  0.8329 -0.0872  1.5900
 1696SOL    HW216548   1.978   4.445   7.763 -2.3158  0.9873  0.6191
 1697SOL     OW16549   1.762   0.373   6.641 -0.1024  0.2159 -0.0011
 1697SOL    HW116550   1.710   0.418   6.707  0.9734  0.3570  0.7512
 1697SOL    HW216551   1.700   0.309   6.607 -0.1489 -0.8325  2.1233
 1698SOL     OW16552   3.088   4.139   7.345 -0.2856 -0.2626 -0.0808
 1698SOL    HW116553   3.027   4.119   7.274  0.2265  1.1832 -0.9179
 1698SOL    HW216554   3.026   4.140   7.417 -0.1167 -0.6935  0.0733
 1699SOL     OW16555   0.377   1.827   3.312 -0.2352  0.1123  0.1375
 1699SOL    HW116556   0.406   1.871   3.233  1.0366  2.8822  2.1653
 1699SOL    HW216557   0.328   1.753   3.276 -2.0689  2.3774 -2.0235
 1700SOL     OW16558   4.543   1.894   6.768 -0.4827 -0.0945  0.0989
 1700SOL    HW116559   4.481   1.893   6.840 -1.6116 -1.2207 -0.8902
 1700SOL    HW216560   4.549   1.988   6.755  1.9993 -0.4238 -1.1806
 1701SOL     OW16561   3.230   2.831   4.040  0.4470 -0.0303  0.4833
 1701SOL    HW116562   3.302   2.829   4.104  1.0587  1.3721 -0.1543
 1701SOL    HW216563   3.194   2.919   4.054  0.2522 -0.4267  2.5008
 1702SOL     OW16564   0.066   3.735   5.878  0.2658 -0.6903 -0.6179
 1702SOL    HW116565   0.073   3.820   5.836 -0.7505 -0.0889  0.4377
 1702SOL    HW216566   0.126   3.743   5.952  0.3906 -1.9483 -0.5766
 1703SOL     OW16567   4.284   2.486  10.700 -0.6853 -0.1960  0.1707
 1703SOL    HW116568   4.314   2.527  10.618  1.8423 -1.3903  0.5263
 1703SOL    HW216569   4.337   2.407  10.697 -0.1152  0.1725  0.6044
 1704SOL     OW16570   3.204   2.324   9.652  0.1108 -0.1792  0.0980
 1704SOL    HW116571   3.222   2.256   9.716 -2.0806 -0.3899  0.5138
 1704SOL    HW216572   3.109   2.329   9.663  0.0138  1.2410 -1.3283
 1705SOL     OW16573   3.364   2.678   5.150 -0.3714 -0.8086  0.0083
 1705SOL    HW116574   3.356   2.594   5.195 -0.7313 -1.0397 -0.4988
 1705SOL    HW216575   3.289   2.672   5.092  0.3661  0.4069 -1.0780
 1706SOL     OW16576   4.375   1.789  15.021  0.5661 -0.4036  0.3704
 1706SOL    HW116577   4.444   1.737  14.980 -0.3130 -1.5923  0.4063
 1706SOL    HW216578   4.291   1.746  15.006 -0.2630  1.9992 -1.8132
 1707SOL     OW16579   1.576   4.144   3.248  0.1558 -0.2626 -0.2019
 1707SOL    HW116580   1.501   4.199   3.269 -0.2567 -0.7114 -0.5243
 1707SOL    HW216581   1.634   4.176   3.318 -1.9102 -1.0026  1.8371
 1708SOL     OW16582   3.106   2.775  15.045  0.6389 -0.1804  0.2176
 1708SOL    HW116583   3.173   2.835  15.015 -0.3566  0.6936 -0.2784
 1708SOL    HW216584   3.083   2.734  14.962 -0.0453  0.1168  0.2551
 1709SOL     OW16585   3.905   4.239   7.999 -0.5230 -0.3285  0.9939
 1709SOL    HW116586   3.856   4.275   7.925  0.8721 -1.1721 -0.3450
 1709SOL    HW216587   3.959   4.171   7.958 -2.2567 -0.3709 -1.1965
 1710SOL     OW16588   0.720   1.874   4.685  0.2035  0.0881 -0.5560
 1710SOL    HW116589   0.629   1.900   4.700  0.0711 -1.9746  2.2653
 1710SOL    HW216590   0.704   1.833   4.600  0.5580  0.2533 -0.7041
 1711SOL     OW16591   2.479   0.153   8.298  0.6557 -0.3723 -0.1047
 1711SOL    HW116592   2.507   0.063   8.318 -2.7179 -0.8362  2.6210
 1711SOL    HW216593   2.390   0.165   8.332  0.9608 -0.7827  0.8458
 1712SOL     OW16594   4.454   4.126  14.012  0.3528 -0.1473  0.8977
 1712SOL    HW116595   4.519   4.188  13.979 -0.5943  0.0922 -0.5138
 1712SOL    HW216596   4.502   4.047  14.035 -1.3110 -1.1649  0.9043
 1713SOL     OW16597   3.281   4.238   7.133 -0.3884 -0.4021  0.6185
 1713SOL    HW116598   3.224   4.168   7.166 -0.1916 -1.3719 -1.1025
 1713SOL    HW216599   3.259   4.235   7.040 -1.5012  1.3294  0.8163
 1714SOL     OW16600   3.163   2.886   3.136 -0.0422  0.7627 -0.1990
 1714SOL    HW116601   3.225   2.902   3.208  0.9022 -0.6354 -0.7082
 1714SOL    HW216602   3.132   2.799   3.161  5.2317 -1.5335 -1.4990
 1715SOL     OW16603   2.428   4.591   1.803 -0.1032 -0.1540  0.0107
 1715SOL    HW116604   2.339   4.558   1.818 -1.2338  2.5661 -0.6335
 1715SOL    HW216605   2.414   4.685   1.794 -2.8150 -0.8335 -2.7679
 1716SOL     OW16606   3.781   0.848   7.038  0.5270 -0.0808  0.6054
 1716SOL    HW116607   3.692   0.882   7.032  0.6063  0.1354  0.6279
 1716SOL    HW216608   3.831   0.920   6.999  0.4811 -0.4612 -0.1549
 1717SOL     OW16609   3.421   2.993   7.990 -0.4652  0.1239  0.2614
 1717SOL    HW116610   3.361   2.950   7.929 -1.8418  2.0953  0.2163
 1717SOL    HW216611   3.488   3.015   7.925 -1.2124 -0.1737 -0.6208
 1718SOL     OW16612   1.600   1.658   5.928  0.2317 -0.1657 -0.1348
 1718SOL    HW116613   1.527   1.627   5.875  1.2206 -0.7746 -1.1371
 1718SOL    HW216614   1.590   1.753   5.926  1.3924  0.0128  1.9266
 1719SOL     OW16615   1.616   2.939   5.585 -0.6546 -0.4244  0.2383
 1719SOL    HW116616   1.648   2.897   5.506  1.5202  0.6377  0.5462
 1719SOL    HW216617   1.609   2.862   5.642  0.9865 -1.1877 -0.5982
 1720SOL     OW16618   2.975   2.800   3.800 -0.1696 -0.0086  0.5631
 1720SOL    HW116619   3.045   2.743   3.830 -1.9877 -1.0718  2.7734
 1720SOL    HW216620   2.978   2.770   3.709 -0.1812  3.0050 -0.4332
 1721SOL     OW16621   1.253   3.659   3.549 -0.5328 -0.0762 -0.5091
 1721SOL    HW116622   1.310   3.713   3.605 -0.9861 -2.2816  2.0785
 1721SOL    HW216623   1.234   3.717   3.476  2.7643  0.3051 -1.0825
 1722SOL     OW16624   4.601   4.377  12.217 -0.2996 -0.4918 -0.1244
 1722SOL    HW116625   4.659   4.446  12.250  1.5290 -1.8792 -0.4910
 1722SOL    HW216626   4.660   4.308  12.188  1.8313  1.9813 -1.7392
 1723SOL     OW16627   2.807   4.437   3.446  0.1553 -0.3966  0.6765
 1723SOL    HW116628   2.874   4.479   3.500  0.7208  0.8648 -1.0086
 1723SOL    HW216629   2.839   4.347   3.434 -1.7225 -0.5515 -3.1057
 1724SOL     OW16630   0.581   1.589   2.941  0.1631  0.1356  0.0822
 1724SOL    HW116631   0.499   1.541   2.935  1.0292 -1.4047  0.4558
 1724SOL    HW216632   0.645   1.542   2.887 -0.9438  0.0174 -1.1074
 1725SOL     OW16633   3.345   2.542   6.660  0.2826  0.1417  0.1095
 1725SOL    HW116634   3.331   2.473   6.725  0.2923  0.4985  0.4824
 1725SOL    HW216635   3.283   2.518   6.590 -1.7489  1.2354  1.5570
 1726SOL     OW16636   0.959   4.009   9.035  0.4611  0.0736 -0.3006
 1726SOL    HW116637   0.909   3.986   8.957 -0.4573  0.5121  0.1603
 1726SOL    HW216638   1.045   3.973   9.012  0.0318  0.6460 -2.7685
 1727SOL     OW16639   0.690   1.510   7.499 -0.0624  0.0297 -0.1301
 1727SOL    HW116640   0.726   1.529   7.413 -0.7233  0.2574 -0.3502
 1727SOL    HW216641   0.772   1.483   7.541  1.3622  0.2134 -2.8267
 1728SOL     OW16642   3.006   4.382   0.055  0.7907  0.2272 -0.1331
 1728SOL    HW116643   3.044   4.385  17.649 -1.6291 -0.1562 -1.1817
 1728SOL    HW216644   2.917   4.347   0.046  1.3986 -1.2952 -0.2652
 1729SOL     OW16645   0.857   1.509  10.766  0.0185  0.0878 -0.1887
 1729SOL    HW116646   0.882   1.504  10.858  1.7535  0.8543 -0.6264
 1729SOL    HW216647   0.763   1.523  10.778  0.3574  2.5665 -0.3797
 1730SOL     OW16648   1.199   3.905   8.261  0.1625 -0.0180  0.1857
 1730SOL    HW116649   1.258   3.977   8.285  0.0548  0.8925 -2.3150
 1730SOL    HW216650   1.118   3.948   8.291  0.3201  0.3246  0.1166
 1731SOL     OW16651   2.040   0.388  16.734 -0.1445 -0.0012 -0.3947
 1731SOL    HW116652   2.048   0.300  16.771 -0.3859 -0.0837 -0.5359
 1731SOL    HW216653   2.127   0.402  16.697 -0.4819 -0.3043 -1.3074
 1732SOL     OW16654   3.939   3.666   8.774  0.4762 -0.4116 -0.0730
 1732SOL    HW116655   4.015   3.609   8.761 -0.7314 -1.9484 -0.3512
 1732SOL    HW216656   3.911   3.632   8.859  3.2925  0.3243  1.1539
 1733SOL     OW16657   3.127   1.166   8.886 -0.7192 -0.6091 -0.2768
 1733SOL    HW116658   3.131   1.242   8.944  2.5100 -1.1128  0.1556
 1733SOL    HW216659   3.090   1.095   8.938  0.8203  0.3285  2.1000
 1734SOL     OW16660   3.307   0.996   0.197  0.0353 -0.0342 -0.5405
 1734SOL    HW116661   3.235   1.031   0.250  1.0576 -0.5442  1.1803
 1734SOL    HW216662   3.361   0.969   0.271 -0.8354 -3.1931 -1.0254
 1735SOL     OW16663   4.301   0.901   6.994  0.2785 -0.0267  0.5206
 1735SOL    HW116664   4.220   0.857   7.020  0.6941 -0.0750  1.7129
 1735SOL    HW216665   4.364   0.839   7.031  0.3984  0.0742  0.4852
 1736SOL     OW16666   3.922   2.360  13.913  0.4115  0.0358  0.6251
 1736SOL    HW116667   4.017   2.366  13.906  0.0437  2.9406 -1.8907
 1736SOL    HW216668   3.897   2.300  13.983  0.4128  0.6944  1.1933
 1737SOL     OW16669   3.382   2.467   3.601 -0.5462  0.1813  0.5192
 1737SOL    HW116670   3.310   2.429   3.551  0.0491  1.2750 -1.1558
 1737SOL    HW216671   3.401   2.547   3.552 -1.4312 -0.1576 -0.3671
 1738SOL     OW16672   1.478   3.393   7.645  0.2410 -0.0681 -0.0814
 1738SOL    HW116673   1.542   3.322   7.635 -0.1415 -0.3989 -0.1949
 1738SOL    HW216674   1.400   3.343   7.619 -0.8449  2.7472 -2.1550
 1739SOL     OW16675   2.556   4.109  15.255 -0.6866 -0.1358 -0.5245
 1739SOL    HW116676   2.553   4.189  15.203 -1.1814 -0.8411 -1.5851
 1739SOL    HW216677   2.621   4.133  15.321 -0.1587 -2.8423 -0.0630
 1740SOL     OW16678   4.461   3.085  15.051 -0.1651 -0.0283  0.4470
 1740SOL    HW116679   4.438   2.992  15.043 -3.3244  0.8251 -0.3326
 1740SOL    HW216680   4.477   3.094  15.145 -0.5273  2.3216  0.2892
 1741SOL     OW16681   2.989   1.834   5.405 -0.1284  0.4701 -0.2904
 1741SOL    HW116682   2.934   1.759   5.428 -1.8205  1.5312 -0.8258
 1741SOL    HW216683   2.955   1.859   5.319 -0.9462  2.6479  0.6577
 1742SOL     OW16684   0.804   3.771   6.406  0.4825  0.2759  0.3303
 1742SOL    HW116685   0.737   3.764   6.475  0.6070  0.4142  0.4661
 1742SOL    HW216686   0.881   3.784   6.461  1.0868  1.4894 -0.8308
 1743SOL     OW16687   1.180   2.582  16.875  0.0435 -0.0829  0.6756
 1743SOL    HW116688   1.185   2.599  16.969  2.2044 -3.7650  1.2197
 1743SOL    HW216689   1.251   2.621  16.825 -2.3255  1.4356 -1.5565
 1744SOL     OW16690   0.957   4.274   8.886  0.1417 -0.5367 -0.2471
 1744SOL    HW116691   0.897   4.227   8.944 -0.2397 -1.5189 -1.4326
 1744SOL    HW216692   1.018   4.205   8.861  1.2225  0.8631 -1.5069
 1745SOL     OW16693   3.400   1.091  14.368 -0.4148  0.3510  0.0937
 1745SOL    HW116694   3.476   1.048  14.328 -1.3108 -0.2710 -0.9620
 1745SOL    HW216695   3.332   1.034  14.330 -1.2795 -0.0634  2.2459
 1746SOL     OW16696   4.530   0.097   5.171 -0.2541 -0.2504  0.1327
 1746SOL    HW116697   4.578   0.021   5.205  1.4708  0.9161  0.3312
 1746SOL    HW216698   4.448   0.084   5.218  0.2826 -1.3463  0.7856
 1747SOL     OW16699   3.222   1.223  12.973 -0.4069  0.5499 -0.0459
 1747SOL    HW116700   3.138   1.209  12.931 -1.3938 -0.1445  2.1344
 1747SOL    HW216701   3.273   1.267  12.906 -1.9130 -0.8456 -2.0937
 1748SOL     OW16702   3.938   2.375   0.072 -0.3003 -0.2565 -0.6573
 1748SOL    HW116703   4.032   2.378   0.093 -0.9198 -2.4926  2.3830
 1748SOL    HW216704   3.925   2.282   0.092  0.4983 -0.0819  0.6634
 1749SOL     OW16705   4.390   1.253   4.404  0.2731 -0.4520 -0.2341
 1749SOL    HW116706   4.404   1.193   4.477  1.1301 -0.6692 -0.5858
 1749SOL    HW216707   4.482   1.274   4.392  0.2554  0.0396  0.4545
 1750SOL     OW16708   4.704   2.109   1.173 -0.3866 -0.2451 -0.3848
 1750SOL    HW116709   4.650   2.071   1.243  1.3343 -0.9732  0.5440
 1750SOL    HW216710   4.646   2.100   1.098 -0.5948  1.3227 -0.4254
 1751SOL     OW16711   0.391   2.246   3.646  0.2734  0.9171  0.1279
 1751SOL    HW116712   0.379   2.287   3.561  0.1092 -1.6364 -1.0704
 1751SOL    HW216713   0.306   2.228   3.686  0.3042 -0.4606 -0.4393
 1752SOL     OW16714   2.690   4.054   3.614  0.0289  0.8260 -0.0178
 1752SOL    HW116715   2.697   3.979   3.672 -0.8094  0.6240 -0.1733
 1752SOL    HW216716   2.599   4.055   3.584  0.0025 -0.4802  0.0477
 1753SOL     OW16717   1.073   3.098  13.849  0.2279 -0.0734 -0.3298
 1753SOL    HW116718   1.064   3.193  13.857 -2.5962 -0.5636  1.8805
 1753SOL    HW216719   1.147   3.092  13.788  1.2164 -0.9591  0.9533
 1754SOL     OW16720   2.499   3.809  10.300  0.4360  0.8553  0.2491
 1754SOL    HW116721   2.566   3.861  10.255 -0.1549  1.6008  0.2366
 1754SOL    HW216722   2.529   3.721  10.279  1.1603  0.9903  0.7132
 1755SOL     OW16723   4.446   0.916   3.836  0.4422 -0.5189 -0.4586
 1755SOL    HW116724   4.472   0.928   3.927 -0.2987  0.3521 -0.3620
 1755SOL    HW216725   4.361   0.877   3.857 -0.1359  0.5865 -0.7882
 1756SOL     OW16726   2.277   3.590   7.633 -0.5152  0.2326 -0.1848
 1756SOL    HW116727   2.243   3.627   7.714  0.7796  1.1417 -0.0565
 1756SOL    HW216728   2.250   3.661   7.576 -1.1788 -0.9708 -1.3577
 1757SOL     OW16729   3.931   4.272   8.983  0.1695 -0.1307 -0.1225
 1757SOL    HW116730   3.846   4.248   8.946 -1.0778  0.9706  2.0326
 1757SOL    HW216731   3.991   4.231   8.921  1.0185  1.4048 -0.3280
 1758SOL     OW16732   0.255   2.231   9.306 -0.6537  0.3809 -0.1217
 1758SOL    HW116733   0.173   2.227   9.256  0.2819 -0.0934 -1.6419
 1758SOL    HW216734   0.312   2.176   9.251 -0.5093  0.6671 -0.2593
 1759SOL     OW16735   0.006   4.363   3.000 -0.4538 -0.5958 -0.2242
 1759SOL    HW116736   0.069   4.380   2.931 -0.0838  2.0414  0.7595
 1759SOL    HW216737   0.037   4.399   3.083  3.5824  0.8606 -2.3639
 1760SOL     OW16738   4.712   4.541  10.516 -0.7246  0.0152  0.0787
 1760SOL    HW116739   4.694   4.600  10.590  0.4933  0.3112  0.1409
 1760SOL    HW216740   4.692   4.459  10.561  0.3028 -0.5072 -0.4167
 1761SOL     OW16741   1.885   3.465  10.346  0.1498  0.2581  0.1616
 1761SOL    HW116742   1.936   3.408  10.404  3.1045  0.1338 -2.5448
 1761SOL    HW216743   1.796   3.435  10.360 -0.7497  2.6644 -0.4598
 1762SOL     OW16744   0.846   1.466   7.254 -0.1898  0.1670 -0.0556
 1762SOL    HW116745   0.922   1.409   7.243  0.9235  1.8239 -0.9881
 1762SOL    HW216746   0.775   1.411   7.222  0.1950 -1.4495  1.8620
 1763SOL     OW16747   0.829   0.938   2.496  0.0479 -0.4362  0.0613
 1763SOL    HW116748   0.794   0.868   2.441  0.1657 -0.2982 -0.1900
 1763SOL    HW216749   0.845   0.884   2.573  0.6408 -0.2154  0.0885
 1764SOL     OW16750   0.650   0.236  13.365 -0.0466 -0.0262  0.2428
 1764SOL    HW116751   0.652   0.323  13.325 -3.5019  0.5880  1.4003
 1764SOL    HW216752   0.673   0.178  13.292 -0.5155  1.4044 -1.0246
 1765SOL     OW16753   3.769   1.509   3.661 -0.4799  0.2448 -0.0848
 1765SOL    HW116754   3.709   1.577   3.632  0.1827  1.1485  0.6788
 1765SOL    HW216755   3.848   1.544   3.619 -0.0190  3.7044  3.6494
 1766SOL     OW16756   1.450   3.501   3.296 -0.2044  0.3199  0.1070
 1766SOL    HW116757   1.390   3.536   3.362  0.3561  2.7904 -0.6740
 1766SOL    HW216758   1.419   3.537   3.212 -1.8963  0.9363  0.9935
 1767SOL     OW16759   2.279   0.056   0.632  0.6752  0.2326 -0.4622
 1767SOL    HW116760   2.281   0.114   0.708 -0.5138 -1.0834  0.5637
 1767SOL    HW216761   2.353   0.096   0.586  1.4366 -0.2944  0.3195
 1768SOL     OW16762   3.937   3.235   6.431  0.6052  0.2066  0.1440
 1768SOL    HW116763   3.871   3.195   6.374  0.1712  1.2695 -0.1095
 1768SOL    HW216764   3.996   3.160   6.438  0.0993 -0.1663  0.4699
 1769SOL     OW16765   1.880   2.182   1.130  0.2349 -0.0138  0.1756
 1769SOL    HW116766   1.830   2.261   1.112  1.2588  0.4373 -0.6237
 1769SOL    HW216767   1.838   2.119   1.071  3.2137 -0.2161 -1.7059
 1770SOL     OW16768   3.691   2.063   6.867 -0.1665 -0.5250 -0.1209
 1770SOL    HW116769   3.624   2.127   6.844 -0.2756 -0.3489  0.6630
 1770SOL    HW216770   3.632   1.990   6.883  0.1150 -0.7673 -0.1863
 1771SOL     OW16771   4.647   2.998   3.450 -0.0521  0.1559  0.0023
 1771SOL    HW116772   4.594   3.019   3.527 -1.3428  0.7356 -1.0415
 1771SOL    HW216773   4.596   2.920   3.429  3.9555 -2.0459 -1.6939
 1772SOL     OW16774   4.115   1.573  14.949 -0.4975 -0.0140  0.3762
 1772SOL    HW116775   4.079   1.584  14.861  3.2962  1.8293 -0.9535
 1772SOL    HW216776   4.167   1.497  14.923 -1.0584 -0.7600  1.4543
 1773SOL     OW16777   1.275   2.483   2.505  0.5156 -0.2307 -0.1508
 1773SOL    HW116778   1.283   2.435   2.588  1.2219 -1.6898 -1.0702
 1773SOL    HW216779   1.282   2.569   2.546  0.7852 -0.2999 -0.0488
 1774SOL     OW16780   4.637   0.110  13.670  0.0144 -0.0765  0.0321
 1774SOL    HW116781   4.676   0.120  13.583  0.2848  1.7024  0.3450
 1774SOL    HW216782   4.548   0.137  13.651 -0.0333 -0.7416 -0.7015
 1775SOL     OW16783   1.177   2.449   4.202  0.1738  0.1060 -0.0773
 1775SOL    HW116784   1.238   2.440   4.129  0.1238 -0.5132 -0.0434
 1775SOL    HW216785   1.187   2.358   4.232  0.8017 -0.2312 -1.3148
 1776SOL     OW16786   4.342   2.236  11.293  0.0385  0.1813 -0.3486
 1776SOL    HW116787   4.306   2.297  11.229  0.2029  1.1183  0.4603
 1776SOL    HW216788   4.428   2.221  11.253 -0.8467 -1.0915 -1.8006
 1777SOL     OW16789   1.170   1.658   0.661  0.1861 -0.8168 -0.0941
 1777SOL    HW116790   1.097   1.708   0.624  0.1738 -1.0541 -0.3899
 1777SOL    HW216791   1.236   1.726   0.676 -0.3646 -0.4810  0.8155
 1778SOL     OW16792   2.038   4.126   8.141 -0.1945  0.0820 -1.0022
 1778SOL    HW116793   2.084   4.204   8.171 -0.6187 -0.1163  0.1974
 1778SOL    HW216794   1.960   4.155   8.094 -1.4205  1.2140  1.7452
 1779SOL     OW16795   3.206   2.084   4.839  0.1457  0.2464 -0.5312
 1779SOL    HW116796   3.117   2.084   4.803 -0.6375 -2.4696  1.4418
 1779SOL    HW216797   3.219   2.179   4.849  0.0922 -0.0872  2.9758
 1780SOL     OW16798   4.144   1.419  15.295  0.9345 -0.1718 -0.2949
 1780SOL    HW116799   4.063   1.387  15.256 -2.6430  5.2791  2.6345
 1780SOL    HW216800   4.098   1.439  15.376  1.5410 -0.7077  0.1838
 1781SOL     OW16801   4.065   1.863   2.505 -0.1543 -0.3862  0.4985
 1781SOL    HW116802   4.087   1.771   2.519  1.9762 -0.0449 -0.7163
 1781SOL    HW216803   3.999   1.857   2.435  0.1672  0.1256  0.1511
 1782SOL     OW16804   0.318   2.045   6.583  0.6265  0.8234 -0.0388
 1782SOL    HW116805   0.379   1.982   6.622 -0.5448  0.9369  1.9425
 1782SOL    HW216806   0.248   1.986   6.555  0.7391  1.0614 -0.8432
 1783SOL     OW16807   4.308   1.005   2.966 -0.2443 -0.2399  0.6313
 1783SOL    HW116808   4.222   1.019   3.006  0.5953  0.5266  2.1702
 1783SOL    HW216809   4.292   0.928   2.912 -0.8177 -0.3448  0.9545
 1784SOL     OW16810   4.589   0.392   7.187 -0.3354  0.3465 -0.4819
 1784SOL    HW116811   4.513   0.407   7.131 -0.2861 -0.0170 -0.6410
 1784SOL    HW216812   4.592   0.297   7.187 -2.2725  0.2875  0.6878
 1785SOL     OW16813   0.746   3.958  13.183  0.0111 -0.0006  0.0144
 1785SOL    HW116814   0.806   3.964  13.109 -0.0930 -0.5824 -0.1194
 1785SOL    HW216815   0.656   3.952  13.149 -0.2758 -0.7950  0.9072
 1786SOL     OW16816   4.449   4.020   8.552  1.0604  0.2902 -0.0260
 1786SOL    HW116817   4.510   3.985   8.488  1.5026  2.0750 -0.5687
 1786SOL    HW216818   4.381   3.952   8.554  2.0702 -0.7257 -0.4189
 1787SOL     OW16819   2.387   4.211   3.272 -0.2155 -0.3083  0.3182
 1787SOL    HW116820   2.462   4.253   3.229 -0.5905  0.7657  0.7333
 1787SOL    HW216821   2.343   4.186   3.191 -2.7783  0.5322  1.4711
 1788SOL     OW16822   1.731   3.332   2.500 -0.0713 -0.3565  0.2557
 1788SOL    HW116823   1.764   3.289   2.421  1.4920  3.5979 -1.2513
 1788SOL    HW216824   1.665   3.269   2.529  0.3115 -0.3328  1.1681
 1789SOL     OW16825   2.290   1.574   2.151 -0.1794  0.4649  0.0356
 1789SOL    HW116826   2.273   1.605   2.240 -0.5843 -1.4407  0.6244
 1789SOL    HW216827   2.356   1.509   2.173  0.1962  1.0977  0.7702
 1790SOL     OW16828   0.224   2.031  15.140 -0.1269 -0.0294 -0.1911
 1790SOL    HW116829   0.138   2.049  15.178 -0.2567  1.4483 -1.1566
 1790SOL    HW216830   0.193   1.966  15.078 -1.1961  0.3975 -0.0981
 1791SOL     OW16831   1.777   4.170   5.244  0.2188  0.1658 -0.0364
 1791SOL    HW116832   1.758   4.198   5.154 -3.6189  1.5966  1.2474
 1791SOL    HW216833   1.819   4.085   5.227 -2.0609 -0.7168 -1.2819
 1792SOL     OW16834   3.544   0.048  10.697 -0.0783  0.3344 -0.5379
 1792SOL    HW116835   3.485   0.008  10.633 -0.6281  2.8741 -1.6197
 1792SOL    HW216836   3.570   0.130  10.654  0.0449  0.6099  0.0667
 1793SOL     OW16837   3.237   1.977  16.346  0.1798 -0.7503  0.2993
 1793SOL    HW116838   3.181   2.019  16.280 -1.9665 -0.6218  2.1993
 1793SOL    HW216839   3.310   1.936  16.299  1.2883  1.2707  0.2837
 1794SOL     OW16840   2.540   4.258   0.767 -0.4690  0.1496 -0.3792
 1794SOL    HW116841   2.450   4.281   0.744 -1.5880 -2.6271  1.1994
 1794SOL    HW216842   2.568   4.218   0.684 -0.5851  3.6923 -2.1232
 1795SOL     OW16843   0.431   0.303  11.401  0.0660 -0.2234  0.4106
 1795SOL    HW116844   0.405   0.293  11.309 -0.4892 -1.8380  0.7360
 1795SOL    HW216845   0.468   0.389  11.383 -0.4450 -0.1481 -0.3057
 1796SOL     OW16846   1.005   0.859   7.890  0.1783 -0.0892  0.1688
 1796SOL    HW116847   1.083   0.804   7.887  0.1020 -0.3676  3.6424
 1796SOL    HW216848   0.933   0.796   7.887 -0.8031  1.1303 -1.7227
 1797SOL     OW16849   2.802   3.009   3.698 -1.2706  0.7551 -0.1789
 1797SOL    HW116850   2.872   2.978   3.755 -1.9236 -0.0039  0.2193
 1797SOL    HW216851   2.810   2.926   3.651 -1.4400  0.0651  1.0126
 1798SOL     OW16852   3.521   0.306   3.902  0.6002  0.0506 -0.0939
 1798SOL    HW116853   3.513   0.212   3.891  0.3661  0.2709 -1.7051
 1798SOL    HW216854   3.446   0.334   3.850  0.2888 -0.9535 -0.1838
 1799SOL     OW16855   3.064   2.945   5.168 -0.1328 -0.1329 -0.5402
 1799SOL    HW116856   3.022   3.016   5.216  1.5873  2.0441 -2.2277
 1799SOL    HW216857   3.054   2.873   5.230 -1.2463 -0.8983 -1.6013
 1800SOL     OW16858   3.763   2.448   7.707  0.1090 -0.1876 -0.5043
 1800SOL    HW116859   3.734   2.498   7.783  1.7798  0.8971 -0.5731
 1800SOL    HW216860   3.858   2.455   7.720 -0.1122 -0.6866  1.3539
 1801SOL     OW16861   2.834   0.334  13.165 -0.7098  0.3793 -0.2371
 1801SOL    HW116862   2.782   0.387  13.225 -0.8346  0.1584 -0.1483
 1801SOL    HW216863   2.909   0.306  13.217 -0.6082 -0.7066 -0.9664
 1802SOL     OW16864   0.427   4.150   3.301  0.5230 -0.3681 -0.1562
 1802SOL    HW116865   0.382   4.130   3.383  0.8224 -0.0481  0.0811
 1802SOL    HW216866   0.510   4.102   3.310  0.1999 -0.5226  2.0032
 1803SOL     OW16867   1.550   2.581   5.976 -0.4047 -0.4110  0.1877
 1803SOL    HW116868   1.576   2.641   6.046  0.0122  0.0058 -0.3195
 1803SOL    HW216869   1.567   2.496   6.016 -0.4878  0.2482  1.5930
 1804SOL     OW16870   4.325   2.379   7.210 -0.3736  0.4810 -0.3972
 1804SOL    HW116871   4.406   2.337   7.183  0.0143  1.3995 -0.6467
 1804SOL    HW216872   4.291   2.310   7.267  0.8189 -0.6433 -1.0618
 1805SOL     OW16873   2.762   2.354   6.089  0.3242  0.1913  0.2978
 1805SOL    HW116874   2.844   2.383   6.049 -1.0908  1.2017 -1.9254
 1805SOL    HW216875   2.708   2.433   6.097  0.8567  0.6053 -0.1869
 1806SOL     OW16876   4.690   0.787   9.017 -0.6206 -0.0498  0.1275
 1806SOL    HW116877   4.711   0.793   8.923  1.6484  1.5754  0.7305
 1806SOL    HW216878   4.679   0.878   9.044  0.3275  0.3189 -0.7316
 1807SOL     OW16879   0.690   1.037  11.770  0.1051 -0.2006 -0.2358
 1807SOL    HW116880   0.694   1.115  11.714  0.7832  0.5651  0.8770
 1807SOL    HW216881   0.605   1.054  11.811  0.5513 -0.2099  0.6901
 1808SOL     OW16882   3.231   2.310   5.989  0.0727 -0.2451  0.1302
 1808SOL    HW116883   3.193   2.395   5.964  0.4898 -0.9511 -2.9700
 1808SOL    HW216884   3.307   2.339   6.039 -0.2520 -2.2592  1.7927
 1809SOL     OW16885   3.567   1.735   7.448  0.0795  0.5306 -0.8353
 1809SOL    HW116886   3.585   1.825   7.474 -1.1365  0.3043  0.7551
 1809SOL    HW216887   3.594   1.680   7.522 -1.6160 -0.1384 -0.7111
 1810SOL     OW16888   0.770   3.554   4.930 -0.1279  0.0174  0.5520
 1810SOL    HW116889   0.847   3.579   4.879 -1.9838 -0.8633 -2.7252
 1810SOL    HW216890   0.704   3.609   4.888  0.1706 -0.1745 -0.1675
 1811SOL     OW16891   0.451   1.010   1.424  0.3339 -0.4698 -0.5004
 1811SOL    HW116892   0.462   0.925   1.466 -1.8672  0.3814  1.7318
 1811SOL    HW216893   0.390   1.051   1.485 -1.5071  0.3783 -2.8616
 1812SOL     OW16894   4.680   0.194   3.376  0.2412  0.1749 -0.6508
 1812SOL    HW116895   4.648   0.141   3.303 -1.1028 -1.2268  0.9382
 1812SOL    HW216896   0.043   0.216   3.334  0.1022  0.7704 -0.6023
 1813SOL     OW16897   3.391   3.710   0.056 -0.0541 -0.3334 -0.2693
 1813SOL    HW116898   3.388   3.681  17.647 -3.6871  1.3540 -0.7083
 1813SOL    HW216899   3.424   3.641   0.113 -0.1105 -0.0649  0.0974
 1814SOL     OW16900   3.696   0.685   0.469 -0.4479 -0.2270  0.6845
 1814SOL    HW116901   3.703   0.679   0.564  2.0960  1.4132  0.6027
 1814SOL    HW216902   3.601   0.680   0.456  0.0803 -2.3870 -2.4166
 1815SOL     OW16903   0.130   0.957  14.848  0.1726  0.9839 -0.1266
 1815SOL    HW116904   0.204   0.935  14.904 -0.0247  0.4283 -0.0876
 1815SOL    HW216905   0.089   0.877  14.815 -0.2391  0.9611  0.4459
 1816SOL     OW16906   1.775   0.682   2.293  0.1786  0.4179  0.4614
 1816SOL    HW116907   1.735   0.608   2.340 -0.9930  1.3065  0.8786
 1816SOL    HW216908   1.785   0.636   2.209  1.9211  0.7007  0.5154
 1817SOL     OW16909   1.649   3.482   7.891  0.4734 -0.3590 -0.0148
 1817SOL    HW116910   1.697   3.560   7.918  0.2453 -1.1027  2.5984
 1817SOL    HW216911   1.625   3.499   7.800  0.2938  0.1486  0.1282
 1818SOL     OW16912   4.605   3.278   7.810  0.0626 -0.5711 -0.2789
 1818SOL    HW116913   4.521   3.258   7.769 -2.4217 -0.4654  4.7139
 1818SOL    HW216914   4.640   3.197   7.847  0.5850 -0.1071  0.2446
 1819SOL     OW16915   2.131   2.545  17.073 -0.3697  0.3462 -0.2945
 1819SOL    HW116916   2.219   2.583  17.071 -0.4245  0.4131 -1.3207
 1819SOL    HW216917   2.122   2.504  16.988  0.2144 -1.2318  0.4022
 1820SOL     OW16918   1.730   2.682   1.748 -0.6997  0.1028  0.2446
 1820SOL    HW116919   1.761   2.773   1.743  2.4669 -1.0717 -1.1960
 1820SOL    HW216920   1.792   2.639   1.807  0.9278 -1.0061 -2.2791
 1821SOL     OW16921   3.586   2.843   8.705 -0.8569 -0.2112  0.2136
 1821SOL    HW116922   3.595   2.784   8.630 -0.1889  0.8027 -0.5050
 1821SOL    HW216923   3.548   2.923   8.670  1.6513  0.6877 -0.5057
 1822SOL     OW16924   0.411   0.075   3.230 -0.6547  0.1368 -0.3943
 1822SOL    HW116925   0.413   0.052   3.323  0.1183 -0.5318 -0.5722
 1822SOL    HW216926   0.438   4.706   3.205  0.7889  1.0055 -1.8624
 1823SOL     OW16927   0.603   1.432   3.391 -0.4882  0.2738 -0.3804
 1823SOL    HW116928   0.574   1.409   3.303  0.2164 -1.1447 -0.2341
 1823SOL    HW216929   0.572   1.356   3.440  0.5289 -1.4806 -2.4794
 1824SOL     OW16930   2.330   3.636   4.235  0.2027 -0.2260  0.0031
 1824SOL    HW116931   2.303   3.701   4.300 -1.2461  0.5079 -1.3257
 1824SOL    HW216932   2.409   3.671   4.193  1.8812 -2.1228  1.5853
 1825SOL     OW16933   2.745   2.965   8.242  0.4706  0.1162  0.2829
 1825SOL    HW116934   2.834   2.999   8.237 -0.3413  2.1564 -0.4099
 1825SOL    HW216935   2.759   2.880   8.285  2.0311 -0.2057 -0.8452
 1826SOL     OW16936   0.750   1.888   7.740 -0.6294 -0.3709 -0.0867
 1826SOL    HW116937   0.696   1.833   7.682 -1.6021 -1.1622  1.5832
 1826SOL    HW216938   0.679   1.921   7.793  1.0686 -0.4119  2.2096
 1827SOL     OW16939   1.775   4.340   8.564 -0.2754 -0.0315  0.9689
 1827SOL    HW116940   1.863   4.327   8.531 -0.9154  1.2816 -1.3242
 1827SOL    HW216941   1.728   4.304   8.489 -1.4663 -0.6561  2.0008
 1828SOL     OW16942   3.253   1.701  16.182 -0.3758  0.0754 -0.4371
 1828SOL    HW116943   3.239   1.613  16.217 -0.0200  1.1768  2.4909
 1828SOL    HW216944   3.247   1.692  16.087 -1.4420 -0.2676 -0.3347
 1829SOL     OW16945   2.008   0.101   3.737  0.2010  0.5385 -0.5887
 1829SOL    HW116946   1.990   0.071   3.648  0.8698  0.4632 -0.6986
 1829SOL    HW216947   1.926   0.137   3.769 -0.9890 -2.6307 -0.0523
 1830SOL     OW16948   3.245   3.985  16.077 -0.2835 -0.0665 -0.3660
 1830SOL    HW116949   3.330   3.941  16.071  0.0650  0.1434  3.1680
 1830SOL    HW216950   3.269   4.058  16.021 -0.3554 -0.8969 -1.4803
 1831SOL     OW16951   4.217   4.074  17.251 -0.1968 -0.3622 -0.0541
 1831SOL    HW116952   4.268   4.110  17.178  0.8386  2.7156  2.1639
 1831SOL    HW216953   4.209   3.982  17.225 -1.7786  0.1635 -1.4099
 1832SOL     OW16954   2.193   4.037   8.821 -0.9888 -0.2007 -0.2383
 1832SOL    HW116955   2.263   4.091   8.783  1.6558 -3.3303  0.1219
 1832SOL    HW216956   2.141   4.101   8.869  1.2699  0.8079  0.8723
 1833SOL     OW16957   1.839   0.197   7.986 -0.3800 -0.4369 -0.1224
 1833SOL    HW116958   1.924   0.156   7.976  0.5452  1.4884 -0.1615
 1833SOL    HW216959   1.855   0.274   8.040 -0.2274  0.2060 -1.0782
 1834SOL     OW16960   3.517   1.217   9.070 -0.3637  0.1952 -0.2086
 1834SOL    HW116961   3.601   1.253   9.042  1.4451 -1.6755  2.8357
 1834SOL    HW216962   3.464   1.296   9.071  0.1348  0.5152  0.5378
 1835SOL     OW16963   3.585   1.038   4.024 -0.2636 -0.1208  0.5853
 1835SOL    HW116964   3.505   1.079   4.057 -0.4409 -0.1704  0.2225
 1835SOL    HW216965   3.622   0.984   4.094  1.4399  1.3746  0.8334
 1836SOL     OW16966   4.101   3.997   8.254  0.0290 -0.1367 -0.0128
 1836SOL    HW116967   4.187   4.039   8.260 -0.4399  0.8651 -0.4658
 1836SOL    HW216968   4.116   3.937   8.181 -2.8334 -0.0714 -0.6369
 1837SOL     OW16969   2.607   1.035   7.682  0.1934  0.4606  0.0775
 1837SOL    HW116970   2.669   1.016   7.611 -1.2706  1.0997 -1.3770
 1837SOL    HW216971   2.569   0.948   7.691  0.4402  0.0946 -2.4311
 1838SOL     OW16972   1.868   3.294   4.331 -0.1676  0.4065  0.3583
 1838SOL    HW116973   1.944   3.294   4.272 -0.1461  1.0298  0.3880
 1838SOL    HW216974   1.877   3.209   4.374  0.0134  1.2221  1.9169
 1839SOL     OW16975   3.458   2.834   4.177  0.2077 -0.6669 -0.3211
 1839SOL    HW116976   3.538   2.882   4.200 -1.3375  1.6518  0.2433
 1839SOL    HW216977   3.446   2.767   4.245  0.9665 -1.0227 -0.5418
 1840SOL     OW16978   0.505   4.404   3.527 -0.3869  0.3257 -0.0322
 1840SOL    HW116979   0.542   4.371   3.609 -2.1020 -0.2970  0.5028
 1840SOL    HW216980   0.415   4.373   3.539  0.0125 -1.0209 -0.4407
 1841SOL     OW16981   0.805   0.717  14.312 -0.6153  0.2952  0.3209
 1841SOL    HW116982   0.844   0.650  14.255 -0.9758  0.2532  0.1265
 1841SOL    HW216983   0.810   0.681  14.401  1.2884  1.4630  0.6931
 1842SOL     OW16984   2.448   3.833  10.787 -0.2388  0.3828 -0.1684
 1842SOL    HW116985   2.532   3.859  10.749  0.1603 -0.6646  0.0118
 1842SOL    HW216986   2.385   3.854  10.718  0.4690 -0.3162 -1.0290
 1843SOL     OW16987   2.496   3.452  14.088 -0.0364  0.2538  0.0867
 1843SOL    HW116988   2.456   3.536  14.107 -0.4994 -0.1696  0.9668
 1843SOL    HW216989   2.589   3.476  14.083  0.1709 -0.0596  2.6186
 1844SOL     OW16990   1.047   1.721   5.091 -0.4563 -0.2759 -0.1382
 1844SOL    HW116991   1.012   1.723   5.180  0.3159  1.1013  0.1256
 1844SOL    HW216992   0.975   1.747   5.033 -0.8496  0.1194  0.5389
 1845SOL     OW16993   1.838   1.979   5.160  0.0997  0.3459 -0.5731
 1845SOL    HW116994   1.767   1.937   5.208  1.1535  1.8820  2.3625
 1845SOL    HW216995   1.828   1.952   5.069 -0.5800 -1.8659  0.1614
 1846SOL     OW16996   0.736   3.523   3.041  0.4223  0.4257  0.2023
 1846SOL    HW116997   0.756   3.523   3.135  1.7068  1.1033 -0.0616
 1846SOL    HW216998   0.739   3.428   3.030 -0.9193  0.3326  0.6386
 1847SOL     OW16999   2.725   0.387   7.259 -0.4061  0.1005  0.1475
 1847SOL    HW117000   2.786   0.460   7.250  1.0798 -1.0445  0.8815
 1847SOL    HW217001   2.792   0.319   7.268 -0.8902 -0.3287  0.4582
 1848SOL     OW17002   0.444   2.468   6.461  0.2837  0.7431  0.4904
 1848SOL    HW117003   0.540   2.470   6.464  0.3257 -1.4342  0.3805
 1848SOL    HW217004   0.422   2.535   6.526 -0.7494  1.2674 -0.4049
 1849SOL     OW17005   3.780   3.489   4.825  0.4460 -0.0108  0.5848
 1849SOL    HW117006   3.767   3.560   4.762 -0.5380 -2.6243 -2.1389
 1849SOL    HW217007   3.713   3.525   4.884  0.7667  1.4977  0.0217
 1850SOL     OW17008   4.711   1.885   4.096  0.0394  0.0992  0.0693
 1850SOL    HW117009   0.056   1.844   4.154  1.0450 -0.8600 -1.7188
 1850SOL    HW217010   4.655   1.913   4.168  1.4975  0.2574  1.1393
 1851SOL     OW17011   1.218   0.219   8.651  0.2407  0.0664 -0.2884
 1851SOL    HW117012   1.126   0.248   8.646 -0.2032 -1.0257  1.4347
 1851SOL    HW217013   1.229   0.173   8.568  1.1160  0.9951 -0.6847
 1852SOL     OW17014   2.594   0.226   9.175 -0.3216  0.1121  0.2668
 1852SOL    HW117015   2.617   0.196   9.087 -0.2089  0.8808  0.0330
 1852SOL    HW217016   2.582   0.318   9.152  3.0020  0.3745 -0.4305
 1853SOL     OW17017   0.343   0.317   3.655  0.2902 -0.0394 -0.0168
 1853SOL    HW117018   0.359   0.411   3.658 -1.2573  0.2156  0.6468
 1853SOL    HW217019   0.405   0.294   3.724  0.1737  0.9429  0.4259
 1854SOL     OW17020   1.885   3.166   9.799 -0.1061  0.7148  0.4930
 1854SOL    HW117021   1.795   3.183   9.827  0.0792  3.0280 -0.2939
 1854SOL    HW217022   1.869   3.192   9.709  2.3887  0.6855  0.0307
 1855SOL     OW17023   4.118   0.722   9.950  0.1152  0.7691  0.0377
 1855SOL    HW117024   4.082   0.661  10.014 -0.2854  0.3861 -0.5554
 1855SOL    HW217025   4.046   0.730   9.888 -0.0795  2.9144  0.5218
 1856SOL     OW17026   2.142   3.827   8.667 -0.3090 -0.2267 -0.0155
 1856SOL    HW117027   2.125   3.873   8.750 -2.2335 -1.6702  0.3841
 1856SOL    HW217028   2.187   3.893   8.614  1.8613 -1.5222  0.2394
 1857SOL     OW17029   3.614   4.053  12.774  0.3659 -0.0202 -0.4518
 1857SOL    HW117030   3.681   4.069  12.707  0.8974  2.7336  0.7394
 1857SOL    HW217031   3.578   4.141  12.788  1.4683  0.4065 -0.3035
 1858SOL     OW17032   0.400   0.019   6.297  0.1044  0.2780  0.1447
 1858SOL    HW117033   0.458   0.090   6.268 -2.3349  1.1621 -2.5646
 1858SOL    HW217034   0.467   4.688   6.343 -1.6572 -1.7588  0.4530
 1859SOL     OW17035   1.128   1.048   8.896  0.4798  0.0819 -0.1619
 1859SOL    HW117036   1.113   1.139   8.922 -0.9145 -0.3084  0.4039
 1859SOL    HW217037   1.224   1.040   8.895  0.8078  4.0403 -1.2781
 1860SOL     OW17038   3.722   3.785   2.399  0.5614 -0.0638 -0.2257
 1860SOL    HW117039   3.684   3.845   2.335 -0.5360 -0.8469 -0.3176
 1860SOL    HW217040   3.701   3.700   2.362  0.2608  1.0367 -2.5591
 1861SOL     OW17041   3.648   3.400   7.980 -0.3908  0.2084 -0.5580
 1861SOL    HW117042   3.703   3.322   7.986 -0.4948  0.1655 -0.0980
 1861SOL    HW217043   3.687   3.448   8.053 -1.8658  0.9113 -0.2228
 1862SOL     OW17044   4.010   2.326   9.956  0.1308 -0.2301  0.3629
 1862SOL    HW117045   3.965   2.408   9.936  2.1565  0.3655 -1.7325
 1862SOL    HW217046   3.991   2.271   9.880 -0.5729  1.1951 -0.4742
 1863SOL     OW17047   0.105   1.936   5.075  0.2119 -0.2658  0.2887
 1863SOL    HW117048   0.047   1.891   5.014  2.5860 -3.1579  0.1607
 1863SOL    HW217049   0.051   2.002   5.120 -1.3553  0.2295 -2.3386
 1864SOL     OW17050   4.245   2.040   9.992 -0.3883  0.4794 -0.2917
 1864SOL    HW117051   4.296   1.983  10.050  0.2764  3.2994  1.8701
 1864SOL    HW217052   4.306   2.112   9.978 -0.5319  1.2683  3.2573
 1865SOL     OW17053   0.280   0.820   2.901  0.2133 -0.6186  0.3516
 1865SOL    HW117054   0.268   0.843   2.809  1.2708 -2.8743 -0.3384
 1865SOL    HW217055   0.244   0.888   2.958 -0.2423  1.6256 -2.6634
 1866SOL     OW17056   2.875   4.171   3.454 -0.1667  0.1305 -0.3032
 1866SOL    HW117057   2.949   4.207   3.502 -0.7181  2.2081 -0.9950
 1866SOL    HW217058   2.831   4.119   3.521  1.2605 -1.6374 -0.7523
 1867SOL     OW17059   1.113   4.595   1.084 -0.6876  0.0459 -0.1485
 1867SOL    HW117060   1.081   4.677   1.047 -0.8763 -0.2258 -0.5890
 1867SOL    HW217061   1.114   4.540   1.005 -0.3500  0.2112 -0.2619
 1868SOL     OW17062   2.119   3.822  11.429  0.3254  0.0685  0.1723
 1868SOL    HW117063   2.155   3.894  11.481 -0.3314 -0.8227  1.8567
 1868SOL    HW217064   2.103   3.876  11.352 -0.4127 -0.1583  0.1601
 1869SOL     OW17065   4.368   1.192   2.783 -0.5429  0.1223  0.9114
 1869SOL    HW117066   4.286   1.163   2.743 -0.6092 -0.1282  1.2266
 1869SOL    HW217067   4.364   1.139   2.863 -1.0082 -1.5561 -0.2127
 1870SOL     OW17068   0.447   3.643  10.381  0.2345 -0.1176  0.0326
 1870SOL    HW117069   0.353   3.660  10.371  0.0095 -1.4498 -0.1254
 1870SOL    HW217070   0.456   3.548  10.381  0.1884 -0.1206 -0.2091
 1871SOL     OW17071   1.799   1.507   5.671  0.1273  0.8859  0.0250
 1871SOL    HW117072   1.744   1.474   5.742  0.3573 -0.1084 -0.2534
 1871SOL    HW217073   1.857   1.433   5.650 -0.1054  0.5989  0.4176
 1872SOL     OW17074   2.223   0.380  12.117 -0.4507 -0.1724 -0.2413
 1872SOL    HW117075   2.287   0.399  12.186  0.4972  1.3095 -1.5311
 1872SOL    HW217076   2.145   0.427  12.146 -1.7151 -1.3355 -1.7481
 1873SOL     OW17077   2.137   4.622   7.560  0.0781 -0.2120 -0.0578
 1873SOL    HW117078   2.174   4.653   7.477 -0.2908 -0.4357 -0.3040
 1873SOL    HW217079   2.219   4.627   7.610  1.1082 -3.2161 -1.4425
 1874SOL     OW17080   2.255   0.707   8.034 -0.5711 -0.2491 -0.3488
 1874SOL    HW117081   2.284   0.761   8.108  0.1442  1.2904 -1.7692
 1874SOL    HW217082   2.191   0.764   7.993 -1.1506 -2.1112 -2.0379
 1875SOL     OW17083   2.079   0.677   0.601 -0.0912 -0.2565 -0.1119
 1875SOL    HW117084   2.079   0.596   0.653  0.5594 -0.0362  0.2245
 1875SOL    HW217085   2.172   0.695   0.587 -0.0358 -1.5483 -1.4290
 1876SOL     OW17086   3.551   0.465  12.357  0.5474 -0.0287 -0.2782
 1876SOL    HW117087   3.572   0.469  12.451 -0.0311 -0.7910 -0.1145
 1876SOL    HW217088   3.594   0.543  12.323  1.9621 -0.0996  1.3308
 1877SOL     OW17089   0.383   3.796   4.341  0.1257  0.2725 -0.1685
 1877SOL    HW117090   0.338   3.719   4.307  0.4039  0.3833 -0.7792
 1877SOL    HW217091   0.405   3.761   4.428 -0.4148 -2.7667 -1.2434
 1878SOL     OW17092   2.297   2.124   4.006 -0.3038 -0.5210 -0.1095
 1878SOL    HW117093   2.374   2.080   4.041  0.9903  3.4989  2.0650
 1878SOL    HW217094   2.301   2.204   4.059 -2.7997  1.6155 -3.1229
 1879SOL     OW17095   2.565   1.263   9.933 -0.4575  0.9900 -0.5917
 1879SOL    HW117096   2.485   1.275   9.985  0.5590  1.2214  0.9008
 1879SOL    HW217097   2.618   1.246  10.011  0.8442 -1.3250 -1.9843
 1880SOL     OW17098   3.192   1.306  15.283 -0.0694 -0.0329  0.4357
 1880SOL    HW117099   3.276   1.264  15.267 -0.3248  0.5576 -2.4820
 1880SOL    HW217100   3.141   1.231  15.313 -1.4164  0.9395  0.5829
 1881SOL     OW17101   2.095   1.119   3.184  0.0222  0.0510 -0.0753
 1881SOL    HW117102   2.179   1.126   3.137  0.0131 -0.7979 -0.2083
 1881SOL    HW217103   2.131   1.092   3.269 -2.5004 -0.0804  0.9426
 1882SOL     OW17104   0.448   1.810   3.753  0.1366  0.6037  0.3152
 1882SOL    HW117105   0.368   1.850   3.786 -1.3973 -1.8379 -0.4740
 1882SOL    HW217106   0.412   1.764   3.678 -0.3214  0.5242  0.5835
 1883SOL     OW17107   4.059   2.813   4.895  0.4521 -0.2693  0.5566
 1883SOL    HW117108   3.968   2.782   4.899  0.0610  0.8565  0.5497
 1883SOL    HW217109   4.093   2.725   4.908  2.6299  0.4872  0.0188
 1884SOL     OW17110   0.654   3.388   6.171 -0.4149 -0.3377 -0.0473
 1884SOL    HW117111   0.717   3.318   6.188  0.0661 -0.0237 -0.5663
 1884SOL    HW217112   0.676   3.446   6.244  1.2005 -0.7089 -0.2410
 1885SOL     OW17113   2.062   0.694  13.720 -0.4673  0.2305  0.4335
 1885SOL    HW117114   2.152   0.668  13.739 -0.0882  0.0800 -1.4913
 1885SOL    HW217115   2.038   0.644  13.642  0.9352 -0.5129  0.4798
 1886SOL     OW17116   4.018   4.236  12.645 -0.0902  0.0024  0.6863
 1886SOL    HW117117   4.063   4.257  12.563  1.4088 -0.3445  1.4207
 1886SOL    HW217118   4.059   4.295  12.709 -0.4833 -0.9068  1.7788
 1887SOL     OW17119   0.158   3.056   1.344 -0.5466 -0.0919 -0.1843
 1887SOL    HW117120   0.122   2.989   1.286 -2.2404 -1.4819  2.4602
 1887SOL    HW217121   0.082   3.100   1.382 -0.6560  0.3927 -0.9558
 1888SOL     OW17122   2.429   2.273   2.133 -0.4224 -0.4427  0.4210
 1888SOL    HW117123   2.359   2.234   2.184 -1.5980  1.2489  0.1167
 1888SOL    HW217124   2.510   2.233   2.163 -0.0651 -0.6178 -0.7622
 1889SOL     OW17125   1.704   2.477  16.411  0.1655  0.1374 -0.3297
 1889SOL    HW117126   1.724   2.523  16.492 -0.0701 -2.0268  0.9480
 1889SOL    HW217127   1.694   2.388  16.445 -0.4563  1.0386  1.8742
 1890SOL     OW17128   2.667   0.260   4.978 -0.2240 -0.3412 -0.8933
 1890SOL    HW117129   2.661   0.171   5.011  0.7041  0.0822  0.4286
 1890SOL    HW217130   2.604   0.254   4.906  0.4727 -0.8449 -1.4520
 1891SOL     OW17131   0.728   3.122   3.959  0.0565  0.1540  0.1184
 1891SOL    HW117132   0.797   3.166   3.909 -1.0173  0.9750 -0.6365
 1891SOL    HW217133   0.650   3.169   3.929 -0.6293 -0.4667  0.9326
 1892SOL     OW17134   3.644   1.562  14.845 -0.4623  0.2099 -0.5215
 1892SOL    HW117135   3.561   1.528  14.811  0.3725 -1.4078 -0.9479
 1892SOL    HW217136   3.679   1.481  14.882 -0.8096  0.5324  0.5173
 1893SOL     OW17137   1.965   2.851   1.256  0.1981  0.4233 -0.5133
 1893SOL    HW117138   1.938   2.839   1.347  2.1683 -1.3129 -0.1468
 1893SOL    HW217139   1.908   2.790   1.210 -0.1957  0.0715  0.4627
 1894SOL     OW17140   1.157   1.725   6.754 -0.1690  0.2731  0.6625
 1894SOL    HW117141   1.075   1.774   6.755 -2.1960 -3.0873 -0.4388
 1894SOL    HW217142   1.177   1.703   6.663 -0.2407 -0.3591  0.8008
 1895SOL     OW17143   2.072   0.355   5.038  0.4811  0.3503 -0.9795
 1895SOL    HW117144   2.052   0.351   5.131  1.6467 -0.3437 -0.7615
 1895SOL    HW217145   2.055   0.264   5.012 -0.5115 -0.1386  1.4091
 1896SOL     OW17146   4.536   3.536   7.106 -0.0107 -0.3066  0.2948
 1896SOL    HW117147   4.456   3.551   7.157 -1.0610 -0.1010 -1.4299
 1896SOL    HW217148   4.605   3.582   7.153 -0.7269  2.5001 -1.4145
 1897SOL     OW17149   4.087   0.815   7.776 -0.0218 -0.7215 -0.1539
 1897SOL    HW117150   4.019   0.849   7.834 -1.5783 -0.6791 -1.9711
 1897SOL    HW217151   4.065   0.853   7.691 -2.0647 -0.0931  0.6487
 1898SOL     OW17152   2.562   2.961   5.437 -0.1065  0.1860  0.3552
 1898SOL    HW117153   2.584   2.877   5.477  0.7967  0.0612 -0.3727
 1898SOL    HW217154   2.467   2.957   5.447 -0.0824 -3.3894 -0.8208
 1899SOL     OW17155   2.583   0.922   5.760  0.5412  0.0130 -0.5997
 1899SOL    HW117156   2.606   0.895   5.671 -0.4951 -1.1725 -0.5098
 1899SOL    HW217157   2.532   0.853   5.802  1.9860  0.1323  1.3930
 1900SOL     OW17158   3.438   2.367   6.166 -0.0155  0.0665  0.9290
 1900SOL    HW117159   3.509   2.427   6.145  0.6216 -0.5825  1.2081
 1900SOL    HW217160   3.494   2.305   6.213  0.0053 -0.4248  0.2537
 1901SOL     OW17161   3.446   2.903   6.611 -0.3940  0.2963 -0.1636
 1901SOL    HW117162   3.366   2.913   6.559  0.4435 -0.7259 -1.6548
 1901SOL    HW217163   3.411   2.872   6.694 -1.1829 -0.0136 -0.6071
 1902SOL     OW17164   0.709   3.942   7.831 -0.2347 -0.1950  0.1739
 1902SOL    HW117165   0.712   3.949   7.926 -1.0616  0.1651  0.1746
 1902SOL    HW217166   0.798   3.971   7.813  0.1237 -0.8108  0.9472
 1903SOL     OW17167   0.329   4.232   5.104  0.4725  0.1373 -0.2393
 1903SOL    HW117168   0.424   4.223   5.094  0.2593 -1.9618 -0.1933
 1903SOL    HW217169   0.294   4.144   5.113 -1.2128  0.7849 -0.3940
 1904SOL     OW17170   0.495   1.147   5.009  0.1679 -0.1114 -0.6016
 1904SOL    HW117171   0.420   1.203   5.030 -0.0060 -0.6536  0.2616
 1904SOL    HW217172   0.501   1.095   5.089  1.1334 -0.0557 -0.6388
 1905SOL     OW17173   0.232   3.338   5.778 -0.1322  0.6107  0.3481
 1905SOL    HW117174   0.198   3.264   5.828  1.3520  0.4313  1.0798
 1905SOL    HW217175   0.327   3.326   5.783 -0.1466 -0.4328 -1.8873
 1906SOL     OW17176   2.483   0.390   3.261  0.0847  0.2203 -0.3104
 1906SOL    HW117177   2.500   0.297   3.274 -3.8183 -0.3581  0.5183
 1906SOL    HW217178   2.574   0.419   3.269  0.7181 -1.7143 -0.3605
 1907SOL     OW17179   1.437   2.324  12.444 -0.3088  0.7755  0.2674
 1907SOL    HW117180   1.492   2.402  12.453  0.3163  0.0046  3.2703
 1907SOL    HW217181   1.399   2.323  12.357  0.8867 -1.9313 -0.2272
 1908SOL     OW17182   3.001   0.067   4.789 -0.6280  0.4379 -0.0151
 1908SOL    HW117183   3.091   0.085   4.761  0.0781 -0.1500  1.8643
 1908SOL    HW217184   2.945   0.103   4.721  0.7241  1.2572 -0.6985
 1909SOL     OW17185   2.694   1.848   9.416  0.1429  0.3954 -0.4041
 1909SOL    HW117186   2.679   1.928   9.466  0.9701 -0.8043  1.7733
 1909SOL    HW217187   2.628   1.844   9.347  0.6108  2.0042 -0.9636
 1910SOL     OW17188   3.439   0.471   9.017  0.2740 -0.0110 -0.0068
 1910SOL    HW117189   3.520   0.489   8.969 -0.7408  0.0733 -1.6614
 1910SOL    HW217190   3.473   0.497   9.103  1.4848  1.2584 -0.8560
 1911SOL     OW17191   1.790   3.382   1.507 -0.7170 -0.4375 -0.2829
 1911SOL    HW117192   1.819   3.430   1.429 -0.1117 -1.2675 -0.5704
 1911SOL    HW217193   1.807   3.455   1.567 -3.0496 -0.4884  0.4394
 1912SOL     OW17194   0.163   3.353   4.662  0.0422 -0.5965  0.6389
 1912SOL    HW117195   0.208   3.364   4.745  0.6800 -1.1421  0.3650
 1912SOL    HW217196   0.243   3.339   4.611 -0.5994 -0.4326 -0.4253
 1913SOL     OW17197   0.461   1.927   3.082  0.2958 -0.0167  0.0256
 1913SOL    HW117198   0.474   1.955   2.991  2.5847  1.0272  0.6842
 1913SOL    HW217199   0.385   1.982   3.104  0.8625  1.1787 -0.9915
 1914SOL     OW17200   2.321   1.248  10.050  0.5545 -0.4881 -0.6379
 1914SOL    HW117201   2.280   1.291  10.125 -0.0231 -0.0647 -1.1927
 1914SOL    HW217202   2.359   1.169  10.089  2.3800  1.3880  1.3230
 1915SOL     OW17203   1.177   4.332   6.955  0.0469 -0.2936  0.4504
 1915SOL    HW117204   1.231   4.400   6.995 -1.5748  0.3627  1.5268
 1915SOL    HW217205   1.242   4.283   6.905  0.1157  2.7873 -2.5192
 1916SOL     OW17206   4.694   1.672   6.724  0.0379  0.2076  0.0011
 1916SOL    HW117207   4.610   1.626   6.721  1.7619 -3.0197  0.6716
 1916SOL    HW217208   4.665   1.753   6.766 -0.9624 -0.5482  0.7977
 1917SOL     OW17209   0.648   1.077  10.720  0.1301  0.2001 -0.6030
 1917SOL    HW117210   0.714   1.117  10.663  0.6596  1.0063  0.5711
 1917SOL    HW217211   0.682   0.988  10.718 -0.5283 -0.1004  1.5937
 1918SOL     OW17212   2.929   0.418   1.849  0.0015  0.1859  0.4649
 1918SOL    HW117213   2.963   0.469   1.776  0.8790 -0.0205  0.7381
 1918SOL    HW217214   2.859   0.474   1.883 -2.4840 -2.4148 -0.3144
 1919SOL     OW17215   1.763   3.420   8.304 -0.1212 -0.6906 -0.1382
 1919SOL    HW117216   1.669   3.423   8.284  0.0995  1.5711 -0.8784
 1919SOL    HW217217   1.767   3.406   8.399  0.2777 -2.5871 -0.4357
 1920SOL     OW17218   3.962   1.404   6.300 -0.2322  0.3157 -0.4558
 1920SOL    HW117219   3.952   1.498   6.317 -1.3478 -0.5975  3.7900
 1920SOL    HW217220   3.916   1.371   6.377  2.0615 -2.0467 -0.0815
 1921SOL     OW17221   0.874   2.289   7.125 -0.2960  0.5164 -0.3002
 1921SOL    HW117222   0.919   2.315   7.205  2.4429 -0.9917 -1.3457
 1921SOL    HW217223   0.805   2.237   7.167  0.8777 -1.8104 -1.2626
 1922SOL     OW17224   4.474   2.767   2.484 -0.2973  0.2048  0.4671
 1922SOL    HW117225   4.387   2.748   2.519  0.3291 -0.7110  1.5101
 1922SOL    HW217226   4.480   2.687   2.431  1.2994  0.4024  0.3319
 1923SOL     OW17227   0.219   1.351  14.409  0.5848 -0.3764  0.0569
 1923SOL    HW117228   0.249   1.440  14.392 -1.2239  0.0477 -0.8439
 1923SOL    HW217229   0.293   1.324  14.463  0.8195 -0.1866 -0.1689
 1924SOL     OW17230   0.257   3.795   9.759  0.3402  0.0365  0.5309
 1924SOL    HW117231   0.330   3.832   9.710  0.4573 -2.3269 -1.0539
 1924SOL    HW217232   0.228   3.872   9.808  1.2151 -0.2273  1.4729
 1925SOL     OW17233   4.316   4.099  14.256  0.2326 -0.1030 -0.2638
 1925SOL    HW117234   4.400   4.078  14.296  1.4345  0.2262 -2.6481
 1925SOL    HW217235   4.348   4.114  14.167  0.0826  0.7081 -0.1809
 1926SOL     OW17236   2.165   3.789  12.282  0.0975 -0.2505 -0.0609
 1926SOL    HW117237   2.210   3.720  12.330 -0.1054 -0.9615 -0.9012
 1926SOL    HW217238   2.074   3.761  12.267 -0.2165  0.4639  0.5182
 1927SOL     OW17239   3.099   2.009   5.161 -0.4387 -0.2876  0.5618
 1927SOL    HW117240   3.104   1.918   5.131  0.6368 -0.3882  1.0272
 1927SOL    HW217241   3.189   2.035   5.141 -0.8233  1.2669  0.8926
 1928SOL     OW17242   1.404   0.186   4.257 -0.5337  0.0180  0.5370
 1928SOL    HW117243   1.421   0.266   4.208  4.8045 -1.3828  0.0969
 1928SOL    HW217244   1.485   0.140   4.236  0.3860  1.0729  1.7778
 1929SOL     OW17245   4.254   4.542   4.614  0.0661  0.2843  0.2702
 1929SOL    HW117246   4.310   4.465   4.629  0.8809  0.4118 -2.1783
 1929SOL    HW217247   4.307   4.606   4.662  0.4240 -1.4872  2.2988
 1930SOL     OW17248   4.205   4.608   8.472  0.3980  0.1297 -0.0266
 1930SOL    HW117249   4.169   4.695   8.453 -0.5607 -0.7087 -1.9877
 1930SOL    HW217250   4.257   4.629   8.550  0.6336  1.8306 -0.6418
 1931SOL     OW17251   2.293   3.913  10.564  0.1528 -0.4099 -0.2838
 1931SOL    HW117252   2.311   4.001  10.532 -0.6529  0.6021  2.1455
 1931SOL    HW217253   2.301   3.874  10.476 -0.6255  0.0083 -0.5386
 1932SOL     OW17254   3.784   0.361   1.078 -0.0704  0.3459  0.2006
 1932SOL    HW117255   3.840   0.403   1.144  1.1086 -1.2648  0.2165
 1932SOL    HW217256   3.841   0.347   1.002  0.3911 -1.6161  0.9022
 1933SOL     OW17257   2.545   4.365   5.179 -0.0424  0.9512  0.1234
 1933SOL    HW117258   2.460   4.364   5.134  0.4176  0.1733 -0.7178
 1933SOL    HW217259   2.592   4.312   5.115  1.1805  4.4909 -1.9178
 1934SOL     OW17260   3.436   4.644   5.303 -0.2935 -0.2852 -0.5197
 1934SOL    HW117261   3.388   4.606   5.377  1.0676 -1.1197 -0.0756
 1934SOL    HW217262   3.513   4.588   5.313  0.2344  0.8002  1.4972
 1935SOL     OW17263   0.405   3.183   3.386 -0.1534  0.2723  0.0251
 1935SOL    HW117264   0.312   3.161   3.390 -0.8118  2.8566 -1.2160
 1935SOL    HW217265   0.437   3.114   3.444 -0.1918 -0.2360 -0.5707
 1936SOL     OW17266   4.129   4.437  10.162 -0.1061 -0.0986  0.1678
 1936SOL    HW117267   4.223   4.458  10.163  0.4906 -2.7442 -0.1309
 1936SOL    HW217268   4.116   4.431  10.257 -0.1676  0.9632  0.2264
 1937SOL     OW17269   0.241   2.524   1.520 -0.2981 -0.3226  0.2497
 1937SOL    HW117270   0.331   2.555   1.523 -0.8858  1.3344  0.6452
 1937SOL    HW217271   0.225   2.495   1.610  1.4252 -2.7027 -0.1997
 1938SOL     OW17272   0.534   2.521   5.397  0.3611  0.7283 -0.5388
 1938SOL    HW117273   0.556   2.596   5.453  1.1878  2.1048 -2.7135
 1938SOL    HW217274   0.440   2.533   5.382  0.2035  0.0269 -0.1348
 1939SOL     OW17275   0.621   1.839  14.715 -0.0895 -0.7258  0.8377
 1939SOL    HW117276   0.565   1.916  14.727  0.6675  0.2665 -2.1211
 1939SOL    HW217277   0.591   1.820  14.627  2.2412 -1.5817  0.2303
 1940SOL     OW17278   2.970   2.584   0.053  0.3947  0.4295  0.5967
 1940SOL    HW117279   2.892   2.615   0.098  1.8447  2.0081  2.0344
 1940SOL    HW217280   2.969   2.628  17.649  0.0666 -2.7660 -1.0623
 1941SOL     OW17281   2.682   3.739  17.473 -0.1144 -0.3588 -0.3736
 1941SOL    HW117282   2.773   3.749  17.501  0.0651  1.2983 -1.5392
 1941SOL    HW217283   2.703   3.666  17.416  0.2737 -0.4704 -0.0840
 1942SOL     OW17284   1.048   4.474   3.877 -0.1929  0.2305 -0.0505
 1942SOL    HW117285   0.989   4.475   3.953  0.5796 -1.0141  0.5675
 1942SOL    HW217286   1.009   4.539   3.819  0.3728  0.7956  0.1912
 1943SOL     OW17287   4.117   0.492   8.336  0.3893  0.8123  0.8888
 1943SOL    HW117288   4.181   0.426   8.310  0.2951  1.5981 -1.3463
 1943SOL    HW217289   4.148   0.512   8.425 -0.2814 -1.3342  1.6069
 1944SOL     OW17290   3.918   4.574   0.695  0.0772  0.2598  0.2042
 1944SOL    HW117291   3.940   4.667   0.702  2.2822 -0.2866  0.4914
 1944SOL    HW217292   3.961   4.540   0.774  0.0077  2.7772  1.3142
 1945SOL     OW17293   4.365   3.960   1.400 -0.5536 -0.3083  0.2128
 1945SOL    HW117294   4.272   3.973   1.383 -0.4545  1.5685  1.1759
 1945SOL    HW217295   4.388   4.052   1.388  2.3509 -0.8692  1.4469
 1946SOL     OW17296   1.712   2.554   0.613  0.0019  0.2231 -0.1775
 1946SOL    HW117297   1.637   2.578   0.667 -0.0728  1.9368 -1.0538
 1946SOL    HW217298   1.738   2.470   0.651  2.6583  1.6097  1.0788
 1947SOL     OW17299   3.596   2.269   3.093 -0.0423 -0.1953  0.0535
 1947SOL    HW117300   3.628   2.321   3.019 -1.5540  0.4250 -0.1643
 1947SOL    HW217301   3.547   2.333   3.145 -0.7028  0.4024 -1.2864
 1948SOL     OW17302   3.602   1.923   6.215  0.1419  0.0588 -0.3092
 1948SOL    HW117303   3.529   1.866   6.193 -1.3379  2.3039 -1.2071
 1948SOL    HW217304   3.623   1.890   6.302  2.9297 -0.4977 -1.1673
 1949SOL     OW17305   2.382   0.898   2.691 -0.0722  0.0669  0.0886
 1949SOL    HW117306   2.471   0.911   2.724  0.7479 -1.5681 -1.4713
 1949SOL    HW217307   2.393   0.814   2.646 -0.9311 -0.7878  1.4678
 1950SOL     OW17308   4.155   0.140   6.602  0.1474 -0.1113 -0.5429
 1950SOL    HW117309   4.164   0.233   6.582 -1.7980  0.1377 -0.2377
 1950SOL    HW217310   4.102   0.109   6.528  0.8308 -1.1681 -0.5958
 1951SOL     OW17311   2.608   1.699   0.362  0.3681  0.2563 -0.9413
 1951SOL    HW117312   2.565   1.622   0.400  0.5177  0.8727  0.4649
 1951SOL    HW217313   2.533   1.758   0.353  0.9539  1.1471  0.0258
 1952SOL     OW17314   4.257   1.283   5.110  0.1303  0.2035  0.1570
 1952SOL    HW117315   4.216   1.369   5.109 -1.5617 -0.6182 -1.1411
 1952SOL    HW217316   4.284   1.270   5.201  2.8905 -0.0676 -0.6958
 1953SOL     OW17317   3.654   0.634   2.728 -0.3824  0.1257  0.2276
 1953SOL    HW117318   3.652   0.558   2.670 -0.7953 -0.4583  0.9999
 1953SOL    HW217319   3.717   0.685   2.679 -1.3728  0.3997 -0.7526
 1954SOL     OW17320   0.059   3.680   7.579 -0.3505  0.4657  0.1938
 1954SOL    HW117321   0.084   3.611   7.642  0.3206  0.5880  0.0639
 1954SOL    HW217322   0.045   3.623   7.504 -0.6463  0.6371  0.1189
 1955SOL     OW17323   1.584   4.153   9.551  0.3214  0.2769 -0.1936
 1955SOL    HW117324   1.540   4.221   9.603  3.1865  1.5818  0.5251
 1955SOL    HW217325   1.642   4.120   9.619 -0.1099  0.5254  0.2988
 1956SOL     OW17326   1.346   3.725   1.910  0.2101  0.3193  0.5007
 1956SOL    HW117327   1.331   3.718   2.004  0.2059 -1.9448  0.3466
 1956SOL    HW217328   1.325   3.817   1.896  1.1440  0.7109  1.6406
 1957SOL     OW17329   4.554   4.332   2.437 -0.5732  0.4504 -0.3453
 1957SOL    HW117330   4.472   4.374   2.412 -1.6513 -1.1665  0.5777
 1957SOL    HW217331   4.614   4.406   2.447  0.7088 -1.0011  2.5731
 1958SOL     OW17332   3.084   1.773   9.154  0.0768  0.4195 -0.0125
 1958SOL    HW117333   3.173   1.797   9.129 -0.2567  0.7815 -0.8440
 1958SOL    HW217334   3.110   1.753   9.244  0.9983  0.1690 -0.3370
 1959SOL     OW17335   1.661   1.584   6.201 -0.0203 -0.4060 -0.2368
 1959SOL    HW117336   1.584   1.639   6.217  1.1261  0.9053  0.8268
 1959SOL    HW217337   1.663   1.595   6.106 -0.1422  0.9378 -0.0949
 1960SOL     OW17338   2.732   1.605   6.183 -0.2956  0.1276 -0.4659
 1960SOL    HW117339   2.696   1.516   6.188  0.8900 -0.2930  0.6326
 1960SOL    HW217340   2.819   1.602   6.221 -0.8912  0.4998  0.9335
 1961SOL     OW17341   4.327   1.125   6.613 -0.6979  0.6121 -0.0665
 1961SOL    HW117342   4.394   1.056   6.614 -2.6074 -1.2387 -0.1409
 1961SOL    HW217343   4.344   1.153   6.703 -0.4037  1.8971 -0.5195
 1962SOL     OW17344   3.119   4.688   0.877  1.0419  0.9901 -0.1615
 1962SOL    HW117345   3.097   4.690   0.784  0.9265 -0.4953 -0.1753
 1962SOL    HW217346   3.034   4.683   0.920  0.5166  1.9250 -1.0809
 1963SOL     OW17347   3.565   0.187   4.915 -0.1063 -0.4270 -0.2035
 1963SOL    HW117348   3.501   0.138   4.966 -0.1127  0.2930  0.4918
 1963SOL    HW217349   3.527   0.274   4.926  0.2740 -0.1981 -0.6582
 1964SOL     OW17350   0.756   4.698   7.115 -0.0394 -0.1935 -0.2321
 1964SOL    HW117351   0.794   4.613   7.095 -0.1684  0.1569 -1.9361
 1964SOL    HW217352   0.830   0.032   7.089  0.8392 -1.5866 -0.5882
 1965SOL     OW17353   1.726   2.545   9.064  0.2501 -0.2151 -0.2919
 1965SOL    HW117354   1.667   2.620   9.060  1.4118  0.6934 -0.5669
 1965SOL    HW217355   1.666   2.472   9.045  0.8387 -0.8502  0.2824
 1966SOL     OW17356   1.494   4.101   3.937 -0.3336 -0.9788 -0.0921
 1966SOL    HW117357   1.425   4.150   3.891  1.0040  1.0617  0.0760
 1966SOL    HW217358   1.568   4.142   3.891 -1.5006  0.1574 -0.9699
 1967SOL     OW17359   0.840   0.787   0.405 -0.1887  0.5829 -0.5335
 1967SOL    HW117360   0.841   0.790   0.309  0.8607 -0.3393 -0.5525
 1967SOL    HW217361   0.928   0.749   0.414 -0.3115  0.7248  1.1297
 1968SOL     OW17362   1.756   2.710   3.415  0.2190 -0.0674 -0.0474
 1968SOL    HW117363   1.800   2.683   3.496  2.4601 -1.8082 -1.8671
 1968SOL    HW217364   1.701   2.633   3.403 -0.3330  0.3971 -0.4961
 1969SOL     OW17365   3.502   0.826   4.794  0.6842 -0.4341 -0.1362
 1969SOL    HW117366   3.512   0.898   4.856 -0.2655 -1.1174  0.8037
 1969SOL    HW217367   3.571   0.766   4.824  0.6137  0.5223  1.9459
 1970SOL     OW17368   2.907   0.917  12.848  0.0463  0.6362 -0.6454
 1970SOL    HW117369   2.955   0.841  12.817 -0.9234  0.2307 -1.1844
 1970SOL    HW217370   2.829   0.884  12.893  1.3162 -1.8283 -0.3207
 1971SOL     OW17371   3.909   3.093   3.124 -0.1299 -0.3066 -0.2500
 1971SOL    HW117372   3.989   3.075   3.075 -0.3768 -1.6756 -0.1470
 1971SOL    HW217373   3.879   3.003   3.115  1.5914 -1.0204  1.3321
 1972SOL     OW17374   1.212   1.536   3.420 -0.3344 -0.4552 -0.0863
 1972SOL    HW117375   1.132   1.585   3.400  0.7762  0.8085 -1.4999
 1972SOL    HW217376   1.209   1.485   3.339  0.8923  1.2528 -1.2092
 1973SOL     OW17377   2.943   1.283   4.190  0.1575  0.4611 -0.5108
 1973SOL    HW117378   2.885   1.213   4.221  1.1507 -0.5196 -0.8271
 1973SOL    HW217379   2.902   1.292   4.104 -0.6190 -0.5947 -0.2567
 1974SOL     OW17380   2.827   4.018   6.552 -0.4595 -0.1081 -0.4950
 1974SOL    HW117381   2.832   3.923   6.540  0.2301 -0.1575  0.1460
 1974SOL    HW217382   2.758   4.027   6.618  0.8810 -0.4739  0.9503
 1975SOL     OW17383   2.654   3.863   1.376  0.8867 -0.2294  0.2338
 1975SOL    HW117384   2.740   3.876   1.337  1.6938  0.0767  2.1058
 1975SOL    HW217385   2.597   3.813   1.317  1.2291 -0.4641  0.0996
 1976SOL     OW17386   3.433   4.258   1.561 -0.3470  0.3089 -0.5183
 1976SOL    HW117387   3.484   4.279   1.482 -1.2154  1.6572 -0.7164
 1976SOL    HW217388   3.353   4.221   1.523  0.7862 -3.6357  0.8922
 1977SOL     OW17389   2.542   0.574   4.117  0.0668 -0.5922  0.6700
 1977SOL    HW117390   2.606   0.555   4.048  0.8762  1.3805  0.8820
 1977SOL    HW217391   2.584   0.622   4.189  1.3759 -1.8701  0.7488
 1978SOL     OW17392   3.706   4.054   3.323  0.7842 -0.0894 -0.3905
 1978SOL    HW117393   3.747   4.126   3.277  0.8592  0.2490  0.2113
 1978SOL    HW217394   3.775   3.988   3.328 -1.5410 -2.4551  0.6192
 1979SOL     OW17395   3.794   4.699   2.872  0.0160  0.2657 -0.2699
 1979SOL    HW117396   3.721   4.680   2.813 -0.4866  1.3001  0.0045
 1979SOL    HW217397   3.828   0.067   2.850 -0.7771  0.6401 -0.0037
 1980SOL     OW17398   0.069   0.916  14.220  0.1571 -0.3287  0.3705
 1980SOL    HW117399   0.010   0.842  14.234 -0.8849  0.8753  2.3541
 1980SOL    HW217400   0.151   0.869  14.232 -0.2344 -0.8925  0.8531
 1981SOL     OW17401   2.512   3.256   6.521  0.1031  0.0506  0.2218
 1981SOL    HW117402   2.503   3.344   6.556  0.0368 -1.3213  3.6824
 1981SOL    HW217403   2.448   3.203   6.568  1.1313  0.1766  1.7537
 1982SOL     OW17404   3.255   2.746   3.563  0.2133  0.2618 -0.2809
 1982SOL    HW117405   3.219   2.710   3.644  1.1908 -1.2009 -0.4870
 1982SOL    HW217406   3.297   2.828   3.591  2.5539 -1.8418  2.4187
 1983SOL     OW17407   0.514   1.124   2.333  0.0974 -0.5769 -0.0601
 1983SOL    HW117408   0.461   1.180   2.277  0.1259 -0.7624 -0.2715
 1983SOL    HW217409   0.437   1.087   2.376 -0.6017  1.1154  0.1476
 1984SOL     OW17410   2.435   2.827   3.485 -0.1489 -0.2433  0.0968
 1984SOL    HW117411   2.378   2.898   3.514 -0.1676 -0.8456  1.5139
 1984SOL    HW217412   2.372   2.757   3.466 -0.4563 -0.0677  0.4802
 1985SOL     OW17413   1.414   2.130  15.765  0.2105  0.9120 -0.2509
 1985SOL    HW117414   1.427   2.043  15.803 -0.7189 -0.2792 -2.6296
 1985SOL    HW217415   1.433   2.182  15.843 -1.7619 -1.4216  1.7755
 1986SOL     OW17416   1.132   2.157   2.142  0.3563  0.4454 -0.2271
 1986SOL    HW117417   1.110   2.250   2.146 -2.2097 -0.2848  2.4338
 1986SOL    HW217418   1.212   2.170   2.194  1.4176 -1.7583 -1.2887
 1987SOL     OW17419   4.152   2.618   8.374 -0.1375 -0.2631  0.0206
 1987SOL    HW117420   4.210   2.619   8.451  1.1667  0.5420 -0.9694
 1987SOL    HW217421   4.073   2.639   8.424  0.3350 -0.1899  0.7390
 1988SOL     OW17422   4.117   3.565   4.641  0.3496  0.3174  0.3630
 1988SOL    HW117423   4.038   3.567   4.586  1.5393 -0.3744 -1.3808
 1988SOL    HW217424   4.187   3.594   4.583 -0.1500 -0.2170 -0.5112
 1989SOL     OW17425   4.103   3.940  13.700 -0.2707 -0.0018 -0.4140
 1989SOL    HW117426   4.190   3.978  13.688  0.0195 -0.8453 -0.9713
 1989SOL    HW217427   4.083   3.917  13.609 -1.8644  2.6906 -0.7544
 1990SOL     OW17428   0.978   3.106  14.815 -0.4785  0.1255 -0.1610
 1990SOL    HW117429   0.996   3.171  14.883 -0.8091  0.3573 -0.2993
 1990SOL    HW217430   0.883   3.112  14.823 -0.6142 -0.6127 -1.2744
 1991SOL     OW17431   3.155   3.767  12.888  0.3519 -0.1429 -0.5024
 1991SOL    HW117432   3.155   3.862  12.883  0.4403  0.0399  3.2059
 1991SOL    HW217433   3.239   3.742  12.926  0.2219 -1.7905 -1.2796
 1992SOL     OW17434   4.245   2.269   8.522 -0.6057 -0.0661 -0.1090
 1992SOL    HW117435   4.170   2.295   8.576 -0.8804 -1.9126  0.4196
 1992SOL    HW217436   4.253   2.174   8.531  1.8730  0.2610  1.2785
 1993SOL     OW17437   2.288   3.928   6.430 -0.3249  0.3211  0.1045
 1993SOL    HW117438   2.293   3.905   6.522 -1.7347  0.1414  0.1290
 1993SOL    HW217439   2.347   4.003   6.422 -1.4223  1.0731 -0.8501
 1994SOL     OW17440   3.704   1.855   6.448 -0.3347  0.2790  0.0312
 1994SOL    HW117441   3.695   1.784   6.511 -2.5308  1.0561  0.5868
 1994SOL    HW217442   3.730   1.932   6.500  1.5266 -0.9358  0.9104
 1995SOL     OW17443   3.457   0.260   3.110 -0.2437 -0.0478  0.0239
 1995SOL    HW117444   3.548   0.288   3.101 -0.2213  0.4083  1.6514
 1995SOL    HW217445   3.454   0.259   3.205  0.1112 -3.3972  0.0018
 1996SOL     OW17446   3.888   3.282   8.627  0.0309  0.2991 -0.2653
 1996SOL    HW117447   3.823   3.221   8.662 -1.1853  1.2493 -0.8665
 1996SOL    HW217448   3.833   3.360   8.619 -0.6620 -0.2545 -0.8376
 1997SOL     OW17449   0.457   3.194  16.019 -0.1836  0.5070  0.0515
 1997SOL    HW117450   0.530   3.140  15.987 -0.5930  0.6793 -1.1720
 1997SOL    HW217451   0.421   3.236  15.941 -1.7485 -2.1346 -0.6527
 1998SOL     OW17452   2.291   4.095   1.252  0.0783  0.1670 -0.0960
 1998SOL    HW117453   2.243   4.176   1.270  2.8762  0.7525  4.8545
 1998SOL    HW217454   2.279   4.078   1.158  2.8773  1.5763 -0.7166
 1999SOL     OW17455   4.042   0.351   4.717  0.3851 -0.6512 -0.2888
 1999SOL    HW117456   3.949   0.363   4.736  1.5221  3.5975  2.6969
 1999SOL    HW217457   4.078   0.424   4.767 -2.7179  1.7983 -1.6244
 2000SOL     OW17458   3.902   3.246   2.458  0.1227  0.3577  0.1131
 2000SOL    HW117459   3.931   3.337   2.464  0.9408  0.0261  1.2527
 2000SOL    HW217460   3.917   3.216   2.548 -1.3512 -2.3613 -0.5352
 2001SOL     OW17461   4.327   4.468   4.020 -0.2011 -0.4001 -0.0004
 2001SOL    HW117462   4.271   4.485   3.944 -0.1215 -1.8009 -0.3700
 2001SOL    HW217463   4.360   4.554   4.045  0.1829  0.2031 -2.6290
 2002SOL     OW17464   2.105   1.954   2.694  0.2473  0.1617 -0.4352
 2002SOL    HW117465   2.059   2.033   2.722 -1.1499 -1.2513  1.2780
 2002SOL    HW217466   2.043   1.894   2.653  0.6480 -0.6923  0.2013
 2003SOL     OW17467   4.516   2.446  13.748 -0.3411  0.0273  0.2050
 2003SOL    HW117468   4.429   2.486  13.748 -0.3048  0.1228 -1.0064
 2003SOL    HW217469   4.500   2.355  13.726 -1.1605 -0.2810  2.1335
 2004SOL     OW17470   1.581   0.163   2.566  0.0661 -0.0372 -0.5876
 2004SOL    HW117471   1.532   0.211   2.500  0.3721  0.0735 -0.7313
 2004SOL    HW217472   1.508   0.164   2.629 -0.3892  0.8024 -1.1288
 2005SOL     OW17473   3.091   3.065   4.128  0.2159  0.3435  0.0186
 2005SOL    HW117474   3.031   3.073   4.054  1.4999  0.2016 -1.0560
 2005SOL    HW217475   3.163   3.117   4.091  0.6984  0.0864  0.5928
 2006SOL     OW17476   2.236   0.459  13.785 -0.1154 -0.2161  0.1974
 2006SOL    HW117477   2.255   0.367  13.800 -2.3252 -0.6782  0.1117
 2006SOL    HW217478   2.140   0.460  13.789 -0.1578  1.4411 -0.8988
 2007SOL     OW17479   4.173   0.136   8.404  0.7870  0.2466 -0.1863
 2007SOL    HW117480   4.155   0.209   8.463 -1.8477 -0.1128 -0.5352
 2007SOL    HW217481   4.252   0.168   8.361  0.1375 -0.7626 -2.1281
 2008SOL     OW17482   4.256   0.925   8.950 -0.3645 -0.5179  0.3762
 2008SOL    HW117483   4.318   0.884   9.011  1.2090  1.2426 -0.0442
 2008SOL    HW217484   4.221   0.843   8.916 -0.4939 -0.2022 -0.2545
 2009SOL     OW17485   2.765   1.429   2.369  0.7288  0.1598 -0.6522
 2009SOL    HW117486   2.738   1.361   2.308 -0.2663  0.7195 -0.8224
 2009SOL    HW217487   2.696   1.421   2.434  0.6698 -0.6327 -0.8115
 2010SOL     OW17488   2.008   3.762   3.664 -0.5263 -0.1167  0.4547
 2010SOL    HW117489   1.916   3.758   3.689 -0.8036  0.6726 -0.4368
 2010SOL    HW217490   2.033   3.677   3.700 -0.1051 -0.0888  0.2282
 2011SOL     OW17491   1.258   3.275   7.156 -0.0439  0.0671  0.2539
 2011SOL    HW117492   1.227   3.196   7.199  2.5605 -0.8602  0.4690
 2011SOL    HW217493   1.196   3.290   7.085  1.5733  2.5196 -0.6746
 2012SOL     OW17494   1.202   1.579  14.475 -0.0334  0.3449  0.6022
 2012SOL    HW117495   1.131   1.608  14.417  0.8994  1.4579  0.0035
 2012SOL    HW217496   1.227   1.499  14.429  0.3959 -0.3849  2.1346
 2013SOL     OW17497   3.310   4.253   0.239  0.3552 -0.4619  0.3760
 2013SOL    HW117498   3.241   4.319   0.226 -2.0259 -3.4077 -2.1882
 2013SOL    HW217499   3.257   4.177   0.217 -1.3874  0.2619  2.0314
 2014SOL     OW17500   1.994   4.552   1.734  0.4602 -0.1190  0.3310
 2014SOL    HW117501   2.016   4.614   1.804  1.1404 -2.2772  2.0271
 2014SOL    HW217502   2.036   4.594   1.659  1.0489 -0.8170  0.2693
 2015SOL     OW17503   4.681   1.862   4.866  0.7301 -0.1551  0.7917
 2015SOL    HW117504   4.589   1.856   4.890  0.4463  0.0138 -0.2803
 2015SOL    HW217505   4.693   1.787   4.807  2.7128  1.4719 -0.8642
 2016SOL     OW17506   4.536   0.563   4.513 -0.2042  0.2530 -0.0145
 2016SOL    HW117507   4.513   0.655   4.522  2.9165  1.1031 -0.6577
 2016SOL    HW217508   4.533   0.525   4.601 -0.1821 -0.0481 -0.1421
 2017SOL     OW17509   2.466   2.166  16.973  0.0065 -0.2210  0.8015
 2017SOL    HW117510   2.385   2.117  16.964 -0.6449  0.6385  1.9739
 2017SOL    HW217511   2.508   2.113  17.041 -1.1375  0.5773  2.1266
 2018SOL     OW17512   0.486   1.678   2.698  0.2929 -0.2648  0.4235
 2018SOL    HW117513   0.535   1.675   2.781 -0.1449  0.7241  0.7168
 2018SOL    HW217514   0.408   1.728   2.720 -0.4064 -0.3714 -1.8457
 2019SOL     OW17515   0.298   1.487   2.923 -0.2438 -0.1253  0.4327
 2019SOL    HW117516   0.243   1.565   2.913 -1.2452 -1.2304 -2.7427
 2019SOL    HW217517   0.241   1.411   2.915  0.2308 -0.3625 -0.6314
 2020SOL     OW17518   3.782   2.699   2.835 -0.2200 -0.1165 -0.3169
 2020SOL    HW117519   3.733   2.769   2.792 -1.2471 -1.0896 -0.7146
 2020SOL    HW217520   3.862   2.692   2.784  0.3541 -0.3376  0.6162
 2021SOL     OW17521   0.791   2.455   3.765  0.4381 -0.0476  0.3613
 2021SOL    HW117522   0.747   2.420   3.842 -0.4255 -0.6068 -0.3887
 2021SOL    HW217523   0.736   2.422   3.694  1.1358 -2.4857  0.9431
 2022SOL     OW17524   1.224   0.495   1.636  0.1921 -0.4633  0.3640
 2022SOL    HW117525   1.232   0.577   1.685  1.4557 -0.5604  0.3061
 2022SOL    HW217526   1.151   0.445   1.673  0.3357  0.7724  2.3407
 2023SOL     OW17527   4.439   4.693   4.087 -0.0199  0.8734 -0.0772
 2023SOL    HW117528   4.496   0.004   4.016  0.0333  0.4655 -0.2119
 2023SOL    HW217529   4.416   0.053   4.135  0.3720  0.3538  0.9740
 2024SOL     OW17530   0.958   4.656   2.764  0.1255  0.3349  0.4105
 2024SOL    HW117531   0.968   4.581   2.705 -0.4597 -0.4097  1.2507
 2024SOL    HW217532   0.868   4.680   2.743  0.7196  0.2949 -2.0984
 2025SOL     OW17533   0.527   0.672   7.996  0.5716 -0.4871  0.0187
 2025SOL    HW117534   0.545   0.579   7.987 -1.7072 -0.9603  0.3939
 2025SOL    HW217535   0.581   0.691   8.073  0.7081 -0.3287 -0.1146
 2026SOL     OW17536   4.205   3.755   6.124  0.4181  0.6332  0.0803
 2026SOL    HW117537   4.194   3.696   6.049 -0.9394  0.3476  0.5122
 2026SOL    HW217538   4.186   3.843   6.091  1.7783  0.5448 -0.9643
 2027SOL     OW17539   2.728   1.739   4.033 -0.3133 -0.2166  0.1778
 2027SOL    HW117540   2.707   1.711   3.943  1.8289  2.5964 -1.2062
 2027SOL    HW217541   2.775   1.660   4.062 -2.0875 -1.1137  0.5992
 2028SOL     OW17542   4.397   2.039   1.252 -0.1302 -0.0515 -0.3587
 2028SOL    HW117543   4.304   2.061   1.248  0.2987  2.0886  1.0080
 2028SOL    HW217544   4.428   2.127   1.229 -3.3137  1.1740  0.0442
 2029SOL     OW17545   1.900   1.992   5.855  0.2218 -0.4807 -0.4959
 2029SOL    HW117546   1.991   2.004   5.882  0.2479  2.1667 -1.7876
 2029SOL    HW217547   1.911   1.900   5.830  0.4224 -1.0307  1.6031
 2030SOL     OW17548   1.514   2.056   2.102  0.0503  0.1858  0.0616
 2030SOL    HW117549   1.567   2.117   2.051  3.2574 -1.3214  1.5535
 2030SOL    HW217550   1.476   2.113   2.169 -2.6643 -2.6734  0.9739
 2031SOL     OW17551   3.698   2.646   8.854 -0.5982 -0.0504  0.3831
 2031SOL    HW117552   3.656   2.718   8.808 -0.7600 -1.8109 -2.1947
 2031SOL    HW217553   3.787   2.679   8.864 -1.2755  1.5101  1.2792
 2032SOL     OW17554   2.669   0.966  10.157 -0.1855  0.5418 -0.0681
 2032SOL    HW117555   2.743   0.978  10.217  0.0871  1.0217 -0.5036
 2032SOL    HW217556   2.598   1.002  10.211  0.2325 -0.1176  0.9250
 2033SOL     OW17557   4.422   4.383  12.429 -0.4083  0.0980  0.0409
 2033SOL    HW117558   4.471   4.453  12.473 -0.1833 -0.3830  0.5627
 2033SOL    HW217559   4.487   4.359  12.363 -1.5712 -0.8632 -0.7577
 2034SOL     OW17560   2.904   1.793   1.284 -0.2091 -0.2341 -0.2749
 2034SOL    HW117561   2.851   1.832   1.214 -0.9336  1.8539  1.4346
 2034SOL    HW217562   2.989   1.818   1.247 -0.4735  0.3833 -0.4627
 2035SOL     OW17563   0.384   2.932   6.721  0.4985  0.2526  0.2243
 2035SOL    HW117564   0.290   2.918   6.724  0.8340 -2.4479 -1.3914
 2035SOL    HW217565   0.412   2.957   6.809  2.5886  1.0339 -0.6616
 2036SOL     OW17566   0.822   4.529   9.087 -0.8478  0.1174 -0.7618
 2036SOL    HW117567   0.837   4.439   9.057 -0.3215  0.2977 -1.0399
 2036SOL    HW217568   0.792   4.581   9.012 -4.3272 -2.5821 -1.2582
 2037SOL     OW17569   2.161   2.482   0.393 -0.4616 -0.5918 -0.5290
 2037SOL    HW117570   2.199   2.565   0.423  0.6219 -1.5039  0.5774
 2037SOL    HW217571   2.200   2.421   0.455  0.1591  1.4854  1.1471
 2038SOL     OW17572   0.541   0.723   9.066  0.4923 -0.1130  0.2651
 2038SOL    HW117573   0.539   0.806   9.018  0.4673  0.5506  1.4254
 2038SOL    HW217574   0.500   0.671   8.996  0.5816 -0.9129  0.8035
 2039SOL     OW17575   2.117   2.174   8.696 -0.5145 -0.3887 -0.3706
 2039SOL    HW117576   2.212   2.173   8.681 -0.8121 -2.5892 -2.1947
 2039SOL    HW217577   2.081   2.088   8.672  1.3178 -1.0504 -0.7660
 2040SOL     OW17578   1.985   0.719  11.236  0.2228  0.3391  0.1343
 2040SOL    HW117579   2.051   0.652  11.216 -0.8415 -0.2800 -1.2970
 2040SOL    HW217580   1.999   0.773  11.158  0.1743  1.8391  1.1800
 2041SOL     OW17581   2.274   1.422   3.117  0.2584 -0.5102 -0.1141
 2041SOL    HW117582   2.199   1.463   3.075  1.0631 -1.1587 -2.1773
 2041SOL    HW217583   2.253   1.331   3.099 -1.4541 -0.4465  1.5284
 2042SOL     OW17584   2.368   0.528   7.821 -0.1805 -0.6636  0.2303
 2042SOL    HW117585   2.340   0.578   7.898  0.8848  0.1303  0.1113
 2042SOL    HW217586   2.283   0.492   7.798  0.3088 -0.4927 -1.8146
 2043SOL     OW17587   3.890   3.106   4.163 -0.3221  0.2257 -0.1415
 2043SOL    HW117588   3.829   3.179   4.160  1.0339  1.3560 -0.4483
 2043SOL    HW217589   3.879   3.083   4.255  0.1481  1.2641  0.1734
 2044SOL     OW17590   1.947   2.829   8.405 -0.6818 -0.3405 -0.0227
 2044SOL    HW117591   2.015   2.788   8.351 -3.4043 -2.2654 -1.9636
 2044SOL    HW217592   1.998   2.903   8.438 -0.4366  0.1408 -1.4586
 2045SOL     OW17593   2.750   4.539  10.428  0.0222 -0.5164 -0.0751
 2045SOL    HW117594   2.746   4.489  10.510  2.4126  1.0142  0.9471
 2045SOL    HW217595   2.799   4.472  10.380  1.0801  1.6594 -1.9939
 2046SOL     OW17596   4.280   3.576  17.396  0.4531  0.1688 -0.5112
 2046SOL    HW117597   4.234   3.571  17.312 -0.6661  1.7162  0.0176
 2046SOL    HW217598   4.368   3.555  17.366 -0.3552 -0.7214 -2.2565
 2047SOL     OW17599   3.555   1.598  13.314  0.0030 -0.7349  0.0151
 2047SOL    HW117600   3.565   1.517  13.264  1.1905 -1.4781  1.4402
 2047SOL    HW217601   3.637   1.642  13.292 -0.8126  0.6078 -0.3245
 2048SOL     OW17602   0.389   0.914  10.633 -0.1735 -0.0055  0.0031
 2048SOL    HW117603   0.445   0.976  10.679 -1.2101 -1.9515  3.9285
 2048SOL    HW217604   0.460   0.862  10.596  0.9189  0.6806  1.1338
 2049SOL     OW17605   2.093   1.923  16.131  0.3809 -0.4842  0.0185
 2049SOL    HW117606   2.083   1.842  16.081 -1.5482 -0.1042 -0.2084
 2049SOL    HW217607   2.125   1.982  16.063 -0.7805  0.4145  0.2631
 2050SOL     OW17608   0.540   2.758   4.343  0.0901 -0.3511 -0.0281
 2050SOL    HW117609   0.630   2.736   4.321  0.6744  1.7415  0.2096
 2050SOL    HW217610   0.510   2.671   4.369 -2.2626  0.6758  0.7111
 2051SOL     OW17611   3.693   3.487  11.860  0.2919  0.0011  0.3962
 2051SOL    HW117612   3.730   3.403  11.888 -2.4524 -1.0352  0.9803
 2051SOL    HW217613   3.710   3.532  11.942 -1.2287  1.6489 -0.1983
 2052SOL     OW17614   4.586   3.361   6.053  0.0968  0.1075  0.5327
 2052SOL    HW117615   4.566   3.410   5.973  2.8758  2.1802  1.0982
 2052SOL    HW217616   4.681   3.356   6.042  0.2041  0.9619  1.0409
 2053SOL     OW17617   3.564   3.476   6.418 -0.2375 -0.0728  0.2295
 2053SOL    HW117618   3.653   3.443   6.427 -0.0178 -0.1022 -1.9158
 2053SOL    HW217619   3.590   3.566   6.438  0.2009  0.1460 -1.2996
 2054SOL     OW17620   3.151   1.238   8.558  0.3192 -0.4338  0.4021
 2054SOL    HW117621   3.193   1.297   8.621 -0.2825  0.5392 -0.1241
 2054SOL    HW217622   3.062   1.236   8.592 -0.1417 -0.1820 -0.8148
 2055SOL     OW17623   0.179   2.106   8.049 -0.4052  0.1667 -0.2930
 2055SOL    HW117624   0.128   2.042   8.099  0.1013  1.2564  1.6354
 2055SOL    HW217625   0.140   2.093   7.963  1.6928 -0.3263 -1.1722
 2056SOL     OW17626   4.570   1.879   3.830 -0.5400 -0.6361  0.0990
 2056SOL    HW117627   4.598   1.872   3.921 -2.2707 -1.8623  0.5512
 2056SOL    HW217628   4.476   1.870   3.848 -0.5659  1.1955  0.7882
 2057SOL     OW17629   1.447   1.014  10.277  0.6299  0.2784 -0.2790
 2057SOL    HW117630   1.402   1.051  10.353 -2.5985 -1.7771 -1.1940
 2057SOL    HW217631   1.524   0.965  10.306  0.6823  1.1937  1.1050
 2058SOL     OW17632   1.020   2.967   7.648 -0.6723  0.2388 -0.2828
 2058SOL    HW117633   0.971   2.885   7.647 -1.0426  0.4756 -1.4859
 2058SOL    HW217634   1.004   3.005   7.734  0.9807  1.2732 -0.4365
 2059SOL     OW17635   1.820   4.632   6.493  0.5407  0.5650 -0.3024
 2059SOL    HW117636   1.848   4.684   6.418 -1.5125  1.6031 -0.3509
 2059SOL    HW217637   1.780   4.560   6.444 -2.9719  1.5343  1.1248
 2060SOL     OW17638   0.944   1.906   4.478  0.7735 -0.4112  0.0037
 2060SOL    HW117639   0.951   1.939   4.388  1.1147 -2.6010 -0.7970
 2060SOL    HW217640   0.886   1.830   4.470  1.9950 -1.4237  0.5444
 2061SOL     OW17641   4.087   2.550   4.241 -0.0798 -0.1726 -0.2011
 2061SOL    HW117642   4.064   2.629   4.192  0.5707 -0.5031 -1.0374
 2061SOL    HW217643   4.007   2.498   4.240 -1.0323  1.2915 -0.6417
 2062SOL     OW17644   2.413   2.753  14.167  0.0737  0.6548  0.2245
 2062SOL    HW117645   2.497   2.773  14.124  0.4278 -1.2805  0.0140
 2062SOL    HW217646   2.353   2.773  14.095 -1.5520 -2.5025  0.7172
 2063SOL     OW17647   3.533   0.720   8.725 -0.0303  0.0063 -0.0339
 2063SOL    HW117648   3.565   0.810   8.725 -2.0947  0.7237 -0.2215
 2063SOL    HW217649   3.473   0.727   8.799  0.6690  1.1631  0.4322
 2064SOL     OW17650   3.758   0.098   6.461 -0.2872 -0.3435  0.7793
 2064SOL    HW117651   3.810   0.021   6.484 -0.7762 -0.6089  0.9963
 2064SOL    HW217652   3.821   0.160   6.497  0.8467 -0.7444 -0.5455
 2065SOL     OW17653   2.747   3.040   2.437  0.1839  0.2168  0.0019
 2065SOL    HW117654   2.747   3.014   2.345 -0.9255 -0.7398  0.2771
 2065SOL    HW217655   2.695   3.119   2.423  1.9178  1.3074 -0.3464
 2066SOL     OW17656   3.313   3.387   4.289  0.0183 -0.0945 -0.1380
 2066SOL    HW117657   3.343   3.439   4.214 -1.7216  0.8159 -0.1997
 2066SOL    HW217658   3.348   3.438   4.363  0.2094  1.6969 -1.4652
 2067SOL     OW17659   3.500   1.762   5.735 -0.4052  0.0998  0.0238
 2067SOL    HW117660   3.425   1.802   5.780 -0.8260 -0.2318 -0.3704
 2067SOL    HW217661   3.568   1.817   5.772 -0.5088 -0.5637  1.2003
 2068SOL     OW17662   3.689   1.661   5.316 -0.1007  0.1553  0.9895
 2068SOL    HW117663   3.659   1.666   5.407 -1.1230 -1.8798  0.7547
 2068SOL    HW217664   3.622   1.712   5.269  1.3913  2.2885  1.1679
 2069SOL     OW17665   4.582   0.979  12.775 -0.2882  0.1855 -0.0413
 2069SOL    HW117666   4.584   0.923  12.853 -1.7385  1.0851  0.6530
 2069SOL    HW217667   4.625   0.925  12.709  3.4806  1.7843  1.0941
 2070SOL     OW17668   3.065   2.861   8.954 -0.2264  0.4699 -0.4443
 2070SOL    HW117669   3.090   2.939   8.905  0.4445  0.7310  0.3244
 2070SOL    HW217670   3.110   2.872   9.038 -2.2613  3.5553  0.2317
 2071SOL     OW17671   0.776   1.650   6.812  0.8498  0.3005 -0.4065
 2071SOL    HW117672   0.819   1.735   6.797  0.8606  0.1806 -1.0284
 2071SOL    HW217673   0.853   1.597   6.829  0.5884  0.5399  1.5723
 2072SOL     OW17674   0.328   2.759   3.545  0.2336 -0.1073  0.1545
 2072SOL    HW117675   0.294   2.760   3.456 -0.9208  0.1704  0.5944
 2072SOL    HW217676   0.399   2.823   3.541  1.4759 -1.3363  2.1449
 2073SOL     OW17677   0.243   3.145  13.225  0.5747  0.3112 -0.6177
 2073SOL    HW117678   0.166   3.194  13.251 -0.0781 -0.6862 -0.6852
 2073SOL    HW217679   0.305   3.192  13.280 -0.8854  1.4486  0.0233
 2074SOL     OW17680   4.186   2.431  13.915 -0.1827  0.4345  0.1246
 2074SOL    HW117681   4.245   2.402  13.984 -2.1554 -1.1539  1.1217
 2074SOL    HW217682   4.202   2.526  13.909  2.2862  0.0130  0.3025
 2075SOL     OW17683   1.528   1.629  13.383  0.2861 -0.1937  0.2670
 2075SOL    HW117684   1.563   1.564  13.322  2.6606 -0.9479  2.4110
 2075SOL    HW217685   1.506   1.583  13.463 -0.3775  2.7086  1.7663
 2076SOL     OW17686   3.686   1.571   2.443 -0.1787  0.3491  0.0228
 2076SOL    HW117687   3.653   1.482   2.430 -1.0828  0.9038 -1.4922
 2076SOL    HW217688   3.667   1.587   2.535 -0.7823 -2.5341  0.3978
 2077SOL     OW17689   4.651   4.553  12.752 -0.1812 -0.0124 -0.0533
 2077SOL    HW117690   4.668   4.546  12.658 -0.9014 -1.3189 -0.0868
 2077SOL    HW217691   4.668   4.647  12.764 -3.6526  0.3105  2.3986
 2078SOL     OW17692   0.305   0.309   4.583  0.4331 -0.0124  0.0740
 2078SOL    HW117693   0.382   0.281   4.534 -1.3947 -2.5338 -1.3473
 2078SOL    HW217694   0.255   0.346   4.510 -0.3104 -0.1987  0.4940
 2079SOL     OW17695   2.757   1.583   4.435  0.9672  0.6931  0.3015
 2079SOL    HW117696   2.694   1.522   4.473  1.2249 -0.2296 -0.7628
 2079SOL    HW217697   2.836   1.531   4.420  0.2609 -0.8884  1.9356
 2080SOL     OW17698   4.344   3.853  17.403  0.6684 -0.0895 -0.6988
 2080SOL    HW117699   4.431   3.835  17.367  0.5539 -1.3313 -0.3789
 2080SOL    HW217700   4.352   3.948  17.396 -0.3471 -0.0076 -0.7818
 2081SOL     OW17701   2.218   3.065   2.588 -0.0684 -0.7035 -0.8193
 2081SOL    HW117702   2.124   3.051   2.597  0.2703 -2.2243  0.3454
 2081SOL    HW217703   2.213   3.113   2.505  0.4637 -0.0014 -0.4481
 2082SOL     OW17704   3.195   0.761  13.413 -0.0883 -0.6666  0.7704
 2082SOL    HW117705   3.210   0.669  13.433  0.6730 -0.6084  0.4556
 2082SOL    HW217706   3.108   0.779  13.448 -0.7430  1.0808 -1.7268
 2083SOL     OW17707   0.028   3.165   8.993 -0.6517  0.1666  0.5196
 2083SOL    HW117708   0.081   3.086   9.002 -1.6470 -1.0304 -3.8016
 2083SOL    HW217709   0.098   3.225   8.966 -2.4403  1.8402 -0.4692
 2084SOL     OW17710   2.498   4.516   5.833 -0.1182 -0.2253 -0.0169
 2084SOL    HW117711   2.551   4.453   5.785 -0.2133 -0.8679  0.7222
 2084SOL    HW217712   2.513   4.595   5.780 -1.1255  0.4415  0.6783
 2085SOL     OW17713   0.388   1.065   1.768  0.3655  0.0091  0.0467
 2085SOL    HW117714   0.461   1.123   1.788 -2.0563  1.6371  4.1196
 2085SOL    HW217715   0.320   1.115   1.722  0.6495 -0.8685 -1.3291
 2086SOL     OW17716   3.823   2.503   8.208  0.0779  0.3382  0.2873
 2086SOL    HW117717   3.860   2.438   8.269  1.5698 -0.4603 -1.4685
 2086SOL    HW217718   3.866   2.582   8.240 -0.1470  0.8276 -0.6352
 2087SOL     OW17719   3.645   2.486   2.936  0.0198  0.3126  0.0537
 2087SOL    HW117720   3.698   2.565   2.929  1.1312 -0.5682 -1.3423
 2087SOL    HW217721   3.604   2.480   2.850  0.5457 -2.4362 -0.0115
 2088SOL     OW17722   1.694   2.066   4.649 -0.2639  0.3111  0.3376
 2088SOL    HW117723   1.653   2.138   4.602 -0.3117 -0.4596 -0.7888
 2088SOL    HW217724   1.747   2.028   4.579 -2.3737 -0.2783 -0.9270
 2089SOL     OW17725   1.092   1.552   4.329 -0.1130  0.4350 -0.3495
 2089SOL    HW117726   1.144   1.609   4.387  0.3360 -0.6478  0.3056
 2089SOL    HW217727   1.150   1.478   4.309 -1.5741 -0.1898 -2.1764
 2090SOL     OW17728   0.751   1.810   6.437 -0.4526  0.7131  0.5710
 2090SOL    HW117729   0.793   1.890   6.468  0.2167  0.2453  0.8772
 2090SOL    HW217730   0.803   1.790   6.360 -0.5779 -0.6761  0.8457
 2091SOL     OW17731   1.874   1.104   8.429 -0.0634 -0.0226 -0.3835
 2091SOL    HW117732   1.903   1.093   8.519 -0.8338 -0.4603 -0.1912
 2091SOL    HW217733   1.954   1.129   8.382 -0.4503  1.2986 -0.3385
 2092SOL     OW17734   2.635   3.439   4.937  0.4206  0.0770  0.3099
 2092SOL    HW117735   2.583   3.474   5.009 -1.2150 -2.1949  0.2265
 2092SOL    HW217736   2.573   3.376   4.900  1.6242 -0.4163 -0.8632
 2093SOL     OW17737   1.937   0.406  17.128 -0.4510  0.0023  0.1856
 2093SOL    HW117738   1.890   0.479  17.087 -0.7944 -1.5617 -2.2094
 2093SOL    HW217739   1.995   0.450  17.190 -0.1244  0.8283 -0.7029
 2094SOL     OW17740   1.429   0.457   4.805 -0.1525 -0.3074  0.2141
 2094SOL    HW117741   1.356   0.457   4.743  0.3795 -0.7183 -0.4067
 2094SOL    HW217742   1.470   0.371   4.797  0.3965 -0.1608  1.4804
 2095SOL     OW17743   2.188   2.729   2.999 -0.4049 -0.0511 -0.1284
 2095SOL    HW117744   2.122   2.790   2.967 -0.7086 -0.7447 -0.8512
 2095SOL    HW217745   2.134   2.676   3.058  0.5611 -0.1782  0.6419
 2096SOL     OW17746   0.290   2.593   4.748 -0.0276  0.1831  0.1770
 2096SOL    HW117747   0.294   2.618   4.840 -1.0381  0.8187  0.0574
 2096SOL    HW217748   0.306   2.499   4.750  2.4786  0.6757  2.0467
 2097SOL     OW17749   0.958   1.381   8.062  0.3588 -0.6718  0.0937
 2097SOL    HW117750   0.869   1.409   8.041  0.2597 -0.0070  1.3810
 2097SOL    HW217751   0.958   1.289   8.036  1.2940 -0.9105  0.9536
 2098SOL     OW17752   0.323   1.321   7.912 -0.5357  1.0286  0.6393
 2098SOL    HW117753   0.337   1.232   7.879  1.5490 -0.2728  5.0925
 2098SOL    HW217754   0.247   1.346   7.858  0.8435  2.3441 -0.6949
 2099SOL     OW17755   2.844   2.650   4.204  0.2329  0.1048 -0.3063
 2099SOL    HW117756   2.831   2.699   4.285 -0.2171  0.0249 -0.3318
 2099SOL    HW217757   2.939   2.644   4.212  0.3329  1.0097 -0.8712
 2100SOL     OW17758   1.287   4.429   2.680 -0.6062 -0.2084 -0.6791
 2100SOL    HW117759   1.288   4.334   2.682 -3.4096 -0.2538 -0.7013
 2100SOL    HW217760   1.375   4.445   2.714 -0.8586 -0.8418  0.2633
 2101SOL     OW17761   2.963   2.654   3.091  0.2884 -0.5470 -0.4375
 2101SOL    HW117762   2.922   2.652   3.178 -0.5466  3.3053 -0.7841
 2101SOL    HW217763   2.881   2.655   3.043 -0.7748 -1.5663  1.3332
 2102SOL     OW17764   1.567   4.510   5.908  1.0842 -0.2095  0.1764
 2102SOL    HW117765   1.563   4.575   5.838  0.6956  0.7393  1.0864
 2102SOL    HW217766   1.654   4.471   5.900  0.0772 -2.3096 -0.5608
 2103SOL     OW17767   2.612   4.038  12.063  0.3781 -0.6720 -0.4273
 2103SOL    HW117768   2.702   4.008  12.045  0.4700 -0.2880 -0.6056
 2103SOL    HW217769   2.591   4.021  12.155 -0.4819  0.3622 -0.4419
 2104SOL     OW17770   2.013   4.235  10.211 -0.0118  0.6030 -0.7342
 2104SOL    HW117771   1.924   4.208  10.233 -0.4634  0.9564 -2.0997
 2104SOL    HW217772   1.997   4.301  10.143  1.2645 -0.0299 -1.6686
 2105SOL     OW17773   4.002   4.228  16.048  0.0669 -0.2561  0.3505
 2105SOL    HW117774   3.919   4.200  16.087 -0.0868  0.9882  0.8956
 2105SOL    HW217775   4.001   4.323  16.040 -0.9631 -0.4471 -1.9372
 2106SOL     OW17776   3.287   0.739  10.139 -0.7686 -0.3033  0.1005
 2106SOL    HW117777   3.340   0.736  10.219 -0.6112  0.4870  0.0320
 2106SOL    HW217778   3.268   0.833  10.150  2.0667  0.2181  0.5060
 2107SOL     OW17779   4.114   0.920  16.148  0.5058  0.1586 -0.7038
 2107SOL    HW117780   4.037   0.974  16.166 -2.5852 -2.7807 -5.1484
 2107SOL    HW217781   4.100   0.908  16.054 -0.6513  0.0562 -0.5252
 2108SOL     OW17782   4.148   4.708  16.751  0.2168 -0.2477 -0.1475
 2108SOL    HW117783   4.178   4.684  16.839 -0.6349 -0.1758  0.1643
 2108SOL    HW217784   4.054   4.688  16.744  0.4560 -1.6370  0.5728
 2109SOL     OW17785   0.885   2.752   1.510  0.6547  0.3087  0.4468
 2109SOL    HW117786   0.877   2.683   1.576  0.7012 -1.0039 -0.9007
 2109SOL    HW217787   0.856   2.828   1.560  2.2082  0.7306  0.7000
 2110SOL     OW17788   2.970   0.090   4.496 -0.1268 -0.7086 -0.3334
 2110SOL    HW117789   2.881   0.059   4.479 -0.9025  0.9348  0.7078
 2110SOL    HW217790   2.960   0.180   4.463  1.0164 -0.7672 -0.8309
 2111SOL     OW17791   3.212   2.406   6.404 -0.4623 -0.0633  0.2454
 2111SOL    HW117792   3.181   2.468   6.338  0.0939  0.8101  0.8020
 2111SOL    HW217793   3.286   2.372   6.353 -1.3846 -0.7677 -0.6270
 2112SOL     OW17794   2.295   1.998   2.483  0.1613 -0.1896 -0.7543
 2112SOL    HW117795   2.211   1.979   2.525  0.5234 -0.9131 -0.3491
 2112SOL    HW217796   2.277   2.083   2.442  0.5883  0.7156  0.9447
 2113SOL     OW17797   2.129   0.701   8.536 -0.0344  0.4299  0.1418
 2113SOL    HW117798   2.093   0.634   8.595 -1.5040  1.4430  0.4104
 2113SOL    HW217799   2.198   0.653   8.490  0.4011 -0.8407  2.1177
 2114SOL     OW17800   1.948   0.559   6.915 -0.5084  0.2210 -0.0556
 2114SOL    HW117801   1.956   0.655   6.910 -2.0117  0.4262  1.4331
 2114SOL    HW217802   1.966   0.530   6.825 -0.3996 -0.1764  0.0980
 2115SOL     OW17803   1.821   3.742  12.740  0.1188  0.2699  0.4814
 2115SOL    HW117804   1.885   3.757  12.670 -1.2842  1.6795 -0.4891
 2115SOL    HW217805   1.768   3.820  12.727 -3.1889 -2.1369 -0.5959
 2116SOL     OW17806   3.665   0.813  10.671 -0.4522 -0.7170 -0.2522
 2116SOL    HW117807   3.678   0.829  10.578  0.0810  0.7071  0.0648
 2116SOL    HW217808   3.680   0.719  10.680 -0.1918 -0.4590  2.0631
 2117SOL     OW17809   2.377   1.585   2.697  0.2402  0.4262 -0.4701
 2117SOL    HW117810   2.325   1.638   2.757  0.9554 -0.4210  0.8826
 2117SOL    HW217811   2.428   1.533   2.759 -0.1515  1.1476  0.4526
 2118SOL     OW17812   2.189   0.171   6.932 -0.1399 -0.7150 -0.0209
 2118SOL    HW117813   2.187   0.257   6.973 -0.7468 -0.4588 -0.5915
 2118SOL    HW217814   2.122   0.186   6.866 -1.3044 -2.8127  0.6733
 2119SOL     OW17815   3.453   0.596   6.778  0.4184 -0.5279  0.3038
 2119SOL    HW117816   3.447   0.503   6.800 -2.7252 -0.8237 -1.8968
 2119SOL    HW217817   3.385   0.603   6.711  0.4779  4.5705  0.7891
 2120SOL     OW17818   2.168   1.362  17.149  0.0044 -0.4590 -0.0591
 2120SOL    HW117819   2.121   1.434  17.191 -2.8971 -1.3949 -1.7558
 2120SOL    HW217820   2.106   1.290  17.156  1.1231 -1.2087  1.9419
 2121SOL     OW17821   3.103   3.662  10.093 -0.1317 -0.3406 -0.1730
 2121SOL    HW117822   3.179   3.679  10.149  0.3109  1.5153 -1.3313
 2121SOL    HW217823   3.138   3.653  10.005  1.3288  1.7521  0.1970
 2122SOL     OW17824   0.743   3.282   8.049 -0.5867  0.1386  0.5693
 2122SOL    HW117825   0.651   3.253   8.053 -0.5810  0.2326  1.4919
 2122SOL    HW217826   0.790   3.199   8.058 -1.8312 -0.5429  0.8774
 2123SOL     OW17827   2.839   0.219   8.194  0.6502  0.1673  0.3816
 2123SOL    HW117828   2.929   0.236   8.221  0.8798  1.7085 -1.3200
 2123SOL    HW217829   2.793   0.198   8.275  0.9335 -1.5154  0.1059
 2124SOL     OW17830   4.671   2.213   8.590 -0.1292 -0.4653 -0.3147
 2124SOL    HW117831   4.589   2.164   8.580 -1.8368  2.1616  0.7815
 2124SOL    HW217832   0.001   2.186   8.513 -0.8367 -2.9053  0.0837
 2125SOL     OW17833   4.421   1.364   3.882  0.0947 -0.4717 -0.1194
 2125SOL    HW117834   4.367   1.434   3.847  0.1226 -0.3740  0.0378
 2125SOL    HW217835   4.384   1.327   3.962  1.3564  1.0896  1.1625
 2126SOL     OW17836   2.972   2.012  12.971  0.3201 -0.1914 -0.1641
 2126SOL    HW117837   2.902   2.060  13.015  0.6443 -1.5093  1.7917
 2126SOL    HW217838   2.957   2.041  12.881 -3.2276  1.1296  0.8659
 2127SOL     OW17839   1.298   0.470   8.764  0.4045 -0.0339 -0.0654
 2127SOL    HW117840   1.328   0.554   8.728  0.6174 -0.0188  0.1490
 2127SOL    HW217841   1.264   0.423   8.688 -2.0206 -0.4388  1.2743
 2128SOL     OW17842   3.415   0.674   2.605 -0.0380  0.0705  0.8422
 2128SOL    HW117843   3.502   0.709   2.626  0.0860 -0.0898  0.5989
 2128SOL    HW217844   3.371   0.757   2.588  2.2533  1.1183  0.0466
 2129SOL     OW17845   3.731   0.692   5.653 -0.4413 -0.4642 -0.3075
 2129SOL    HW117846   3.710   0.638   5.728  1.1446 -0.8174 -0.1129
 2129SOL    HW217847   3.819   0.657   5.638 -1.0854 -2.2685  0.1300
 2130SOL     OW17848   3.663   3.734   5.754 -0.0604  0.1934 -0.4763
 2130SOL    HW117849   3.659   3.744   5.849  1.7304  1.6292 -0.5517
 2130SOL    HW217850   3.635   3.822   5.729  0.8574  0.4805 -0.5165
 2131SOL     OW17851   1.042   2.144   7.942  0.2508  0.2654  0.2866
 2131SOL    HW117852   1.122   2.188   7.914  0.7740  0.2926  1.7949
 2131SOL    HW217853   1.012   2.194   8.017 -0.3582  1.6483 -0.8958
 2132SOL     OW17854   4.322   2.961   9.771  0.4879 -0.0784  0.5100
 2132SOL    HW117855   4.402   2.910   9.757 -0.5037 -0.8926 -2.3968
 2132SOL    HW217856   4.323   2.982   9.864 -0.4015  0.4702  0.3975
 2133SOL     OW17857   2.686   0.582   3.490 -0.5344 -0.0519 -0.1618
 2133SOL    HW117858   2.659   0.647   3.555  0.3449 -0.5886  0.7149
 2133SOL    HW217859   2.631   0.508   3.515  0.4570  0.0329  2.2158
 2134SOL     OW17860   0.138   4.639   2.175 -0.0976 -0.4531 -0.1908
 2134SOL    HW117861   0.077   4.575   2.139 -0.7123  0.3323 -0.5655
 2134SOL    HW217862   0.088   4.718   2.153 -0.8697 -0.6797  0.7315
 2135SOL     OW17863   0.718   3.110   2.374  0.4545  0.0309 -0.2215
 2135SOL    HW117864   0.722   3.192   2.326 -1.4442  0.2992  0.0585
 2135SOL    HW217865   0.812   3.105   2.391  0.1260 -1.9174  1.0468
 2136SOL     OW17866   3.865   0.444   8.219  0.8438  0.7778 -0.0046
 2136SOL    HW117867   3.878   0.390   8.141  0.9531 -0.3345  0.7868
 2136SOL    HW217868   3.930   0.414   8.282  0.7643  1.4382  0.3933
 2137SOL     OW17869   1.840   3.825   9.163 -0.3869  0.2783 -0.1294
 2137SOL    HW117870   1.769   3.827   9.099  0.4503 -0.0019 -1.0698
 2137SOL    HW217871   1.814   3.885   9.233  1.2630 -0.8533  1.4529
 2138SOL     OW17872   2.452   2.444   1.295  0.8906 -0.0618 -0.4270
 2138SOL    HW117873   2.420   2.390   1.222 -0.3608 -0.6350  0.5576
 2138SOL    HW217874   2.376   2.459   1.350 -0.0918 -0.5409 -1.6442
 2139SOL     OW17875   0.305   0.339   0.653  0.0211 -0.2665 -0.2782
 2139SOL    HW117876   0.286   0.433   0.661 -0.6160 -0.3641 -0.6127
 2139SOL    HW217877   0.229   0.303   0.607  0.3115  0.6493 -1.4853
 2140SOL     OW17878   3.039   1.771   8.594  0.7719  1.2104 -0.3137
 2140SOL    HW117879   2.962   1.733   8.637  0.0015  1.2666 -1.6161
 2140SOL    HW217880   3.079   1.697   8.547 -1.9055 -0.7755  0.5403
 2141SOL     OW17881   1.749   2.659   4.703  0.3538 -0.1288 -0.1271
 2141SOL    HW117882   1.786   2.581   4.663 -2.8320 -1.1528 -1.0531
 2141SOL    HW217883   1.678   2.669   4.639 -0.6919 -1.1431  0.8642
 2142SOL     OW17884   0.957   4.563   9.747  0.4154  0.3598 -0.1504
 2142SOL    HW117885   1.022   4.501   9.715 -0.9775 -0.9725 -0.4353
 2142SOL    HW217886   1.004   4.646   9.748 -0.9198  1.1206  0.2372
 2143SOL     OW17887   2.512   4.447  15.734  0.0132 -0.1076  0.5800
 2143SOL    HW117888   2.562   4.515  15.688  1.0301 -0.1158  1.6550
 2143SOL    HW217889   2.543   4.367  15.693  0.0726  0.1188  0.1790
 2144SOL     OW17890   3.823   1.708   6.242  0.4912 -0.5402  0.2121
 2144SOL    HW117891   3.786   1.792   6.269  0.1595  0.4429 -3.2735
 2144SOL    HW217892   3.911   1.717   6.277  0.4458 -0.0690  0.2055
 2145SOL     OW17893   3.782   4.460   5.018  0.2892  0.7045 -0.0440
 2145SOL    HW117894   3.853   4.443   4.957  0.3001  1.0185 -0.1171
 2145SOL    HW217895   3.792   4.555   5.012  2.4581  0.4175 -1.0017
 2146SOL     OW17896   0.270   0.007   8.983  0.2880  0.4953  0.1121
 2146SOL    HW117897   0.286   4.646   8.933 -2.5646 -0.2412  0.3827
 2146SOL    HW217898   0.344   0.064   8.962  0.4669  0.9195  1.9524
 2147SOL     OW17899   0.528   4.118   5.463  0.1754  0.1300 -0.2231
 2147SOL    HW117900   0.452   4.175   5.454 -0.1608 -0.5558 -1.6939
 2147SOL    HW217901   0.510   4.095   5.554 -1.7536 -0.0541 -0.6340
 2148SOL     OW17902   2.159   0.848  10.478  0.5954  0.2973  0.0406
 2148SOL    HW117903   2.129   0.837  10.568  1.1959 -0.4246  0.1549
 2148SOL    HW217904   2.084   0.894  10.441 -0.4682 -1.9069 -0.5707
 2149SOL     OW17905   4.074   4.304   2.453 -0.2868  0.6534  0.7189
 2149SOL    HW117906   4.083   4.215   2.487  0.1065 -0.4036 -2.1569
 2149SOL    HW217907   4.003   4.288   2.391 -1.0042  0.1505  1.6808
 2150SOL     OW17908   0.176   0.418   4.365 -0.3656  0.5955  0.7408
 2150SOL    HW117909   0.145   0.507   4.377 -0.5317  0.9296 -2.2056
 2150SOL    HW217910   0.098   0.373   4.333 -1.6094  1.8234  2.0574
 2151SOL     OW17911   2.941   3.363   3.091 -0.1589  0.0163  0.3613
 2151SOL    HW117912   3.018   3.393   3.044 -0.5451 -0.2599 -0.4626
 2151SOL    HW217913   2.933   3.274   3.054  0.6218  1.0649 -2.3117
 2152SOL     OW17914   0.032   3.917   7.728  0.0408  0.1695 -0.0242
 2152SOL    HW117915   4.671   3.870   7.705  0.1434 -0.3320  0.6394
 2152SOL    HW217916   0.085   3.862   7.670 -0.6009  0.0499 -0.5013
 2153SOL     OW17917   0.079   2.228  17.535  0.0814  0.0945  0.3142
 2153SOL    HW117918   0.150   2.209  17.474 -1.0868 -0.0749 -1.0058
 2153SOL    HW217919   0.013   2.163  17.509  2.2961 -1.6986 -0.8389
 2154SOL     OW17920   0.731   3.756   7.592  0.0845 -0.1745  0.1080
 2154SOL    HW117921   0.766   3.668   7.604 -1.1869 -0.8748 -1.3938
 2154SOL    HW217922   0.780   3.811   7.654  2.8480 -1.3555 -1.0390
 2155SOL     OW17923   3.737   3.632   3.576  0.4867 -0.4970 -0.3444
 2155SOL    HW117924   3.649   3.659   3.552  0.2521  0.1323  1.2257
 2155SOL    HW217925   3.746   3.639   3.671 -1.0619 -1.2668 -0.1278
 2156SOL     OW17926   4.560   1.792   4.362 -0.3758 -0.1076 -0.0433
 2156SOL    HW117927   4.490   1.844   4.322 -0.9814 -0.1564  0.9326
 2156SOL    HW217928   4.517   1.713   4.395  0.3105 -0.6127 -0.3685
 2157SOL     OW17929   2.741   2.582   1.925  0.1842  0.6698 -0.0121
 2157SOL    HW117930   2.831   2.564   1.900  0.1839  1.5574 -0.6535
 2157SOL    HW217931   2.703   2.494   1.920  1.1521  0.2177  0.5356
 2158SOL     OW17932   0.085   1.541  12.025 -0.1581 -0.4650 -0.0774
 2158SOL    HW117933   0.032   1.611  12.064  1.3990 -0.1035  1.4036
 2158SOL    HW217934   0.157   1.530  12.088  0.4093 -2.0387 -1.0194
 2159SOL     OW17935   3.965   3.502   4.130  0.2972 -0.0417 -0.4468
 2159SOL    HW117936   3.891   3.442   4.125 -0.3565  0.5692  2.0107
 2159SOL    HW217937   3.917   3.579   4.159  3.7826  1.6360  0.8646
 2160SOL     OW17938   3.326   2.927  16.353  0.1214  0.4678  0.3595
 2160SOL    HW117939   3.261   2.888  16.294 -0.4591  0.3819  1.0556
 2160SOL    HW217940   3.399   2.897  16.299  0.1548 -0.8099  1.0927
 2161SOL     OW17941   4.047   3.676   6.526  0.1631 -0.1046 -0.1589
 2161SOL    HW117942   3.958   3.662   6.495 -0.2738  0.6526  0.7625
 2161SOL    HW217943   4.091   3.625   6.457  0.6552 -0.2703  0.2763
 2162SOL     OW17944   1.880   3.747   7.771  0.0580 -0.1791  0.1767
 2162SOL    HW117945   1.814   3.756   7.840 -0.5926 -1.1335 -0.3302
 2162SOL    HW217946   1.918   3.835   7.778  2.6721 -1.3760  1.1641
 2163SOL     OW17947   2.344   4.224   2.587 -0.3517  0.9908  0.3793
 2163SOL    HW117948   2.272   4.265   2.636 -3.5550 -1.7578 -2.0433
 2163SOL    HW217949   2.296   4.155   2.541 -0.1911  0.9302  0.3041
 2164SOL     OW17950   0.271   0.806   8.304 -0.2331  0.0481 -0.5674
 2164SOL    HW117951   0.268   0.902   8.305  0.6525  0.0641  0.9319
 2164SOL    HW217952   0.258   0.788   8.397 -0.3481 -0.0829 -0.6097
 2165SOL     OW17953   2.019   3.174   2.896 -0.9471  0.6433 -0.0517
 2165SOL    HW117954   2.042   3.250   2.843 -0.1074 -0.1108 -0.7571
 2165SOL    HW217955   2.042   3.202   2.985 -1.2550 -1.4201  0.6749
 2166SOL     OW17956   4.021   2.412   3.585  0.4864 -0.1106 -0.6372
 2166SOL    HW117957   4.023   2.483   3.521  0.4181 -0.8805 -1.5003
 2166SOL    HW217958   4.074   2.347   3.538  1.1330 -0.1429  0.1313
 2167SOL     OW17959   2.900   2.113   8.553 -0.6492 -0.0861 -0.1516
 2167SOL    HW117960   2.888   2.207   8.543  0.1108 -0.1744 -1.9519
 2167SOL    HW217961   2.921   2.127   8.645  0.3018  1.0945 -0.5477
 2168SOL     OW17962   3.759   0.008   5.021 -0.2291  0.4664 -0.0486
 2168SOL    HW117963   3.815   0.080   5.052  2.8801 -3.1960  2.9022
 2168SOL    HW217964   3.703   0.056   4.959 -0.3808 -1.1036 -1.1095
 2169SOL     OW17965   2.225   4.236   5.383  0.4570 -0.4693  0.3666
 2169SOL    HW117966   2.251   4.317   5.338 -0.0177 -0.5017  0.0424
 2169SOL    HW217967   2.310   4.195   5.399  0.0531 -1.8996 -1.2327
 2170SOL     OW17968   3.414   1.100  16.042  0.2106 -0.1848 -0.2751
 2170SOL    HW117969   3.431   1.079  15.951 -0.2502  0.2705 -0.4700
 2170SOL    HW217970   3.384   1.191  16.042  0.8921  0.0409  0.1787
 2171SOL     OW17971   1.344   1.562  12.657  0.0556 -0.3737  0.1644
 2171SOL    HW117972   1.429   1.561  12.613 -0.2254  0.6099 -0.4055
 2171SOL    HW217973   1.349   1.636  12.717  0.9842 -0.3056  0.0026
 2172SOL     OW17974   1.524   4.153   8.847  0.1282  0.1557 -0.5076
 2172SOL    HW117975   1.516   4.058   8.855  0.7742  0.2621  1.3102
 2172SOL    HW217976   1.612   4.170   8.880  0.0960 -1.5882  0.4197
 2173SOL     OW17977   2.889   0.376   3.562 -0.3106  0.1520  0.3330
 2173SOL    HW117978   2.846   0.291   3.558 -0.9550  0.4651  0.4887
 2173SOL    HW217979   2.905   0.389   3.469 -0.2874  1.1410  0.4743
 2174SOL     OW17980   1.405   3.433   1.666 -0.1887  0.1103 -0.2685
 2174SOL    HW117981   1.458   3.359   1.637 -0.9835 -0.2527 -0.7959
 2174SOL    HW217982   1.395   3.403   1.757  1.0413  1.1599  0.2094
 2175SOL     OW17983   4.128   1.647   2.087 -0.1628  0.4911  0.3576
 2175SOL    HW117984   4.057   1.684   2.139  1.0435 -0.3058  2.5790
 2175SOL    HW217985   4.108   1.553   2.098 -1.6156  0.9676  1.8452
 2176SOL     OW17986   1.737   3.996  10.365 -0.0834 -0.0556  0.2162
 2176SOL    HW117987   1.663   3.961  10.314  1.6724 -2.5849 -0.5834
 2176SOL    HW217988   1.799   3.924  10.354 -1.0854 -0.5556 -2.2257
 2177SOL     OW17989   0.341   1.293  15.583 -0.1944 -0.6504  0.2164
 2177SOL    HW117990   0.247   1.301  15.569 -0.0175  1.1838  0.1800
 2177SOL    HW217991   0.385   1.295  15.498  0.5935 -1.7720  0.5875
 2178SOL     OW17992   3.450   1.136  11.156  0.2460 -0.0077 -0.8964
 2178SOL    HW117993   3.461   1.197  11.229 -2.5878 -2.5934  1.6717
 2178SOL    HW217994   3.389   1.184  11.100 -1.0717  1.1584  1.5303
 2179SOL     OW17995   3.751   3.661  11.311 -0.0317  0.1743 -0.2226
 2179SOL    HW117996   3.657   3.650  11.325 -0.3305  0.0729 -2.3011
 2179SOL    HW217997   3.763   3.726  11.380  1.0848  0.1876 -0.4330
 2180SOL     OW17998   2.755   1.888   6.209  0.4949  0.3421 -0.0306
 2180SOL    HW117999   2.743   1.794   6.197  1.8838  0.2045 -0.3685
 2180SOL    HW218000   2.765   1.922   6.121 -3.5251  2.5130  0.3963
 2181SOL     OW18001   4.403   4.636   6.506  0.2111  1.0446 -0.1744
 2181SOL    HW118002   4.364   4.719   6.535  0.3502  1.1597 -0.3166
 2181SOL    HW218003   4.385   4.583   6.583  0.8278  3.0746  1.3836
 2182SOL     OW18004   2.732   1.944  12.030  0.9176 -0.8170  0.5091
 2182SOL    HW118005   2.804   1.976  12.084 -1.3696 -0.8245  3.5774
 2182SOL    HW218006   2.775   1.915  11.950  1.8688  1.0559  0.3505
 2183SOL     OW18007   3.063   0.085   9.337  0.2279 -0.4679  0.0438
 2183SOL    HW118008   3.104   0.011   9.292  0.8511 -0.3789  0.4641
 2183SOL    HW218009   3.053   0.156   9.273  1.6292 -0.4581 -0.1806
 2184SOL     OW18010   2.850   4.301   1.804  0.4750  0.4282  0.3163
 2184SOL    HW118011   2.886   4.272   1.887  0.2045 -1.5484 -0.2520
 2184SOL    HW218012   2.768   4.251   1.800  0.2945  0.6089  2.1819
 2185SOL     OW18013   1.498   2.264  15.992 -0.2272 -0.7478  0.1150
 2185SOL    HW118014   1.578   2.270  16.044 -0.8087  1.9118  0.7417
 2185SOL    HW218015   1.502   2.352  15.954  1.0986 -1.4624 -1.3902
 2186SOL     OW18016   0.874   0.757   4.985 -0.2576  0.1768 -0.0982
 2186SOL    HW118017   0.852   0.724   5.072 -1.3097 -0.2297 -0.5185
 2186SOL    HW218018   0.969   0.753   4.969  0.1240 -0.7074  2.4616
 2187SOL     OW18019   2.706   0.807  15.267 -0.2179 -0.3548 -0.2258
 2187SOL    HW118020   2.703   0.795  15.362  1.4966  0.6629 -0.0448
 2187SOL    HW218021   2.769   0.878  15.273  1.3088 -1.6929 -0.4812
 2188SOL     OW18022   4.627   2.512   5.499  0.2400  0.3915  0.1632
 2188SOL    HW118023   4.622   2.596   5.546 -1.1850  1.1850 -1.4259
 2188SOL    HW218024   4.655   2.535   5.411  1.1583 -0.9595  0.1092
 2189SOL     OW18025   0.312   0.227   8.478  0.1354 -0.2881 -0.1974
 2189SOL    HW118026   0.393   0.200   8.522  0.4083  1.1702  0.1984
 2189SOL    HW218027   0.247   0.164   8.509 -1.5321  0.3410 -2.4695
 2190SOL     OW18028   0.026   1.249   5.082 -0.2120  0.1368  1.2206
 2190SOL    HW118029   4.683   1.197   5.133 -0.5648  0.4137  1.0660
 2190SOL    HW218030   4.698   1.332   5.074  1.5237  1.0089  0.1267
 2191SOL     OW18031   4.610   3.585   2.624  0.2184  0.6815 -0.1137
 2191SOL    HW118032   4.538   3.631   2.669 -0.9941 -0.2247 -1.1271
 2191SOL    HW218033   4.681   3.642   2.653 -1.1724  2.2431  0.2242
 2192SOL     OW18034   1.491   2.752   4.179 -1.0301 -0.2192  0.3818
 2192SOL    HW118035   1.512   2.670   4.135 -0.5740 -0.4634  1.0490
 2192SOL    HW218036   1.429   2.712   4.241 -1.9802  1.3248  0.4316
 2193SOL     OW18037   0.987   0.964   3.580 -0.2715 -0.2405 -0.7494
 2193SOL    HW118038   0.932   0.982   3.656  2.1414 -1.7264  1.3968
 2193SOL    HW218039   1.041   0.895   3.619  0.0308 -1.4796 -3.3751
 2194SOL     OW18040   1.215   0.654  10.795 -0.0618  0.2611 -0.2094
 2194SOL    HW118041   1.234   0.681  10.885 -2.6973  1.1838  0.0586
 2194SOL    HW218042   1.134   0.603  10.803  0.0982  0.3815  2.0137
 2195SOL     OW18043   0.959   0.717   1.597 -0.0939  0.2451 -0.2239
 2195SOL    HW118044   0.937   0.641   1.544 -0.3827  1.8140 -2.3585
 2195SOL    HW218045   0.918   0.711   1.683 -0.5877  2.0649 -0.3223
 2196SOL     OW18046   4.483   1.976   7.545  0.7397 -0.6116  0.3950
 2196SOL    HW118047   4.506   1.913   7.614 -0.4115  2.2781  3.4083
 2196SOL    HW218048   4.568   2.019   7.533  0.3900 -0.4744 -1.5858
 2197SOL     OW18049   1.593   0.110   7.455 -0.4934  0.3688  0.2413
 2197SOL    HW118050   1.640   0.165   7.392 -2.3618  1.0930 -0.5580
 2197SOL    HW218051   1.662   0.077   7.512 -0.1118  1.1091  0.2105
 2198SOL     OW18052   1.712   4.041   7.927 -0.4565 -0.2482 -0.4064
 2198SOL    HW118053   1.624   4.076   7.940 -0.1001  0.9556 -1.2431
 2198SOL    HW218054   1.763   4.121   7.944  0.1635 -0.5938 -0.6564
 2199SOL     OW18055   3.090   0.558   0.289 -0.4742 -0.2745 -0.5057
 2199SOL    HW118056   3.009   0.557   0.341  0.0087 -1.0440  0.2213
 2199SOL    HW218057   3.086   0.473   0.245 -0.7076 -0.8067  0.5209
 2200SOL     OW18058   2.288   3.897   1.836  0.0870 -0.3034  0.1265
 2200SOL    HW118059   2.285   3.859   1.748 -0.0549 -0.0582  0.0253
 2200SOL    HW218060   2.383   3.905   1.851 -0.2577  0.3657  1.9174
 2201SOL     OW18061   3.708   2.029  11.546  0.2275  0.5532  0.7251
 2201SOL    HW118062   3.730   1.969  11.474  1.1557  0.9716  0.6560
 2201SOL    HW218063   3.710   2.110  11.495 -2.5830 -0.3552 -0.8369
 2202SOL     OW18064   2.379   2.867  14.412 -0.1165 -0.3275 -0.0550
 2202SOL    HW118065   2.413   2.839  14.327  0.6497 -1.6315  0.6857
 2202SOL    HW218066   2.327   2.944  14.389  1.3619  1.2069  1.7684
 2203SOL     OW18067   2.879   2.017   8.153  0.2311  0.2093 -0.2390
 2203SOL    HW118068   2.831   1.993   8.233 -0.9634  2.0414 -0.4224
 2203SOL    HW218069   2.897   1.929   8.119 -0.5771 -0.1872  0.3540
 2204SOL     OW18070   3.370   1.541   5.995  0.1407 -0.2721 -0.2790
 2204SOL    HW118071   3.332   1.453   5.993 -2.8900  1.0016  1.1079
 2204SOL    HW218072   3.369   1.564   5.902  1.4860  0.4602 -0.1054
 2205SOL     OW18073   2.928   0.646   3.408 -0.0012 -0.2373  0.0779
 2205SOL    HW118074   2.840   0.618   3.435  0.0010 -0.5575 -0.2430
 2205SOL    HW218075   2.977   0.620   3.486  0.9363 -1.1639 -0.8113
 2206SOL     OW18076   0.295   2.558  11.945 -0.2069  0.4004 -0.3490
 2206SOL    HW118077   0.241   2.550  12.023  0.3581  1.5290  0.1444
 2206SOL    HW218078   0.260   2.484  11.894 -1.0101  0.6575 -0.1750
 2207SOL     OW18079   3.431   2.838   8.997  0.4167 -0.1376  0.2602
 2207SOL    HW118080   3.406   2.861   8.907  2.0893 -1.2391 -0.4852
 2207SOL    HW218081   3.350   2.843   9.049  0.9846  0.5950  1.0562
 2208SOL     OW18082   4.678   1.547   7.763 -0.0339  0.3117  0.4829
 2208SOL    HW118083   4.719   1.470   7.722  1.4017 -0.1765  2.7809
 2208SOL    HW218084   0.041   1.580   7.798 -1.1501  1.7614  1.7386
 2209SOL     OW18085   2.394   0.431   4.513  0.2754  0.2944 -0.7221
 2209SOL    HW118086   2.349   0.508   4.477 -3.5537 -1.2202  0.7073
 2209SOL    HW218087   2.484   0.443   4.483  0.7884 -0.5008  0.5162
 2210SOL     OW18088   0.217   0.066   9.428  0.2321 -0.1269  0.7687
 2210SOL    HW118089   0.292   0.030   9.382 -0.4518 -0.1709 -0.3305
 2210SOL    HW218090   0.157   0.084   9.355  0.6020  0.1559  0.5368
 2211SOL     OW18091   2.495   0.225   4.742 -0.0777 -0.4003 -0.5182
 2211SOL    HW118092   2.475   0.253   4.653 -1.1302  0.9771  0.1515
 2211SOL    HW218093   2.421   0.272   4.781 -0.1149 -1.4626  0.6943
 2212SOL     OW18094   2.929   1.693   7.326  0.3223  0.3591  0.0400
 2212SOL    HW118095   2.904   1.657   7.241  0.5873 -1.0210  0.5400
 2212SOL    HW218096   2.860   1.657   7.381  0.6597  1.8051  1.4057
 2213SOL     OW18097   1.496   3.114   4.499  0.3882 -0.2131 -0.4189
 2213SOL    HW118098   1.554   3.047   4.463  2.7167  1.2636  0.5487
 2213SOL    HW218099   1.504   3.179   4.429  0.0128  1.2209  0.8604
 2214SOL     OW18100   3.391   1.438   2.354 -0.4875  0.6899  0.0868
 2214SOL    HW118101   3.428   1.383   2.284 -0.6847  3.7372 -2.4316
 2214SOL    HW218102   3.385   1.520   2.305  0.8591 -0.4011 -1.9493
 2215SOL     OW18103   0.787   4.349  13.129 -0.3644 -0.1661 -0.2034
 2215SOL    HW118104   0.706   4.312  13.163 -0.9897  0.7059 -0.7680
 2215SOL    HW218105   0.807   4.307  13.046 -0.6888  0.6721 -0.7044
 2216SOL     OW18106   2.084   0.490   7.739 -0.0885  0.5459 -0.5978
 2216SOL    HW118107   2.011   0.527   7.791 -1.3322  0.2062 -2.1059
 2216SOL    HW218108   2.079   0.541   7.658 -0.7181  0.7067 -0.4607
 2217SOL     OW18109   3.510   1.025  12.806  0.1725  0.1887  0.3725
 2217SOL    HW118110   3.585   1.083  12.791 -0.9558  1.3095 -0.9351
 2217SOL    HW218111   3.535   0.940  12.771  1.6244  0.6672  0.2680
 2218SOL     OW18112   4.266   2.719   4.348  0.2150 -0.1517  0.0291
 2218SOL    HW118113   4.216   2.749   4.423  1.0543 -0.7068  0.8017
 2218SOL    HW218114   4.207   2.650   4.316 -1.0125  1.0108 -0.2052
 2219SOL     OW18115   3.334   4.500   8.425 -0.3775  0.4147 -0.2309
 2219SOL    HW118116   3.403   4.437   8.448  1.1177  1.9902 -0.4609
 2219SOL    HW218117   3.332   4.547   8.508 -1.5556 -1.2033  0.6617
 2220SOL     OW18118   4.456   4.631   4.976 -0.2810  0.1781 -0.3503
 2220SOL    HW118119   4.419   4.687   5.045  0.6486 -0.0767  0.3581
 2220SOL    HW218120   4.547   4.634   5.008 -0.0064  1.9068 -1.2870
 2221SOL     OW18121   2.218   1.781  13.005  0.1131 -0.1890 -0.3793
 2221SOL    HW118122   2.283   1.835  13.051 -1.2037  1.0325  0.0399
 2221SOL    HW218123   2.158   1.768  13.079  0.4202  1.4735  0.1616
 2222SOL     OW18124   2.331   4.515   0.668 -0.0870  0.1789  0.2626
 2222SOL    HW118125   2.265   4.475   0.611  0.0742 -1.8845  1.5146
 2222SOL    HW218126   2.295   4.602   0.687  0.3819 -0.0051  1.9930
 2223SOL     OW18127   3.008   3.885   1.318  0.1740 -0.2358 -0.3782
 2223SOL    HW118128   3.054   3.817   1.268  0.0374 -0.3685 -0.3253
 2223SOL    HW218129   3.074   3.953   1.330  1.3493 -1.7178  1.4459
 2224SOL     OW18130   2.620   0.434   1.751  0.3307 -0.1353  0.0567
 2224SOL    HW118131   2.565   0.439   1.829  0.0852 -1.7281 -0.0222
 2224SOL    HW218132   2.626   0.340   1.734 -2.4989 -0.3342  0.2710
 2225SOL     OW18133   0.150   3.586   5.317  0.2308  0.4410  0.2675
 2225SOL    HW118134   0.070   3.533   5.324 -0.6174  1.5267 -1.2146
 2225SOL    HW218135   0.116   3.676   5.318  1.5966  0.9578 -0.2108
 2226SOL     OW18136   3.480   4.450   6.179 -0.1502 -0.1170 -0.0269
 2226SOL    HW118137   3.524   4.469   6.096  3.4425  1.5112  2.2490
 2226SOL    HW218138   3.404   4.401   6.145 -0.7047  0.0606  0.9657
 2227SOL     OW18139   4.212   0.203   5.512 -0.0906  0.5457  0.5015
 2227SOL    HW118140   4.262   0.259   5.571  1.2884 -0.0794 -0.0947
 2227SOL    HW218141   4.227   0.119   5.553  1.3045  2.3536  3.6525
 2228SOL     OW18142   3.484   2.754   3.420 -0.3795  0.0442 -1.2656
 2228SOL    HW118143   3.537   2.764   3.499 -0.1445 -1.0210 -1.2861
 2228SOL    HW218144   3.400   2.722   3.453 -0.3232  0.2446 -0.9247
 2229SOL     OW18145   0.372   1.648   6.742  0.1618  0.7043 -0.7554
 2229SOL    HW118146   0.442   1.635   6.679  0.1143  0.1963 -0.7099
 2229SOL    HW218147   0.389   1.736   6.776  1.1977 -0.2441  1.2273
 2230SOL     OW18148   0.062   1.009   4.855  0.6360  0.3212  1.0264
 2230SOL    HW118149   0.148   0.971   4.870  0.3124 -0.3296  1.2076
 2230SOL    HW218150   0.065   1.090   4.906 -0.1398 -0.5839  2.5086
 2231SOL     OW18151   3.058   4.565  10.470 -0.2617 -0.4638  1.1278
 2231SOL    HW118152   2.974   4.524  10.492 -1.1101  0.1578 -0.9163
 2231SOL    HW218153   3.090   4.498  10.410 -1.6984  0.6239 -0.8533
 2232SOL     OW18154   1.094   4.015   3.437 -0.0251  0.3141 -0.0595
 2232SOL    HW118155   1.042   4.028   3.358 -0.9275 -0.6527  0.3767
 2232SOL    HW218156   1.069   4.089   3.492 -1.9418 -1.2069  1.0959
 2233SOL     OW18157   3.812   1.887   8.814 -0.3466 -0.7745  0.7435
 2233SOL    HW118158   3.735   1.943   8.821 -0.5704 -0.9998  0.1089
 2233SOL    HW218159   3.877   1.954   8.792 -0.8898  0.1294  1.8846
 2234SOL     OW18160   3.847   3.272   6.818 -0.9654 -0.2676  0.0225
 2234SOL    HW118161   3.900   3.198   6.789  0.3073  0.1334  1.3381
 2234SOL    HW218162   3.914   3.336   6.841 -2.1690  1.0469 -0.0634
 2235SOL     OW18163   3.290   3.056  13.265  0.3215 -0.3025 -0.2963
 2235SOL    HW118164   3.360   3.087  13.207  1.8137  0.8692  2.1126
 2235SOL    HW218165   3.316   3.095  13.349  0.4681  0.6318 -0.7717
 2236SOL     OW18166   3.859   0.004   7.253  0.3760 -0.3969 -0.6960
 2236SOL    HW118167   3.808   0.084   7.246  1.6218  0.3656 -1.0141
 2236SOL    HW218168   3.947   0.039   7.264  1.0046 -1.7599 -1.3390
 2237SOL     OW18169   1.320   3.781   7.158 -0.3745  0.3298 -0.1332
 2237SOL    HW118170   1.405   3.809   7.191 -0.7770  2.0746 -0.5458
 2237SOL    HW218171   1.336   3.690   7.182 -1.7733  0.0457 -0.2837
 2238SOL     OW18172   1.756   4.361   6.647 -0.7292  0.0194 -0.3782
 2238SOL    HW118173   1.691   4.390   6.711  0.3367  2.6701 -0.4868
 2238SOL    HW218174   1.780   4.284   6.698 -0.0712  1.3162  1.2824
 2239SOL     OW18175   1.876   2.465   1.901  0.3922 -0.0103 -0.5456
 2239SOL    HW118176   1.831   2.381   1.912 -1.7649  1.1232 -0.7346
 2239SOL    HW218177   1.934   2.483   1.975  2.2199 -0.5246 -1.8396
 2240SOL     OW18178   4.581   2.005   6.449 -0.0900 -0.3886  0.0226
 2240SOL    HW118179   4.636   2.082   6.461 -0.6207  0.6087 -3.9732
 2240SOL    HW218180   4.639   1.938   6.487  2.7250  2.1148  0.1504
 2241SOL     OW18181   1.794   1.415   4.910 -0.2096  0.2648  0.7076
 2241SOL    HW118182   1.814   1.491   4.856  1.4954  1.3746  2.8731
 2241SOL    HW218183   1.838   1.436   4.993 -1.7125 -2.2466  2.1532
 2242SOL     OW18184   0.240   4.515   5.558  0.3459 -0.1261  0.3488
 2242SOL    HW118185   0.295   4.472   5.624  0.1979 -0.3912  0.2999
 2242SOL    HW218186   0.314   4.532   5.500 -2.2311  0.1054 -2.9048
 2243SOL     OW18187   3.401   3.114   5.807 -0.5144 -0.1960 -0.5507
 2243SOL    HW118188   3.463   3.099   5.736 -0.3572 -0.2597 -0.3991
 2243SOL    HW218189   3.453   3.177   5.857 -2.2243  1.2762 -0.6334
 2244SOL     OW18190   1.959   3.701  11.725  0.2543 -0.0240 -0.1902
 2244SOL    HW118191   1.875   3.733  11.693  0.9442  2.0789  0.1039
 2244SOL    HW218192   2.020   3.739  11.661 -1.6350  2.1595 -0.6932
 2245SOL     OW18193   3.847   0.023   2.151 -0.0026  0.4658 -0.4302
 2245SOL    HW118194   3.864   0.077   2.228 -1.3386  1.0111 -0.5075
 2245SOL    HW218195   3.780   0.080   2.113  0.3430 -0.1940 -2.0251
 2246SOL     OW18196   1.869   2.974  12.564  0.0107 -0.2863 -0.6531
 2246SOL    HW118197   1.789   3.020  12.539  0.0377  0.2343  0.2076
 2246SOL    HW218198   1.937   3.024  12.518  0.2978 -0.0545  0.0214
 2247SOL     OW18199   2.942   0.079  15.887 -0.2345 -0.1718 -0.3904
 2247SOL    HW118200   2.913   0.170  15.883  1.9741  0.4539 -2.2801
 2247SOL    HW218201   2.933   0.066  15.982  1.2462  0.0537 -0.2191
 2248SOL     OW18202   3.972   2.779  13.823  0.0470 -0.0638  0.3499
 2248SOL    HW118203   3.931   2.731  13.894 -0.8651 -2.4675 -1.8005
 2248SOL    HW218204   4.038   2.714  13.797 -0.8138 -0.2151 -1.4619
 2249SOL     OW18205   2.442   3.278   0.259 -0.1157 -0.2002  0.0714
 2249SOL    HW118206   2.508   3.243   0.200  0.1104 -0.3707  0.4264
 2249SOL    HW218207   2.496   3.338   0.311  0.0968 -0.2111 -0.1376
 2250SOL     OW18208   1.461   4.492   7.803 -0.2486 -0.2509  0.4988
 2250SOL    HW118209   1.415   4.565   7.762  0.9070  0.8925  1.2359
 2250SOL    HW218210   1.451   4.425   7.735 -0.9231  0.5958 -0.2341
 2251SOL     OW18211   4.215   4.321   6.201 -0.5644  0.1692  0.0648
 2251SOL    HW118212   4.300   4.281   6.220 -1.3769 -1.0612  1.1587
 2251SOL    HW218213   4.203   4.371   6.282  1.6141 -0.5825  0.8545
 2252SOL     OW18214   0.257   1.355   8.191  0.8529  0.6288  0.1582
 2252SOL    HW118215   0.347   1.361   8.224  1.1960  0.2129 -0.7121
 2252SOL    HW218216   0.273   1.335   8.099  2.0603 -0.3058  0.5684
 2253SOL     OW18217   1.458   3.903  17.357 -0.6303  0.5306 -0.2445
 2253SOL    HW118218   1.412   3.985  17.371 -1.7104  0.1435 -1.5636
 2253SOL    HW218219   1.463   3.892  17.263  0.7277 -1.1022  0.0188
 2254SOL     OW18220   3.592   3.098   4.946 -0.0567 -0.3665  0.1893
 2254SOL    HW118221   3.551   3.155   5.012  0.7483  0.7433 -0.2808
 2254SOL    HW218222   3.679   3.093   4.985 -0.7703  1.2813  1.9834
 2255SOL     OW18223   2.533   0.250   5.996 -0.4502 -0.2050 -0.3979
 2255SOL    HW118224   2.452   0.301   5.988 -0.3111  0.2572  1.0467
 2255SOL    HW218225   2.540   0.196   5.918  1.0265  2.3559 -2.0528
 2256SOL     OW18226   3.139   4.704   8.288 -0.1847 -0.2042  0.1727
 2256SOL    HW118227   3.102   4.620   8.260 -1.3560  0.6256 -0.8349
 2256SOL    HW218228   3.094   4.714   8.372 -0.5110 -3.4192  0.3829
 2257SOL     OW18229   3.665   1.951  14.519  0.3908  0.2754 -0.7627
 2257SOL    HW118230   3.734   1.951  14.453  1.2657 -2.6365  0.1606
 2257SOL    HW218231   3.713   1.907  14.589  0.5743  1.9627  0.1762
 2258SOL     OW18232   0.773   0.067  16.480  0.3782 -0.5278 -0.2409
 2258SOL    HW118233   0.700   0.084  16.421  0.6193 -0.4866 -0.5270
 2258SOL    HW218234   0.807   4.708  16.439 -0.4018 -1.2231  0.4431
 2259SOL     OW18235   3.300   4.386   4.271  0.3786  0.4253 -0.1624
 2259SOL    HW118236   3.230   4.382   4.337 -0.2947  0.3081 -0.8757
 2259SOL    HW218237   3.374   4.407   4.328 -0.9393  1.3959  1.1839
 2260SOL     OW18238   4.239   0.146   7.860  0.6400  0.0409  0.0384
 2260SOL    HW118239   4.225   0.212   7.791 -1.3352 -0.3879  0.0282
 2260SOL    HW218240   4.286   0.202   7.922  0.3546 -1.4496  1.5748
 2261SOL     OW18241   4.452   2.129   6.247 -0.0763  0.4530 -0.2759
 2261SOL    HW118242   4.520   2.183   6.207  0.3081  0.5112  0.4533
 2261SOL    HW218243   4.503   2.095   6.321 -1.5612 -0.3591  0.3675
 2262SOL     OW18244   0.401   4.578  14.369 -0.3411 -0.0698  0.2392
 2262SOL    HW118245   0.377   4.567  14.277 -0.3495  0.8602  0.1296
 2262SOL    HW218246   0.471   4.513  14.376 -0.2855 -0.1575 -1.0751
 2263SOL     OW18247   1.504   1.005  14.444  0.3785 -0.0718  0.4276
 2263SOL    HW118248   1.436   0.970  14.386  1.6927  0.9036 -1.7386
 2263SOL    HW218249   1.470   1.083  14.487  0.4655 -0.7591  1.7286
 2264SOL     OW18250   1.732   3.012  11.960 -0.2120  0.2427  0.3427
 2264SOL    HW118251   1.641   3.012  11.931 -0.3755  0.9728  0.8520
 2264SOL    HW218252   1.753   3.101  11.930  2.0247 -0.8305 -1.3342
 2265SOL     OW18253   4.231   0.415   6.163  0.7487 -0.2564 -0.1380
 2265SOL    HW118254   4.289   0.411   6.087  1.3286  0.5127  0.2627
 2265SOL    HW218255   4.259   0.488   6.219  2.1659 -2.1579  1.6659
 2266SOL     OW18256   1.583   1.838   3.156  0.2205  0.3299  0.1993
 2266SOL    HW118257   1.524   1.763   3.149 -0.1067  0.7218 -1.0851
 2266SOL    HW218258   1.603   1.863   3.066 -0.2983  0.1406  0.0322
 2267SOL     OW18259   3.611   3.527   1.309 -0.3457  0.5590 -0.1377
 2267SOL    HW118260   3.595   3.436   1.334  0.9369  0.5823  0.8125
 2267SOL    HW218261   3.673   3.557   1.376  1.4674 -2.9283 -0.2390
 2268SOL     OW18262   2.405   2.823   8.457 -0.2891  0.3283  0.5349
 2268SOL    HW118263   2.471   2.843   8.524  0.7366  2.8821 -1.2390
 2268SOL    HW218264   2.404   2.728   8.471 -0.9241  0.6821  3.0228
 2269SOL     OW18265   1.089   4.637   5.256 -0.6779  0.2466 -0.2123
 2269SOL    HW118266   1.091   4.719   5.305 -0.0726 -0.4335  0.9090
 2269SOL    HW218267   1.121   4.566   5.312 -2.5478 -0.9376 -0.6154
 2270SOL     OW18268   1.398   0.237   1.868 -0.2881  0.4554 -0.3848
 2270SOL    HW118269   1.465   0.227   1.936 -0.3669  0.6773 -0.2751
 2270SOL    HW218270   1.318   0.270   1.910 -2.0037  2.2427 -5.0236
 2271SOL     OW18271   4.507   2.759   4.647  0.7254  0.3277 -0.3541
 2271SOL    HW118272   4.461   2.676   4.643 -2.7262  2.1295  1.6920
 2271SOL    HW218273   4.598   2.735   4.635  0.8329  1.0821 -1.0467
 2272SOL     OW18274   2.288   0.216   8.500 -0.1490 -0.2050 -0.1750
 2272SOL    HW118275   2.240   0.213   8.582  0.2516  2.8181  0.1384
 2272SOL    HW218276   2.318   0.306   8.489 -0.7267  0.2428  2.0609
 2273SOL     OW18277   1.131   1.496   2.509  0.6299  0.0455  0.2192
 2273SOL    HW118278   1.085   1.432   2.563 -1.4888  2.1455  0.9176
 2273SOL    HW218279   1.162   1.434   2.443 -0.4161 -0.8582  0.5881
 2274SOL     OW18280   0.883   3.582   2.807 -0.8045  0.1823 -0.0549
 2274SOL    HW118281   0.866   3.498   2.766 -1.5368  0.5769 -0.5604
 2274SOL    HW218282   0.820   3.592   2.879 -0.5792 -2.0952  0.4708
 2275SOL     OW18283   0.609   2.010   4.305 -0.8622 -0.0774 -0.3991
 2275SOL    HW118284   0.606   1.923   4.346  1.1226  0.1200  0.1449
 2275SOL    HW218285   0.653   1.987   4.223 -0.0799 -1.7276  0.4778
 2276SOL     OW18286   1.979   3.959   3.441  0.5311 -0.0522 -0.3942
 2276SOL    HW118287   1.984   3.893   3.510 -1.9507 -0.2481 -0.4064
 2276SOL    HW218288   1.897   3.931   3.400  0.0138  0.8916  0.0031
 2277SOL     OW18289   0.770   3.259   3.417  0.1187  0.1566  0.4251
 2277SOL    HW118290   0.710   3.325   3.451  0.7040 -0.3264  2.4140
 2277SOL    HW218291   0.855   3.279   3.456  1.5899 -0.8108 -2.2331
 2278SOL     OW18292   1.649   1.670  11.708 -0.0464 -0.0831 -0.3473
 2278SOL    HW118293   1.650   1.755  11.751  0.5898  0.3074 -1.1228
 2278SOL    HW218294   1.732   1.630  11.733 -0.1287  1.8434  2.8912
 2279SOL     OW18295   3.226   3.612   5.754  0.1404  0.1953  0.7951
 2279SOL    HW118296   3.134   3.632   5.735  0.3261  0.0363 -0.2172
 2279SOL    HW218297   3.221   3.646   5.844 -2.3339  0.2078  0.6524
 2280SOL     OW18298   3.335   0.610  12.254  0.0890 -0.2069  0.1295
 2280SOL    HW118299   3.314   0.662  12.331 -1.2785  1.9026 -1.6922
 2280SOL    HW218300   3.394   0.541  12.283 -0.0794 -0.4510 -0.1029
 2281SOL     OW18301   0.298   0.201  16.504 -0.2732  0.3072 -0.3433
 2281SOL    HW118302   0.299   0.174  16.596  3.5980 -1.4395 -0.9014
 2281SOL    HW218303   0.337   0.288  16.512  2.1874 -0.9088  0.8486
 2282SOL     OW18304   3.749   0.808   7.671  0.2311  0.4943  0.2479
 2282SOL    HW118305   3.687   0.831   7.601 -0.2250  1.5796  0.9988
 2282SOL    HW218306   3.779   0.894   7.702 -4.0897  1.6388  1.2316
 2283SOL     OW18307   2.129   1.035  15.343 -0.6403  0.1383 -0.1674
 2283SOL    HW118308   2.100   0.983  15.267 -1.9250  1.9831 -0.9359
 2283SOL    HW218309   2.127   0.978  15.420  1.8638 -0.1967 -0.3666
 2284SOL     OW18310   3.774   0.803  16.379  0.0949  0.1394  0.3203
 2284SOL    HW118311   3.762   0.794  16.284  2.3431 -0.9960  0.1305
 2284SOL    HW218312   3.864   0.770  16.391 -0.1075 -0.3451  0.5289
 2285SOL     OW18313   2.753   1.280   9.744  0.2119 -0.2899 -0.0041
 2285SOL    HW118314   2.677   1.303   9.798  0.2316  0.6572 -0.3686
 2285SOL    HW218315   2.818   1.270   9.813 -0.7542  0.6033  1.0292
 2286SOL     OW18316   1.960   3.021   2.249 -0.3755 -0.3250  0.4267
 2286SOL    HW118317   1.891   3.026   2.315 -0.9642 -0.3212 -0.1810
 2286SOL    HW218318   1.925   3.096   2.200 -0.0019  0.0246  0.7002
 2287SOL     OW18319   2.109   4.631   5.825  0.1234  0.3434 -0.0432
 2287SOL    HW118320   2.123   4.544   5.864  0.4144 -0.4462 -1.9151
 2287SOL    HW218321   2.018   4.622   5.797 -0.0630  2.7319 -0.1634
 2288SOL     OW18322   1.978   3.909   9.964  0.0331  0.3015 -0.2404
 2288SOL    HW118323   1.921   3.986   9.968  0.9406  1.0363 -1.9117
 2288SOL    HW218324   2.064   3.949   9.975 -1.1167  2.7051 -0.0448
 2289SOL     OW18325   2.775   0.439   7.741  0.0892  0.0172 -0.0320
 2289SOL    HW118326   2.772   0.343   7.738 -1.7687  0.0193  1.5319
 2289SOL    HW218327   2.753   0.453   7.833  0.5736 -0.6026  0.1805
 2290SOL     OW18328   4.315   3.205   2.081  0.0444 -0.4135 -0.0743
 2290SOL    HW118329   4.399   3.192   2.127 -0.3840  1.8060  1.3290
 2290SOL    HW218330   4.255   3.179   2.151 -0.8924  0.7135 -0.4701
 2291SOL     OW18331   1.961   4.387   0.752 -0.2280 -0.0159 -0.6214
 2291SOL    HW118332   1.951   4.323   0.823  0.9449  2.1483  1.4992
 2291SOL    HW218333   2.019   4.337   0.695 -0.6448  0.6688 -1.6529
 2292SOL     OW18334   3.178   4.223   8.871  0.6568  0.0608  0.0883
 2292SOL    HW118335   3.265   4.237   8.906 -0.3230  1.8649  1.8240
 2292SOL    HW218336   3.147   4.314   8.868 -2.2837 -1.0306 -1.9639
 2293SOL     OW18337   1.546   4.522   2.715  0.7867 -0.8312 -0.1715
 2293SOL    HW118338   1.584   4.484   2.794 -1.0012  0.4663  1.2922
 2293SOL    HW218339   1.606   4.591   2.688  3.1104 -2.3829  0.9912
 2294SOL     OW18340   0.535   3.829   1.366  0.2527  0.2427 -0.2361
 2294SOL    HW118341   0.582   3.767   1.309 -1.5244  0.1971 -1.6460
 2294SOL    HW218342   0.451   3.784   1.365  1.2023 -1.5470  0.3195
 2295SOL     OW18343   0.908   2.404   6.760  0.2760  0.4994 -0.0523
 2295SOL    HW118344   0.906   2.448   6.845 -1.8107  0.9235 -0.3264
 2295SOL    HW218345   0.961   2.463   6.706  0.8515 -1.5335 -1.7327
 2296SOL     OW18346   0.881   3.298   2.699 -0.1123  0.2785 -0.0097
 2296SOL    HW118347   0.877   3.251   2.616  2.4674  0.3287 -0.1679
 2296SOL    HW218348   0.805   3.259   2.742  1.6389 -1.2852  1.6792
 2297SOL     OW18349   0.891   0.763   0.141 -0.5776  0.0191 -0.1243
 2297SOL    HW118350   0.822   0.798   0.086 -2.0764 -1.7350  0.6202
 2297SOL    HW218351   0.938   0.709   0.078 -0.3947  0.0014  0.0257
 2298SOL     OW18352   1.890   1.272  13.749  0.5404 -0.0367  0.0414
 2298SOL    HW118353   1.876   1.297  13.658  0.9251 -0.5406 -0.1557
 2298SOL    HW218354   1.908   1.178  13.753 -1.1835 -0.3687  0.1295
 2299SOL     OW18355   3.796   0.475   6.232 -0.9443  0.2707  0.1936
 2299SOL    HW118356   3.778   0.381   6.240 -1.0520  0.2337 -0.4347
 2299SOL    HW218357   3.719   0.524   6.205 -0.0642  0.3407 -2.2167
 2300SOL     OW18358   3.888   3.083   2.042 -0.6444  0.4229  0.1440
 2300SOL    HW118359   3.900   3.155   2.104  1.0254 -0.3301  0.6734
 2300SOL    HW218360   3.979   3.070   2.015 -1.1095  0.1252 -1.2976
 2301SOL     OW18361   2.920   0.518  11.436  0.3835  1.0697 -0.5180
 2301SOL    HW118362   2.920   0.556  11.524 -2.5468 -0.4540  0.1286
 2301SOL    HW218363   2.935   0.600  11.390  0.3347  1.7165  0.6118
 2302SOL     OW18364   3.829   3.567   7.027  0.9853  0.1434 -0.1595
 2302SOL    HW118365   3.837   3.581   6.932  3.6069 -1.7858 -0.2281
 2302SOL    HW218366   3.921   3.565   7.052  0.3903 -0.7524  1.8670
 2303SOL     OW18367   2.164   0.995   2.810  0.0032 -0.1027 -0.3324
 2303SOL    HW118368   2.087   0.978   2.757 -0.3133  0.5187 -0.0694
 2303SOL    HW218369   2.237   0.950   2.767 -0.3586 -0.1817 -0.8554
 2304SOL     OW18370   3.421   0.762   9.137 -0.5413 -0.1738 -0.1033
 2304SOL    HW118371   3.387   0.837   9.186  0.6517  0.3094 -0.0139
 2304SOL    HW218372   3.513   0.788   9.131 -0.5909 -0.1868 -0.9119
 2305SOL     OW18373   2.007   3.480   2.103 -0.2742  0.3882  0.6179
 2305SOL    HW118374   2.049   3.565   2.117 -3.0272  1.8960 -0.2263
 2305SOL    HW218375   1.928   3.511   2.059  0.4957  0.6244 -0.5968
 2306SOL     OW18376   4.197   0.437  16.206 -0.5164 -0.5053  0.0549
 2306SOL    HW118377   4.110   0.422  16.168 -0.5368 -0.2755  0.0109
 2306SOL    HW218378   4.183   0.448  16.300  2.2114  1.9218  0.1746
 2307SOL     OW18379   3.100   4.596   1.524  0.3429  0.5583  0.3633
 2307SOL    HW118380   3.013   4.625   1.498  1.2789  1.7252 -1.4686
 2307SOL    HW218381   3.132   4.560   1.442 -1.4453 -1.2398  0.4670
 2308SOL     OW18382   0.928   2.275  17.676 -0.4868  0.5022 -0.3984
 2308SOL    HW118383   0.836   2.267   0.021 -0.1619 -1.0971  0.2488
 2308SOL    HW218384   0.950   2.366   0.015 -1.5375  0.7626 -0.4024
 2309SOL     OW18385   1.055   3.655  14.447  0.0836  0.0400  0.4130
 2309SOL    HW118386   1.041   3.718  14.517 -1.5417 -2.7774  2.5863
 2309SOL    HW218387   1.034   3.574  14.493  1.1852 -0.9378 -0.7865
 2310SOL     OW18388   0.495   3.779   2.074 -0.3637 -0.5909 -0.2750
 2310SOL    HW118389   0.531   3.770   1.986  0.3963  0.4547 -0.0726
 2310SOL    HW218390   0.457   3.692   2.084  0.5669 -1.0710 -1.0243
 2311SOL     OW18391   2.222   2.457  16.000 -0.2585 -0.0863 -0.2155
 2311SOL    HW118392   2.299   2.410  16.029 -2.6716 -0.8057  5.0537
 2311SOL    HW218393   2.150   2.400  16.027 -1.3296  1.1025 -0.5214
 2312SOL     OW18394   0.456   2.665  14.412 -0.5922  0.7182  0.2085
 2312SOL    HW118395   0.465   2.758  14.431  1.5104  0.1706  1.8476
 2312SOL    HW218396   0.545   2.634  14.429 -0.9923 -0.3789  0.3651
 2313SOL     OW18397   0.504   1.386  13.124 -0.0855  0.4809  0.5118
 2313SOL    HW118398   0.596   1.387  13.151 -0.1881 -1.5539  0.9367
 2313SOL    HW218399   0.441   1.386  13.196  1.3208 -3.8572  1.7403
 2314SOL     OW18400   3.779   4.154   6.014 -0.0916  0.3118 -0.3951
 2314SOL    HW118401   3.832   4.196   6.081  3.3897 -3.1746 -0.9572
 2314SOL    HW218402   3.701   4.125   6.062 -0.0887  0.7770 -0.1058
 2315SOL     OW18403   3.089   3.632  17.280  0.6625  0.6127  0.3507
 2315SOL    HW118404   3.029   3.678  17.221  0.1693  0.3018  0.6156
 2315SOL    HW218405   3.073   3.541  17.255 -0.0636  1.0850 -0.9143
 2316SOL     OW18406   3.073   1.732   5.145  0.2601  0.2434  0.4754
 2316SOL    HW118407   2.996   1.744   5.089 -0.2585 -0.4899  1.0291
 2316SOL    HW218408   3.070   1.639   5.169  0.6024  0.0999 -0.0290
 2317SOL     OW18409   0.717   1.276  16.748 -0.1125 -0.3232 -0.3519
 2317SOL    HW118410   0.782   1.294  16.815 -1.0832 -3.1463  1.3289
 2317SOL    HW218411   0.670   1.199  16.782  2.2996 -0.3855  2.8127
 2318SOL     OW18412   3.367   1.589   1.705 -0.2013  0.0142  0.1786
 2318SOL    HW118413   3.316   1.564   1.628  0.9766  2.6550 -1.4513
 2318SOL    HW218414   3.448   1.548   1.676 -0.0834 -0.3120  0.9563
 2319SOL     OW18415   0.130   1.655   2.509 -0.0933 -0.6029 -0.0717
 2319SOL    HW118416   0.050   1.679   2.462  0.8024  1.5396 -0.4904
 2319SOL    HW218417   0.162   1.582   2.456  0.6056  0.9091 -1.7549
 2320SOL     OW18418   4.368   3.018   5.479  0.0814  0.1888 -0.0301
 2320SOL    HW118419   4.412   2.936   5.455 -0.9901 -0.5384  0.5056
 2320SOL    HW218420   4.427   3.071   5.425 -0.4599  1.1389  0.3195
 2321SOL     OW18421   0.760   2.914   2.560 -0.5295 -0.5019 -0.5360
 2321SOL    HW118422   0.767   2.991   2.504 -2.2962  0.8928  1.1516
 2321SOL    HW218423   0.685   2.864   2.526  0.4033  0.3605 -3.8116
 2322SOL     OW18424   3.802   2.161  11.807  0.4321 -0.6496 -0.3677
 2322SOL    HW118425   3.790   2.246  11.849  0.9106  0.9099 -3.3912
 2322SOL    HW218426   3.772   2.183  11.719  1.0488  0.3531 -0.3269
 2323SOL     OW18427   0.192   1.361   0.398 -0.1134 -0.2800  1.0298
 2323SOL    HW118428   0.241   1.291   0.355  1.4476  1.4456  0.0020
 2323SOL    HW218429   0.118   1.311   0.432 -1.0275  0.1139 -0.3549
 2324SOL     OW18430   0.614   1.368   2.105 -0.0493 -0.2039 -0.3000
 2324SOL    HW118431   0.640   1.423   2.179 -1.6356 -1.6817  1.3837
 2324SOL    HW218432   0.662   1.409   2.034 -0.3272 -1.0351 -0.9781
 2325SOL     OW18433   0.560   2.587   2.019 -0.2749  0.4141 -0.2075
 2325SOL    HW118434   0.561   2.556   1.928  1.6910 -2.7307  0.9019
 2325SOL    HW218435   0.644   2.556   2.052 -1.3224  0.1145  2.1589
 2326SOL     OW18436   4.051   0.286   3.063  0.1193  0.1293 -0.5472
 2326SOL    HW118437   4.032   0.356   3.125  0.7211  1.3664 -1.7595
 2326SOL    HW218438   4.009   0.211   3.104  0.1248 -0.0222 -0.8170
 2327SOL     OW18439   3.184   4.418   2.379 -0.4280 -0.3010 -0.1386
 2327SOL    HW118440   3.194   4.402   2.285  2.3136 -0.6668  0.2358
 2327SOL    HW218441   3.174   4.513   2.388  1.4602 -0.0806 -0.5263
 2328SOL     OW18442   4.650   0.530   7.421 -0.9336 -0.3817 -0.5134
 2328SOL    HW118443   4.624   0.485   7.341  0.6270 -1.1744 -0.5797
 2328SOL    HW218444   4.644   0.624   7.402  1.2040 -0.7184 -2.7634
 2329SOL     OW18445   0.678   2.452  12.843  0.3820 -0.0589 -0.1518
 2329SOL    HW118446   0.620   2.379  12.820  0.3791 -0.3131  0.6439
 2329SOL    HW218447   0.613   2.493  12.901 -0.3654 -0.7979 -0.4529
 2330SOL     OW18448   1.271   4.579   7.071 -0.2471 -0.3539  0.1295
 2330SOL    HW118449   1.267   4.671   7.046  0.6097 -0.8461 -1.8429
 2330SOL    HW218450   1.332   4.580   7.144 -0.8949  1.2439  0.6502
 2331SOL     OW18451   1.169   1.228   7.570 -0.1483  0.2128 -0.2645
 2331SOL    HW118452   1.097   1.233   7.634  0.3302 -0.8958  0.3596
 2331SOL    HW218453   1.244   1.200   7.623 -0.0776 -0.3985 -0.6950
 2332SOL     OW18454   1.264   2.323  11.440 -0.1416 -0.1426  0.4937
 2332SOL    HW118455   1.235   2.361  11.357  0.2172  0.0334  0.4464
 2332SOL    HW218456   1.358   2.309  11.424 -0.0073  1.2012  0.1346
 2333SOL     OW18457   1.098   3.129   3.005  0.3583 -0.1884 -0.9940
 2333SOL    HW118458   1.102   3.207   2.950  0.8053  2.2887  2.5823
 2333SOL    HW218459   1.185   3.147   3.041 -0.7090  0.4998  1.1700
 2334SOL     OW18460   1.740   0.152  14.163  0.2031 -0.5485 -0.3334
 2334SOL    HW118461   1.728   0.227  14.105 -0.9031  0.5623  1.3354
 2334SOL    HW218462   1.707   0.179  14.249 -0.7833 -2.0893 -0.2162
 2335SOL     OW18463   2.984   2.771   5.471 -0.4294 -0.7002  0.5437
 2335SOL    HW118464   2.986   2.756   5.565 -0.0340  1.6955  0.9134
 2335SOL    HW218465   3.041   2.847   5.461 -2.3004  0.1931 -3.1049
 2336SOL     OW18466   0.829   3.280   7.732 -0.4368  0.4757 -0.3824
 2336SOL    HW118467   0.743   3.256   7.765 -0.8919  3.3357  0.5005
 2336SOL    HW218468   0.887   3.225   7.786 -0.2827  1.3204  0.3187
 2337SOL     OW18469   2.051   0.468   4.099  0.0526  0.3314  0.0910
 2337SOL    HW118470   2.089   0.441   4.016 -1.5417  0.7931 -0.7862
 2337SOL    HW218471   2.136   0.491   4.138 -0.3812  1.6607  0.2623
 2338SOL     OW18472   1.451   2.698   3.826  0.0281  0.5982  0.1798
 2338SOL    HW118473   1.378   2.741   3.870 -1.4407 -1.2050 -0.4721
 2338SOL    HW218474   1.499   2.665   3.901  1.0138  0.4281 -0.5253
 2339SOL     OW18475   2.379   0.595   4.826 -0.3261  0.4904  0.4837
 2339SOL    HW118476   2.382   0.500   4.836 -1.6591  0.5954  1.8141
 2339SOL    HW218477   2.323   0.598   4.748 -0.6024 -1.7290  0.6084
 2340SOL     OW18478   2.501   4.038   4.410  0.4218 -0.7658  0.4550
 2340SOL    HW118479   2.447   4.087   4.472  0.5337  1.6914 -1.4368
 2340SOL    HW218480   2.548   4.109   4.368 -1.8009 -1.6478 -3.4676
 2341SOL     OW18481   1.945   3.013  17.015 -0.3878  0.0399 -0.3343
 2341SOL    HW118482   1.897   3.096  17.025  2.5403  1.6583  0.2185
 2341SOL    HW218483   1.885   2.958  17.066 -1.6355  2.9876  1.4156
 2342SOL     OW18484   1.054   3.339   4.647 -0.3114 -0.3779 -0.3522
 2342SOL    HW118485   1.074   3.406   4.581 -0.3865 -1.6892 -1.6931
 2342SOL    HW218486   1.124   3.275   4.639 -0.1980 -0.0732 -1.8115
 2343SOL     OW18487   1.900   2.052  16.274  0.0477  0.2263 -0.2685
 2343SOL    HW118488   1.870   2.004  16.351  0.6480 -0.0204 -0.1910
 2343SOL    HW218489   1.974   2.002  16.241 -0.2238 -0.3087 -0.0567
 2344SOL     OW18490   0.192   3.541   2.787 -0.4321 -0.5460 -0.3150
 2344SOL    HW118491   0.278   3.510   2.813 -0.5433 -0.5208  0.0755
 2344SOL    HW218492   0.220   3.540   2.695  0.8257  2.3029  0.0143
 2345SOL     OW18493   1.160   3.017   7.216 -0.0765  0.4607 -0.4365
 2345SOL    HW118494   1.214   2.959   7.164 -0.5938 -0.5505  0.1507
 2345SOL    HW218495   1.156   2.967   7.298 -0.1642 -1.2237 -1.4802
 2346SOL     OW18496   3.579   1.114   0.844  0.3949  0.1636 -0.2759
 2346SOL    HW118497   3.560   1.069   0.762  0.9980  1.3399 -1.0514
 2346SOL    HW218498   3.535   1.060   0.909 -0.0641 -0.8538 -1.4359
 2347SOL     OW18499   1.056   3.553   3.754  0.2673  0.1329  0.0160
 2347SOL    HW118500   1.067   3.602   3.834 -0.3019  0.5260 -0.1462
 2347SOL    HW218501   1.110   3.591   3.684  1.6364  1.7636  1.9828
 2348SOL     OW18502   3.784   0.842   4.519 -0.1121 -0.1917  0.3261
 2348SOL    HW118503   3.877   0.840   4.497 -0.6008  3.3537 -2.0069
 2348SOL    HW218504   3.790   0.809   4.609 -0.2009  0.2299  0.4893
 2349SOL     OW18505   3.170   2.223   9.406  0.2828  0.0452 -0.2183
 2349SOL    HW118506   3.187   2.252   9.495 -0.4773  1.7953 -0.6374
 2349SOL    HW218507   3.093   2.173   9.430  1.7324 -1.0569  2.0958
 2350SOL     OW18508   3.342   0.937   4.268  0.7867  0.0150 -0.2357
 2350SOL    HW118509   3.255   0.971   4.287 -0.1007 -3.2832  1.7370
 2350SOL    HW218510   3.379   0.995   4.334 -0.6076  0.4964  0.1228
 2351SOL     OW18511   0.834   2.847   5.384 -0.1575  0.0232 -0.2796
 2351SOL    HW118512   0.769   2.912   5.357 -1.5206 -1.7340 -1.1958
 2351SOL    HW218513   0.847   2.798   5.302 -0.2421 -3.8957  2.0716
 2352SOL     OW18514   1.134   1.426  16.958 -0.1483 -0.2340  0.2668
 2352SOL    HW118515   1.130   1.488  16.885  1.6859 -0.3878  0.0374
 2352SOL    HW218516   1.226   1.402  16.948 -0.3485 -0.9812  0.2210
 2353SOL     OW18517   4.241   2.225   3.500  0.3985  0.2858  0.6879
 2353SOL    HW118518   4.327   2.259   3.524  0.5900  1.3225 -1.4787
 2353SOL    HW218519   4.231   2.263   3.412  0.0603 -1.8917 -0.2008
 2354SOL     OW18520   1.483   0.735  10.752  0.0697  0.6661 -0.0885
 2354SOL    HW118521   1.488   0.685  10.833  0.3796  1.3945  0.3480
 2354SOL    HW218522   1.389   0.750  10.750 -0.1503 -0.4773  1.7539
 2355SOL     OW18523   0.541   1.573   7.864 -0.0442 -0.3486  0.0382
 2355SOL    HW118524   0.527   1.527   7.947 -0.5368  1.2653  0.8378
 2355SOL    HW218525   0.624   1.616   7.884  0.0521 -0.4813 -0.0738
 2356SOL     OW18526   1.247   3.440   5.041 -0.7272 -0.2264  0.9571
 2356SOL    HW118527   1.184   3.387   4.991  0.1944 -0.6759  0.2856
 2356SOL    HW218528   1.324   3.423   4.988 -0.9199 -0.8980  0.8895
 2357SOL     OW18529   2.815   1.742   5.746 -0.0955  0.2428  0.0217
 2357SOL    HW118530   2.836   1.660   5.791  0.7159  0.4869  0.0908
 2357SOL    HW218531   2.742   1.775   5.799  0.9197 -1.0240  2.2025
 2358SOL     OW18532   1.977   1.755  10.266  0.3218  0.4823 -0.2922
 2358SOL    HW118533   2.002   1.698  10.193 -1.5941 -1.9164  0.9189
 2358SOL    HW218534   1.965   1.685  10.331  0.2198  1.1212  0.3811
 2359SOL     OW18535   1.812   0.138   9.070 -1.1567  0.2100 -0.0542
 2359SOL    HW118536   1.766   0.213   9.109 -0.8123  1.1066 -1.3571
 2359SOL    HW218537   1.872   0.186   9.014 -0.4999  0.3475  0.7657
 2360SOL     OW18538   0.301   4.210   7.411 -0.2269  0.0984 -0.0876
 2360SOL    HW118539   0.271   4.208   7.502 -0.5819 -1.9082 -0.2674
 2360SOL    HW218540   0.298   4.305   7.397  0.6115  0.2913  1.0507
 2361SOL     OW18541   1.869   0.286   8.608  0.6087  0.0609 -0.2884
 2361SOL    HW118542   1.954   0.251   8.637  0.9590  0.2408 -1.0930
 2361SOL    HW218543   1.834   0.313   8.693 -2.3317 -0.0482 -1.4939
 2362SOL     OW18544   3.585   2.583   2.184  0.1234  0.0724 -0.2260
 2362SOL    HW118545   3.605   2.672   2.156  1.5148  0.5196  2.2280
 2362SOL    HW218546   3.669   2.541   2.162 -0.4816 -0.6156 -1.2639
 2363SOL     OW18547   2.759   0.198   9.395  0.0228  0.1504  0.1452
 2363SOL    HW118548   2.815   0.124   9.372  1.5388  0.9112  1.3608
 2363SOL    HW218549   2.687   0.194   9.332 -0.2631  3.8178  0.2752
 2364SOL     OW18550   4.617   2.440   4.564 -0.2753 -0.2977  0.9374
 2364SOL    HW118551   4.560   2.457   4.489  1.3742  3.3390  0.5007
 2364SOL    HW218552   4.677   2.515   4.563 -1.3374  0.5160 -1.7072
 2365SOL     OW18553   0.492   0.199   2.672  0.1635 -0.6001  0.1269
 2365SOL    HW118554   0.479   0.185   2.766  2.4801 -0.8969  0.4010
 2365SOL    HW218555   0.417   0.149   2.639 -0.8225  0.7464  0.3258
 2366SOL     OW18556   1.572   2.182   6.361 -0.3853  0.4431  0.1588
 2366SOL    HW118557   1.610   2.110   6.412 -0.4888  0.3269  0.0710
 2366SOL    HW218558   1.487   2.172   6.405 -1.9292 -0.5462 -3.0631
 2367SOL     OW18559   3.256   4.351   2.118  0.4179 -0.4010 -0.5292
 2367SOL    HW118560   3.284   4.267   2.081 -0.1662 -0.8165 -0.0404
 2367SOL    HW218561   3.307   4.409   2.062  0.4041  0.9971  0.9257
 2368SOL     OW18562   4.609   0.618   3.577 -0.4688  0.2836  0.3204
 2368SOL    HW118563   4.623   0.525   3.556  1.6265  0.7691 -0.4759
 2368SOL    HW218564   4.549   0.609   3.650 -0.9788  0.1922 -0.1055
 2369SOL     OW18565   3.787   3.128   3.853  0.2001  0.0588  0.1962
 2369SOL    HW118566   3.817   3.066   3.920 -1.7031 -0.1179  0.8710
 2369SOL    HW218567   3.867   3.136   3.801  0.5736 -2.2004  0.4187
 2370SOL     OW18568   3.373   0.228   2.499  0.2697 -0.4126 -0.3260
 2370SOL    HW118569   3.402   0.319   2.503 -2.2839  0.3400  0.7080
 2370SOL    HW218570   3.419   0.201   2.419  1.0104  3.3335 -1.1830
 2371SOL     OW18571   0.160   4.009   2.908  0.2017 -0.0349 -0.0711
 2371SOL    HW118572   0.210   4.088   2.889  0.2867 -0.3278 -1.0411
 2371SOL    HW218573   0.197   3.984   2.993  0.4767  0.2690 -0.1031
 2372SOL     OW18574   4.199   2.418   8.203  0.5080  0.1535 -0.2590
 2372SOL    HW118575   4.253   2.372   8.267  0.2133  1.1187  0.6908
 2372SOL    HW218576   4.159   2.489   8.254  1.0116  0.4626 -0.2832
 2373SOL     OW18577   2.925   2.659   2.762 -0.3243 -0.3339 -0.5228
 2373SOL    HW118578   3.007   2.679   2.718  0.5292  1.3887  1.8019
 2373SOL    HW218579   2.904   2.743   2.805  1.4407  1.1727 -2.6401
 2374SOL     OW18580   0.715   3.961   7.252  0.2871 -0.2364 -0.7040
 2374SOL    HW118581   0.646   3.972   7.318  1.9121 -0.6823  1.0649
 2374SOL    HW218582   0.675   3.888   7.204  1.5252 -1.2186 -0.2335
 2375SOL     OW18583   3.843   0.267  12.146 -0.2679  0.8046  0.6217
 2375SOL    HW118584   3.832   0.216  12.226  0.2767 -0.1838  0.0691
 2375SOL    HW218585   3.894   0.201  12.099 -2.8473  0.1737 -1.3039
 2376SOL     OW18586   3.918   3.610   6.165  0.2823 -0.7297  0.3551
 2376SOL    HW118587   3.922   3.706   6.159  0.4195 -0.8628 -1.6313
 2376SOL    HW218588   3.951   3.587   6.079  0.0589  1.9082 -0.4285
 2377SOL     OW18589   4.183   0.867   4.271 -0.3500  0.5589  0.0765
 2377SOL    HW118590   4.136   0.800   4.221  1.3914 -0.2413 -0.5077
 2377SOL    HW218591   4.146   0.854   4.359 -2.1255  0.3671 -0.7043
 2378SOL     OW18592   3.549   1.995  17.213 -0.3523  0.4521 -0.0503
 2378SOL    HW118593   3.475   1.963  17.264  0.6593 -0.6030  0.7385
 2378SOL    HW218594   3.548   2.079  17.259  1.0681  0.9774 -0.9730
 2379SOL     OW18595   0.395   1.027   4.141 -0.1923 -0.0032 -0.3561
 2379SOL    HW118596   0.310   0.987   4.161  0.1467 -0.9216 -0.7745
 2379SOL    HW218597   0.441   0.972   4.078  0.5501 -0.1689  0.3209
 2380SOL     OW18598   3.079   4.337   2.963 -0.2025 -0.0384 -0.1610
 2380SOL    HW118599   3.097   4.337   2.869 -0.3902 -0.1991 -0.1983
 2380SOL    HW218600   3.156   4.385   2.994  1.6700 -1.6695 -2.2495
 2381SOL     OW18601   3.211   3.579   3.805 -0.0222  0.0431 -0.2706
 2381SOL    HW118602   3.170   3.645   3.859  0.1555 -1.0073  1.1472
 2381SOL    HW218603   3.288   3.631   3.780 -0.5022  0.6407 -0.5045
 2382SOL     OW18604   0.105   0.400   0.934 -0.3533 -0.0032 -0.9206
 2382SOL    HW118605   0.030   0.351   0.967 -1.1713  1.8675  0.0088
 2382SOL    HW218606   0.123   0.459   1.008  2.9914  1.7941 -3.1802
 2383SOL     OW18607   0.317   3.306  12.259 -0.1092  0.6191  0.2097
 2383SOL    HW118608   0.353   3.221  12.281  2.9453  1.6870 -0.7095
 2383SOL    HW218609   0.223   3.296  12.278  0.2242 -1.5544  0.6084
 2384SOL     OW18610   3.729   4.136   8.422  0.1220 -0.0584 -0.1949
 2384SOL    HW118611   3.755   4.047   8.445  2.2386  0.2004 -1.5100
 2384SOL    HW218612   3.818   4.164   8.400  0.0240  1.1060  0.8599
 2385SOL     OW18613   3.904   1.769   2.741  0.0167 -0.4196 -0.1347
 2385SOL    HW118614   3.823   1.728   2.711 -0.0925  0.2257 -0.7238
 2385SOL    HW218615   3.905   1.846   2.684 -1.0106  0.2240  0.7183
 2386SOL     OW18616   0.066   2.064   7.199 -0.7083  0.5585  0.0115
 2386SOL    HW118617   0.024   2.089   7.117  0.0907 -0.4429 -0.6945
 2386SOL    HW218618   0.155   2.097   7.183 -0.7126  0.7831  0.4504
 2387SOL     OW18619   1.306   1.960   8.333  0.2871 -0.0456 -0.1573
 2387SOL    HW118620   1.279   2.050   8.311  1.4097  0.3571  0.1247
 2387SOL    HW218621   1.361   1.979   8.409  0.1770 -0.5236  0.0415
 2388SOL     OW18622   1.605   3.818  13.215 -0.8557 -0.3048 -0.3258
 2388SOL    HW118623   1.577   3.892  13.268  1.3237  0.1627  0.1601
 2388SOL    HW218624   1.542   3.748  13.233  0.6501 -0.9908  2.1602
 2389SOL     OW18625   2.845   4.010   8.141 -0.3502  0.3940  0.7790
 2389SOL    HW118626   2.806   3.951   8.206 -1.2879 -0.1202 -0.2391
 2389SOL    HW218627   2.814   3.974   8.058  0.6261  2.0469 -0.2870
 2390SOL     OW18628   4.509   1.289   8.601 -0.0211  0.7016 -0.1828
 2390SOL    HW118629   4.601   1.285   8.625  0.3732  2.3155 -1.4146
 2390SOL    HW218630   4.475   1.224   8.662  0.7931 -0.1478 -0.6276
 2391SOL     OW18631   4.056   0.948   8.576 -0.2208 -0.4880 -0.3054
 2391SOL    HW118632   4.023   1.037   8.594 -1.4721 -0.7286 -1.4064
 2391SOL    HW218633   4.143   0.970   8.544  0.3836 -0.9179  1.0480
 2392SOL     OW18634   4.038   1.873   9.722  0.0911 -0.0527  0.1369
 2392SOL    HW118635   3.983   1.948   9.746  1.1503  1.9630 -3.7121
 2392SOL    HW218636   4.053   1.889   9.629  2.2605  2.0085  0.8063
 2393SOL     OW18637   3.660   4.247  14.642 -0.3036 -0.1707 -0.6274
 2393SOL    HW118638   3.620   4.163  14.663 -0.7330  0.0944 -0.3808
 2393SOL    HW218639   3.747   4.230  14.678 -0.8651 -1.3440  0.1653
 2394SOL     OW18640   0.428   2.451   1.208  0.2007  0.0599 -0.4707
 2394SOL    HW118641   0.434   2.511   1.133  2.3100  0.8152  0.2941
 2394SOL    HW218642   0.335   2.435   1.224  0.2652 -1.0066 -1.1628
 2395SOL     OW18643   1.557   1.571   9.068  0.6379  0.2112  0.0641
 2395SOL    HW118644   1.589   1.575   9.158  0.3611  1.0203  0.1267
 2395SOL    HW218645   1.641   1.581   9.023  0.5807 -1.4324 -0.4137
 2396SOL     OW18646   2.525   2.029   4.122  0.5501  0.0782 -0.2729
 2396SOL    HW118647   2.593   2.078   4.076 -0.7629  0.1203 -2.1950
 2396SOL    HW218648   2.556   2.037   4.212  2.4077  0.7857 -0.9830
 2397SOL     OW18649   3.317   1.537   2.613  0.4989  0.0953  0.0810
 2397SOL    HW118650   3.369   1.484   2.674  0.5343 -1.6180 -1.4441
 2397SOL    HW218651   3.359   1.500   2.536  1.4312  1.2229  0.0464
 2398SOL     OW18652   0.563   2.154   6.586 -0.7684 -0.4181  0.1435
 2398SOL    HW118653   0.602   2.192   6.665 -0.0219 -2.0616  0.5734
 2398SOL    HW218654   0.469   2.159   6.600 -0.7220 -0.5858  0.5318
 2399SOL     OW18655   1.498   0.690   3.845  0.5514  0.2469 -0.1726
 2399SOL    HW118656   1.416   0.738   3.843  0.1476 -0.4124  0.5785
 2399SOL    HW218657   1.552   0.747   3.900  1.4143 -1.0638  0.3580
 2400SOL     OW18658   1.029   3.003   4.418 -0.2172 -0.2690 -0.6249
 2400SOL    HW118659   1.084   3.009   4.496 -2.0510 -3.3346  0.8781
 2400SOL    HW218660   0.941   3.021   4.452  0.8635  1.4214  1.2938
 2401SOL     OW18661   0.929   2.701   8.103 -0.2089 -0.2529  0.2801
 2401SOL    HW118662   0.971   2.787   8.104  0.8873 -0.7446 -1.5527
 2401SOL    HW218663   0.848   2.714   8.153 -0.6541 -0.7479 -0.3104
 2402SOL     OW18664   4.449   4.445   5.898  0.3677 -0.0534 -0.1526
 2402SOL    HW118665   4.456   4.388   5.975  0.5216 -0.5573 -0.5361
 2402SOL    HW218666   4.379   4.405   5.846 -1.0695  0.5905  1.3328
 2403SOL     OW18667   0.566   3.647   7.807 -0.5147  0.0255 -0.2857
 2403SOL    HW118668   0.630   3.712   7.778 -0.0712 -0.4409 -0.3486
 2403SOL    HW218669   0.562   3.653   7.902 -2.1487  1.1592 -0.4170
 2404SOL     OW18670   3.550   2.667   3.166  0.1776 -0.0024 -0.2606
 2404SOL    HW118671   3.489   2.598   3.139  0.6300  0.0269 -1.3618
 2404SOL    HW218672   3.521   2.698   3.251  1.4141  1.9637 -0.5582
 2405SOL     OW18673   1.305   0.574  16.170 -0.1551 -0.6758 -0.4898
 2405SOL    HW118674   1.319   0.479  16.170 -0.5030 -0.7293  1.1500
 2405SOL    HW218675   1.262   0.591  16.087 -2.4848  2.4206  1.3483
 2406SOL     OW18676   0.942   2.844  15.270 -0.4098 -1.1075 -0.3812
 2406SOL    HW118677   0.999   2.873  15.199  0.0955  1.7283  1.1826
 2406SOL    HW218678   0.910   2.928  15.302  1.0744 -0.3403 -0.8766
 2407SOL     OW18679   4.011   3.150   5.731 -0.2825 -0.0059 -0.3108
 2407SOL    HW118680   3.965   3.085   5.678  0.0024 -0.1834 -0.3403
 2407SOL    HW218681   4.068   3.184   5.662 -1.6208  1.6729 -0.5793
 2408SOL     OW18682   0.116   3.497  12.445 -0.1699  0.2435 -0.2288
 2408SOL    HW118683   0.074   3.411  12.443  1.2623 -0.4534 -0.3419
 2408SOL    HW218684   0.066   3.539  12.515 -0.0274 -0.0153  0.0265
 2409SOL     OW18685   0.478   1.359   1.728 -0.1000 -0.7275  0.3891
 2409SOL    HW118686   0.504   1.317   1.646  0.8362 -1.2054  0.9344
 2409SOL    HW218687   0.565   1.380   1.762  0.8092 -0.7976 -1.8990
 2410SOL     OW18688   0.097   3.986   3.927 -0.1320  0.0892  0.1685
 2410SOL    HW118689   0.141   3.915   3.879  0.2177  1.0971 -1.0030
 2410SOL    HW218690   0.090   3.944   4.013  1.7829  0.9053  0.7323
 2411SOL     OW18691   2.968   2.706   7.346  0.5391 -0.2699 -0.0972
 2411SOL    HW118692   2.932   2.787   7.382  0.8242 -0.4366  0.5787
 2411SOL    HW218693   3.013   2.664   7.420  0.6880  2.0161  1.1129
 2412SOL     OW18694   4.053   3.606   5.283 -0.8969 -1.0223  0.2437
 2412SOL    HW118695   4.068   3.583   5.192 -1.4630  1.1579 -0.3807
 2412SOL    HW218696   4.094   3.692   5.284 -0.1680 -1.3600 -1.1714
 2413SOL     OW18697   1.434   2.137   5.009 -0.2336  0.1968 -0.6056
 2413SOL    HW118698   1.509   2.165   5.061 -0.7148  2.9990 -1.4092
 2413SOL    HW218699   1.359   2.190   5.036 -0.1006 -0.2820  0.7276
 2414SOL     OW18700   3.065   4.434   7.561 -0.0467  0.5849  0.4174
 2414SOL    HW118701   3.045   4.355   7.610 -0.7580  0.3578 -0.2328
 2414SOL    HW218702   3.100   4.475   7.639  0.8028  1.4686 -0.4299
 2415SOL     OW18703   2.892   3.260  10.916  0.1138 -0.6657 -0.6177
 2415SOL    HW118704   2.969   3.222  10.875 -0.1753  0.7834 -2.4952
 2415SOL    HW218705   2.826   3.234  10.852 -0.0968 -1.9241  0.1272
 2416SOL     OW18706   3.259   0.049   8.604  0.0619  0.2801 -0.7216
 2416SOL    HW118707   3.164   0.043   8.609 -0.0534  1.2208 -1.7060
 2416SOL    HW218708   3.284   0.038   8.696  3.9549 -2.8747 -2.1472
 2417SOL     OW18709   1.083   3.556  12.894  0.3190 -0.2041  0.5624
 2417SOL    HW118710   1.154   3.564  12.958  1.3426 -1.9327 -0.3631
 2417SOL    HW218711   1.110   3.478  12.846 -0.2338  0.0758 -0.2103
 2418SOL     OW18712   0.207   3.222  16.488 -0.6655 -0.4188 -0.0833
 2418SOL    HW118713   0.122   3.206  16.446 -0.8621  0.0903  0.1155
 2418SOL    HW218714   0.258   3.157  16.439  1.4766 -0.7425  2.6196
 2419SOL     OW18715   0.598   2.138   1.142  0.1448  0.6786 -0.4790
 2419SOL    HW118716   0.662   2.207   1.125 -2.3549  2.9892 -0.5391
 2419SOL    HW218717   0.591   2.147   1.237  0.6914 -0.2403 -0.3559
 2420SOL     OW18718   4.274   3.615   3.248 -0.9611 -0.2563 -0.5178
 2420SOL    HW118719   4.263   3.710   3.254 -0.0782 -0.2125  0.4056
 2420SOL    HW218720   4.215   3.584   3.317  1.6421  0.9038  2.2182
 2421SOL     OW18721   1.901   3.454  11.541 -0.4836 -0.5395 -0.1498
 2421SOL    HW118722   1.861   3.423  11.622  0.3742 -0.1619  0.4098
 2421SOL    HW218723   1.993   3.472  11.560 -1.0106  2.7038 -0.6082
 2422SOL     OW18724   0.622   0.213  11.672 -0.2482 -0.0373 -0.1603
 2422SOL    HW118725   0.620   0.167  11.588 -0.1635 -2.2250  1.0539
 2422SOL    HW218726   0.697   0.270  11.659 -0.0075 -0.2677  0.2197
 2423SOL     OW18727   3.969   2.720   2.319  0.5197  0.4280 -0.9503
 2423SOL    HW118728   3.916   2.688   2.247  1.2197  0.4775 -1.4908
 2423SOL    HW218729   4.047   2.664   2.321  0.1246 -0.1025  0.0312
 2424SOL     OW18730   1.395   3.366   7.950 -0.2263  0.0314  0.1138
 2424SOL    HW118731   1.472   3.356   7.894  1.2727  1.8105  1.8280
 2424SOL    HW218732   1.326   3.410   7.901 -0.6543 -0.8374 -0.0497
 2425SOL     OW18733   4.124   2.107   1.238 -0.3902 -0.4012 -0.0764
 2425SOL    HW118734   4.059   2.092   1.308  0.2734  0.7547  0.7962
 2425SOL    HW218735   4.089   2.193   1.213 -0.7434 -1.3721 -2.8383
 2426SOL     OW18736   1.386   1.591   2.674  0.2270  0.3518  0.3365
 2426SOL    HW118737   1.438   1.640   2.610 -1.6048  0.0989 -1.3676
 2426SOL    HW218738   1.313   1.551   2.626 -0.1374 -0.5573  1.6667
 2427SOL     OW18739   0.384   4.249   6.549 -0.1849 -0.1416 -0.3424
 2427SOL    HW118740   0.297   4.213   6.529  1.3444 -3.5857 -0.8744
 2427SOL    HW218741   0.354   4.287   6.631  2.7960  1.0252  0.1963
 2428SOL     OW18742   2.824   3.835   2.640  0.0704 -0.3604  0.3534
 2428SOL    HW118743   2.909   3.803   2.608  0.9892  1.1312  1.3599
 2428SOL    HW218744   2.823   3.777   2.716  1.1450  2.6917  2.6571
 2429SOL     OW18745   1.922   1.584  13.485 -0.2817  0.1449  0.2350
 2429SOL    HW118746   1.951   1.615  13.571  0.2029  3.0655 -0.9990
 2429SOL    HW218747   1.867   1.510  13.512  1.2985 -0.7524  0.9938
 2430SOL     OW18748   0.314   2.259   6.330  0.0697 -0.0907  0.3640
 2430SOL    HW118749   0.354   2.330   6.382 -1.3305 -0.8690  2.4734
 2430SOL    HW218750   0.372   2.185   6.348  1.1500  0.3822 -1.0985
 2431SOL     OW18751   2.179   3.922  12.001  0.5966  0.5179  0.2897
 2431SOL    HW118752   2.139   3.936  12.087  0.2254  1.3794 -0.0206
 2431SOL    HW218753   2.146   3.835  11.980  2.6254 -0.1183 -0.2626
 2432SOL     OW18754   2.191   0.117   3.346 -0.0788 -0.3567 -0.1423
 2432SOL    HW118755   2.214   0.145   3.435 -1.4074  0.0421  0.0748
 2432SOL    HW218756   2.277   0.088   3.314 -0.4207  0.0862 -1.4485
 2433SOL     OW18757   3.884   1.451   1.968 -0.1822 -0.2290 -0.2559
 2433SOL    HW118758   3.844   1.365   1.976 -0.9434  0.4260  3.1559
 2433SOL    HW218759   3.823   1.513   2.008 -1.8409 -1.9074 -0.2049
 2434SOL     OW18760   3.202   4.666   4.518 -0.0391 -0.3938 -0.3862
 2434SOL    HW118761   3.163   4.583   4.491  0.4991 -0.6847 -0.2753
 2434SOL    HW218762   3.136   0.010   4.491 -1.6332 -1.6137  0.7029
 2435SOL     OW18763   1.431   0.685   7.596  0.0828  0.6039  0.3065
 2435SOL    HW118764   1.433   0.710   7.688 -1.6360  1.5676  0.0916
 2435SOL    HW218765   1.445   0.591   7.607 -0.0369  0.4996 -0.4269
 2436SOL     OW18766   0.315   2.294  14.112 -0.4038 -0.0656  0.5152
 2436SOL    HW118767   0.307   2.321  14.204  0.0857 -0.4443  0.6734
 2436SOL    HW218768   0.264   2.213  14.117  2.0032 -1.4602  2.9609
 2437SOL     OW18769   0.651   3.079  12.811 -0.0802  0.3805 -0.1990
 2437SOL    HW118770   0.731   3.044  12.851 -1.0249 -1.1678  0.3025
 2437SOL    HW218771   0.657   3.175  12.819 -1.6276  0.2647  2.3315
 2438SOL     OW18772   2.876   3.661   0.775  0.4735 -0.0469  0.4968
 2438SOL    HW118773   2.828   3.582   0.801 -1.7268  1.0479 -0.2176
 2438SOL    HW218774   2.811   3.728   0.752  1.5537  0.5164 -0.8542
 2439SOL     OW18775   2.571   2.068  13.275 -0.3327  0.0730  0.1704
 2439SOL    HW118776   2.662   2.065  13.303  0.1074 -0.1442 -1.2354
 2439SOL    HW218777   2.581   2.124  13.198  0.6974  0.9916  0.9722
 2440SOL     OW18778   0.095   0.884   2.445 -0.2579  0.4547 -0.1445
 2440SOL    HW118779   0.095   0.976   2.418  1.7678  0.7819  0.9330
 2440SOL    HW218780   0.101   0.846   2.357 -0.6547  0.5129 -0.1993
 2441SOL     OW18781   4.320   4.318  10.564 -0.2480 -0.2751  0.4175
 2441SOL    HW118782   4.296   4.410  10.553 -0.4761 -0.3522  0.2762
 2441SOL    HW218783   4.413   4.326  10.586 -0.0473 -0.0110 -0.5249
 2442SOL     OW18784   0.647   1.593   3.710  0.0265 -0.0946  0.0682
 2442SOL    HW118785   0.600   1.663   3.755 -1.2547  0.2498 -1.8359
 2442SOL    HW218786   0.595   1.582   3.631 -0.4854  1.4057  0.1928
 2443SOL     OW18787   2.605   4.630   9.840  0.0742  0.5066 -0.1092
 2443SOL    HW118788   2.534   4.666   9.787  0.4815  0.6393 -0.5684
 2443SOL    HW218789   2.568   4.569   9.904  0.9997  0.9255  0.8277
 2444SOL     OW18790   1.905   1.680   6.695  0.1757 -0.0935  0.3635
 2444SOL    HW118791   1.857   1.683   6.611  1.2523  0.7586 -0.2215
 2444SOL    HW218792   1.846   1.713   6.763  0.9720 -0.6981  1.3299
 2445SOL     OW18793   4.679   1.629   8.613  0.6904  0.2665  0.2445
 2445SOL    HW118794   4.639   1.693   8.672  2.0331  0.1122  1.3234
 2445SOL    HW218795   4.694   1.561   8.679  0.3851  0.5946  0.6521
 2446SOL     OW18796   4.586   0.611  12.747 -0.2498 -0.5651  0.1331
 2446SOL    HW118797   4.626   0.527  12.723  1.0412 -0.2268  1.1189
 2446SOL    HW218798   4.588   0.663  12.668  1.9188 -0.6437  0.1411
 2447SOL     OW18799   1.618   0.856  12.867 -0.0036  0.5647 -0.2594
 2447SOL    HW118800   1.681   0.879  12.799 -0.2939 -1.0537 -1.0654
 2447SOL    HW218801   1.554   0.803  12.819  0.2836  0.5267 -0.5926
 2448SOL     OW18802   3.777   4.337  11.223 -0.3526 -0.1695 -0.2406
 2448SOL    HW118803   3.754   4.307  11.135 -0.0447  2.1442 -1.0970
 2448SOL    HW218804   3.810   4.257  11.263 -3.1762 -1.1950  0.0316
 2449SOL     OW18805   1.916   4.028   3.895 -0.0103 -0.6768  0.2198
 2449SOL    HW118806   1.986   3.963   3.885  0.8890  0.0633  1.7044
 2449SOL    HW218807   1.843   3.977   3.932 -0.9417  0.3156 -0.2557
 2450SOL     OW18808   0.722   1.453   2.345 -0.9997  0.2150  0.3454
 2450SOL    HW118809   0.813   1.469   2.320 -0.8762  1.4930  1.5983
 2450SOL    HW218810   0.704   1.546   2.358  2.2583  1.2271 -2.4235
 2451SOL     OW18811   3.725   2.324   5.855 -0.8280 -0.4386  0.0686
 2451SOL    HW118812   3.772   2.350   5.934 -0.4403  1.3082 -0.7496
 2451SOL    HW218813   3.674   2.253   5.896  0.9690 -0.8461  1.6311
 2452SOL     OW18814   4.645   0.091   8.060  0.0913 -0.4980 -0.3166
 2452SOL    HW118815   4.694   0.159   8.107 -0.1496 -0.8702  0.4619
 2452SOL    HW218816   4.589   0.134   7.995  0.2936  0.8489  0.4050
 2453SOL     OW18817   3.519   4.338   7.236  0.1570 -0.1085 -0.2548
 2453SOL    HW118818   3.434   4.311   7.199 -0.1891  1.1676 -0.3924
 2453SOL    HW218819   3.498   4.389   7.314  0.0747 -0.6505  0.0779
 2454SOL     OW18820   3.079   3.010   7.110 -0.0733  0.2330 -0.0661
 2454SOL    HW118821   3.137   3.085   7.098  0.1997 -0.5979 -3.7267
 2454SOL    HW218822   3.002   3.048   7.151 -0.4495 -2.0124  1.3429
 2455SOL     OW18823   4.507   0.553   9.298 -0.6304 -0.4102  0.1506
 2455SOL    HW118824   4.531   0.461   9.291 -2.3065 -0.5012 -3.8969
 2455SOL    HW218825   4.525   0.574   9.390  0.1637  0.8906 -0.2931
 2456SOL     OW18826   1.595   0.729   8.956 -0.2066 -0.6124  0.2789
 2456SOL    HW118827   1.687   0.739   8.979 -0.1542 -0.2898 -0.0595
 2456SOL    HW218828   1.547   0.790   9.012  0.0515  0.8200 -1.0596
 2457SOL     OW18829   4.287   3.921   7.018 -0.1293  0.6321 -0.2977
 2457SOL    HW118830   4.316   4.006   7.051 -1.9329  1.0743  0.1331
 2457SOL    HW218831   4.192   3.925   7.012 -0.0810  0.1401 -1.2947
 2458SOL     OW18832   4.462   2.402   5.030  0.2207  0.0710  0.4699
 2458SOL    HW118833   4.542   2.446   5.001 -1.7240  1.3204 -2.9992
 2458SOL    HW218834   4.479   2.320   4.982  1.8860  0.5400  0.2492
 2459SOL     OW18835   2.374   2.972   6.206  0.0845 -0.2129 -0.2201
 2459SOL    HW118836   2.300   2.953   6.148  4.0680 -0.3147 -5.2018
 2459SOL    HW218837   2.362   2.918   6.284 -0.6854  1.1102  0.5953
 2460SOL     OW18838   1.090   3.004   3.885  0.5873 -0.0662  0.3472
 2460SOL    HW118839   1.068   2.918   3.850  0.8660  1.2667 -3.1145
 2460SOL    HW218840   1.179   3.020   3.854  1.0076 -1.7948  0.6567
 2461SOL     OW18841   2.489   3.491   3.240 -0.1839 -0.2566 -0.0430
 2461SOL    HW118842   2.577   3.457   3.220  0.3133  0.9924  0.0563
 2461SOL    HW218843   2.502   3.537   3.323 -0.5241  1.0504 -0.7284
 2462SOL     OW18844   0.573   2.429   9.755  0.3947 -1.0007  0.0471
 2462SOL    HW118845   0.598   2.364   9.689  3.0227 -0.3063  0.3883
 2462SOL    HW218846   0.508   2.375   9.800  0.3965  0.7407  2.1412
 2463SOL     OW18847   2.869   3.683   8.154  0.2219  0.5195  0.1629
 2463SOL    HW118848   2.898   3.593   8.136  0.3174  0.6043 -0.0965
 2463SOL    HW218849   2.779   3.677   8.187 -0.0625 -0.1557 -0.7469
 2464SOL     OW18850   4.307   0.479   4.280 -0.3836 -0.5620  0.1009
 2464SOL    HW118851   4.303   0.435   4.364 -3.1882  0.3363  0.4543
 2464SOL    HW218852   4.227   0.532   4.288  0.2444  0.4089 -0.0485
 2465SOL     OW18853   2.204   2.663  15.799  0.0424 -0.0540 -0.0897
 2465SOL    HW118854   2.231   2.603  15.869  0.5969 -1.2764 -1.3427
 2465SOL    HW218855   2.211   2.608  15.721 -0.5550 -3.2167  2.0549
 2466SOL     OW18856   0.840   1.060   4.209  0.4361 -0.4174  0.0893
 2466SOL    HW118857   0.815   1.100   4.126 -0.1594  0.9747  0.9492
 2466SOL    HW218858   0.767   1.085   4.266  1.3137  0.7491  0.7077
 2467SOL     OW18859   1.845   4.409   8.814 -0.0176  0.4767 -0.1993
 2467SOL    HW118860   1.818   4.362   8.736 -0.8185 -0.2870  0.5304
 2467SOL    HW218861   1.861   4.334   8.872  0.1723  0.3206 -0.4588
 2468SOL     OW18862   3.345   3.263  14.692 -0.1796  0.5714 -0.2178
 2468SOL    HW118863   3.405   3.188  14.687  0.1200  0.9166 -1.7009
 2468SOL    HW218864   3.347   3.279  14.598 -1.1722  2.4653  0.0799
 2469SOL     OW18865   2.042   0.511   8.764 -0.1544  0.1332 -0.3418
 2469SOL    HW118866   1.962   0.562   8.753  0.3777  0.6536 -1.8000
 2469SOL    HW218867   2.014   0.442   8.824 -0.4042  1.7626  1.4198
 2470SOL     OW18868   3.321   2.409  10.647  0.3170  0.0709 -0.2801
 2470SOL    HW118869   3.229   2.427  10.664 -0.0228 -0.2277 -1.7919
 2470SOL    HW218870   3.359   2.495  10.625 -2.5135  1.0645 -1.2291
 2471SOL     OW18871   2.716   3.187  13.881 -0.1642 -0.4497 -0.3141
 2471SOL    HW118872   2.729   3.177  13.975  0.0050  0.4649 -0.2402
 2471SOL    HW218873   2.729   3.096  13.854  1.4848  0.3364 -2.1740
 2472SOL     OW18874   2.274   2.665   3.308  0.3737 -0.2421 -0.6187
 2472SOL    HW118875   2.308   2.749   3.277 -1.4720  0.1920 -1.4774
 2472SOL    HW218876   2.190   2.673   3.264  0.5229 -1.6660 -1.1696
 2473SOL     OW18877   1.828   0.706   6.172 -0.0931 -0.1342  0.1353
 2473SOL    HW118878   1.826   0.760   6.251 -1.1614  1.1288 -0.7619
 2473SOL    HW218879   1.830   0.615   6.201  0.3771  0.7795  2.9207
 2474SOL     OW18880   3.690   4.581  11.906  0.5137 -0.2976 -0.0373
 2474SOL    HW118881   3.720   4.494  11.878 -3.1259 -1.7334  0.4572
 2474SOL    HW218882   3.735   4.596  11.989  2.2217 -0.6728 -0.9107
 2475SOL     OW18883   2.352   2.562  10.301  0.5532  0.2727 -0.0494
 2475SOL    HW118884   2.379   2.640  10.350  3.0784 -1.8980  2.0030
 2475SOL    HW218885   2.257   2.555  10.311  0.5008  1.3759  0.2557
 2476SOL     OW18886   2.346   3.334   8.936  0.1720  0.6220  0.4569
 2476SOL    HW118887   2.342   3.398   9.007  2.7593  0.5540  0.6708
 2476SOL    HW218888   2.261   3.358   8.899 -0.7896  0.6422  2.6688
 2477SOL     OW18889   2.517   3.423   6.939  0.4677  0.2092  0.0741
 2477SOL    HW118890   2.554   3.345   6.897 -1.3582 -1.7429  2.1091
 2477SOL    HW218891   2.553   3.410   7.026  0.5795  0.7872  0.1124
 2478SOL     OW18892   0.775   4.235   7.225 -0.3498  0.2625 -0.1755
 2478SOL    HW118893   0.760   4.142   7.239  0.7008  0.2021  0.6209
 2478SOL    HW218894   0.724   4.253   7.146  0.3101  2.5713 -0.0889
 2479SOL     OW18895   1.666   1.430   1.806 -0.1390 -0.3749  0.0377
 2479SOL    HW118896   1.649   1.354   1.750 -0.3146 -0.0833 -0.3035
 2479SOL    HW218897   1.580   1.473   1.801  0.9973  1.9818  0.5996
 2480SOL     OW18898   1.644   2.914   4.392  0.3918 -0.2637 -0.3810
 2480SOL    HW118899   1.632   2.834   4.444  1.4589  0.1965  0.5861
 2480SOL    HW218900   1.612   2.868   4.315 -1.2460  1.1492 -0.5282
 2481SOL     OW18901   3.081   1.392   2.092  0.1490  0.1646 -0.0237
 2481SOL    HW118902   3.157   1.448   2.079 -1.2162  1.9795 -0.2296
 2481SOL    HW218903   3.067   1.376   2.185  0.9602 -0.0640  0.0547
 2482SOL     OW18904   1.085   0.405   8.201  0.3552 -0.3845  0.2540
 2482SOL    HW118905   1.152   0.343   8.231  0.2651 -0.8898 -0.5947
 2482SOL    HW218906   1.038   0.350   8.138 -0.3984  0.1941  0.3054
 2483SOL     OW18907   1.221   3.142   8.024 -0.1436 -0.3332 -0.3208
 2483SOL    HW118908   1.262   3.199   7.959  1.6380 -1.6709 -0.3750
 2483SOL    HW218909   1.283   3.161   8.094  0.1689  0.0570 -0.7039
 2484SOL     OW18910   4.484   2.073  11.556 -0.7516 -0.1629  0.4833
 2484SOL    HW118911   4.505   1.986  11.523  0.6923  0.3580  0.0316
 2484SOL    HW218912   4.464   2.051  11.647  1.2394  0.7350  1.1475
 2485SOL     OW18913   2.372   2.949   6.881  0.2138 -0.0476  0.3503
 2485SOL    HW118914   2.309   2.955   6.953 -0.2931 -1.1775 -0.0107
 2485SOL    HW218915   2.410   2.862   6.895 -0.4793 -0.9130 -3.1570
 2486SOL     OW18916   3.743   2.589   7.979  0.5143 -0.2681  0.4930
 2486SOL    HW118917   3.791   2.529   8.036 -1.0007 -0.1585  1.8717
 2486SOL    HW218918   3.675   2.619   8.039 -2.1842 -2.0281 -1.7020
 2487SOL     OW18919   0.913   1.700   7.109  0.2075  0.0277  0.6365
 2487SOL    HW118920   0.833   1.750   7.117 -0.5952 -1.3246  1.1150
 2487SOL    HW218921   0.886   1.613   7.139  0.8496 -0.6065 -0.6104
 2488SOL     OW18922   3.046   1.344   6.506  0.3808  0.1279 -0.5543
 2488SOL    HW118923   3.070   1.368   6.417  3.2204  0.7568  0.3684
 2488SOL    HW218924   3.130   1.305   6.529 -0.4126 -0.3986  1.5021
 2489SOL     OW18925   0.758   3.498   6.396 -0.0166 -0.1398  0.8293
 2489SOL    HW118926   0.756   3.594   6.396 -0.6249 -0.1331 -2.4777
 2489SOL    HW218927   0.848   3.496   6.363 -0.5521  0.7471 -0.7258
 2490SOL     OW18928   4.464   1.484  11.166 -0.5021 -0.4306 -0.0415
 2490SOL    HW118929   4.427   1.524  11.245 -1.0888 -0.6233 -0.2148
 2490SOL    HW218930   4.531   1.423  11.194  0.5369  0.5544 -0.3588
 2491SOL     OW18931   0.717   4.595   3.995  0.3751 -0.4185 -0.4483
 2491SOL    HW118932   0.768   4.667   3.960 -1.3241  1.2297  0.4363
 2491SOL    HW218933   0.636   4.608   3.945 -0.3263 -0.2262  0.7182
 2492SOL     OW18934   4.305   0.267   7.438 -0.0103  0.2779 -0.1221
 2492SOL    HW118935   4.355   0.245   7.360  1.6131  1.5264  0.5674
 2492SOL    HW218936   4.278   0.179   7.465 -0.0788  0.5289  0.6251
 2493SOL     OW18937   3.470   0.513   3.588  0.1760 -0.1300 -0.1812
 2493SOL    HW118938   3.542   0.575   3.601 -0.6366  1.0295 -1.1871
 2493SOL    HW218939   3.393   0.565   3.612  0.1458 -0.2432 -0.0324
 2494SOL     OW18940   2.071   2.992   3.959  0.5503 -0.3250 -0.1030
 2494SOL    HW118941   2.005   2.991   3.890  0.9987  0.7246 -0.5499
 2494SOL    HW218942   2.030   2.975   4.044  0.5514 -0.8002 -0.1981
 2495SOL     OW18943   4.034   3.418   3.744  0.5644  0.2546 -0.5374
 2495SOL    HW118944   4.108   3.358   3.741 -0.2345 -0.8019  0.3641
 2495SOL    HW218945   3.961   3.356   3.736  0.0971  0.8619 -0.9347
 2496SOL     OW18946   0.855   1.124   0.344  0.0853  0.6369  0.8448
 2496SOL    HW118947   0.852   1.216   0.371  1.7659  0.5834  1.2290
 2496SOL    HW218948   0.890   1.087   0.425  2.0707 -0.9591 -0.7568
 2497SOL     OW18949   1.017   0.997   1.559 -1.1028 -0.2432 -0.2134
 2497SOL    HW118950   0.984   0.927   1.616  0.2923  2.2037  3.5766
 2497SOL    HW218951   1.110   0.975   1.560 -1.3157 -0.9228  3.9912
 2498SOL     OW18952   1.461   3.777   6.848 -0.7067 -0.2858  0.0730
 2498SOL    HW118953   1.517   3.701   6.861  1.3517  0.9972 -1.1915
 2498SOL    HW218954   1.524   3.845   6.823 -1.2544  0.2449  0.1324
 2499SOL     OW18955   0.793   2.327   2.644  0.1038  0.2496  0.1151
 2499SOL    HW118956   0.879   2.297   2.615  0.3450  1.7952 -0.7904
 2499SOL    HW218957   0.737   2.347   2.569 -0.2377  2.1916  0.8800
 2500SOL     OW18958   0.960   2.418  16.213 -0.1808 -0.2614  0.1437
 2500SOL    HW118959   1.048   2.381  16.204  0.1076  0.3509  0.3943
 2500SOL    HW218960   0.927   2.424  16.124 -0.5150 -2.5154  0.1273
 2501SOL     OW18961   4.341   1.867   3.354 -0.4484 -0.4044  0.2685
 2501SOL    HW118962   4.398   1.818   3.294  0.6911  0.3770  0.7145
 2501SOL    HW218963   4.409   1.901   3.412  0.2313  1.0024 -1.3620
 2502SOL     OW18964   4.187   2.379  13.374  0.2504 -0.2239 -0.0383
 2502SOL    HW118965   4.166   2.391  13.467  0.1898  3.1064 -0.4770
 2502SOL    HW218966   4.251   2.446  13.350 -1.8913  1.8366  0.0347
 2503SOL     OW18967   3.135   3.309   5.844  0.0829  0.1525  1.0271
 2503SOL    HW118968   3.083   3.232   5.820 -1.7907  2.0418 -0.9965
 2503SOL    HW218969   3.202   3.284   5.907  1.7337 -0.9003 -1.1584
 2504SOL     OW18970   1.326   0.444   9.043  0.1386 -0.1001  0.1227
 2504SOL    HW118971   1.300   0.529   9.078 -0.0175 -0.1721  0.1797
 2504SOL    HW218972   1.323   0.456   8.948 -0.5456 -1.9947 -0.0776
 2505SOL     OW18973   2.893   0.124   2.198 -0.0230 -0.0910  0.1268
 2505SOL    HW118974   2.988   0.132   2.208  0.0145 -0.6324  0.2173
 2505SOL    HW218975   2.891   0.098   2.106 -0.4348 -1.4147  0.5050
 2506SOL     OW18976   3.057   3.498   8.998 -0.3544  0.2560 -0.0939
 2506SOL    HW118977   2.992   3.564   9.021 -2.0697 -1.7649  0.8540
 2506SOL    HW218978   3.062   3.491   8.903  0.5460 -3.2093  0.2036
 2507SOL     OW18979   1.330   1.151   2.445  0.2057  0.2669 -0.0507
 2507SOL    HW118980   1.243   1.135   2.481 -0.6703 -0.7597 -2.6203
 2507SOL    HW218981   1.313   1.225   2.386  2.3242  0.3155 -0.5913
 2508SOL     OW18982   1.115   1.054   6.735  0.5723 -0.0280  0.3125
 2508SOL    HW118983   1.125   1.139   6.692 -0.9882  1.2300  2.4786
 2508SOL    HW218984   1.077   0.998   6.667  1.8727 -0.5008 -0.0306
 2509SOL     OW18985   1.554   4.670   5.683  0.4487  0.2519  0.1383
 2509SOL    HW118986   1.561   4.587   5.635 -2.5080  0.0765  0.0191
 2509SOL    HW218987   1.531   0.010   5.612 -2.5292 -0.6240  0.3620
 2510SOL     OW18988   2.555   3.237  11.300 -0.1810  0.5354 -0.0481
 2510SOL    HW118989   2.600   3.242  11.215 -1.5927 -2.8990 -1.0054
 2510SOL    HW218990   2.563   3.327  11.332 -0.8645  0.2972  0.7867
 2511SOL     OW18991   0.897   2.601   7.857 -0.3527  0.0014 -0.3424
 2511SOL    HW118992   0.975   2.636   7.814  0.3909 -2.9833 -1.4027
 2511SOL    HW218993   0.916   2.623   7.948 -0.4899 -3.0979  0.4504
 2512SOL     OW18994   0.868   0.647  14.581  0.1051 -0.1542  0.3654
 2512SOL    HW118995   0.825   0.644  14.666 -0.0370 -2.2152  0.2255
 2512SOL    HW218996   0.937   0.583  14.594  1.0858  0.7951 -0.1908
 2513SOL     OW18997   2.452   1.190  15.267  0.2595 -0.1168  0.1254
 2513SOL    HW118998   2.388   1.127  15.299  0.7593 -1.3672 -1.3214
 2513SOL    HW218999   2.401   1.246  15.207  2.8714  1.4195 -0.6607
 2514SOL     OW19000   0.787   2.987   8.043 -0.1069  0.1251 -0.4503
 2514SOL    HW119001   0.744   2.913   8.001 -1.3547  1.6790 -1.9519
 2514SOL    HW219002   0.777   2.963   8.135  0.1890  1.9454  0.0565
 2515SOL     OW19003   3.747   1.954   1.803 -0.1450  0.3470  0.9346
 2515SOL    HW119004   3.789   1.922   1.883 -1.1953  0.0500  1.3776
 2515SOL    HW219005   3.661   1.974   1.840 -0.2467  0.5060  0.6051
 2516SOL     OW19006   2.135   1.308  10.349 -0.2256 -0.3431  0.1939
 2516SOL    HW119007   2.102   1.264  10.427  0.3035  0.7435  1.0319
 2516SOL    HW219008   2.120   1.251  10.274 -0.5592 -2.0395  1.5596
 2517SOL     OW19009   3.254   3.957   7.699  0.8183 -0.0865  0.4172
 2517SOL    HW119010   3.310   3.887   7.733 -0.8771 -1.9633 -0.6674
 2517SOL    HW219011   3.171   3.913   7.680  0.0565  1.1731  0.8557
 2518SOL     OW19012   3.510   3.361   7.600 -0.6652 -0.2345 -0.4873
 2518SOL    HW119013   3.540   3.297   7.536 -0.5690 -0.2580 -0.4193
 2518SOL    HW219014   3.530   3.443   7.555 -2.2957 -0.1144 -1.0009
 2519SOL     OW19015   0.714   1.324  10.029  0.3813  0.3349 -0.0915
 2519SOL    HW119016   0.682   1.404  10.068 -0.8858  0.9803 -2.4461
 2519SOL    HW219017   0.672   1.315   9.943  0.1542 -1.7740  0.2464
 2520SOL     OW19018   1.912   1.920   0.582 -0.5779  0.0137  0.0457
 2520SOL    HW119019   1.834   1.956   0.624 -0.6486  0.1166 -0.1761
 2520SOL    HW219020   1.937   2.002   0.540  0.2437  0.2158  0.9369
 2521SOL     OW19021   0.768   3.094   4.471  0.1115  0.4318 -0.0133
 2521SOL    HW119022   0.743   3.160   4.536 -0.6936 -0.6186  0.7342
 2521SOL    HW219023   0.683   3.053   4.453 -0.4745  0.6155  2.3730
 2522SOL     OW19024   3.820   0.417   2.162  0.0060 -0.4907 -0.3156
 2522SOL    HW119025   3.913   0.421   2.139  0.3075  1.7638  1.2996
 2522SOL    HW219026   3.829   0.466   2.244  1.4092  0.6975 -1.1638
 2523SOL     OW19027   2.451   3.959   9.002 -0.1857  0.3719 -0.6268
 2523SOL    HW119028   2.399   4.012   9.064  2.9027 -0.3755  2.6193
 2523SOL    HW219029   2.502   4.027   8.959 -2.4145  2.1101 -0.5514
 2524SOL     OW19030   2.506   1.766   4.457 -0.2812  0.1607  0.0121
 2524SOL    HW119031   2.587   1.783   4.505 -0.3393  3.0086 -0.8898
 2524SOL    HW219032   2.545   1.770   4.369 -0.4524 -0.9881 -0.1089
 2525SOL     OW19033   4.262   1.101   1.980  0.1983 -0.2248 -0.0219
 2525SOL    HW119034   4.307   1.033   1.931  0.1403 -0.1957 -0.1156
 2525SOL    HW219035   4.213   1.047   2.041 -0.2031  0.9675  0.7191
 2526SOL     OW19036   2.743   1.495   9.004  0.7190 -0.3010  0.1940
 2526SOL    HW119037   2.791   1.575   8.983  0.2847 -0.1371 -0.1962
 2526SOL    HW219038   2.730   1.502   9.098 -0.0379  3.6224 -0.1948
 2527SOL     OW19039   2.772   0.080  12.120  0.4075 -0.8178  0.1658
 2527SOL    HW119040   2.721   0.153  12.084  0.6667 -0.4652  0.5043
 2527SOL    HW219041   2.743   0.079  12.212 -0.9728 -0.0824 -0.2575
 2528SOL     OW19042   2.189   3.182  12.877 -0.4732 -0.0175 -0.1746
 2528SOL    HW119043   2.232   3.221  12.801  0.5183 -1.3330 -0.2862
 2528SOL    HW219044   2.155   3.260  12.922 -0.7894  0.2217 -0.8259
 2529SOL     OW19045   3.491   4.473   4.439  0.2944  0.1341 -0.1198
 2529SOL    HW119046   3.563   4.437   4.388 -0.3627 -2.1509  0.5478
 2529SOL    HW219047   3.535   4.554   4.465 -2.0535  1.8807 -1.5709
 2530SOL     OW19048   0.817   4.368  16.540  0.0520  0.4171 -0.4212
 2530SOL    HW119049   0.874   4.411  16.476 -0.1525 -2.1428 -2.3115
 2530SOL    HW219050   0.826   4.414  16.624 -0.5930  0.2027 -0.2423
 2531SOL     OW19051   2.364   3.250   0.726  0.5140  0.5054  0.1308
 2531SOL    HW119052   2.281   3.207   0.703  0.4726  0.6157  0.0735
 2531SOL    HW219053   2.360   3.240   0.821 -1.2196 -0.3681 -0.0303
 2532SOL     OW19054   4.447   1.218  11.362 -1.0907  0.1486  0.2745
 2532SOL    HW119055   4.508   1.145  11.377 -0.2319  0.5850 -1.0541
 2532SOL    HW219056   4.419   1.253  11.446  0.9704 -1.0150  1.4364
 2533SOL     OW19057   2.882   3.347   1.981  0.4119 -0.1273 -0.1947
 2533SOL    HW119058   2.830   3.274   1.948  0.0989 -0.8953  2.0182
 2533SOL    HW219059   2.961   3.337   1.927  1.1090  0.0883  0.7751
 2534SOL     OW19060   2.579   2.442   7.112  0.7539  0.0125 -0.3047
 2534SOL    HW119061   2.542   2.354   7.110  0.9039 -0.0213 -1.8615
 2534SOL    HW219062   2.520   2.482   7.176 -0.4690 -3.2557  0.6040
 2535SOL     OW19063   4.479   2.308   3.612  0.1403  0.5886  0.1024
 2535SOL    HW119064   4.478   2.306   3.708 -0.9993  1.9029  0.1207
 2535SOL    HW219065   4.543   2.378   3.601 -0.5956  0.8848 -2.2597
 2536SOL     OW19066   2.573   0.710  11.525  0.3535  0.5450 -0.2588
 2536SOL    HW119067   2.616   0.645  11.580 -2.4367  0.2481  1.5458
 2536SOL    HW219068   2.498   0.728  11.581  0.2046 -1.4737  0.1677
 2537SOL     OW19069   3.907   0.520   0.366 -0.1621  0.2108  0.1468
 2537SOL    HW119070   3.863   0.455   0.312 -0.2873  2.3734 -2.3780
 2537SOL    HW219071   3.836   0.581   0.386  0.0642  0.1432  1.1926
 2538SOL     OW19072   2.713   2.725   8.368  0.0788 -0.7333  0.0236
 2538SOL    HW119073   2.650   2.719   8.439 -0.1890 -0.2736 -0.1766
 2538SOL    HW219074   2.706   2.637   8.332 -0.8099 -1.4856  2.0508
 2539SOL     OW19075   0.281   1.857   7.785  0.0399 -0.0478 -0.6605
 2539SOL    HW119076   0.215   1.924   7.801 -0.2579 -0.8583  1.3926
 2539SOL    HW219077   0.223   1.783   7.798  0.7989 -0.2919  1.2530
 2540SOL     OW19078   2.710   2.872  10.719 -0.1228 -0.4563 -0.4851
 2540SOL    HW119079   2.752   2.956  10.702  0.0038 -0.5183 -0.4756
 2540SOL    HW219080   2.628   2.896  10.762  1.7899  0.2646  2.7237
 2541SOL     OW19081   2.866   0.884   4.084 -0.1389  0.7490  0.0092
 2541SOL    HW119082   2.802   0.920   4.145  0.2117 -0.6693  1.2160
 2541SOL    HW219083   2.813   0.838   4.019 -0.7326  1.6219 -0.1224
 2542SOL     OW19084   1.352   2.095   6.525  0.2677  0.3264  0.4289
 2542SOL    HW119085   1.326   2.040   6.599 -1.3075  0.3657 -0.0987
 2542SOL    HW219086   1.267   2.133   6.504 -0.6748 -1.6266  0.6157
 2543SOL     OW19087   0.539   3.075   5.641  0.5414 -0.5448  0.1822
 2543SOL    HW119088   0.545   3.145   5.707 -0.8994  0.2017 -0.4910
 2543SOL    HW219089   0.606   3.018   5.678 -0.0501 -1.0782  0.4231
 2544SOL     OW19090   0.810   1.280   3.999 -1.2617  0.2380 -0.6413
 2544SOL    HW119091   0.784   1.321   4.082 -2.7687 -0.5430 -0.7325
 2544SOL    HW219092   0.891   1.329   3.981 -2.3168  1.5054 -1.9964
 2545SOL     OW19093   2.959   4.224   8.254  0.3592  0.3187 -0.1574
 2545SOL    HW119094   2.911   4.149   8.219  1.0560 -0.1072 -0.1949
 2545SOL    HW219095   3.003   4.176   8.324  0.5115  1.2182  0.3781
 2546SOL     OW19096   0.112   1.253   1.875 -0.1463 -0.2577 -0.2070
 2546SOL    HW119097   0.070   1.268   1.790 -1.2515 -2.2630  0.0166
 2546SOL    HW219098   0.046   1.208   1.927  0.9443 -1.5939  0.0127
 2547SOL     OW19099   4.108   2.478   1.786 -0.2340 -0.1729 -0.1253
 2547SOL    HW119100   4.112   2.434   1.871  1.0829  1.5926  0.7301
 2547SOL    HW219101   4.134   2.407   1.728  0.2178 -0.1822  0.0927
 2548SOL     OW19102   4.549   2.168  13.906 -0.4574  0.9515  0.4867
 2548SOL    HW119103   4.521   2.199  13.820  0.4901  1.1618  0.2540
 2548SOL    HW219104   4.642   2.192  13.907  0.5456 -2.9363 -0.4306
 2549SOL     OW19105   1.169   1.616   5.443 -0.2604 -0.2213 -0.0311
 2549SOL    HW119106   1.161   1.542   5.504 -1.4701  1.2484  1.5905
 2549SOL    HW219107   1.223   1.578   5.374  0.2900  1.2889 -0.4302
 2550SOL     OW19108   3.766   2.902   7.664 -0.0526 -0.2658 -0.0129
 2550SOL    HW119109   3.743   2.809   7.672  1.9867 -0.8878 -1.3308
 2550SOL    HW219110   3.676   2.932   7.676  0.2906  0.9878 -0.5573
 2551SOL     OW19111   4.705   4.708  10.322 -0.1887  0.7248 -0.0379
 2551SOL    HW119112   0.008   4.635  10.380  1.1738 -0.5110 -2.1238
 2551SOL    HW219113   4.612   4.711  10.345 -0.1635 -0.1863  0.1660
 2552SOL     OW19114   3.238   2.026   9.208  0.0190  0.0453  0.2382
 2552SOL    HW119115   3.287   1.951   9.175  0.6185  0.8094 -0.6005
 2552SOL    HW219116   3.266   2.102   9.158  0.8548 -2.0504 -2.4894
 2553SOL     OW19117   0.212   4.006   5.170 -0.2896  0.3280  0.0990
 2553SOL    HW119118   0.120   4.023   5.189 -0.5810  0.2793 -1.2292
 2553SOL    HW219119   0.237   3.983   5.259  1.3272  1.1478 -0.1324
 2554SOL     OW19120   2.316   1.718   1.529  0.3915 -0.6324  0.1266
 2554SOL    HW119121   2.332   1.733   1.622 -1.2317 -0.1620  0.3353
 2554SOL    HW219122   2.395   1.757   1.491  0.0811  1.9032  2.1269
 2555SOL     OW19123   2.783   3.811   0.182 -0.6079 -0.0134  0.2314
 2555SOL    HW119124   2.815   3.793   0.093  0.6289 -2.5153  1.1927
 2555SOL    HW219125   2.838   3.882   0.216  1.2305 -2.0710  1.5143
 2556SOL     OW19126   1.678   4.416   6.380  0.0653  0.1780 -0.0707
 2556SOL    HW119127   1.693   4.346   6.316 -0.3280 -1.2452  1.4001
 2556SOL    HW219128   1.704   4.377   6.463  2.1556  0.5460 -0.5350
 2557SOL     OW19129   0.307   2.129   1.047 -0.1443  0.0858 -0.1469
 2557SOL    HW119130   0.290   2.077   0.968 -0.1905  1.3762 -0.9984
 2557SOL    HW219131   0.397   2.110   1.072  0.0019  2.0104  0.7773
 2558SOL     OW19132   0.642   0.785   5.586  0.3236 -0.1620 -0.3579
 2558SOL    HW119133   0.668   0.758   5.497  0.2264  1.7688 -0.9620
 2558SOL    HW219134   0.561   0.734   5.586  0.2991 -0.1239 -0.4765
 2559SOL     OW19135   2.012   1.641   2.335 -0.0709 -0.0094 -0.2487
 2559SOL    HW119136   1.987   1.709   2.272 -0.7627 -0.4882 -0.4910
 2559SOL    HW219137   1.978   1.563   2.292 -0.2958 -1.1570  2.0388
 2560SOL     OW19138   3.476   4.288   0.925 -0.3532  0.2033 -0.5063
 2560SOL    HW119139   3.569   4.287   0.947 -0.1359 -0.4985 -1.4458
 2560SOL    HW219140   3.473   4.240   0.842 -2.4998 -0.3009 -0.1392
 2561SOL     OW19141   0.072   0.254   8.266  0.7630  0.2177 -0.0782
 2561SOL    HW119142   0.086   0.207   8.348 -0.3451 -1.4584 -0.8673
 2561SOL    HW219143   0.161   0.286   8.251  0.5851  0.9251  0.3431
 2562SOL     OW19144   2.469   3.198  10.565 -0.5673  0.4066 -0.0204
 2562SOL    HW119145   2.425   3.115  10.585 -0.9506  0.5567 -0.2361
 2562SOL    HW219146   2.493   3.181  10.474  0.6879 -2.2787  0.8172
 2563SOL     OW19147   4.461   2.707  10.840 -0.1372 -0.0659 -0.0392
 2563SOL    HW119148   4.487   2.644  10.773  1.2956  0.7002 -0.2107
 2563SOL    HW219149   4.441   2.652  10.916  1.0297 -0.9702 -0.3903
 2564SOL     OW19150   3.507   2.995   6.112  0.0120  0.6002 -0.2112
 2564SOL    HW119151   3.469   3.040   6.188  0.2392 -2.5782  1.7894
 2564SOL    HW219152   3.440   3.017   6.048  0.3727 -0.5214 -0.9843
 2565SOL     OW19153   4.338   0.264   1.987  0.1306  0.0800  0.1748
 2565SOL    HW119154   4.342   0.186   1.932  1.9377  0.1554  0.1919
 2565SOL    HW219155   4.414   0.305   1.945  0.1982  1.1677  1.3369
 2566SOL     OW19156   4.451   1.473   2.766  0.4187  0.7296 -0.0503
 2566SOL    HW119157   4.470   1.463   2.672  1.9033  0.9462  0.2272
 2566SOL    HW219158   4.404   1.393   2.789 -1.1526  1.1042 -1.9366
 2567SOL     OW19159   1.474   1.786   4.606  0.6636  0.4796 -0.0230
 2567SOL    HW119160   1.565   1.760   4.587  0.3814 -0.2001 -0.4265
 2567SOL    HW219161   1.480   1.842   4.683  0.5359  1.9875 -1.1204
 2568SOL     OW19162   0.130   0.447   6.919 -0.2689 -0.0007  0.5265
 2568SOL    HW119163   0.094   0.434   6.832  1.7424 -0.6186 -0.2051
 2568SOL    HW219164   0.222   0.466   6.904 -0.1261 -0.4601  0.8329
 2569SOL     OW19165   3.012   3.690  12.096  0.1800 -0.4432  0.7886
 2569SOL    HW119166   3.093   3.683  12.147  0.6828 -0.8386 -0.0480
 2569SOL    HW219167   3.035   3.749  12.023 -0.9783  1.2747  1.8161
 2570SOL     OW19168   0.814   4.481   6.663  0.6635  0.3514  0.3787
 2570SOL    HW119169   0.856   4.484   6.577  1.5010  1.1194  0.8218
 2570SOL    HW219170   0.808   4.388   6.685  1.8367 -0.2985 -2.0950
 2571SOL     OW19171   2.902   1.551   3.274  0.7965  0.7491  0.7650
 2571SOL    HW119172   2.950   1.519   3.350  2.8564 -1.0299 -1.2928
 2571SOL    HW219173   2.922   1.489   3.204 -0.1843  1.6679 -0.3341
 2572SOL     OW19174   0.495   0.369   9.016  0.0479  0.2576 -0.3684
 2572SOL    HW119175   0.518   0.276   9.013  0.5761  0.4295 -1.9763
 2572SOL    HW219176   0.406   0.361   9.048  0.7947  1.7179  2.0658
 2573SOL     OW19177   3.299   2.296   2.868 -0.2301 -0.2881 -0.0987
 2573SOL    HW119178   3.367   2.326   2.929  0.2068  0.1939 -0.8121
 2573SOL    HW219179   3.243   2.369   2.842  0.3288 -0.2872 -1.3066
 2574SOL     OW19180   1.565   3.370   2.123  0.1024  0.0268  0.1013
 2574SOL    HW119181   1.524   3.339   2.042 -1.5872  0.7755  0.6691
 2574SOL    HW219182   1.486   3.394   2.171 -0.3709 -1.0494 -0.1347
 2575SOL     OW19183   1.675   0.911   5.955 -0.2168 -0.4820  0.0059
 2575SOL    HW119184   1.706   0.822   5.970  0.0104 -0.7600 -2.0141
 2575SOL    HW219185   1.588   0.897   5.916  0.5651 -0.5073 -1.7594
 2576SOL     OW19186   4.033   1.860   0.657  0.1593  0.0077  0.3311
 2576SOL    HW119187   4.120   1.854   0.698 -0.3166  0.7301  1.4506
 2576SOL    HW219188   3.995   1.787   0.706 -1.1613  1.3540  1.3124
 2577SOL     OW19189   3.115   3.244   6.420  0.0063  0.4927  0.2676
 2577SOL    HW119190   3.108   3.332   6.384  1.5361  1.2787  1.9299
 2577SOL    HW219191   3.149   3.252   6.509  0.4569  1.1052  0.0364
 2578SOL     OW19192   0.873   3.379  12.204  0.3513 -0.1188  0.3576
 2578SOL    HW119193   0.791   3.389  12.157  0.0688  3.7659  1.7156
 2578SOL    HW219194   0.865   3.289  12.235 -1.9031 -0.0114  0.1019
 2579SOL     OW19195   4.332   1.464   8.971 -0.5681  0.2522  0.5698
 2579SOL    HW119196   4.409   1.408   8.977 -1.5890 -1.1049  0.9054
 2579SOL    HW219197   4.273   1.419   9.031  0.0726 -1.3917 -0.0290
 2580SOL     OW19198   3.290   0.036  11.690 -0.3265 -0.4828  0.4209
 2580SOL    HW119199   3.307   0.088  11.768  0.7535 -1.1456  0.6290
 2580SOL    HW219200   3.235   0.096  11.640 -0.5242 -0.0452  1.1641
 2581SOL     OW19201   3.557   3.854   7.569  0.5987  0.3678 -0.6484
 2581SOL    HW119202   3.649   3.841   7.545  0.8880 -2.8582  2.2990
 2581SOL    HW219203   3.548   3.940   7.610  0.3181 -0.4592  1.0182
 2582SOL     OW19204   4.024   4.709   7.945  0.4395 -0.5065  0.1831
 2582SOL    HW119205   4.115   0.009   7.926 -0.2722  0.9649 -1.7920
 2582SOL    HW219206   4.031   4.616   7.965  1.9613 -0.6824 -1.1566
 2583SOL     OW19207   2.561   3.733   8.220 -0.3621  0.6456  0.2812
 2583SOL    HW119208   2.516   3.804   8.173 -0.7514  1.5300  1.9819
 2583SOL    HW219209   2.598   3.790   8.288 -1.0626  1.6340 -0.1722
 2584SOL     OW19210   4.132   2.391  12.087 -0.2533 -0.0213  0.5035
 2584SOL    HW119211   4.161   2.319  12.143 -1.5125 -1.3853 -0.5793
 2584SOL    HW219212   4.128   2.459  12.154  1.0213 -0.7452  1.2992
 2585SOL     OW19213   2.516   2.233   1.048 -0.0943 -0.5136 -1.2244
 2585SOL    HW119214   2.506   2.286   0.969  0.2666 -0.2843 -1.1155
 2585SOL    HW219215   2.445   2.171   1.031 -0.3101 -0.1744 -1.5784
 2586SOL     OW19216   1.140   4.285  16.473 -0.0676 -0.9582 -1.0424
 2586SOL    HW119217   1.231   4.298  16.446 -0.0895  1.8323  0.2911
 2586SOL    HW219218   1.131   4.190  16.472  2.6337 -1.2483  2.1520
 2587SOL     OW19219   3.445   1.296   2.117  0.6040  0.3108 -0.0949
 2587SOL    HW119220   3.489   1.341   2.045 -1.8009  2.0419 -0.4826
 2587SOL    HW219221   3.375   1.252   2.068  1.2852  1.6774 -2.3240
 2588SOL     OW19222   0.498   1.836   8.729  0.4197  0.0855 -0.4813
 2588SOL    HW119223   0.550   1.827   8.809 -0.7609 -1.8461  0.0963
 2588SOL    HW219224   0.566   1.864   8.668 -0.7801  2.9171 -0.4818
 2589SOL     OW19225   1.200   4.659  12.564 -0.0111  0.2761 -0.1365
 2589SOL    HW119226   1.112   4.627  12.543 -0.7210  1.6552  0.7372
 2589SOL    HW219227   1.192   0.033  12.582  1.3008  0.6237 -1.3797
 2590SOL     OW19228   2.743   1.822   4.314 -0.4909 -0.9050 -0.1864
 2590SOL    HW119229   2.775   1.741   4.354  0.5605  0.5117  1.8204
 2590SOL    HW219230   2.745   1.805   4.220  0.6150 -1.0401 -0.1423
 2591SOL     OW19231   1.350   1.309   5.037 -0.4803  0.7633  0.8357
 2591SOL    HW119232   1.281   1.355   4.989 -1.2266 -2.4683 -1.1684
 2591SOL    HW219233   1.409   1.289   4.965 -0.2214  2.0990  0.6771
 2592SOL     OW19234   4.192   0.835   2.083 -0.3393  0.6268  0.3673
 2592SOL    HW119235   4.240   0.849   2.001 -0.2886  1.4595  0.5443
 2592SOL    HW219236   4.267   0.809   2.137  0.4761  1.4165 -0.3824
 2593SOL     OW19237   2.675   3.062   5.213 -0.0434  0.5825  0.5014
 2593SOL    HW119238   2.609   3.047   5.280  0.0412  1.3937  0.7679
 2593SOL    HW219239   2.755   3.064   5.266 -0.1732  0.3058  0.7063
 2594SOL     OW19240   1.230   3.140   1.748  0.0261 -0.2611  0.2408
 2594SOL    HW119241   1.279   3.073   1.701 -0.5351  1.2754 -2.4738
 2594SOL    HW219242   1.235   3.216   1.691 -1.1839 -2.6035 -3.0040
 2595SOL     OW19243   2.563   0.641   1.567 -0.3090  0.4710 -0.0433
 2595SOL    HW119244   2.564   0.589   1.647 -1.4571  0.8875  0.2472
 2595SOL    HW219245   2.656   0.650   1.549  0.4138 -1.5681  2.5595
 2596SOL     OW19246   2.129   4.032   6.902  0.2402 -0.3273 -0.2330
 2596SOL    HW119247   2.183   4.110   6.885 -0.7490  0.3199 -0.4184
 2596SOL    HW219248   2.045   4.077   6.908 -0.3161 -1.7233  2.2434
 2597SOL     OW19249   0.840   0.363   4.359  0.1778 -0.3131 -0.3082
 2597SOL    HW119250   0.840   0.270   4.383 -0.4677 -0.3039 -0.2621
 2597SOL    HW219251   0.799   0.392   4.440 -0.7816  1.6757 -1.4916
 2598SOL     OW19252   2.170   1.452   8.891  0.2846  0.3684  0.0386
 2598SOL    HW119253   2.160   1.466   8.985  3.0827 -0.2352  0.4082
 2598SOL    HW219254   2.216   1.530   8.862 -0.0953  1.1361  1.4953
 2599SOL     OW19255   1.932   3.256   1.224 -0.7483 -0.1630  0.4883
 2599SOL    HW119256   1.925   3.350   1.237  0.4766  0.1533 -1.1661
 2599SOL    HW219257   2.014   3.252   1.175 -0.0044 -3.0435  2.0157
 2600SOL     OW19258   1.739   2.244  16.170  0.4308 -0.2833 -0.4409
 2600SOL    HW119259   1.729   2.291  16.252  1.3466 -0.5851 -0.1619
 2600SOL    HW219260   1.813   2.187  16.189 -1.3865 -2.6748 -0.4956
 2601SOL     OW19261   0.709   3.321   6.628 -0.0006 -0.2003  0.3291
 2601SOL    HW119262   0.736   3.247   6.573  1.0953  1.2510 -1.0540
 2601SOL    HW219263   0.689   3.388   6.563  0.4836  0.6854  1.0929
 2602SOL     OW19264   3.733   1.299   6.450  0.0173  0.0321  0.7107
 2602SOL    HW119265   3.649   1.317   6.409 -2.3582 -1.5023  4.9243
 2602SOL    HW219266   3.707   1.342   6.531 -1.6555 -2.4795  1.5144
 2603SOL     OW19267   2.804   1.070  14.085 -0.2363 -0.4824  0.7182
 2603SOL    HW119268   2.795   1.166  14.086 -1.4307 -0.6255  2.8773
 2603SOL    HW219269   2.808   1.066  13.989  1.2793 -1.6311  0.8262
 2604SOL     OW19270   2.112   1.781   8.076 -0.7233 -0.0203  0.2862
 2604SOL    HW119271   2.096   1.832   7.997 -2.6080 -1.1378 -0.0575
 2604SOL    HW219272   2.094   1.845   8.145  1.8692 -0.0031  0.9201
 2605SOL     OW19273   0.397   1.214   6.073  0.1044 -0.3506 -0.3831
 2605SOL    HW119274   0.312   1.191   6.111 -0.0936  0.5261 -0.2856
 2605SOL    HW219275   0.391   1.309   6.067 -1.0131 -0.4810 -1.2311
 2606SOL     OW19276   1.589   3.967   6.165 -0.5482  0.0431  0.2557
 2606SOL    HW119277   1.670   3.921   6.144 -0.6702  0.2597 -0.6554
 2606SOL    HW219278   1.549   4.000   6.085 -0.8511  1.3010  0.9232
 2607SOL     OW19279   1.917   1.281   9.170 -0.0829  0.5347 -0.2664
 2607SOL    HW119280   1.826   1.255   9.185 -0.2211  2.4455  2.1465
 2607SOL    HW219281   1.933   1.349   9.236  0.5774  0.3246 -0.2114
 2608SOL     OW19282   4.246   1.486   0.379  0.0377 -0.1582 -0.2590
 2608SOL    HW119283   4.174   1.468   0.439  1.4085 -1.9062  0.8811
 2608SOL    HW219284   4.190   1.532   0.317  2.1556  2.2452 -0.3618
 2609SOL     OW19285   0.419   0.629  12.771  0.4340 -0.5735  0.1507
 2609SOL    HW119286   0.456   0.671  12.692 -0.1638 -0.1836  0.0791
 2609SOL    HW219287   0.326   0.650  12.765  0.4167 -0.7029 -0.0261
 2610SOL     OW19288   0.414   4.317  11.611  0.1219  0.6822  0.5316
 2610SOL    HW119289   0.458   4.283  11.533  0.2472 -1.4275  1.5244
 2610SOL    HW219290   0.453   4.265  11.681 -0.7650  1.0819  1.3201
 2611SOL     OW19291   0.656   3.878   3.149 -0.4473  0.3444  0.2785
 2611SOL    HW119292   0.596   3.920   3.087  0.4749  1.8132  0.3906
 2611SOL    HW219293   0.739   3.916   3.122 -0.3389 -0.9876 -1.2115
 2612SOL     OW19294   0.717   0.061  12.573  0.6814  0.3209 -0.3680
 2612SOL    HW119295   0.744   0.153  12.575 -1.2156  0.8370  1.1909
 2612SOL    HW219296   0.651   0.053  12.504  1.2794 -0.3861 -0.8628
 2613SOL     OW19297   3.897   0.953  12.787 -0.2859 -0.0808 -0.0205
 2613SOL    HW119298   3.894   0.943  12.882 -3.7021  0.0825 -0.0906
 2613SOL    HW219299   3.828   0.896  12.752 -0.5512 -0.8738  1.7989
 2614SOL     OW19300   0.064   2.152  16.469  0.1441  0.1203  0.0776
 2614SOL    HW119301   0.141   2.095  16.466  0.4515  0.5777 -0.8509
 2614SOL    HW219302   0.052   2.167  16.563  1.3088  0.2149  0.2120
 2615SOL     OW19303   4.597   2.481  12.046 -0.5725 -0.4293  0.1244
 2615SOL    HW119304   4.662   2.459  11.978 -1.5418  1.4154 -1.4076
 2615SOL    HW219305   4.527   2.518  11.993 -0.5029 -0.5108 -0.0262
 2616SOL     OW19306   3.098   2.095  13.706 -0.3285  0.1371  0.6949
 2616SOL    HW119307   3.129   2.098  13.615 -1.0381 -0.8276  0.4208
 2616SOL    HW219308   3.167   2.039  13.741 -1.3050 -1.0165  0.7939
 2617SOL     OW19309   3.492   3.516   5.498 -0.6313 -0.1451 -0.0461
 2617SOL    HW119310   3.434   3.461   5.550  1.8489 -1.2252  1.6350
 2617SOL    HW219311   3.572   3.501   5.549 -0.8545 -0.5706  0.1746
 2618SOL     OW19312   1.220   2.690  11.802 -0.3810  0.0517 -0.0198
 2618SOL    HW119313   1.282   2.620  11.781  1.8417  1.5833  1.4169
 2618SOL    HW219314   1.225   2.756  11.733 -3.1840 -1.6785 -1.8339
 2619SOL     OW19315   3.099   0.644  15.930  0.1949 -0.7154  0.0921
 2619SOL    HW119316   3.024   0.651  15.990 -0.9240  0.9110 -1.4987
 2619SOL    HW219317   3.100   0.730  15.888  0.7815 -1.1032 -0.6920
 2620SOL     OW19318   2.055   2.538  14.942  0.2689  0.0986 -0.2838
 2620SOL    HW119319   1.988   2.516  14.877 -1.4029  1.2506  1.0147
 2620SOL    HW219320   1.991   2.579  15.001 -0.8502  1.5730 -2.4989
 2621SOL     OW19321   1.009   1.020  11.288  0.4220 -0.0008  0.2464
 2621SOL    HW119322   0.937   0.982  11.339  1.2325  0.4127  1.7048
 2621SOL    HW219323   0.998   0.989  11.198 -0.5351  0.6463  0.1417
 2622SOL     OW19324   3.633   1.135  14.693  0.0146 -0.4940 -0.0847
 2622SOL    HW119325   3.601   1.045  14.684 -2.0986  0.3255 -0.8656
 2622SOL    HW219326   3.707   1.140  14.634 -0.8697  0.2003 -1.1257
 2623SOL     OW19327   0.471   2.176   8.706  0.4202  0.2526 -0.1445
 2623SOL    HW119328   0.411   2.248   8.685  0.6057  0.6889  0.8066
 2623SOL    HW219329   0.551   2.207   8.664 -0.9791  0.1456 -2.8793
 2624SOL     OW19330   3.784   1.881  11.334 -0.5831 -0.5670  0.6001
 2624SOL    HW119331   3.698   1.896  11.293 -0.4891  3.1412  1.7259
 2624SOL    HW219332   3.841   1.902  11.260  0.3691  1.3547  1.8707
 2625SOL     OW19333   2.100   0.585  12.458 -0.2834  0.3373  0.0463
 2625SOL    HW119334   2.092   0.679  12.470  2.0128  0.3430  1.5758
 2625SOL    HW219335   2.049   0.560  12.535  0.2799  0.5507  0.4899
 2626SOL     OW19336   0.477   2.995   3.572  0.4538 -0.2218  0.0179
 2626SOL    HW119337   0.471   3.017   3.664 -0.8742 -1.7824  0.3097
 2626SOL    HW219338   0.567   2.963   3.564 -0.3331 -2.6021  0.7727
 2627SOL     OW19339   0.450   0.397  12.244 -0.1330  0.0433 -0.2478
 2627SOL    HW119340   0.396   0.355  12.177 -1.8714  0.1290  1.0905
 2627SOL    HW219341   0.444   0.335  12.317  0.1765 -0.7409 -0.8816
 2628SOL     OW19342   1.575   1.249   4.897 -0.1376  0.0279  0.1428
 2628SOL    HW119343   1.649   1.306   4.874 -0.0609  0.2034  0.8164
 2628SOL    HW219344   1.620   1.199   4.965  1.0125  2.4728  1.1846
 2629SOL     OW19345   1.008   2.721   5.806 -0.1163 -0.8302  0.0996
 2629SOL    HW119346   1.102   2.735   5.800 -0.2737  0.0830 -0.2327
 2629SOL    HW219347   1.014   2.631   5.772 -0.8066 -0.8303 -0.0164
 2630SOL     OW19348   0.050   4.299   2.090 -0.3320 -0.5606  0.3258
 2630SOL    HW119349   4.683   4.338   2.100  0.6075  1.9998 -1.4842
 2630SOL    HW219350   0.028   4.218   2.042 -0.4358  0.0880 -0.7231
 2631SOL     OW19351   2.359   4.687  17.084  0.1308 -0.3556  0.3650
 2631SOL    HW119352   2.284   4.712  17.138  1.4715  2.2225  1.0160
 2631SOL    HW219353   2.342   0.018  17.005  1.8837  0.0392  0.2389
 2632SOL     OW19354   2.421   3.143   7.115 -0.4933 -0.0010 -0.2696
 2632SOL    HW119355   2.354   3.180   7.057 -0.7643 -1.2296 -0.7346
 2632SOL    HW219356   2.376   3.063   7.141 -2.3757  1.1064 -0.1023
 2633SOL     OW19357   4.385   2.850   8.575  0.1845 -0.0379 -0.6459
 2633SOL    HW119358   4.313   2.791   8.596 -0.0587  1.2849  2.1829
 2633SOL    HW219359   4.410   2.888   8.659 -0.4088 -1.4812  0.1786
 2634SOL     OW19360   4.110   4.469   0.899 -0.0978  0.0728 -0.1675
 2634SOL    HW119361   4.042   4.401   0.897  1.2391 -1.2239 -1.4869
 2634SOL    HW219362   4.151   4.441   0.981  0.4979  1.1789 -0.0925
 2635SOL     OW19363   4.714   0.015   4.878  0.1327 -0.0659  0.1140
 2635SOL    HW119364   0.034   0.053   4.800  0.3556 -0.9694 -0.2168
 2635SOL    HW219365   0.075   4.690   4.903  1.3207  0.8602 -2.0751
 2636SOL     OW19366   0.741   3.931   2.500 -0.0368 -0.7931 -0.2519
 2636SOL    HW119367   0.646   3.926   2.507 -0.1724 -0.4715 -1.8617
 2636SOL    HW219368   0.753   4.021   2.471 -0.0327 -0.5120  0.6347
 2637SOL     OW19369   1.822   3.532  16.011  0.2742  0.1327 -0.1799
 2637SOL    HW119370   1.860   3.575  15.934  1.5915 -1.5868 -0.5176
 2637SOL    HW219371   1.788   3.609  16.056 -1.6186 -1.3787  0.9683
 2638SOL     OW19372   3.013   1.434  12.627  0.6191 -0.5300  0.3435
 2638SOL    HW119373   3.105   1.452  12.612 -0.0610  2.0024 -0.7677
 2638SOL    HW219374   2.992   1.471  12.713 -1.3789  1.5744 -1.0366
 2639SOL     OW19375   3.896   4.074   3.569 -0.4479  0.2542  0.5461
 2639SOL    HW119376   3.888   4.087   3.474  2.5244  1.7568  0.5082
 2639SOL    HW219377   3.990   4.067   3.585 -0.4546 -0.5470  0.2466
 2640SOL     OW19378   2.362   0.817  13.430  0.2497  0.0773 -0.0957
 2640SOL    HW119379   2.364   0.742  13.490  0.5281  0.7601  0.7401
 2640SOL    HW219380   2.352   0.761  13.353  0.5406  1.8912 -1.4342
 2641SOL     OW19381   1.235   2.291   5.972 -0.2278 -0.4775 -0.1585
 2641SOL    HW119382   1.166   2.248   5.922 -0.0811 -0.4212 -0.4086
 2641SOL    HW219383   1.292   2.218   5.994  0.0505 -0.1241  0.2949
 2642SOL     OW19384   0.448   2.376   9.441 -0.1297 -0.1917 -0.1414
 2642SOL    HW119385   0.514   2.320   9.481  2.3563  2.4913 -0.4931
 2642SOL    HW219386   0.386   2.313   9.404 -1.6957  0.1178  1.9324
 2643SOL     OW19387   1.532   2.933   8.025 -0.1776 -0.4800  0.3482
 2643SOL    HW119388   1.575   3.016   8.045 -0.3294 -0.2977 -0.0787
 2643SOL    HW219389   1.476   2.945   7.948 -0.9187  2.1533  1.3052
 2644SOL     OW19390   1.506   4.232   2.468 -0.6387 -0.0419  0.7352
 2644SOL    HW119391   1.495   4.326   2.480  0.7894  0.4573 -1.9412
 2644SOL    HW219392   1.435   4.205   2.526 -0.5789  1.9123  1.7290
 2645SOL     OW19393   3.872   1.856   2.054 -0.7927  0.0318 -0.1369
 2645SOL    HW119394   3.855   1.867   2.148 -0.4099  2.0972 -0.3048
 2645SOL    HW219395   3.966   1.872   2.055 -0.9826  1.1659 -0.1603
 2646SOL     OW19396   4.624   0.361   4.370 -0.3564  0.9109  0.2750
 2646SOL    HW119397   4.569   0.393   4.298 -1.5558  1.9209  1.6491
 2646SOL    HW219398   4.615   0.439   4.424 -0.0597  1.0138  0.1741
 2647SOL     OW19399   1.833   2.162   3.196  0.5806 -0.1528  0.1716
 2647SOL    HW119400   1.927   2.142   3.195  0.4405 -0.7824 -0.1813
 2647SOL    HW219401   1.800   2.130   3.280  2.6334 -2.6393  0.0736
 2648SOL     OW19402   1.873   2.945   7.502 -0.0761  0.7064  0.0715
 2648SOL    HW119403   1.876   2.867   7.447  0.5166  1.3463 -0.8097
 2648SOL    HW219404   1.944   2.935   7.567  0.2349  0.6042 -0.2829
 2649SOL     OW19405   0.992   0.264   0.192 -0.1244 -0.1158  0.7949
 2649SOL    HW119406   0.924   0.311   0.240 -0.8144 -0.4131  0.0983
 2649SOL    HW219407   1.058   0.332   0.183  1.3683 -2.0683 -2.9572
 2650SOL     OW19408   3.646   3.256  11.704 -0.2566  0.3531 -0.3914
 2650SOL    HW119409   3.654   3.247  11.799 -2.0598  1.6339 -0.1063
 2650SOL    HW219410   3.682   3.343  11.687 -0.2346  1.0062  2.9495
 2651SOL     OW19411   0.089   4.565   8.752 -0.2774  0.4725 -0.4708
 2651SOL    HW119412   0.108   4.471   8.752  2.0105  0.9513 -1.3985
 2651SOL    HW219413   0.062   4.579   8.662 -1.6148  0.6095 -0.0443
 2652SOL     OW19414   2.660   1.653   9.673 -0.3052  0.2229 -0.4432
 2652SOL    HW119415   2.682   1.604   9.752 -0.3499  0.6777 -0.1489
 2652SOL    HW219416   2.710   1.733   9.690  1.5304 -0.7610 -1.2523
 2653SOL     OW19417   3.483   2.339  11.223  0.4581 -0.3585  0.0122
 2653SOL    HW119418   3.571   2.311  11.196  0.2088  0.2307 -1.3919
 2653SOL    HW219419   3.457   2.249  11.242  0.3301 -0.5162 -0.9065
 2654SOL     OW19420   3.249   2.102   6.237  0.3927  0.2023 -0.2262
 2654SOL    HW119421   3.296   2.152   6.170 -0.7497  1.3664 -0.1588
 2654SOL    HW219422   3.160   2.124   6.209  1.1500  1.8399 -1.3183
 2655SOL     OW19423   1.899   0.585   1.147 -0.6640  0.0869 -0.0817
 2655SOL    HW119424   1.823   0.643   1.138  0.3462  1.4422  0.2962
 2655SOL    HW219425   1.900   0.590   1.243  1.4536  0.7895 -0.1619
 2656SOL     OW19426   3.741   1.873   4.112 -0.2509 -0.0151  0.0152
 2656SOL    HW119427   3.750   1.950   4.168  1.0465 -1.1366  1.3468
 2656SOL    HW219428   3.805   1.817   4.157 -1.0128 -1.5924 -0.8557
 2657SOL     OW19429   3.180   3.085  13.911 -0.9690  0.8193  0.3971
 2657SOL    HW119430   3.117   3.038  13.966 -0.3211  1.5129  1.7197
 2657SOL    HW219431   3.145   3.077  13.822 -1.1210  2.5176  0.2978
 2658SOL     OW19432   3.570   2.499   4.118  0.0948 -0.3540 -0.2361
 2658SOL    HW119433   3.594   2.592   4.117 -2.3869  0.3130  1.8694
 2658SOL    HW219434   3.547   2.496   4.025 -0.9942  0.8285 -0.0121
 2659SOL     OW19435   0.763   3.699  13.288  0.0802  0.5207  0.0079
 2659SOL    HW119436   0.730   3.681  13.199 -2.8334 -1.9070  1.5746
 2659SOL    HW219437   0.788   3.791  13.286 -1.9694  1.0754 -0.8240
 2660SOL     OW19438   2.035   3.146   6.725 -0.1477 -0.1427  0.1730
 2660SOL    HW119439   1.977   3.133   6.650 -0.2087  1.4298 -0.0490
 2660SOL    HW219440   1.995   3.085   6.788  0.1985 -0.6698 -0.1189
 2661SOL     OW19441   0.722   0.763   6.226  0.7346  0.2105 -0.2043
 2661SOL    HW119442   0.746   0.679   6.186  1.1756  0.2365  0.0092
 2661SOL    HW219443   0.694   0.822   6.156  0.9716 -1.0248 -1.3426
 2662SOL     OW19444   4.130   4.182   4.430 -0.5477 -0.2215 -0.3313
 2662SOL    HW119445   4.200   4.241   4.458 -1.3844  1.2612 -1.3520
 2662SOL    HW219446   4.148   4.175   4.337 -1.5041  3.9684 -0.8234
 2663SOL     OW19447   3.067   0.668  10.022 -0.2305 -0.2376  0.5000
 2663SOL    HW119448   3.093   0.583   9.985 -1.7911  0.1058 -1.4018
 2663SOL    HW219449   3.148   0.694  10.066  0.0508  1.9120 -1.3222
 2664SOL     OW19450   3.900   3.079  14.714  0.3102  0.1056  0.3618
 2664SOL    HW119451   3.857   3.032  14.643  2.2615 -0.8590 -0.1677
 2664SOL    HW219452   3.850   3.160  14.703  1.1284  0.4349 -0.9670
 2665SOL     OW19453   3.278   1.376  15.653  0.1775  0.5687  0.4771
 2665SOL    HW119454   3.234   1.309  15.705 -1.6682  1.2746 -0.1926
 2665SOL    HW219455   3.327   1.330  15.585 -0.9309  0.3610 -0.1806
 2666SOL     OW19456   0.051   0.020   0.006 -0.2826  0.1711  0.5892
 2666SOL    HW119457   4.683   4.709   0.029 -0.7239  0.2670 -0.9945
 2666SOL    HW219458   0.098   4.656   0.008  3.4933  2.2957  2.2102
 2667SOL     OW19459   3.081   0.778   5.053 -0.0215 -0.3600 -0.7826
 2667SOL    HW119460   2.989   0.775   5.026 -0.5892 -1.0554  1.2485
 2667SOL    HW219461   3.131   0.802   4.974  0.6201  0.0176 -0.2720
 2668SOL     OW19462   1.508   2.884   6.873  0.9154 -0.2699 -0.1000
 2668SOL    HW119463   1.472   2.878   6.785  1.2550  0.0359 -0.2590
 2668SOL    HW219464   1.460   2.818   6.924  0.5613  1.4133  1.7646
 2669SOL     OW19465   0.719   1.434   2.790 -0.3414 -0.3702  0.3979
 2669SOL    HW119466   0.691   1.361   2.735 -0.3399 -0.3249  0.3362
 2669SOL    HW219467   0.813   1.432   2.773 -0.1416  0.9510  1.4046
 2670SOL     OW19468   3.285   0.336   7.247 -0.1921 -0.3591  0.4834
 2670SOL    HW119469   3.270   0.372   7.335  1.1663 -0.0816  0.5879
 2670SOL    HW219470   3.316   0.249   7.273 -0.5171 -0.1888  1.4599
 2671SOL     OW19471   3.600   1.202   7.729 -0.5254  0.1703  0.5452
 2671SOL    HW119472   3.528   1.214   7.792 -2.0045 -2.5621 -0.6046
 2671SOL    HW219473   3.616   1.285   7.685  0.2545 -1.1392 -1.6149
 2672SOL     OW19474   4.008   4.638  12.736  0.5786 -0.1665 -0.0107
 2672SOL    HW119475   4.057   4.560  12.762  1.9866  1.4894  2.2351
 2672SOL    HW219476   3.930   4.590  12.707  0.6911  0.5624 -1.5731
 2673SOL     OW19477   3.904   1.802  15.842  0.3421  1.0180 -0.2829
 2673SOL    HW119478   3.943   1.823  15.757  1.3997 -0.5878 -0.1939
 2673SOL    HW219479   3.865   1.887  15.862  1.4343  1.0566  1.6675
 2674SOL     OW19480   2.039   0.854  11.761  0.0221  0.0393 -0.2363
 2674SOL    HW119481   1.992   0.840  11.679 -0.0702 -1.0130 -0.0072
 2674SOL    HW219482   2.020   0.779  11.817  1.2125  0.4249  0.6745
 2675SOL     OW19483   3.225   0.173   7.772 -0.0025  0.4871 -0.2984
 2675SOL    HW119484   3.227   0.157   7.867 -1.3162  2.5651  0.0647
 2675SOL    HW219485   3.270   0.257   7.767 -0.1102  0.4986 -1.0105
 2676SOL     OW19486   2.863   0.686   2.492 -0.0533 -0.2323  0.0913
 2676SOL    HW119487   2.956   0.667   2.498  0.1965  0.7523 -0.6879
 2676SOL    HW219488   2.846   0.665   2.401  1.4258  2.0657 -0.7337
 2677SOL     OW19489   3.310   0.040  15.048 -0.0149 -0.2980 -0.3526
 2677SOL    HW119490   3.329   0.003  14.962 -1.4243 -2.7116  0.3689
 2677SOL    HW219491   3.378   0.002  15.103  0.7694  0.6704 -0.6482
 2678SOL     OW19492   4.044   4.542  14.355  0.0920 -0.2595 -0.3819
 2678SOL    HW119493   3.954   4.542  14.322  0.0621 -0.5139 -0.2987
 2678SOL    HW219494   4.026   4.479  14.425 -0.4066 -1.0864 -1.2643
 2679SOL     OW19495   3.462   1.467   9.273 -0.1223  0.1226  0.0213
 2679SOL    HW119496   3.445   1.539   9.334  2.1857  0.2627  0.5288
 2679SOL    HW219497   3.457   1.391   9.331  1.3924  0.5063  0.6681
 2680SOL     OW19498   3.954   2.967   4.407  0.2988 -0.1203  0.2784
 2680SOL    HW119499   4.008   2.901   4.451 -1.7468 -2.2733 -0.4563
 2680SOL    HW219500   4.019   3.025   4.367 -0.8510  1.9220  1.3380
 2681SOL     OW19501   1.172   1.328   2.273 -0.3048  0.3185  0.0898
 2681SOL    HW119502   1.227   1.362   2.204 -0.7835  0.6518 -0.1314
 2681SOL    HW219503   1.102   1.302   2.213  0.0240  1.1176 -0.6228
 2682SOL     OW19504   1.781   2.828   0.482  0.1924  0.5290 -0.3863
 2682SOL    HW119505   1.758   2.764   0.550 -0.9672  0.3595 -0.9383
 2682SOL    HW219506   1.833   2.771   0.427  1.2727  2.1247 -1.0114
 2683SOL     OW19507   3.388   1.719   9.370 -0.4649 -0.2727  0.2784
 2683SOL    HW119508   3.408   1.760   9.454 -1.5158  2.7804 -0.9537
 2683SOL    HW219509   3.296   1.696   9.383 -0.3893 -1.1334 -0.7382
 2684SOL     OW19510   1.280   0.267  16.608 -0.3814  0.4792  0.1702
 2684SOL    HW119511   1.212   0.220  16.559  0.7477 -0.4433 -0.5252
 2684SOL    HW219512   1.304   0.329  16.539  0.9227  1.9833  1.9785
 2685SOL     OW19513   3.385   4.509   1.958  0.0975 -0.5537  0.2735
 2685SOL    HW119514   3.410   4.500   1.866 -1.2663 -0.8795 -0.0661
 2685SOL    HW219515   3.320   4.579   1.963  0.4286 -0.2907  0.8067
 2686SOL     OW19516   0.278   0.857  13.131  0.0643  0.0322  0.0072
 2686SOL    HW119517   0.343   0.789  13.111  0.9474  1.2238 -1.2022
 2686SOL    HW219518   0.333   0.934  13.116  1.3649 -0.9166 -0.1044
 2687SOL     OW19519   1.183   2.116   6.795  0.2326 -0.1935  0.0670
 2687SOL    HW119520   1.213   2.143   6.881  0.0498  2.5443 -0.7364
 2687SOL    HW219521   1.093   2.089   6.812  0.5323 -0.8777  0.5775
 2688SOL     OW19522   1.886   3.027   4.438 -0.5728  0.0042 -0.5578
 2688SOL    HW119523   1.898   2.933   4.448 -2.7660  0.0675  2.5596
 2688SOL    HW219524   1.792   3.031   4.421 -0.7843  0.0751  0.6473
 2689SOL     OW19525   0.252   0.052   8.665 -0.1885 -0.1771 -0.4756
 2689SOL    HW119526   0.322   0.080   8.724 -1.0848 -1.8029  1.3398
 2689SOL    HW219527   0.218   4.699   8.716  1.3729 -0.1890  0.5264
 2690SOL     OW19528   1.441   0.564   9.440 -0.2539  0.2091 -0.1054
 2690SOL    HW119529   1.449   0.601   9.528 -2.3232  0.3860 -0.0101
 2690SOL    HW219530   1.374   0.615   9.395 -0.4955  0.0677  0.0987
 2691SOL     OW19531   2.893   3.093   5.346 -0.0318 -0.7110 -0.0438
 2691SOL    HW119532   2.897   3.100   5.441 -1.4408  0.2391 -0.0475
 2691SOL    HW219533   2.936   3.171   5.312  1.1440 -1.1273  0.4890
 2692SOL     OW19534   3.473   1.767   3.995  0.3776  0.3230  0.2876
 2692SOL    HW119535   3.479   1.854   4.036 -1.0716  1.0230 -0.9816
 2692SOL    HW219536   3.564   1.744   4.015  1.0653  1.9546 -0.8880
 2693SOL     OW19537   3.732   1.688  15.123 -0.2017 -0.0946  0.1837
 2693SOL    HW119538   3.822   1.681  15.155  0.2000  1.7332 -0.5507
 2693SOL    HW219539   3.731   1.664  15.031  1.6021  1.5415 -0.2576
 2694SOL     OW19540   3.183   2.437   8.594  0.2925 -0.3720 -0.5317
 2694SOL    HW119541   3.205   2.483   8.675  0.6786  1.6687 -1.8073
 2694SOL    HW219542   3.272   2.420   8.563  0.9282 -1.4396  1.8750
 2695SOL     OW19543   0.081   0.386   8.795 -0.1612  0.3704 -0.3650
 2695SOL    HW119544   4.706   0.374   8.802 -0.0521 -0.8875 -0.8878
 2695SOL    HW219545   0.086   0.477   8.769 -0.3609 -0.0067 -1.7224
 2696SOL     OW19546   4.353   1.173   6.894 -0.2584 -0.1488  0.9177
 2696SOL    HW119547   4.380   1.208   6.978 -1.4957  1.8755  0.4695
 2696SOL    HW219548   4.337   1.082   6.919  2.5052  0.0533  3.3802
 2697SOL     OW19549   3.007   0.540   5.466  0.4616 -0.2323  0.0535
 2697SOL    HW119550   3.020   0.462   5.411  0.1333 -0.6394  0.5501
 2697SOL    HW219551   2.912   0.555   5.460  0.2819 -1.5425 -0.4716
 2698SOL     OW19552   0.952   0.249   8.668  0.0780 -0.2252  0.5256
 2698SOL    HW119553   0.878   0.268   8.610  0.9993 -1.2985 -0.9633
 2698SOL    HW219554   0.910   0.254   8.754 -0.8282  0.7878  0.0301
 2699SOL     OW19555   3.918   2.347  13.509  0.1811 -0.1750 -0.4467
 2699SOL    HW119556   3.898   2.342  13.415  1.1399  0.1351 -0.6659
 2699SOL    HW219557   3.844   2.394  13.548  2.8042  2.1729  1.6915
 2700SOL     OW19558   4.478   3.388  12.419 -0.0504 -0.6906 -0.3446
 2700SOL    HW119559   4.432   3.329  12.359 -0.3541  0.5465 -1.3301
 2700SOL    HW219560   4.422   3.466  12.423  0.2150 -0.3912 -2.4406
 2701SOL     OW19561   3.337   3.541   6.512 -0.0494  0.3757  0.5778
 2701SOL    HW119562   3.321   3.531   6.606 -2.6132  1.7927  0.2849
 2701SOL    HW219563   3.406   3.476   6.500 -0.3739  0.2361 -0.5068
 2702SOL     OW19564   0.359   1.613  14.674  0.6256  0.8012  0.2542
 2702SOL    HW119565   0.431   1.651  14.724 -0.5131 -0.0754  2.5522
 2702SOL    HW219566   0.389   1.524  14.653 -0.4488  1.2774 -3.3233
 2703SOL     OW19567   2.988   4.126   2.381 -0.0266  0.4003 -0.0855
 2703SOL    HW119568   2.952   4.142   2.469 -1.4638  0.4567 -0.6808
 2703SOL    HW219569   3.083   4.133   2.394  0.2775 -1.4988 -1.4099
 2704SOL     OW19570   4.418   4.160  11.885 -0.2770  0.5693 -0.4038
 2704SOL    HW119571   4.488   4.116  11.933  1.0552 -0.1282 -3.0275
 2704SOL    HW219572   4.450   4.160  11.795  0.3073  2.1955 -0.2008
 2705SOL     OW19573   2.682   0.991  14.854  0.1801  0.5154  1.1194
 2705SOL    HW119574   2.665   0.905  14.892 -1.1650 -0.3335 -1.3621
 2705SOL    HW219575   2.770   1.001  14.890  0.3460  0.9729  0.5944
 2706SOL     OW19576   0.462   3.069   2.559  0.2767 -0.3914 -0.0541
 2706SOL    HW119577   0.460   2.978   2.531 -4.2302 -0.3908  0.1648
 2706SOL    HW219578   0.524   3.105   2.497 -1.5558  0.9759 -1.1045
 2707SOL     OW19579   2.258   4.253   0.766 -0.1043 -0.0334 -0.2005
 2707SOL    HW119580   2.244   4.348   0.772  1.1290  0.2508 -1.9117
 2707SOL    HW219581   2.203   4.226   0.693 -1.6467  2.5133  0.0048
 2708SOL     OW19582   0.290   0.049   3.698  0.2401  0.0792  0.0692
 2708SOL    HW119583   0.207   0.035   3.652 -0.3706  2.7124  0.3876
 2708SOL    HW219584   0.302   0.143   3.690  0.2068 -0.0422 -1.3958
 2709SOL     OW19585   3.650   3.383  15.176  0.2903  0.3053  0.6038
 2709SOL    HW119586   3.574   3.441  15.165  0.5223  0.7965  1.6471
 2709SOL    HW219587   3.683   3.409  15.262 -0.6617 -3.2463  2.0582
 2710SOL     OW19588   3.559   1.334   1.874  0.7393 -0.2145  0.8143
 2710SOL    HW119589   3.647   1.309   1.903  0.7054 -1.6608 -0.3155
 2710SOL    HW219590   3.556   1.291   1.789 -1.6389  1.2932  0.1303
 2711SOL     OW19591   1.910   1.877   2.986  0.2110 -0.1928  0.1756
 2711SOL    HW119592   1.914   1.861   3.080 -0.4151  0.9035  0.3884
 2711SOL    HW219593   1.893   1.787   2.957 -3.4815  0.0937  1.4743
 2712SOL     OW19594   2.404   0.664  11.745 -0.5955  0.3254  0.2026
 2712SOL    HW119595   2.328   0.607  11.736 -0.1924 -0.0991 -0.4780
 2712SOL    HW219596   2.469   0.603  11.777 -0.7849  0.1707  0.2939
 2713SOL     OW19597   1.277   1.347  14.316  0.4269 -0.0919 -0.2147
 2713SOL    HW119598   1.288   1.255  14.293 -0.8349  0.0128 -1.2362
 2713SOL    HW219599   1.297   1.390  14.233  0.3933  0.1200 -0.1129
 2714SOL     OW19600   2.911   1.888   6.746 -0.1762 -0.3215 -0.2552
 2714SOL    HW119601   2.947   1.799   6.749  0.8799  0.0571 -1.9015
 2714SOL    HW219602   2.892   1.887   6.652 -0.4966  1.8393 -0.2065
 2715SOL     OW19603   3.140   0.145  16.490  0.0131 -0.0242  0.6255
 2715SOL    HW119604   3.086   0.193  16.553 -1.4103  0.1257 -0.7095
 2715SOL    HW219605   3.221   0.195  16.494 -0.3857  0.4793  2.5286
 2716SOL     OW19606   4.082   1.781   7.595 -0.0014  0.0050 -0.1778
 2716SOL    HW119607   4.133   1.855   7.628  0.3710 -2.2492  4.3788
 2716SOL    HW219608   4.146   1.744   7.534 -2.0322  1.7129 -3.2893
 2717SOL     OW19609   1.321   3.847   5.907 -0.2248 -0.1609  0.2970
 2717SOL    HW119610   1.285   3.762   5.933 -1.4054  0.3078  0.1763
 2717SOL    HW219611   1.259   3.906   5.950  1.8789  2.3715 -0.1677
 2718SOL     OW19612   0.767   1.779  14.281  0.2044  0.6426 -0.4750
 2718SOL    HW119613   0.754   1.689  14.253  1.6525  0.6728 -1.2091
 2718SOL    HW219614   0.791   1.826  14.201 -1.6936  2.0942 -0.2024
 2719SOL     OW19615   3.828   0.343   6.606  0.5031  0.0888 -0.2586
 2719SOL    HW119616   3.885   0.404   6.557  3.1936 -2.8990 -0.8528
 2719SOL    HW219617   3.741   0.361   6.570 -1.0022 -1.4620  2.6328
 2720SOL     OW19618   2.580   3.674   4.092 -0.1498 -0.7657 -0.3445
 2720SOL    HW119619   2.635   3.605   4.055 -1.4529 -1.6435 -0.6503
 2720SOL    HW219620   2.648   3.737   4.117 -3.1062  1.6039  1.6681
 2721SOL     OW19621   3.185   1.987   3.148  0.1850  0.5267 -0.4606
 2721SOL    HW119622   3.139   1.995   3.231  1.5781 -0.3653  0.4129
 2721SOL    HW219623   3.259   1.934   3.179 -0.2774  1.8913  2.9202
 2722SOL     OW19624   0.832   0.438   3.017 -0.1405  0.3214 -0.5817
 2722SOL    HW119625   0.892   0.374   3.056 -2.8848 -0.8658  1.7447
 2722SOL    HW219626   0.765   0.437   3.086 -1.6386  2.9964 -1.9974
 2723SOL     OW19627   1.809   1.714   7.820  0.1970  0.6782  0.1565
 2723SOL    HW119628   1.870   1.780   7.854  2.5261 -0.7186 -1.2823
 2723SOL    HW219629   1.726   1.735   7.863  1.7360  3.2601  1.8569
 2724SOL     OW19630   2.426   2.790  14.683  0.0981 -0.4876 -0.7118
 2724SOL    HW119631   2.417   2.823  14.594  0.0144 -1.1744 -0.9580
 2724SOL    HW219632   2.332   2.793  14.699  0.3438  0.3910  0.5543
 2725SOL     OW19633   0.648   2.357   1.643 -0.1217 -0.0041  0.2218
 2725SOL    HW119634   0.635   2.445   1.677  4.9772  1.2033 -0.8944
 2725SOL    HW219635   0.634   2.293   1.712  1.9792  1.2747  1.8252
 2726SOL     OW19636   2.761   1.116   8.458  0.4826 -0.9735 -0.1858
 2726SOL    HW119637   2.804   1.119   8.544 -0.7736  0.7294  0.3773
 2726SOL    HW219638   2.814   1.049   8.414  2.0769  0.0652  0.1328
 2727SOL     OW19639   1.608   2.910   3.738 -0.5499 -0.1890 -0.4945
 2727SOL    HW119640   1.534   2.939   3.792 -2.6132 -1.2389 -2.7454
 2727SOL    HW219641   1.578   2.819   3.743  0.1557 -0.2904  1.9846
 2728SOL     OW19642   4.687   4.261   5.763  0.0757 -0.2379  0.5894
 2728SOL    HW119643   4.611   4.267   5.706  2.1891  2.2590 -1.9303
 2728SOL    HW219644   0.040   4.266   5.701 -1.1328  1.0402 -0.7039
 2729SOL     OW19645   2.385   1.582   7.080 -0.0250  0.1185  0.4057
 2729SOL    HW119646   2.468   1.591   7.032 -0.0578  2.1355  0.7357
 2729SOL    HW219647   2.328   1.580   7.003 -1.2140  0.3072  1.2831
 2730SOL     OW19648   4.441   3.117   3.209 -0.4140 -0.3969 -0.5141
 2730SOL    HW119649   4.442   3.074   3.123  1.4995 -1.1958 -0.0995
 2730SOL    HW219650   4.502   3.058   3.253 -0.0452  0.8072  0.5803
 2731SOL     OW19651   3.205   1.230   5.340  0.1195 -0.4851  0.1946
 2731SOL    HW119652   3.161   1.153   5.304 -0.8301  0.9477 -1.7606
 2731SOL    HW219653   3.251   1.203   5.419  0.4368 -2.1439 -0.5618
 2732SOL     OW19654   1.947   3.495  11.017 -0.2299  0.0733 -0.1938
 2732SOL    HW119655   1.938   3.403  11.042  1.3506 -0.4177 -1.4183
 2732SOL    HW219656   2.038   3.514  11.039  0.7553 -0.9356 -3.3540
 2733SOL     OW19657   3.237   1.919  11.056  0.1049 -0.4809 -0.3519
 2733SOL    HW119658   3.308   1.969  11.097 -0.1438  0.1238 -0.6475
 2733SOL    HW219659   3.249   1.939  10.964  2.3791 -0.8610 -0.1404
 2734SOL     OW19660   4.571   2.087   0.915  0.2252 -0.0073 -0.1478
 2734SOL    HW119661   4.643   2.024   0.907 -0.4347 -0.5826 -1.4555
 2734SOL    HW219662   4.499   2.028   0.939 -0.0496  0.9226  1.2757
 2735SOL     OW19663   1.046   0.739   2.281 -0.0616  0.4353  0.0894
 2735SOL    HW119664   1.020   0.759   2.190  1.5591  0.9753 -0.2457
 2735SOL    HW219665   0.959   0.738   2.320 -1.0911 -1.9837 -2.2213
 2736SOL     OW19666   3.680   3.399   7.198 -0.2751  0.5625  0.2135
 2736SOL    HW119667   3.726   3.459   7.139  1.2302 -0.4836  0.3066
 2736SOL    HW219668   3.694   3.316   7.152  2.4553  0.6946  0.8340
 2737SOL     OW19669   0.781   4.122  13.404  0.7213 -0.4047  0.5070
 2737SOL    HW119670   0.784   4.066  13.327 -0.4279 -2.6451  2.0865
 2737SOL    HW219671   0.695   4.162  13.392  1.5506  1.3401  0.2929
 2738SOL     OW19672   1.776   4.665  16.047 -0.3082  0.3952  0.5634
 2738SOL    HW119673   1.764   4.604  15.975  0.0789 -1.1230  1.7946
 2738SOL    HW219674   1.872   4.672  16.050 -0.3224  0.5165  0.7306
 2739SOL     OW19675   3.467   3.196   5.428  0.2605  0.3936 -0.1466
 2739SOL    HW119676   3.492   3.260   5.493  0.4704  0.3595 -0.1948
 2739SOL    HW219677   3.478   3.108   5.465  1.4865  0.5333 -0.1965
 2740SOL     OW19678   0.614   0.205   6.375  0.3425 -0.2435 -0.2961
 2740SOL    HW119679   0.681   0.159   6.324  3.1438  0.7789  2.4657
 2740SOL    HW219680   0.630   0.148   6.451 -0.2555 -0.4040 -0.2892
 2741SOL     OW19681   3.482   2.246   6.492  0.0758  0.0260 -0.4053
 2741SOL    HW119682   3.438   2.187   6.431 -0.0598  1.6689 -1.8854
 2741SOL    HW219683   3.564   2.271   6.450 -1.0671  2.1466 -1.3344
 2742SOL     OW19684   4.208   0.010   6.996  0.6919  0.0724  0.0013
 2742SOL    HW119685   4.297   0.028   7.026  0.1352  2.5351  0.1657
 2742SOL    HW219686   4.156   4.720   7.076  2.7123 -0.8051  1.2012
 2743SOL     OW19687   0.976   2.769  11.934  0.5067 -0.3311 -0.2231
 2743SOL    HW119688   0.987   2.754  12.028 -1.9760  2.8359  0.5416
 2743SOL    HW219689   1.056   2.726  11.902  1.5992 -0.3299  2.5639
 2744SOL     OW19690   2.259   1.976   9.431 -0.1445 -0.0211 -0.8920
 2744SOL    HW119691   2.208   2.054   9.412 -0.1054  0.0869 -0.5544
 2744SOL    HW219692   2.288   2.001   9.519  0.1935  1.5822 -1.4539
 2745SOL     OW19693   2.938   0.252   7.438 -0.1965  0.6180  0.3200
 2745SOL    HW119694   3.007   0.204   7.485  0.4261  0.6706 -0.5457
 2745SOL    HW219695   2.873   0.245   7.509  1.1467 -1.4624  1.3398
 2746SOL     OW19696   0.108   0.119   5.140  0.1737  0.4476 -0.2969
 2746SOL    HW119697   0.102   0.025   5.161 -1.2685  0.7097  0.4686
 2746SOL    HW219698   0.033   0.122   5.081  0.9185  1.1364 -1.1954
 2747SOL     OW19699   3.337   1.160   4.061  0.1348 -0.0600  0.4954
 2747SOL    HW119700   3.305   1.198   4.142  2.9370 -0.7515  1.9420
 2747SOL    HW219701   3.265   1.098   4.050  0.2041  0.0577 -0.6033
 2748SOL     OW19702   2.567   3.857   5.019  0.1791  0.2984  0.0326
 2748SOL    HW119703   2.613   3.779   5.049  0.5847 -0.6638 -3.1118
 2748SOL    HW219704   2.547   3.898   5.103 -0.2210  1.1054 -0.4606
 2749SOL     OW19705   1.008   1.105   8.028 -0.6085  0.3971  0.1109
 2749SOL    HW119706   1.003   1.017   7.990 -0.6286  0.6641 -0.5139
 2749SOL    HW219707   1.102   1.123   8.024 -1.2277  3.2732 -2.1053
 2750SOL     OW19708   2.920   2.416   4.503  0.3530 -0.2135  1.2980
 2750SOL    HW119709   2.914   2.392   4.411 -4.7536 -1.6778  2.0231
 2750SOL    HW219710   2.851   2.357   4.533 -1.2902  0.7142 -0.6640
 2751SOL     OW19711   0.206   2.914   3.779 -0.3359  0.3318 -0.0709
 2751SOL    HW119712   0.290   2.947   3.810 -1.3034  2.7132 -0.0053
 2751SOL    HW219713   0.227   2.854   3.707 -0.6830 -1.1009  1.0152
 2752SOL     OW19714   3.175   4.588   9.230  0.6388  0.3060 -0.1678
 2752SOL    HW119715   3.207   4.534   9.302  0.2223 -1.9254 -1.6704
 2752SOL    HW219716   3.248   4.640   9.197  0.2949  1.1497  0.4002
 2753SOL     OW19717   1.067   2.168   5.797 -0.0433  0.7148 -0.4082
 2753SOL    HW119718   1.116   2.091   5.768 -0.5170  0.2446  0.0435
 2753SOL    HW219719   1.033   2.203   5.714 -1.1763  0.9653  0.1604
 2754SOL     OW19720   3.511   1.333   4.766  1.0165  0.2024 -0.2232
 2754SOL    HW119721   3.591   1.313   4.816  0.0041 -1.6393  0.6837
 2754SOL    HW219722   3.457   1.261   4.799  0.3282  1.6481  1.7953
 2755SOL     OW19723   1.029   4.207   2.849  0.6752 -0.3413  0.0285
 2755SOL    HW119724   0.986   4.215   2.765 -0.2706  4.0135  0.9289
 2755SOL    HW219725   0.990   4.278   2.900  0.8948 -1.1410  1.3115
 2756SOL     OW19726   3.269   1.857   1.803  0.3228 -0.3642 -0.5503
 2756SOL    HW119727   3.255   1.897   1.717 -0.1820  0.7069  0.0282
 2756SOL    HW219728   3.285   1.768   1.774 -1.6246 -1.1552  0.7958
 2757SOL     OW19729   1.652   2.892  16.261 -0.1410  0.1857  0.0788
 2757SOL    HW119730   1.619   2.977  16.233 -1.6943 -1.1426 -2.1400
 2757SOL    HW219731   1.745   2.909  16.277  0.3236 -2.5011  0.2292
 2758SOL     OW19732   0.532   3.368   8.580  0.0361 -0.6806 -0.1860
 2758SOL    HW119733   0.500   3.385   8.491  0.3025  0.8025  0.0064
 2758SOL    HW219734   0.597   3.437   8.591  0.2058 -1.2846  2.4463
 2759SOL     OW19735   4.217   3.941   7.310  0.1682 -0.2956  0.0700
 2759SOL    HW119736   4.312   3.929   7.316  0.0324 -1.2150  0.3594
 2759SOL    HW219737   4.209   4.034   7.288 -0.1687 -0.2119  0.5658
 2760SOL     OW19738   0.527   0.771   0.378  0.2940  0.1501 -0.0638
 2760SOL    HW119739   0.563   0.689   0.413  1.3764  1.0191  0.8474
 2760SOL    HW219740   0.443   0.753   0.418  0.0840 -0.1742 -0.6378
 2761SOL     OW19741   1.502   0.146  13.383 -0.1863 -0.2883 -0.5967
 2761SOL    HW119742   1.541   0.160  13.470  0.1920  0.0208 -0.8159
 2761SOL    HW219743   1.420   0.194  13.396  1.9401  2.9175  1.1600
 2762SOL     OW19744   2.038   0.241   4.760  0.3938 -0.1038 -0.0706
 2762SOL    HW119745   1.984   0.232   4.681  1.3257  2.1361 -0.9597
 2762SOL    HW219746   1.973   0.232   4.830  0.8216  1.1977  0.4793
 2763SOL     OW19747   2.876   0.620  15.620 -0.0783 -0.2607  0.0294
 2763SOL    HW119748   2.955   0.666  15.646 -0.7406  0.3202  1.0109
 2763SOL    HW219749   2.920   0.550  15.571  0.2321  1.2439 -1.8540
 2764SOL     OW19750   0.584   3.478   9.492 -0.2419  0.0124 -0.0387
 2764SOL    HW119751   0.585   3.445   9.402  3.8953 -1.8828  0.6743
 2764SOL    HW219752   0.496   3.458   9.522 -0.3299 -0.6259 -0.7109
 2765SOL     OW19753   3.137   3.821   2.549 -0.0731 -0.4527 -0.0538
 2765SOL    HW119754   3.167   3.730   2.555 -0.0824 -0.4494  0.0396
 2765SOL    HW219755   3.094   3.823   2.464 -1.6543  0.9007  0.7651
 2766SOL     OW19756   3.945   0.560   6.511 -0.0711 -0.4011  0.6867
 2766SOL    HW119757   3.965   0.629   6.575 -3.2414  0.1319  1.1007
 2766SOL    HW219758   3.917   0.614   6.438 -0.5717 -0.4283  0.8573
 2767SOL     OW19759   2.309   2.094   0.918  0.0525 -0.3647 -0.5380
 2767SOL    HW119760   2.359   2.079   0.838 -2.1608  0.9129 -2.1574
 2767SOL    HW219761   2.274   2.181   0.899  1.1913  0.6724  2.0544
 2768SOL     OW19762   1.084   0.395   5.107  0.5390  1.4206 -0.0064
 2768SOL    HW119763   1.132   0.339   5.168 -0.5230  0.2527 -0.2354
 2768SOL    HW219764   1.009   0.337   5.090  0.2642  1.1121  2.2842
 2769SOL     OW19765   1.446   0.395   3.855  0.3598  0.6197 -0.3799
 2769SOL    HW119766   1.486   0.480   3.839 -0.7454  1.3252  0.6050
 2769SOL    HW219767   1.520   0.340   3.880 -0.5291 -0.0317  0.8652
 2770SOL     OW19768   3.035   1.234   7.576 -0.1678  0.1311  0.3109
 2770SOL    HW119769   2.961   1.288   7.604  0.4002  0.3170  1.4179
 2770SOL    HW219770   3.014   1.238   7.482  0.2195  2.1614  0.3312
 2771SOL     OW19771   2.272   2.186   7.334 -0.1306 -0.0302 -0.1798
 2771SOL    HW119772   2.179   2.193   7.314  0.2082  0.1609 -1.7026
 2771SOL    HW219773   2.306   2.267   7.296 -0.5679  0.3017  0.1398
 2772SOL     OW19774   3.447   3.327   1.033  0.1900 -0.5707 -0.4140
 2772SOL    HW119775   3.402   3.303   0.952  0.4180  0.3943 -0.8268
 2772SOL    HW219776   3.430   3.249   1.086 -0.0305  0.9200  1.7211
 2773SOL     OW19777   2.906   2.318   4.222  0.8179  0.0971  0.7279
 2773SOL    HW119778   2.971   2.333   4.153 -2.1834  1.0119 -1.8873
 2773SOL    HW219779   2.876   2.228   4.209 -0.0803  0.9635 -3.1557
 2774SOL     OW19780   1.959   0.722   3.925  0.1504  0.0141  0.1310
 2774SOL    HW119781   1.915   0.783   3.866  1.2947  0.0751 -0.6435
 2774SOL    HW219782   1.952   0.779   4.001  2.2009  0.9158 -0.3645
 2775SOL     OW19783   2.694   0.878   0.399  0.4473 -0.0589 -0.5060
 2775SOL    HW119784   2.621   0.821   0.374  1.4440 -0.8989 -1.4678
 2775SOL    HW219785   2.747   0.818   0.450 -0.0999  1.2369  1.5770
 2776SOL     OW19786   0.854   2.513   4.629  0.2591 -0.1504 -0.0823
 2776SOL    HW119787   0.841   2.517   4.534  0.3335  0.3847 -0.0706
 2776SOL    HW219788   0.778   2.563   4.656  0.1497  0.1075 -0.8456
 2777SOL     OW19789   2.626   3.488   8.400 -0.6066 -0.1090  0.1233
 2777SOL    HW119790   2.584   3.547   8.338  1.3247  1.5294  0.3603
 2777SOL    HW219791   2.675   3.423   8.350  1.5848  0.7002  1.1929
 2778SOL     OW19792   1.237   2.407   7.645  0.5694  0.4942  0.7424
 2778SOL    HW119793   1.290   2.458   7.706 -0.8558  1.1945  1.3947
 2778SOL    HW219794   1.235   2.326   7.697  0.9918  0.4558  0.6990
 2779SOL     OW19795   2.871   4.348   4.184  0.1018 -0.7568 -0.3367
 2779SOL    HW119796   2.838   4.390   4.104  0.8563  0.5489  0.0349
 2779SOL    HW219797   2.791   4.344   4.237  0.4763 -1.7111  0.1481
 2780SOL     OW19798   3.049   2.313   7.554  0.0626 -0.1360  0.0694
 2780SOL    HW119799   3.035   2.250   7.625  0.1159 -0.1113  0.1011
 2780SOL    HW219800   3.108   2.376   7.595 -1.6213  0.8758  0.9815
 2781SOL     OW19801   1.264   2.234   8.308 -0.5634 -0.5347  0.3716
 2781SOL    HW119802   1.350   2.207   8.340  0.1179  0.1223 -0.9007
 2781SOL    HW219803   1.283   2.313   8.257 -3.4871 -0.0147  0.0662
 2782SOL     OW19804   3.724   1.053   1.108  0.2254 -0.4989 -0.4256
 2782SOL    HW119805   3.797   1.070   1.167  0.4852 -1.9306 -0.3533
 2782SOL    HW219806   3.762   1.038   1.022  3.7836  1.4177  0.8066
 2783SOL     OW19807   0.763   1.599   8.404  0.0099  0.3214 -0.2777
 2783SOL    HW119808   0.756   1.619   8.497  0.7940  0.2108 -0.1994
 2783SOL    HW219809   0.841   1.650   8.383  0.4658  0.2294  1.1951
 2784SOL     OW19810   0.091   0.988   6.207  0.4415  0.2118 -0.4385
 2784SOL    HW119811   0.115   0.948   6.123  0.9285 -0.4429  0.0031
 2784SOL    HW219812   0.121   0.916   6.263 -1.1538 -0.3194 -0.2810
 2785SOL     OW19813   2.730   0.297   5.515  0.2770  0.0018 -0.0439
 2785SOL    HW119814   2.786   0.317   5.439 -2.2553 -1.9355 -2.3920
 2785SOL    HW219815   2.786   0.248   5.575  2.8325  1.1762 -1.4357
 2786SOL     OW19816   3.282   1.650  15.411 -0.3492 -0.4630  0.0960
 2786SOL    HW119817   3.368   1.661  15.370 -0.1728 -1.4421  0.2094
 2786SOL    HW219818   3.312   1.645  15.502 -1.2444  1.2239  0.4772
 2787SOL     OW19819   4.248   1.129   3.759  1.0127 -0.2689  0.2840
 2787SOL    HW119820   4.292   1.200   3.805  0.4843  0.1680  0.1091
 2787SOL    HW219821   4.321   1.066   3.761  1.6554  0.4352 -0.7902
 2788SOL     OW19822   4.087   3.894  14.214 -0.3418 -0.1704  0.0120
 2788SOL    HW119823   4.078   3.828  14.145  2.5408  0.2061 -0.7223
 2788SOL    HW219824   4.125   3.968  14.166  1.0086 -1.1059 -0.3531
 2789SOL     OW19825   3.929   4.419  10.705 -0.5046  0.3885  0.6097
 2789SOL    HW119826   3.846   4.436  10.750 -1.6579 -1.4085 -0.8417
 2789SOL    HW219827   3.905   4.387  10.618  0.7979  1.8370 -0.2751
 2790SOL     OW19828   3.631   2.190   6.270 -0.5166  0.7268  0.1031
 2790SOL    HW119829   3.725   2.186   6.288 -0.5266 -3.0149 -0.6866
 2790SOL    HW219830   3.616   2.099   6.244 -0.1672  0.8272 -0.4606
 2791SOL     OW19831   2.423   3.731  17.599  0.0020 -0.0508 -0.3891
 2791SOL    HW119832   2.511   3.750  17.566 -0.3176  0.3000 -1.0612
 2791SOL    HW219833   2.443   3.647  17.639  0.1115 -0.2581 -0.8822
 2792SOL     OW19834   0.308   1.696  10.721  0.8901  0.6819  0.0731
 2792SOL    HW119835   0.267   1.658  10.643  0.5718 -0.6479  0.9006
 2792SOL    HW219836   0.243   1.765  10.737 -0.9585 -1.1620  0.5819
 2793SOL     OW19837   3.387   4.123   8.007 -0.0067  0.1989 -0.2192
 2793SOL    HW119838   3.354   4.175   8.080 -0.8390  0.7767 -1.0040
 2793SOL    HW219839   3.308   4.075   7.987 -1.3617  2.2265  0.2289
 2794SOL     OW19840   3.699   2.899   4.375  0.2091  0.0332 -0.2955
 2794SOL    HW119841   3.778   2.927   4.421  0.1885 -1.6935  0.7919
 2794SOL    HW219842   3.636   2.914   4.445 -1.7513  0.6467 -2.1934
 2795SOL     OW19843   2.978   1.170   0.142  0.7824  0.0560 -0.3578
 2795SOL    HW119844   3.034   1.148   0.216  0.9923 -0.4352 -0.6634
 2795SOL    HW219845   2.930   1.088   0.128 -2.1607  1.7946 -0.5149
 2796SOL     OW19846   3.039   3.079   9.783 -0.1507  0.3056  0.0372
 2796SOL    HW119847   3.074   3.021   9.715 -1.4887  2.8287 -2.7940
 2796SOL    HW219848   3.008   3.144   9.720 -1.2254  0.5784  0.8358
 2797SOL     OW19849   1.335   1.455   5.287  0.1954 -0.2609  0.3934
 2797SOL    HW119850   1.319   1.411   5.203 -0.9906  2.3788 -0.7807
 2797SOL    HW219851   1.429   1.465   5.278 -0.1207  2.4519  0.0850
 2798SOL     OW19852   2.625   3.145  11.007  0.0942  0.0759 -0.3962
 2798SOL    HW119853   2.594   3.231  10.977 -0.5747 -0.6403 -1.7285
 2798SOL    HW219854   2.586   3.079  10.950  1.8922 -1.6288  0.3778
 2799SOL     OW19855   2.436   3.745   3.693 -1.1855 -0.2851 -0.2928
 2799SOL    HW119856   2.414   3.703   3.776  0.3349 -1.1243 -0.3163
 2799SOL    HW219857   2.517   3.786   3.723 -0.5056 -0.6338 -1.6783
 2800SOL     OW19858   3.192   3.634   7.048 -0.3191  0.4671 -0.2112
 2800SOL    HW119859   3.123   3.569   7.050  0.0229  0.0961 -0.5734
 2800SOL    HW219860   3.211   3.648   7.141 -1.1779  1.9516 -0.2502
 2801SOL     OW19861   2.337   1.877   5.124  0.0862 -0.5012 -0.1215
 2801SOL    HW119862   2.344   1.781   5.125 -1.5868 -0.6119  0.6423
 2801SOL    HW219863   2.263   1.892   5.066 -1.4330 -2.2070  1.3387
 2802SOL     OW19864   0.750   1.959  11.731  0.1751  0.1493  0.8013
 2802SOL    HW119865   0.765   1.865  11.721  0.1430  0.0481  1.6997
 2802SOL    HW219866   0.691   1.948  11.805  1.3260 -2.7311  1.3135
 2803SOL     OW19867   0.971   4.157   3.953 -0.3337 -0.4027  0.1827
 2803SOL    HW119868   0.919   4.126   3.879  0.4875 -0.7861 -0.2402
 2803SOL    HW219869   0.967   4.250   3.933 -1.3353  0.7181  5.5340
 2804SOL     OW19870   1.689   0.500   9.275  0.8607  0.0298 -0.1214
 2804SOL    HW119871   1.730   0.440   9.337  0.6843 -1.1028 -1.0901
 2804SOL    HW219872   1.610   0.530   9.321  0.4185 -1.9484  0.4019
 2805SOL     OW19873   0.363   1.715   7.099  0.1705  0.0271 -0.1005
 2805SOL    HW119874   0.312   1.743   7.023  0.9630 -2.1288 -1.4253
 2805SOL    HW219875   0.333   1.771   7.171  3.8259  0.5582  0.9810
 2806SOL     OW19876   2.318   1.115   2.128  0.1710  0.3233  0.5710
 2806SOL    HW119877   2.290   1.071   2.048 -0.5966  2.0376 -0.1000
 2806SOL    HW219878   2.246   1.173   2.151 -1.4690 -1.2671 -0.6479
 2807SOL     OW19879   4.382   4.196   3.626 -0.8119 -0.4004  0.0129
 2807SOL    HW119880   4.405   4.143   3.550  1.8673 -1.0709  1.3119
 2807SOL    HW219881   4.469   4.204   3.665 -1.1061  0.3257  0.5255
 2808SOL     OW19882   3.341   2.640   1.867  0.3429  0.1261 -0.2086
 2808SOL    HW119883   3.407   2.611   1.804 -0.3985  0.2231 -1.0408
 2808SOL    HW219884   3.272   2.583   1.831 -0.0229 -0.5460  1.5828
 2809SOL     OW19885   3.953   4.225   0.904  0.4055 -0.1266  0.1846
 2809SOL    HW119886   3.863   4.201   0.882  0.2245  2.1903 -1.6585
 2809SOL    HW219887   4.000   4.142   0.892  0.1938  0.1929 -2.7937
 2810SOL     OW19888   3.934   3.934   2.002 -0.1494 -0.2733 -0.3595
 2810SOL    HW119889   3.893   3.851   2.029 -0.3397  0.1411  0.5908
 2810SOL    HW219890   3.861   3.957   1.944 -0.8296  0.4062  0.7748
 2811SOL     OW19891   1.796   1.406  13.979  0.2812  0.3136  0.7589
 2811SOL    HW119892   1.876   1.450  13.949  0.5287 -1.2946 -0.9043
 2811SOL    HW219893   1.798   1.344  13.906  1.7538  0.9826  0.2129
 2812SOL     OW19894   3.217   3.744   4.287 -0.2096 -0.2204 -0.5845
 2812SOL    HW119895   3.188   3.834   4.301  0.8565 -0.0768  0.6755
 2812SOL    HW219896   3.313   3.746   4.287 -0.2352  0.6620  0.8245
 2813SOL     OW19897   2.354   4.662   5.553  0.2046  0.1080  1.0285
 2813SOL    HW119898   2.298   4.692   5.624 -0.2792  1.0007  0.2764
 2813SOL    HW219899   2.373   0.027   5.512 -1.1980 -0.6510 -1.2066
 2814SOL     OW19900   1.619   3.567   7.506 -0.3199  0.0042  0.1206
 2814SOL    HW119901   1.562   3.508   7.556 -0.7589  0.5750  0.3040
 2814SOL    HW219902   1.706   3.542   7.535 -0.0300  0.6830 -0.1534
 2815SOL     OW19903   0.949   3.265   1.264  0.0996 -0.5630  0.4595
 2815SOL    HW119904   1.007   3.262   1.188 -0.9781  0.0299 -0.4015
 2815SOL    HW219905   1.016   3.244   1.328 -0.0700  0.9711  1.1546
 2816SOL     OW19906   4.178   3.392  16.420 -0.3128  0.4765 -0.2610
 2816SOL    HW119907   4.123   3.315  16.430  1.6690 -0.9095 -0.0698
 2816SOL    HW219908   4.240   3.369  16.490 -1.8315 -1.6223  0.3915
 2817SOL     OW19909   1.272   2.290   3.087 -0.2381  0.3664  0.2751
 2817SOL    HW119910   1.293   2.381   3.067 -0.0280  0.1933 -0.2963
 2817SOL    HW219911   1.325   2.239   3.025  2.4994 -0.4942  3.3354
 2818SOL     OW19912   4.062   1.306  13.459  0.1461 -0.6183  0.6987
 2818SOL    HW119913   4.151   1.273  13.446  1.0037  0.9782  2.6243
 2818SOL    HW219914   4.014   1.231  13.493  0.4401 -0.5868  1.1857
 2819SOL     OW19915   4.165   3.369   6.558  0.1554 -0.0104 -0.6028
 2819SOL    HW119916   4.093   3.307   6.544 -0.6437  0.5188  1.1902
 2819SOL    HW219917   4.181   3.417   6.477 -0.1649  0.8942 -0.1324
 2820SOL     OW19918   3.325   1.661   6.360  0.1658 -0.1673 -0.5832
 2820SOL    HW119919   3.274   1.724   6.411 -0.1016 -0.8150 -0.0609
 2820SOL    HW219920   3.341   1.702   6.274 -0.5939 -0.5798 -0.9225
 2821SOL     OW19921   0.870   3.665  13.573  0.3666  0.1324  0.3316
 2821SOL    HW119922   0.815   3.717  13.632 -2.0350 -2.8446  0.7085
 2821SOL    HW219923   0.827   3.693  13.491 -1.5844  1.0739  1.6572
 2822SOL     OW19924   4.276   1.619  13.364  0.2569  0.7664 -0.0243
 2822SOL    HW119925   4.280   1.715  13.372 -0.6933  0.6375  2.0082
 2822SOL    HW219926   4.325   1.589  13.440  0.2542 -1.3602 -0.8678
 2823SOL     OW19927   1.065   1.647   3.863  0.1717  0.3471  0.4054
 2823SOL    HW119928   1.058   1.742   3.859 -0.5495  0.1679 -3.4972
 2823SOL    HW219929   1.116   1.634   3.942 -0.1603 -4.5167 -0.1545
 2824SOL     OW19930   2.802   4.711  14.230  0.2137 -0.3170  0.8325
 2824SOL    HW119931   2.856   0.023  14.302 -1.1752  1.4475  1.1120
 2824SOL    HW219932   2.735   0.060  14.221 -0.5378 -0.8329  2.5735
 2825SOL     OW19933   1.655   1.868   6.749 -0.1118  0.2243  0.0675
 2825SOL    HW119934   1.634   1.791   6.801  1.0167 -0.3306 -0.3026
 2825SOL    HW219935   1.720   1.915   6.801  2.1355 -1.6039 -1.1199
 2826SOL     OW19936   2.332   4.182   5.653 -0.3527 -0.2618  0.0036
 2826SOL    HW119937   2.414   4.232   5.651 -0.5470  0.1887  3.6068
 2826SOL    HW219938   2.367   4.111   5.599  1.1964  0.1636  0.4561
 2827SOL     OW19939   3.102   0.577   0.746 -0.6459 -0.4896 -0.3966
 2827SOL    HW119940   3.025   0.586   0.803 -1.7755 -2.1953 -1.6870
 2827SOL    HW219941   3.090   0.653   0.689  2.5208 -3.2725 -4.6954
 2828SOL     OW19942   2.844   1.815   0.753 -0.0150 -0.6423 -0.3749
 2828SOL    HW119943   2.917   1.801   0.813  0.7504  1.0256 -0.9076
 2828SOL    HW219944   2.773   1.769   0.798  0.0186  1.8527  2.1999
 2829SOL     OW19945   4.388   1.890   4.928 -0.0310 -0.2045 -0.3196
 2829SOL    HW119946   4.311   1.942   4.952  1.7582  2.1172  0.3107
 2829SOL    HW219947   4.340   1.812   4.898 -0.7686 -0.7447  2.2703
 2830SOL     OW19948   0.472   2.024   2.811 -0.3958 -0.9094 -0.1560
 2830SOL    HW119949   0.390   2.071   2.795  0.3903 -0.3137 -2.4634
 2830SOL    HW219950   0.507   1.996   2.727 -0.0669 -1.7879  0.2659
 2831SOL     OW19951   0.607   1.491  16.604  0.0838  0.3448  0.1007
 2831SOL    HW119952   0.635   1.419  16.662  2.1328  1.2610  0.2472
 2831SOL    HW219953   0.585   1.437  16.529  0.6188  0.2023  0.0463
 2832SOL     OW19954   1.303   2.803   7.139  0.0755 -0.1189  0.0114
 2832SOL    HW119955   1.353   2.723   7.120  0.2220  0.6004 -2.6250
 2832SOL    HW219956   1.292   2.824   7.046  0.5710 -0.5683 -0.1463
 2833SOL     OW19957   1.358   1.096  10.503  0.3110  0.3381  0.6484
 2833SOL    HW119958   1.402   1.102  10.588 -1.3657 -0.4371  1.5783
 2833SOL    HW219959   1.375   1.182  10.465 -2.3403  0.5779 -0.0098
 2834SOL     OW19960   3.230   1.639  15.910  0.1728 -0.3787 -0.1992
 2834SOL    HW119961   3.277   1.658  15.828 -0.6085  1.1020 -0.2953
 2834SOL    HW219962   3.142   1.649  15.875  0.2563  1.0226 -0.0159
 2835SOL     OW19963   0.632   2.280   3.172  0.2010 -0.4727 -0.1706
 2835SOL    HW119964   0.586   2.320   3.098  0.6491  2.7960  1.2867
 2835SOL    HW219965   0.704   2.240   3.123 -0.8008 -0.5417 -1.5901
 2836SOL     OW19966   2.747   0.169  11.716  0.2876  0.3744  0.1997
 2836SOL    HW119967   2.746   0.221  11.636  0.7112  0.6211  0.3517
 2836SOL    HW219968   2.693   0.220  11.776  0.0993  2.4182 -1.6891
 2837SOL     OW19969   3.000   0.001   5.879 -0.3230 -0.1135  0.1936
 2837SOL    HW119970   3.017   4.661   5.951 -2.7183 -1.5964 -0.4429
 2837SOL    HW219971   2.977   0.079   5.929  0.7764 -0.3917  1.1149
 2838SOL     OW19972   2.482   3.246   6.237  0.3921  0.1211 -0.1131
 2838SOL    HW119973   2.487   3.263   6.331 -0.0328  0.3086 -0.1252
 2838SOL    HW219974   2.466   3.152   6.230  2.4232 -0.3849  2.0680
 2839SOL     OW19975   4.318   0.868   9.824 -0.5210  0.0107 -0.1206
 2839SOL    HW119976   4.261   0.796   9.849  1.0139 -0.4825  1.9684
 2839SOL    HW219977   4.393   0.833   9.776 -0.7177  2.5573 -2.2518
 2840SOL     OW19978   3.297   0.010   4.790 -0.3212 -0.1183  0.2472
 2840SOL    HW119979   3.280   4.677   4.712 -2.4925  2.1134 -0.7673
 2840SOL    HW219980   3.392   0.010   4.795 -0.4093  1.5380  1.7915
 2841SOL     OW19981   1.279   0.782  16.366  0.1420  0.2551  0.2236
 2841SOL    HW119982   1.249   0.728  16.439  0.6569 -1.3803 -0.7572
 2841SOL    HW219983   1.273   0.720  16.293  0.2696 -0.4416  0.7989
 2842SOL     OW19984   2.761   1.247   4.741 -0.1805 -0.8905 -0.5095
 2842SOL    HW119985   2.735   1.308   4.811 -2.4069 -0.3761 -1.7719
 2842SOL    HW219986   2.814   1.186   4.792 -0.5495 -1.9495 -1.3747
 2843SOL     OW19987   3.579   0.816   7.333  0.1398  0.3422 -0.5869
 2843SOL    HW119988   3.539   0.829   7.246  1.3392 -0.5582 -1.2690
 2843SOL    HW219989   3.623   0.900   7.340  1.8793 -0.8346  2.8097
 2844SOL     OW19990   3.122   0.711   4.634  0.1428 -0.5946  0.0972
 2844SOL    HW119991   3.174   0.703   4.554 -1.1259  1.1395 -0.9052
 2844SOL    HW219992   3.078   0.628   4.619 -0.9698  0.3620 -1.9514
 2845SOL     OW19993   3.663   2.266   7.529  0.7120 -0.3942 -0.3327
 2845SOL    HW119994   3.725   2.328   7.566  1.2460 -1.4364  0.5252
 2845SOL    HW219995   3.618   2.324   7.467 -1.8625 -0.8297  1.1521
 2846SOL     OW19996   0.603   3.946   4.023  0.2995 -0.0797  0.4028
 2846SOL    HW119997   0.560   3.982   4.100  1.2025 -0.4559  1.0832
 2846SOL    HW219998   0.569   4.013   3.965  0.1927  0.0645  0.6347
 2847SOL     OW19999   2.794   2.733   2.326  0.8787  0.3900 -0.1127
 2847SOL    HW120000   2.754   2.646   2.336  0.3303  0.5731 -0.7073
 2847SOL    HW220001   2.765   2.779   2.405  0.8137  0.5864 -0.2508
 2848SOL     OW20002   1.157   0.082   4.744  0.1075 -0.0274 -0.5406
 2848SOL    HW120003   1.115   0.026   4.677  1.1749 -2.3022  0.7031
 2848SOL    HW220004   1.090   0.064   4.810  1.4836  1.0668  1.1331
 2849SOL     OW20005   1.134   3.956   7.258 -0.4938  0.3167  0.2268
 2849SOL    HW120006   1.176   3.878   7.224  1.4125  0.7113  1.6425
 2849SOL    HW220007   1.049   3.944   7.217 -0.7056 -0.1518  0.8118
 2850SOL     OW20008   4.295   0.140   2.229  0.4832 -0.0030  0.1071
 2850SOL    HW120009   4.219   0.085   2.208  0.1427 -0.7606  3.2910
 2850SOL    HW220010   4.324   0.163   2.141 -1.7826  0.0760 -0.6162
 2851SOL     OW20011   0.008   2.563  13.803 -0.4309 -0.4388 -0.0700
 2851SOL    HW120012   0.029   2.647  13.760 -0.8128  0.9264  2.3878
 2851SOL    HW220013   4.644   2.541  13.764 -1.8577  0.1225  2.6582
 2852SOL     OW20014   4.696   4.298   7.453  0.2640 -1.1190 -0.3880
 2852SOL    HW120015   0.052   4.309   7.395  1.2564 -0.2257  1.1028
 2852SOL    HW220016   4.714   4.348   7.533 -2.8360  0.6540 -0.8078
 2853SOL     OW20017   2.526   1.760   2.165  0.5113  0.1515 -0.2171
 2853SOL    HW120018   2.583   1.728   2.235  0.4184 -0.1338 -0.2720
 2853SOL    HW220019   2.441   1.766   2.208  0.7283  0.5155  0.1647
 2854SOL     OW20020   2.179   2.397  16.818  0.3380  0.6818  0.0170
 2854SOL    HW120021   2.273   2.382  16.807  0.2499  1.9246 -2.6016
 2854SOL    HW220022   2.172   2.422  16.726 -0.9863  2.6492  0.6610
 2855SOL     OW20023   2.752   3.902   4.112  0.0326 -0.1375  0.4351
 2855SOL    HW120024   2.839   3.935   4.091 -0.4219  0.4482 -0.5124
 2855SOL    HW220025   2.687   3.970   4.094 -1.0276 -1.0250  0.8651
 2856SOL     OW20026   4.713   2.642   5.272 -0.2338 -0.3149  0.0958
 2856SOL    HW120027   0.089   2.648   5.266 -0.3113 -0.6058 -1.5130
 2856SOL    HW220028   4.708   2.593   5.190 -0.5701 -0.1348  0.0096
 2857SOL     OW20029   3.202   2.613   3.317 -0.5444  0.2009  0.6114
 2857SOL    HW120030   3.207   2.652   3.405 -2.7846  2.3054 -0.2043
 2857SOL    HW220031   3.107   2.620   3.305 -0.7986  1.6652  3.4510
 2858SOL     OW20032   1.789   1.284   4.575 -0.5580  0.4997 -0.4433
 2858SOL    HW120033   1.721   1.328   4.627  1.1183 -0.8114  2.8721
 2858SOL    HW220034   1.814   1.215   4.637 -2.7593  0.9981  1.0166
 2859SOL     OW20035   0.752   0.878   4.769  0.2004 -0.0802 -0.0811
 2859SOL    HW120036   0.790   0.820   4.835 -1.3756  0.9257  1.7314
 2859SOL    HW220037   0.709   0.946   4.822 -1.1090  1.6933 -3.4325
 2860SOL     OW20038   1.961   0.548   4.607 -0.1309  0.1528  0.7658
 2860SOL    HW120039   1.983   0.540   4.700 -1.4185  0.0100  1.0649
 2860SOL    HW220040   1.939   0.458   4.586 -0.3841  0.6297 -0.9782
 2861SOL     OW20041   2.076   4.455   3.204  0.2191  0.0861 -0.1253
 2861SOL    HW120042   2.136   4.480   3.273  1.0228  1.9489 -1.5098
 2861SOL    HW220043   2.080   4.515   3.129  2.0411 -0.3304 -0.3653
 2862SOL     OW20044   0.380   2.967  14.714  0.1833  0.1869  0.1693
 2862SOL    HW120045   0.334   3.038  14.759 -0.9922  0.0372 -0.7917
 2862SOL    HW220046   0.448   2.936  14.774 -0.8496 -1.8523  0.2791
 2863SOL     OW20047   2.750   0.120   7.972  0.5968  0.0555  0.0928
 2863SOL    HW120048   2.779   0.155   8.056 -0.0317  0.8774 -0.0284
 2863SOL    HW220049   2.821   0.060   7.952 -0.7666 -1.8790  0.9857
 2864SOL     OW20050   1.984   3.756   5.572 -0.0568 -0.0308  0.3071
 2864SOL    HW120051   2.021   3.842   5.592  1.3417 -0.8422  1.1736
 2864SOL    HW220052   1.889   3.767   5.585  0.1765  0.4920  1.5289
 2865SOL     OW20053   4.314   4.374   2.348  0.0117  0.0121  0.4111
 2865SOL    HW120054   4.310   4.281   2.325 -3.8333  0.1076  0.8311
 2865SOL    HW220055   4.232   4.374   2.397 -0.9747 -1.0641 -1.2718
 2866SOL     OW20056   2.912   4.607   7.440 -0.0823 -0.4637  0.2138
 2866SOL    HW120057   2.957   4.688   7.465  1.5152 -0.9324 -1.1354
 2866SOL    HW220058   2.941   4.533   7.494  0.1516 -0.3948  0.1825
 2867SOL     OW20059   4.478   0.407   6.040 -0.0096  0.3748  0.5345
 2867SOL    HW120060   4.514   0.321   6.023  2.3650  1.4563  0.1131
 2867SOL    HW220061   4.559   0.458   6.044 -0.2385  0.8403 -0.6283
 2868SOL     OW20062   1.313   1.822   8.692 -0.1697  0.2608 -0.4082
 2868SOL    HW120063   1.388   1.764   8.702 -0.7020 -0.5065 -0.8757
 2868SOL    HW220064   1.360   1.887   8.641 -0.9771  1.3481  0.2309
 2869SOL     OW20065   3.714   1.892   2.562 -0.2384  0.6728 -0.0767
 2869SOL    HW120066   3.690   1.864   2.651 -3.5614 -1.2738 -1.5651
 2869SOL    HW220067   3.652   1.963   2.546  0.3484  0.9783 -1.0102
 2870SOL     OW20068   4.586   4.345  10.666  0.0811 -0.3596  0.3475
 2870SOL    HW120069   4.519   4.303  10.720  0.4112  0.5258  1.4630
 2870SOL    HW220070   4.658   4.331  10.729 -2.2529 -1.4702  2.7780
 2871SOL     OW20071   3.280   3.359   1.272  1.1004 -0.5169 -0.0712
 2871SOL    HW120072   3.258   3.266   1.272 -2.5543  0.3459  0.4518
 2871SOL    HW220073   3.351   3.352   1.336  0.5426  0.4329  0.6568
 2872SOL     OW20074   3.574   4.389  13.546  0.1128 -0.4876 -0.2108
 2872SOL    HW120075   3.504   4.327  13.525 -0.7413  0.3526  0.1333
 2872SOL    HW220076   3.569   4.451  13.473  1.0582 -1.8752 -1.4642
 2873SOL     OW20077   4.223   1.412   6.786 -0.4736  0.0988 -0.4569
 2873SOL    HW120078   4.240   1.336   6.842  0.9624  1.3503  0.8099
 2873SOL    HW220079   4.308   1.458   6.784  0.8662 -2.3737  0.1733
 2874SOL     OW20080   0.863   1.817  14.554 -0.3738  0.0112 -0.0343
 2874SOL    HW120081   0.813   1.808  14.473  1.5082  2.1583 -1.4147
 2874SOL    HW220082   0.796   1.856  14.610 -0.6247  1.0646 -1.0648
 2875SOL     OW20083   4.268   0.242  16.023  0.0816  0.1150  0.4148
 2875SOL    HW120084   4.239   0.312  15.963 -0.4077 -1.8677 -1.6496
 2875SOL    HW220085   4.253   0.295  16.102 -0.8523  0.8421 -0.2432
 2876SOL     OW20086   2.627   1.024   4.483  0.9964 -0.1315  0.0205
 2876SOL    HW120087   2.611   1.110   4.519 -2.4370  0.2253 -2.3917
 2876SOL    HW220088   2.686   0.985   4.548 -0.3182 -1.2049  0.5544
 2877SOL     OW20089   4.031   3.273   4.914  0.0714  0.0279  0.2439
 2877SOL    HW120090   4.027   3.352   4.969 -0.2402  0.2433 -0.0914
 2877SOL    HW220091   4.124   3.254   4.927 -0.6358 -1.9642  2.4505
 2878SOL     OW20092   2.261   1.031   4.227 -0.5193  0.6675 -0.1468
 2878SOL    HW120093   2.315   0.991   4.159  0.1447  1.6891 -0.2224
 2878SOL    HW220094   2.308   1.002   4.306  0.3476  1.2417 -0.4570
 2879SOL     OW20095   2.975   1.675  17.097 -0.2638 -0.2590  0.0573
 2879SOL    HW120096   2.934   1.596  17.131  1.6177 -0.3995  1.9974
 2879SOL    HW220097   2.898   1.721  17.062 -0.6697 -0.5301  0.6072
 2880SOL     OW20098   4.221   1.912   8.259 -0.1773  0.1165  0.3701
 2880SOL    HW120099   4.177   1.921   8.174  2.4196  0.9057 -0.9187
 2880SOL    HW220100   4.176   1.977   8.312 -1.8312  0.4306 -1.4084
 2881SOL     OW20101   0.093   0.635  12.196 -0.5221 -0.4011 -0.3021
 2881SOL    HW120102   0.043   0.671  12.123  0.1248  2.0128  0.4243
 2881SOL    HW220103   0.021   0.638  12.259  0.2660 -0.1030  0.6040
 2882SOL     OW20104   0.126   2.576   2.288  0.5197 -0.2190 -0.3433
 2882SOL    HW120105   0.054   2.604   2.231 -1.9463 -1.7550  1.9739
 2882SOL    HW220106   0.186   2.649   2.274  0.2131  0.2417  0.7192
 2883SOL     OW20107   0.018   4.042   3.576 -0.5761 -0.3121  0.6147
 2883SOL    HW120108   4.657   4.058   3.625  0.2186  3.1620  0.7343
 2883SOL    HW220109   0.027   3.947   3.589 -0.0467 -0.6848 -2.3472
 2884SOL     OW20110   0.084   2.861  17.680 -0.2103  0.1740  0.6123
 2884SOL    HW120111   0.008   2.856  17.623  1.2833  1.0419 -1.4853
 2884SOL    HW220112   0.150   2.879  17.613 -1.4058  1.0007 -0.3290
 2885SOL     OW20113   0.799   3.132   6.233 -0.5982 -0.0931  0.1180
 2885SOL    HW120114   0.778   3.081   6.155 -3.7042  1.0419  0.2046
 2885SOL    HW220115   0.871   3.081   6.270 -1.9087 -1.2593  1.0756
 2886SOL     OW20116   4.505   3.983   5.618 -0.6164 -0.3800 -0.4883
 2886SOL    HW120117   4.543   3.983   5.706 -0.7817 -1.1949 -0.4127
 2886SOL    HW220118   4.461   4.068   5.617 -1.1222 -0.6281  1.2620
 2887SOL     OW20119   1.067   2.484   0.318 -0.2864  0.7618  0.6387
 2887SOL    HW120120   1.027   2.572   0.314  0.9719  1.2658 -0.7000
 2887SOL    HW220121   0.985   2.436   0.331 -0.1655  0.8361  1.6541
 2888SOL     OW20122   3.081   4.448   4.419  0.0836  0.6291  0.1875
 2888SOL    HW120123   3.022   4.399   4.476 -0.7620  0.7898 -0.5444
 2888SOL    HW220124   3.024   4.466   4.344 -0.6554  2.0688  1.0853
 2889SOL     OW20125   3.337   1.216  10.929 -0.0482 -0.1131 -0.4300
 2889SOL    HW120126   3.325   1.132  10.884  0.1272 -0.8457  0.8881
 2889SOL    HW220127   3.318   1.280  10.861  0.7948  1.2525  0.6213
 2890SOL     OW20128   1.414   0.604  11.801 -0.3972 -0.2332  0.3373
 2890SOL    HW120129   1.438   0.556  11.880  1.3968 -2.8151 -1.7600
 2890SOL    HW220130   1.369   0.532  11.756  0.5417  1.1091 -2.7642
 2891SOL     OW20131   1.940   0.442   0.888  0.5809  0.1016  0.1420
 2891SOL    HW120132   1.930   0.455   0.982  1.8631 -0.0203  0.3018
 2891SOL    HW220133   1.885   0.366   0.871  0.3489  0.0768  0.9907
 2892SOL     OW20134   4.404   0.301   9.608 -0.1388 -0.3953 -0.5376
 2892SOL    HW120135   4.392   0.208   9.623 -0.9433 -0.4386 -1.4268
 2892SOL    HW220136   4.338   0.317   9.540 -1.8298  0.7237  1.3561
 2893SOL     OW20137   4.370   0.494   7.024  0.2750 -0.2665  0.6197
 2893SOL    HW120138   4.316   0.427   6.981 -1.7956  1.1668  1.0155
 2893SOL    HW220139   4.389   0.563   6.961 -1.3205 -1.0441 -0.7300
 2894SOL     OW20140   3.341   0.046  15.540 -0.2598 -0.1898  0.3730
 2894SOL    HW120141   3.374   4.697  15.597 -0.7397  0.1134  1.0074
 2894SOL    HW220142   3.255   0.061  15.580 -0.5120 -1.9032  0.4725
 2895SOL     OW20143   1.654   2.698   5.743 -0.1948 -0.0499 -0.4126
 2895SOL    HW120144   1.620   2.655   5.822  1.4964  2.2151  1.5269
 2895SOL    HW220145   1.666   2.619   5.689 -0.2627 -1.0473  1.0187
 2896SOL     OW20146   4.030   4.125   5.866  0.3894 -0.3082  0.1359
 2896SOL    HW120147   4.041   4.106   5.773 -1.3935  0.6380 -0.2826
 2896SOL    HW220148   3.937   4.145   5.874  0.8331  1.3439  1.1279
 2897SOL     OW20149   3.085   2.309  12.664  0.5239  0.3552 -0.0775
 2897SOL    HW120150   3.166   2.296  12.616 -0.1171 -1.4206 -0.6772
 2897SOL    HW220151   3.113   2.267  12.745  2.0222 -0.1255 -0.8629
 2898SOL     OW20152   0.420   2.501   6.138 -0.9048 -0.1718  0.0502
 2898SOL    HW120153   0.389   2.469   6.222  0.0725 -2.2140 -0.3615
 2898SOL    HW220154   0.341   2.528   6.092 -1.1750 -0.2803  0.4580
 2899SOL     OW20155   4.387   0.870  16.055 -0.0727  0.2014 -0.1344
 2899SOL    HW120156   4.357   0.780  16.039  0.6532 -0.6066  2.8937
 2899SOL    HW220157   4.313   0.908  16.102  1.2979  2.6014  0.0369
 2900SOL     OW20158   3.289   0.070   1.963 -0.0005  0.1169  0.0313
 2900SOL    HW120159   3.241   0.082   2.046 -0.0919  2.0150 -0.2819
 2900SOL    HW220160   3.337   0.153   1.963 -0.7452  0.5605  2.4397
 2901SOL     OW20161   4.276   2.706  11.763 -0.1479  0.1179  0.5679
 2901SOL    HW120162   4.305   2.711  11.672 -0.5701 -0.1511  0.4202
 2901SOL    HW220163   4.329   2.773  11.805 -1.0738  0.5479  1.0483
 2902SOL     OW20164   2.204   2.083  15.588  0.0131 -0.1733 -0.1992
 2902SOL    HW120165   2.290   2.118  15.565  0.0673 -0.6634 -0.7572
 2902SOL    HW220166   2.219   2.071  15.681  0.0784  2.1335  0.0888
 2903SOL     OW20167   3.171   3.878  14.893 -0.0278  0.1164  0.4567
 2903SOL    HW120168   3.087   3.834  14.882 -0.7754  1.9715 -1.2421
 2903SOL    HW220169   3.165   3.902  14.985  1.3242  2.3766 -0.0317
 2904SOL     OW20170   0.197   2.256   6.086  0.1777  0.0387  0.4178
 2904SOL    HW120171   0.268   2.260   6.151 -1.2160 -2.1530  2.0368
 2904SOL    HW220172   0.196   2.347   6.056  0.4460 -0.4029 -0.9498
 2905SOL     OW20173   3.955   2.982   6.859  0.6881 -0.0276  0.0638
 2905SOL    HW120174   3.997   2.917   6.802 -0.0577 -0.6067  0.1709
 2905SOL    HW220175   3.861   2.967   6.844  1.5440 -3.1004 -2.3571
 2906SOL     OW20176   3.064   0.674   5.990  0.2444  0.1035 -0.3989
 2906SOL    HW120177   3.008   0.747   6.018  0.9812 -0.5364  2.7343
 2906SOL    HW220178   2.996   0.612   5.964  0.6221  0.2940 -1.8313
 2907SOL     OW20179   0.985   3.652   7.415  0.3700  0.1724 -0.9209
 2907SOL    HW120180   1.051   3.599   7.370 -0.3097 -1.7280  0.2986
 2907SOL    HW220181   0.901   3.613   7.392 -0.7522  2.8299 -1.3355
 2908SOL     OW20182   4.102   1.593  10.030 -0.2929 -0.5155  0.5544
 2908SOL    HW120183   4.073   1.635   9.949 -2.4410  3.1514  3.2007
 2908SOL    HW220184   4.018   1.555  10.055 -0.2161 -1.5135 -0.7588
 2909SOL     OW20185   2.657   1.641   0.106  0.3283 -0.3074 -0.1096
 2909SOL    HW120186   2.686   1.550   0.106  0.8265 -0.1491  0.8211
 2909SOL    HW220187   2.667   1.660   0.200  0.1649 -3.6760  0.5742
 2910SOL     OW20188   0.043   1.904   0.973  0.0630  0.4386  0.3228
 2910SOL    HW120189   0.117   1.916   0.913 -0.9350 -1.4470 -1.2794
 2910SOL    HW220190   0.076   1.872   1.057 -1.4632  2.9517  1.8913
 2911SOL     OW20191   0.465   0.547   4.441 -0.0477 -0.5788  0.2220
 2911SOL    HW120192   0.420   0.466   4.462 -2.5353  0.7097 -0.1949
 2911SOL    HW220193   0.515   0.570   4.519 -1.5015 -0.6461  1.1700
 2912SOL     OW20194   1.281   0.045   2.427  0.8188  0.0818 -0.1587
 2912SOL    HW120195   1.186   0.060   2.422  0.4655 -2.1977 -0.0138
 2912SOL    HW220196   1.307   0.110   2.493  2.0686 -0.3501 -0.2198
 2913SOL     OW20197   1.593   0.516   0.732 -0.4275  0.4650  0.2417
 2913SOL    HW120198   1.652   0.449   0.765 -1.6907 -1.4359 -1.3384
 2913SOL    HW220199   1.626   0.596   0.772  0.8324 -0.9450  2.0008
 2914SOL     OW20200   1.504   2.924   6.580 -0.0340  0.4117 -0.1055
 2914SOL    HW120201   1.567   2.884   6.519  1.8733  1.4108  1.1986
 2914SOL    HW220202   1.535   3.014   6.590  0.2693  0.2219  0.7036
 2915SOL     OW20203   1.864   0.934   3.491  0.3852  0.6269 -0.2666
 2915SOL    HW120204   1.892   0.943   3.400 -1.6409  0.5589 -0.9082
 2915SOL    HW220205   1.774   0.901   3.485  1.9365 -3.5454 -1.0068
 2916SOL     OW20206   2.424   2.372  14.245 -0.3695  0.0304  0.3401
 2916SOL    HW120207   2.382   2.360  14.160 -0.2823 -2.1837  0.5969
 2916SOL    HW220208   2.375   2.450  14.270 -1.3200 -0.3166 -0.4208
 2917SOL     OW20209   2.978   3.710   1.809  0.8760 -0.0069  0.0894
 2917SOL    HW120210   2.913   3.716   1.879  2.0572 -1.1095  1.2895
 2917SOL    HW220211   2.977   3.795   1.763 -0.6430 -0.5132 -0.8100
 2918SOL     OW20212   1.124   0.425   7.243 -0.1054  0.4721  0.2433
 2918SOL    HW120213   1.185   0.358   7.273 -3.2240 -2.4330  0.0770
 2918SOL    HW220214   1.152   0.500   7.296 -1.4893  0.8637  0.4318
 2919SOL     OW20215   3.781   0.568   8.705 -0.4697 -0.6640 -0.2279
 2919SOL    HW120216   3.709   0.544   8.764  0.5863 -0.2592  1.2395
 2919SOL    HW220217   3.740   0.562   8.619 -1.5870 -1.7809  0.3806
 2920SOL     OW20218   1.507   2.187   2.754 -0.7852  0.0290 -0.6424
 2920SOL    HW120219   1.511   2.280   2.729 -1.0953  0.3732  0.5740
 2920SOL    HW220220   1.570   2.173   2.824 -2.3837  2.5665  1.3334
 2921SOL     OW20221   2.682   4.464   9.629  0.0078 -0.0685 -0.1140
 2921SOL    HW120222   2.776   4.446   9.633 -0.4409 -1.6596  2.9459
 2921SOL    HW220223   2.674   4.528   9.699  0.4239 -0.2253  0.0755
 2922SOL     OW20224   2.721   0.737   9.172 -0.1015  0.1048 -0.7549
 2922SOL    HW120225   2.630   0.716   9.195 -1.2319  3.5832 -2.0487
 2922SOL    HW220226   2.703   0.830   9.158 -0.5463  0.3159  1.2981
 2923SOL     OW20227   2.455   1.399  16.460 -0.1566  0.0272 -0.2632
 2923SOL    HW120228   2.364   1.376  16.479  1.0999 -2.8278  2.1891
 2923SOL    HW220229   2.502   1.316  16.458  0.2234  0.2075  2.2295
 2924SOL     OW20230   0.098   3.156   6.738 -0.0773 -0.4208 -0.2210
 2924SOL    HW120231   0.119   3.063   6.735  1.2135 -0.1277 -0.1785
 2924SOL    HW220232   0.164   3.194   6.796  0.8104  0.3376 -1.7426
 2925SOL     OW20233   2.992   2.386   1.595  0.2296  0.3521  0.2104
 2925SOL    HW120234   2.959   2.299   1.571  3.2244  0.2646 -3.6598
 2925SOL    HW220235   2.907   2.429   1.599 -0.1387 -0.2713 -0.8265
 2926SOL     OW20236   0.074   2.030   7.800  0.0923  0.5775 -0.7249
 2926SOL    HW120237   0.086   2.063   7.711 -0.6864 -0.2089 -1.1189
 2926SOL    HW220238   4.707   2.062   7.822  0.9357  0.7803  2.4421
 2927SOL     OW20239   3.636   0.967   2.807 -0.2476  0.4088  0.3581
 2927SOL    HW120240   3.550   0.987   2.771 -1.1938 -0.3546  2.1723
 2927SOL    HW220241   3.661   0.909   2.735 -2.8878  0.2949 -0.4716
 2928SOL     OW20242   0.766   0.999   5.470  0.2384 -0.0414  0.1359
 2928SOL    HW120243   0.762   0.935   5.541 -0.3442 -1.0989 -0.8424
 2928SOL    HW220244   0.753   1.082   5.516 -1.8913  2.1727 -4.4232
 2929SOL     OW20245   3.764   3.125  14.208  0.0729 -0.3002 -0.1975
 2929SOL    HW120246   3.808   3.181  14.144 -0.4543 -0.3724 -0.6201
 2929SOL    HW220247   3.772   3.040  14.166  2.1914 -0.8054  1.2392
 2930SOL     OW20248   3.513   2.257  10.518  0.3761 -0.2509 -0.8531
 2930SOL    HW120249   3.517   2.300  10.433 -0.3397 -0.2881 -0.9055
 2930SOL    HW220250   3.438   2.299  10.560 -1.0887 -0.2914 -3.4055
 2931SOL     OW20251   1.606   0.348   9.049  0.3197  0.2586  0.3586
 2931SOL    HW120252   1.598   0.432   9.095 -1.6114 -1.5845  3.3458
 2931SOL    HW220253   1.539   0.371   8.984 -0.2502 -1.1293  0.4611
 2932SOL     OW20254   1.945   1.902   6.409  0.3938  0.5633  0.1046
 2932SOL    HW120255   1.964   1.810   6.426 -0.4046  0.5387  0.8282
 2932SOL    HW220256   1.855   1.912   6.438  0.0797 -0.5475 -0.4850
 2933SOL     OW20257   2.824   2.865  17.650 -0.3612  0.9315 -0.8800
 2933SOL    HW120258   2.866   2.821  17.576  1.5894  0.3409  0.5807
 2933SOL    HW220259   2.787   2.794   0.021  1.7872  1.1324  0.8859
 2934SOL     OW20260   3.903   4.122  15.803 -0.2099 -0.7216  0.4561
 2934SOL    HW120261   3.904   4.027  15.792  1.2720 -0.5838 -0.6904
 2934SOL    HW220262   3.963   4.140  15.875  1.3731 -1.7879 -0.6067
 2935SOL     OW20263   2.130   1.442   7.446  0.5813  0.0073  0.5844
 2935SOL    HW120264   2.054   1.497   7.426  0.2196  0.7882  4.0898
 2935SOL    HW220265   2.091   1.355   7.444 -0.1824  0.3762 -0.2370
 2936SOL     OW20266   3.238   1.168   2.371  0.1100 -0.3895  0.3218
 2936SOL    HW120267   3.303   1.236   2.352 -2.0050  1.2621 -1.0906
 2936SOL    HW220268   3.155   1.212   2.351  1.1113  0.8618 -1.1305
 2937SOL     OW20269   3.147   3.823  16.296 -0.2311  0.0316 -0.0226
 2937SOL    HW120270   3.073   3.884  16.306  0.3546  0.3117  2.6634
 2937SOL    HW220271   3.194   3.864  16.224  0.7524 -0.4368  0.3642
 2938SOL     OW20272   2.256   3.279   5.606 -0.2801  0.1439  0.2033
 2938SOL    HW120273   2.346   3.304   5.587 -0.8370  0.8890 -1.4487
 2938SOL    HW220274   2.220   3.365   5.625 -0.2893  0.5431 -1.6199
 2939SOL     OW20275   0.170   1.061  14.605 -0.0958 -0.4758  0.0668
 2939SOL    HW120276   0.098   1.022  14.555 -1.5478  1.2114  0.8171
 2939SOL    HW220277   0.164   1.018  14.690  0.0388  1.9919  1.3293
 2940SOL     OW20278   0.968   3.142   2.493 -0.7065  0.1778  0.0264
 2940SOL    HW120279   1.050   3.187   2.478 -0.2040 -0.7155  0.0998
 2940SOL    HW220280   1.004   3.063   2.533  1.3644  1.0962 -0.0659
 2941SOL     OW20281   2.620   3.345   2.927 -0.0406 -0.1128 -0.0704
 2941SOL    HW120282   2.633   3.299   3.010  1.1304  1.1264  0.4484
 2941SOL    HW220283   2.606   3.433   2.965 -0.7100 -0.2698  0.0604
 2942SOL     OW20284   1.862   0.486   3.033  0.0384  0.1082  0.2129
 2942SOL    HW120285   1.950   0.482   3.070 -1.2201 -2.4624  2.8645
 2942SOL    HW220286   1.861   0.582   3.029  0.0651  0.1211  0.5400
 2943SOL     OW20287   3.539   0.263  10.058  0.0820 -0.2146 -0.4197
 2943SOL    HW120288   3.568   0.202  10.127  0.6756  0.0780 -0.4115
 2943SOL    HW220289   3.450   0.230  10.045  0.8263 -2.0702 -0.9299
 2944SOL     OW20290   4.132   0.962   5.491 -0.5044 -0.7748  0.2416
 2944SOL    HW120291   4.198   0.907   5.448  0.1635 -1.3699  2.0356
 2944SOL    HW220292   4.169   0.956   5.579  2.1827  1.6746 -0.7435
 2945SOL     OW20293   1.490   0.281   0.015 -0.2198 -0.1885 -0.2450
 2945SOL    HW120294   1.405   0.297  17.656 -0.5924  0.0205  0.6244
 2945SOL    HW220295   1.551   0.290  17.623  0.9557  1.2083  0.8883
 2946SOL     OW20296   2.339   4.648   9.705  0.5611  0.5315 -0.6879
 2946SOL    HW120297   2.349   4.606   9.620  1.4412 -0.2555 -0.1820
 2946SOL    HW220298   2.359   0.021   9.693  1.9783  0.4911  1.4972
 2947SOL     OW20299   1.628   1.687   5.603  0.1966 -0.2217  0.0008
 2947SOL    HW120300   1.680   1.614   5.639 -0.3579 -0.3586  0.5253
 2947SOL    HW220301   1.689   1.758   5.624  0.6648 -0.3535 -0.9031
 2948SOL     OW20302   3.281   3.811  16.704  0.2639  0.1710 -0.2662
 2948SOL    HW120303   3.216   3.767  16.649 -0.8140  1.7572 -0.2649
 2948SOL    HW220304   3.231   3.828  16.784  0.8691  1.4740 -0.1670
 2949SOL     OW20305   0.456   2.237  17.579  0.2831 -0.4733  0.0910
 2949SOL    HW120306   0.420   2.153  17.549 -0.5932  0.0764 -0.4138
 2949SOL    HW220307   0.391   2.265  17.643  0.0185  2.1123 -1.2940
 2950SOL     OW20308   4.378   3.490   8.245  0.3505 -0.2163 -0.3960
 2950SOL    HW120309   4.384   3.473   8.339 -0.1976  1.0005 -0.1409
 2950SOL    HW220310   4.373   3.586   8.245 -1.0913 -0.2954  2.5386
 2951SOL     OW20311   2.918   2.252   6.308  0.5412  0.2713  0.2055
 2951SOL    HW120312   2.920   2.194   6.232  0.1784 -0.7778  0.9799
 2951SOL    HW220313   2.852   2.315   6.279  0.5090  1.3230  2.5531
 2952SOL     OW20314   3.381   2.420   3.200  0.4417 -0.3994  0.3955
 2952SOL    HW120315   3.342   2.357   3.260 -1.3872 -1.6918 -2.1722
 2952SOL    HW220316   3.337   2.503   3.218 -1.0027 -1.2345  0.6704
 2953SOL     OW20317   2.324   3.530  10.651 -0.4918  0.2528  0.1889
 2953SOL    HW120318   2.348   3.582  10.728  1.6985 -3.5847  2.1244
 2953SOL    HW220319   2.233   3.518  10.679 -1.4972  0.9324 -2.8433
 2954SOL     OW20320   1.050   0.227   6.401 -1.0835 -0.4695  0.0816
 2954SOL    HW120321   1.083   0.146   6.441  0.7191  1.0937  1.7491
 2954SOL    HW220322   0.994   0.266   6.468  0.8736  1.1521  0.7688
 2955SOL     OW20323   2.491   0.028   8.057  0.1993 -0.1953  0.2585
 2955SOL    HW120324   2.480   0.067   8.144  0.2640 -2.6791  1.3974
 2955SOL    HW220325   2.573   0.072   8.037 -0.4799  0.9032 -0.1014
 2956SOL     OW20326   2.630   0.737   7.066 -0.0399 -0.0385  0.7758
 2956SOL    HW120327   2.713   0.706   7.028 -2.1805 -2.4053 -1.8888
 2956SOL    HW220328   2.579   0.658   7.077 -1.4177  0.8569  0.8058
 2957SOL     OW20329   4.117   3.330   8.420  0.1095  0.4317  0.8940
 2957SOL    HW120330   4.111   3.235   8.411  1.1499  0.3446  1.0617
 2957SOL    HW220331   4.036   3.345   8.469 -0.2153  2.4544 -0.2472
 2958SOL     OW20332   2.281   0.285   1.590  0.5118 -0.3164 -0.2248
 2958SOL    HW120333   2.189   0.262   1.599  0.7207 -0.5295  1.3632
 2958SOL    HW220334   2.281   0.340   1.512 -2.6250  1.0479  0.7654
 2959SOL     OW20335   4.508   0.344   3.153 -0.4500 -0.2277  0.1954
 2959SOL    HW120336   4.518   0.287   3.229  0.3040  1.2556  1.2090
 2959SOL    HW220337   4.453   0.290   3.096 -0.4078  1.6789 -1.6448
 2960SOL     OW20338   1.722   0.105   5.822  0.5999  0.0527 -0.3417
 2960SOL    HW120339   1.676   0.042   5.766  1.2184 -0.0395 -0.7486
 2960SOL    HW220340   1.723   0.183   5.766  2.8231  1.0719  1.1432
 2961SOL     OW20341   0.826   1.752   9.092  0.1152  0.0902  0.3044
 2961SOL    HW120342   0.914   1.728   9.061 -0.2046 -2.7702  1.6449
 2961SOL    HW220343   0.827   1.679   9.154 -0.8444 -2.6777 -2.9459
 2962SOL     OW20344   1.252   2.893  13.394  0.5235 -0.0457  0.0991
 2962SOL    HW120345   1.267   2.974  13.345  0.0244 -2.0084 -3.2554
 2962SOL    HW220346   1.330   2.887  13.450  0.3751 -4.3731 -0.1555
 2963SOL     OW20347   0.976   2.801   3.504  0.3347 -0.3330  0.3026
 2963SOL    HW120348   1.053   2.857   3.507  0.7416 -0.7605 -2.7752
 2963SOL    HW220349   1.007   2.714   3.530 -1.7042 -1.1318  0.1042
 2964SOL     OW20350   2.222   4.153   7.880  0.4474 -0.4596  0.2193
 2964SOL    HW120351   2.271   4.190   7.954  0.5497  0.7679 -0.4584
 2964SOL    HW220352   2.260   4.208   7.810 -1.4708 -1.3420 -1.5235
 2965SOL     OW20353   1.294   0.383   6.893 -0.5893  0.2917 -0.3454
 2965SOL    HW120354   1.313   0.399   6.801 -2.0673  0.7626 -0.5788
 2965SOL    HW220355   1.242   0.460   6.918 -0.0092  0.1326  1.3647
 2966SOL     OW20356   4.526   3.506   1.359  0.2452 -0.0480 -0.3183
 2966SOL    HW120357   4.521   3.584   1.414  0.2902 -0.2709  0.0055
 2966SOL    HW220358   4.478   3.520   1.277  0.3361 -0.4174 -0.4373
 2967SOL     OW20359   4.502   3.161   7.313 -0.1731  0.5053  0.2594
 2967SOL    HW120360   4.410   3.135   7.302  0.2372 -0.4604 -0.8681
 2967SOL    HW220361   4.521   3.186   7.223 -0.9225  2.2613  0.5881
 2968SOL     OW20362   4.511   1.672  15.472  0.1048 -0.8909 -0.4727
 2968SOL    HW120363   4.573   1.702  15.538  0.0807  1.5662 -1.5523
 2968SOL    HW220364   4.525   1.728  15.396  1.3078 -1.1717 -0.4517
 2969SOL     OW20365   2.180   3.275   4.961 -0.3432 -0.1820  0.0092
 2969SOL    HW120366   2.104   3.333   4.958 -1.6542 -1.7659  3.0177
 2969SOL    HW220367   2.141   3.194   4.994 -1.2490  0.8257  1.4145
 2970SOL     OW20368   2.706   1.619   3.085 -0.0593 -0.3833 -0.3370
 2970SOL    HW120369   2.782   1.610   3.142 -2.0047 -1.5970  2.0523
 2970SOL    HW220370   2.694   1.714   3.081 -0.2672 -0.4792 -2.1669
 2971SOL     OW20371   3.345   2.090   8.056  0.1803 -0.0659  0.4592
 2971SOL    HW120372   3.366   2.007   8.098  0.7277 -0.7293 -1.1145
 2971SOL    HW220373   3.398   2.140   8.118 -1.8117  1.2275  1.0925
 2972SOL     OW20374   3.999   2.469   7.353  0.5989 -0.0380 -0.5527
 2972SOL    HW120375   4.039   2.548   7.390 -0.5676  1.1177 -1.7778
 2972SOL    HW220376   4.050   2.399   7.394 -1.4607 -0.5098  1.2261
 2973SOL     OW20377   0.434   1.330   6.694  0.2368  0.0896  0.6488
 2973SOL    HW120378   0.455   1.422   6.711  1.3509 -0.2439  1.0335
 2973SOL    HW220379   0.390   1.302   6.774 -1.8045  0.4339 -0.3419
 2974SOL     OW20380   3.874   1.851   4.383 -0.2685 -0.2825 -0.6237
 2974SOL    HW120381   3.926   1.928   4.409  1.0286 -1.5167  0.4306
 2974SOL    HW220382   3.788   1.892   4.374 -0.6551 -0.7497  0.9259
 2975SOL     OW20383   0.558   1.766   5.624  0.3293  0.3323 -0.4259
 2975SOL    HW120384   0.563   1.756   5.529  0.6665 -1.6269 -0.1960
 2975SOL    HW220385   0.613   1.690   5.642 -1.6431 -0.9453  0.1981
 2976SOL     OW20386   2.900   0.977  16.911  0.6239  0.2330 -0.0871
 2976SOL    HW120387   2.968   0.913  16.933 -1.4147 -1.5919  0.8739
 2976SOL    HW220388   2.860   0.916  16.849  0.5644  1.5704 -1.3626
 2977SOL     OW20389   3.014   1.172   5.054 -0.9275 -0.5351  0.3594
 2977SOL    HW120390   3.034   1.239   4.988  0.5000  0.3950  1.7339
 2977SOL    HW220391   2.988   1.233   5.123  2.0624  0.2017  0.8438
 2978SOL     OW20392   1.205   2.858   6.892 -0.5119 -0.1835 -0.0887
 2978SOL    HW120393   1.209   2.886   6.800  1.4553  1.9300  0.6340
 2978SOL    HW220394   1.118   2.820   6.902 -0.5245  0.2805  1.4883
 2979SOL     OW20395   1.791   2.768  10.043  0.1055 -0.5526 -0.6130
 2979SOL    HW120396   1.806   2.730   9.957 -2.1005 -2.5780 -0.0938
 2979SOL    HW220397   1.725   2.710  10.081 -1.4807 -1.2695 -4.4281
 2980SOL     OW20398   3.683   0.932   8.458 -0.0254 -0.2633  0.2944
 2980SOL    HW120399   3.742   0.860   8.434  1.1390  0.7326  0.2057
 2980SOL    HW220400   3.672   0.908   8.550 -0.4283  1.5647  0.7268
 2981SOL     OW20401   2.279   3.624  14.105  0.0818  0.1544 -0.4802
 2981SOL    HW120402   2.240   3.596  14.188 -4.1567  2.7348 -1.6064
 2981SOL    HW220403   2.216   3.583  14.045 -0.5409  1.0250 -0.4286
 2982SOL     OW20404   0.580   3.773   6.596 -0.1119 -0.2456  0.1329
 2982SOL    HW120405   0.616   3.695   6.638 -0.4357 -1.2332 -1.4232
 2982SOL    HW220406   0.539   3.816   6.671 -0.3431 -0.2601  0.0172
 2983SOL     OW20407   2.128   1.047   2.419 -0.0569  0.2876 -0.2836
 2983SOL    HW120408   2.094   1.031   2.507 -0.2266  1.5343 -0.1349
 2983SOL    HW220409   2.062   1.007   2.362  0.0288  0.9491 -0.8464
 2984SOL     OW20410   0.226   2.142   0.289 -0.3336  0.4590 -0.4485
 2984SOL    HW120411   0.232   2.078   0.217  0.6006 -0.7106  0.6633
 2984SOL    HW220412   0.205   2.227   0.250  1.8939  1.7459  1.2153
 2985SOL     OW20413   1.759   3.613   6.258  0.2636 -0.5759 -0.4310
 2985SOL    HW120414   1.805   3.689   6.221  1.3954 -0.1131  1.9210
 2985SOL    HW220415   1.833   3.552   6.258 -0.0839 -0.9874  0.7769
 2986SOL     OW20416   0.725   1.021  12.874  0.3316 -0.0167 -0.6267
 2986SOL    HW120417   0.757   1.107  12.902 -0.2522  0.4015 -1.2406
 2986SOL    HW220418   0.742   1.034  12.780  1.2752  0.8668 -0.3337
 2987SOL     OW20419   3.481   1.867   1.540  0.0583 -0.5208 -0.4372
 2987SOL    HW120420   3.404   1.924   1.535 -0.1490 -0.7277  0.3397
 2987SOL    HW220421   3.491   1.832   1.452 -0.8995 -3.2748  0.5564
 2988SOL     OW20422   0.455   2.166  15.139 -0.0628 -0.2617 -0.0843
 2988SOL    HW120423   0.375   2.117  15.118 -0.2718 -0.1637  0.4842
 2988SOL    HW220424   0.465   2.153  15.233 -1.9515 -1.6046 -0.0523
 2989SOL     OW20425   1.459   1.820  13.221  0.0204 -0.1383  0.0854
 2989SOL    HW120426   1.367   1.817  13.247 -0.6068 -0.7584 -2.1938
 2989SOL    HW220427   1.499   1.760  13.283  0.7729  1.2264  0.9128
 2990SOL     OW20428   2.241   1.344   4.549 -0.0163  0.1795  0.0174
 2990SOL    HW120429   2.159   1.392   4.547  1.6166  2.9617 -1.0476
 2990SOL    HW220430   2.306   1.414   4.549  0.2579 -0.0683 -2.6647
 2991SOL     OW20431   2.051   4.707   1.483  0.4681  0.4477  0.6948
 2991SOL    HW120432   2.014   4.641   1.423  1.6072  0.7364 -0.3328
 2991SOL    HW220433   2.144   4.705   1.460  0.0481 -2.4307 -0.8185
 2992SOL     OW20434   4.702   3.296   4.925  0.5043 -0.1222  0.4084
 2992SOL    HW120435   0.002   3.386   4.899  0.7430 -0.1580  0.4714
 2992SOL    HW220436   0.037   3.250   4.861  0.0074  1.0150 -0.8438
 2993SOL     OW20437   2.636   1.295   3.780  0.0492 -0.9874  0.0114
 2993SOL    HW120438   2.596   1.282   3.694 -2.7836  1.4105  0.9515
 2993SOL    HW220439   2.564   1.276   3.841  1.8409  1.1923  2.8006
 2994SOL     OW20440   1.210   3.479   7.796  0.2213 -0.3654 -0.2000
 2994SOL    HW120441   1.125   3.498   7.837 -0.2993 -2.4749 -0.2894
 2994SOL    HW220442   1.193   3.426   7.719 -0.9162 -0.5028  0.1499
 2995SOL     OW20443   2.026   3.399  13.387  0.0384  0.1402 -0.0630
 2995SOL    HW120444   2.052   3.484  13.352  2.5969  0.2477  2.0598
 2995SOL    HW220445   2.081   3.397  13.465 -1.3026 -2.4508  0.8197
 2996SOL     OW20446   0.871   4.511  11.623 -1.0276 -0.5631 -0.1561
 2996SOL    HW120447   0.875   4.417  11.605  3.2886 -0.3107 -0.4945
 2996SOL    HW220448   0.779   4.529  11.603 -1.3905 -1.6097  0.5948
 2997SOL     OW20449   4.363   3.754   8.194  0.1865  0.7040 -0.1265
 2997SOL    HW120450   4.408   3.773   8.111  2.3668  2.4060  1.4320
 2997SOL    HW220451   4.277   3.763   8.153  0.0751 -1.2101 -0.2921
 2998SOL     OW20452   2.326   0.806  11.226  0.8507  0.3583 -0.0984
 2998SOL    HW120453   2.309   0.855  11.306 -0.4351  0.6056 -0.5076
 2998SOL    HW220454   2.385   0.739  11.258  2.5315  1.1388 -1.5544
 2999SOL     OW20455   2.133   4.588   9.003  0.2998 -0.1179  0.0606
 2999SOL    HW120456   2.054   4.620   8.958  0.5296  0.8753  0.3674
 2999SOL    HW220457   2.190   4.664   9.015  1.2506 -0.6536 -1.0150
 3000SOL     OW20458   0.963   1.218  10.036  0.8510  0.0932 -0.7975
 3000SOL    HW120459   0.872   1.247  10.034  1.1251  0.8577 -2.3471
 3000SOL    HW220460   0.987   1.235   9.945  1.2561  0.0005 -0.7087
 3001SOL     OW20461   3.002   2.665   8.347 -0.5113  0.1426  0.4016
 3001SOL    HW120462   2.926   2.676   8.404 -2.5089  0.3629 -2.3337
 3001SOL    HW220463   3.008   2.571   8.330  0.5846  0.3416 -0.3292
 3002SOL     OW20464   0.054   3.594  15.518  0.5585  0.0002  0.0755
 3002SOL    HW120465   0.001   3.666  15.552 -1.4075 -1.3521 -0.1802
 3002SOL    HW220466   0.137   3.641  15.531 -0.6687  1.8686  1.2075
 3003SOL     OW20467   0.071   0.255   3.778  0.2920  0.1323 -0.3387
 3003SOL    HW120468   0.156   0.295   3.760  0.5086 -0.7328 -1.2065
 3003SOL    HW220469   0.021   0.324   3.821  2.6486  2.5615 -1.4797
 3004SOL     OW20470   4.163   0.271   5.034  0.3371 -0.0873 -0.3198
 3004SOL    HW120471   4.177   0.333   4.963  1.8470 -1.2234 -1.0131
 3004SOL    HW220472   4.197   0.309   5.115 -0.6727  1.4584 -0.6133
 3005SOL     OW20473   1.024   1.308   2.664 -0.4970 -0.2700  0.0958
 3005SOL    HW120474   1.015   1.303   2.760  1.9396  0.1348  0.3459
 3005SOL    HW220475   1.048   1.221   2.632  2.2068  1.0157 -1.3756
 3006SOL     OW20476   2.117   3.758   4.609  0.1616  0.6900  0.2320
 3006SOL    HW120477   2.178   3.690   4.579  1.6227  1.6110  1.1087
 3006SOL    HW220478   2.032   3.721   4.585  0.3410 -0.3283  1.1322
 3007SOL     OW20479   3.048   1.482  15.531 -0.0547  0.4006 -0.0246
 3007SOL    HW120480   3.136   1.468  15.567  0.7360  0.5019 -1.8804
 3007SOL    HW220481   3.008   1.513  15.612  1.7067 -0.8611  1.3189
 3008SOL     OW20482   1.611   0.562   6.756  0.1245 -0.1851  0.3302
 3008SOL    HW120483   1.651   0.649   6.760  1.3702 -0.7961  1.1871
 3008SOL    HW220484   1.593   0.536   6.846  0.8696  0.3324  0.6254
 3009SOL     OW20485   1.486   1.193   9.721  0.4118  0.2435  0.2990
 3009SOL    HW120486   1.421   1.211   9.789 -0.4232 -1.9918  0.0871
 3009SOL    HW220487   1.442   1.225   9.642 -0.0936 -2.1500 -0.3861
 3010SOL     OW20488   4.357   4.277   6.840  0.2245  0.2278  0.0522
 3010SOL    HW120489   4.293   4.307   6.905 -2.1173 -3.2933 -0.6390
 3010SOL    HW220490   4.441   4.304   6.878 -0.0412  2.7876 -1.2030
 3011SOL     OW20491   3.746   4.216   6.750 -0.0224  0.8401 -0.8260
 3011SOL    HW120492   3.735   4.250   6.839 -1.7876 -1.3950 -0.1634
 3011SOL    HW220493   3.658   4.186   6.727 -1.5019  4.9990 -0.6034
 3012SOL     OW20494   3.094   0.515   6.805  0.4467  0.6483  0.3739
 3012SOL    HW120495   3.001   0.493   6.801  0.3502  1.2280 -0.5962
 3012SOL    HW220496   3.127   0.459   6.875 -0.1770 -0.2146 -0.0281
 3013SOL     OW20497   0.622   3.157   1.871 -0.0188 -0.3453 -0.4445
 3013SOL    HW120498   0.694   3.199   1.824  1.3566 -1.3136  0.7854
 3013SOL    HW220499   0.588   3.235   1.916 -0.2168  0.2897 -1.7011
 3014SOL     OW20500   3.465   0.260  15.195 -0.2055 -0.0968  0.0409
 3014SOL    HW120501   3.485   0.329  15.132 -0.3780  0.1235  0.2276
 3014SOL    HW220502   3.373   0.274  15.218  0.4549 -0.4371  2.9387
 3015SOL     OW20503   1.552   2.107  15.353 -0.3689  0.9799 -0.6700
 3015SOL    HW120504   1.529   2.046  15.283  0.0401 -1.3500  1.2568
 3015SOL    HW220505   1.594   2.047  15.414 -0.3460  2.2864  0.6118
 3016SOL     OW20506   0.248   0.546   1.844 -0.6899 -0.4199 -0.3274
 3016SOL    HW120507   0.247   0.523   1.937  0.2621 -0.7393 -0.4025
 3016SOL    HW220508   0.225   0.639   1.855 -3.5820 -1.1957  0.2569
 3017SOL     OW20509   4.680   4.106   7.045  0.2619  0.0112 -0.6427
 3017SOL    HW120510   4.638   4.020   7.047  0.8348 -0.2522  0.1574
 3017SOL    HW220511   0.029   4.093   7.110 -0.9830  1.5397  0.9910
 3018SOL     OW20512   2.894   4.612  15.583  0.1582 -0.1788  0.0727
 3018SOL    HW120513   2.854   4.695  15.556 -2.0928 -1.0752  0.7236
 3018SOL    HW220514   2.829   4.558  15.539 -1.1076  1.3102  0.0948
 3019SOL     OW20515   2.208   3.247   9.856  0.6240  0.1339  0.2151
 3019SOL    HW120516   2.301   3.269   9.850  0.5501  0.4510  0.2683
 3019SOL    HW220517   2.206   3.213   9.946  0.6163 -2.7480 -0.8683
 3020SOL     OW20518   2.937   3.758   6.114 -0.4033 -0.2624  0.5491
 3020SOL    HW120519   2.905   3.671   6.087  0.1497 -0.7597  1.5171
 3020SOL    HW220520   2.862   3.816   6.097 -1.3783 -0.9284  2.6118
 3021SOL     OW20521   1.932   1.075  15.963  0.0762 -0.3549 -0.1390
 3021SOL    HW120522   1.850   1.027  15.976  0.8792 -1.5471  0.5212
 3021SOL    HW220523   1.920   1.162  16.000 -2.1330  0.2314 -2.1496
 3022SOL     OW20524   3.646   1.016  14.303 -0.0326 -0.2475 -0.7558
 3022SOL    HW120525   3.701   0.961  14.247 -0.5231 -1.0415 -0.4622
 3022SOL    HW220526   3.701   1.049  14.374 -0.0932 -1.4606 -0.1489
 3023SOL     OW20527   3.681   3.641  14.639  0.3545 -0.4334 -0.3310
 3023SOL    HW120528   3.634   3.622  14.720  0.4944 -0.2948 -0.2181
 3023SOL    HW220529   3.611   3.671  14.581 -0.6527 -3.0407 -0.4718
 3024SOL     OW20530   3.092   1.528   4.658 -0.1478 -0.3304  0.1770
 3024SOL    HW120531   3.094   1.622   4.677  0.3620 -0.4724  0.8095
 3024SOL    HW220532   3.055   1.521   4.570 -2.0205  0.6892  0.8797
 3025SOL     OW20533   0.627   3.708   9.633 -0.2705  0.2616 -0.3695
 3025SOL    HW120534   0.616   3.630   9.578  1.2650 -1.0782  1.2065
 3025SOL    HW220535   0.650   3.657   9.711  4.0166  0.6968 -1.3251
 3026SOL     OW20536   1.451   0.517   5.330  0.2838  0.0018  0.7005
 3026SOL    HW120537   1.425   0.609   5.329 -1.9671 -0.6338  1.3002
 3026SOL    HW220538   1.490   0.517   5.243 -0.8886 -0.1879  0.1841
 3027SOL     OW20539   3.190   1.270   2.943  0.6032 -0.1927  0.7141
 3027SOL    HW120540   3.267   1.323   2.923 -0.1207  1.1604  1.5234
 3027SOL    HW220541   3.224   1.184   2.968  1.5028 -0.3208 -0.9692
 3028SOL     OW20542   4.317   2.766   3.162  0.1852  0.4446 -0.2028
 3028SOL    HW120543   4.243   2.784   3.220 -0.0826 -2.5699  0.4000
 3028SOL    HW220544   4.288   2.686   3.117  0.4449  0.5043 -0.4783
 3029SOL     OW20545   4.623   1.317   3.647  0.0292 -0.0860 -0.0385
 3029SOL    HW120546   4.565   1.313   3.723 -0.2698 -0.5831 -0.2929
 3029SOL    HW220547   4.574   1.263   3.585  1.6682 -1.5752 -0.0575
 3030SOL     OW20548   2.234   2.078   2.179 -0.3740  0.6603  0.4679
 3030SOL    HW120549   2.205   2.133   2.105 -1.1200  0.8613  0.9047
 3030SOL    HW220550   2.311   2.041   2.136  0.8014  0.9793  2.3078
 3031SOL     OW20551   1.972   0.402  13.731  0.3095 -0.3787  0.5009
 3031SOL    HW120552   1.919   0.323  13.733  0.6013 -0.5723  0.6092
 3031SOL    HW220553   1.921   0.476  13.764 -0.9500 -1.3231  0.6403
 3032SOL     OW20554   0.631   1.533  10.217  0.7666  0.1776 -0.3223
 3032SOL    HW120555   0.696   1.581  10.268  0.4624  1.3196 -0.9864
 3032SOL    HW220556   0.551   1.579  10.244 -0.4253 -1.4598 -1.0561
 3033SOL     OW20557   1.190   0.259   9.176  0.4265  0.1203  0.0556
 3033SOL    HW120558   1.229   0.336   9.134  1.7168 -1.6478 -2.0489
 3033SOL    HW220559   1.166   0.213   9.095 -1.7448  0.8812  0.2825
 3034SOL     OW20560   1.021   3.379   5.271 -0.3523 -0.1453 -0.0653
 3034SOL    HW120561   0.963   3.372   5.195  0.3646  1.7245 -0.7789
 3034SOL    HW220562   1.090   3.321   5.239 -1.1232 -0.6065 -0.9003
 3035SOL     OW20563   1.993   2.699  14.511  0.3198 -0.1547 -0.4040
 3035SOL    HW120564   2.069   2.647  14.485 -1.2796 -1.6902 -2.0226
 3035SOL    HW220565   1.914   2.644  14.514 -0.7749  1.4123 -0.2337
 3036SOL     OW20566   3.943   1.134   6.463  0.1614  0.1302 -0.4339
 3036SOL    HW120567   3.896   1.055   6.488 -1.0895  1.4118  1.2869
 3036SOL    HW220568   3.870   1.191   6.438 -0.3031  0.6349  2.1463
 3037SOL     OW20569   0.460   3.976   5.687  0.4870 -0.0105  0.2692
 3037SOL    HW120570   0.505   3.903   5.730  0.8866 -0.5971 -1.1521
 3037SOL    HW220571   0.369   3.946   5.684 -0.3097  2.5769 -1.0996
 3038SOL     OW20572   4.210   1.653   2.619  0.1175  0.0747  0.1871
 3038SOL    HW120573   4.242   1.640   2.708 -0.1825  0.6806  0.3796
 3038SOL    HW220574   4.184   1.562   2.599  2.3785 -0.4755 -0.1697
 3039SOL     OW20575   2.203   2.499   2.789  0.2173  0.4384  0.0772
 3039SOL    HW120576   2.230   2.588   2.811 -0.8636  0.4786  1.2248
 3039SOL    HW220577   2.279   2.478   2.735 -0.5947 -2.6077  0.0639
 3040SOL     OW20578   2.382   1.955  13.122  0.0054 -0.9465  0.2895
 3040SOL    HW120579   2.409   2.027  13.065  2.5977 -2.9068 -0.9995
 3040SOL    HW220580   2.435   1.985  13.196  0.9070 -0.4084 -0.5583
 3041SOL     OW20581   2.001   3.962   6.578 -0.0203  0.1841  0.2518
 3041SOL    HW120582   2.040   4.040   6.539 -0.4897  0.8991  1.1951
 3041SOL    HW220583   1.934   4.005   6.631  0.0299  0.4711  0.0849
 3042SOL     OW20584   4.676   3.221   2.039  0.2292  0.0954 -0.8311
 3042SOL    HW120585   4.604   3.283   2.052  0.8367  0.5875  0.2564
 3042SOL    HW220586   4.704   3.233   1.949 -2.0895  0.1729 -1.5448
 3043SOL     OW20587   0.731   2.719   0.107  0.0374  0.0870 -0.2244
 3043SOL    HW120588   0.741   2.780   0.035  1.9943  0.2218  0.1597
 3043SOL    HW220589   0.656   2.756   0.153  0.0740  0.1496 -0.2152
 3044SOL     OW20590   1.906   1.732   5.339 -0.5246  0.5972 -0.2779
 3044SOL    HW120591   1.973   1.800   5.342 -0.2042  0.2193  0.9820
 3044SOL    HW220592   1.821   1.777   5.336 -0.2827  0.9846 -1.2947
 3045SOL     OW20593   0.108   2.280   5.744 -0.1707  0.3557  0.9128
 3045SOL    HW120594   0.113   2.335   5.666 -2.7795  1.5266  1.6043
 3045SOL    HW220595   0.082   2.341   5.813  2.5690  1.3459  1.0752
 3046SOL     OW20596   2.351   1.149   8.057 -0.1853 -0.0113  0.2139
 3046SOL    HW120597   2.264   1.168   8.021  0.1016 -0.4920 -0.7286
 3046SOL    HW220598   2.349   1.194   8.141  0.3360  1.5116 -0.6043
 3047SOL     OW20599   1.909   1.928  12.952 -0.0683 -0.2875  0.2802
 3047SOL    HW120600   1.822   1.968  12.950 -0.0825 -0.3759 -0.7330
 3047SOL    HW220601   1.895   1.847  12.999 -0.8289  0.2967  1.0457
 3048SOL     OW20602   2.010   1.057   5.202 -0.3131  0.3331 -0.1172
 3048SOL    HW120603   1.980   1.084   5.289  1.2692 -2.8964  1.4230
 3048SOL    HW220604   2.081   0.999   5.229 -1.1860 -0.6352  0.0921
 3049SOL     OW20605   3.279   2.802   7.860  0.5668  0.1958 -0.2189
 3049SOL    HW120606   3.276   2.729   7.923  2.4418  0.2626 -0.0536
 3049SOL    HW220607   3.192   2.785   7.824  0.0563 -1.1061  1.6329
 3050SOL     OW20608   1.395   1.516   1.852 -0.2282  0.5065 -0.4621
 3050SOL    HW120609   1.348   1.492   1.773 -0.2905 -2.2755  0.4101
 3050SOL    HW220610   1.436   1.597   1.822  3.3534 -2.1008 -2.5379
 3051SOL     OW20611   1.586   0.040   8.094  0.1100 -0.8123 -0.3139
 3051SOL    HW120612   1.669   0.080   8.069 -0.9007 -1.2794 -4.4408
 3051SOL    HW220613   1.535   0.056   8.014 -4.4048 -1.7901  2.3184
 3052SOL     OW20614   3.772   4.071   7.031  0.2024 -0.3465 -0.3334
 3052SOL    HW120615   3.690   4.054   6.984  0.1073 -0.1558 -0.2386
 3052SOL    HW220616   3.734   4.072   7.119  1.5673 -1.3022  0.2544
 3053SOL     OW20617   3.648   2.233  16.045 -1.0538  0.0140 -0.5466
 3053SOL    HW120618   3.734   2.196  16.064 -0.3961  0.9493 -1.6927
 3053SOL    HW220619   3.586   2.203  16.112  1.0755  0.5000  1.6441
 3054SOL     OW20620   1.809   4.385  12.487 -0.1160  0.1185  0.4879
 3054SOL    HW120621   1.799   4.302  12.441 -0.5178 -0.7124  2.0819
 3054SOL    HW220622   1.717   4.412  12.495 -1.1835 -2.8718 -1.4758
 3055SOL     OW20623   4.102   0.547   3.924 -0.4659  0.3854 -0.3145
 3055SOL    HW120624   4.085   0.561   4.018  0.6767 -0.6080  0.0432
 3055SOL    HW220625   4.154   0.467   3.915  0.1046  0.8996 -1.4751
 3056SOL     OW20626   0.078   4.158   3.228  0.0043  0.8916 -0.2158
 3056SOL    HW120627   0.137   4.195   3.162 -0.9708 -0.1170 -1.6429
 3056SOL    HW220628   0.137   4.092   3.266 -1.2314 -1.1817 -1.9068
 3057SOL     OW20629   1.779   2.743   2.356  0.3425  0.0192 -0.2898
 3057SOL    HW120630   1.856   2.720   2.305  1.2316 -0.9604  1.5054
 3057SOL    HW220631   1.791   2.838   2.361  0.4114  0.1207 -2.3381
 3058SOL     OW20632   0.225   1.145   2.358 -0.4728  0.0955 -0.3471
 3058SOL    HW120633   0.132   1.163   2.346 -0.4571  0.6809  0.3780
 3058SOL    HW220634   0.259   1.179   2.276 -0.4043  2.4002  0.6389
 3059SOL     OW20635   0.096   3.555  13.788 -0.2472  0.0031  0.7010
 3059SOL    HW120636   0.167   3.493  13.770  1.4728  1.6630  1.8141
 3059SOL    HW220637   0.046   3.498  13.846  1.3226 -1.8305  0.2471
 3060SOL     OW20638   3.420   0.748   7.581  0.1389 -0.8198 -0.0955
 3060SOL    HW120639   3.448   0.744   7.489  1.3386 -0.7104  0.2619
 3060SOL    HW220640   3.486   0.694   7.624 -0.2668 -0.4562  0.9804
 3061SOL     OW20641   3.729   0.649  13.890 -0.1988  0.2121  0.3044
 3061SOL    HW120642   3.658   0.626  13.829  0.7480 -0.8314 -0.4100
 3061SOL    HW220643   3.699   0.734  13.922 -0.9161  0.2076 -0.3431
 3062SOL     OW20644   0.275   1.492   1.836 -0.0097 -0.2604  0.1334
 3062SOL    HW120645   0.361   1.457   1.813  0.5747 -1.8597  4.8639
 3062SOL    HW220646   0.233   1.417   1.879 -1.6658 -0.7327 -2.3046
 3063SOL     OW20647   3.202   1.636   5.758 -0.3389  0.0851  0.0251
 3063SOL    HW120648   3.191   1.644   5.664 -1.1919  0.4912  0.1620
 3063SOL    HW220649   3.209   1.731   5.770  0.6912 -0.1151  1.0316
 3064SOL     OW20650   3.588   3.121  14.762 -0.3472 -0.0502 -0.1833
 3064SOL    HW120651   3.524   3.097  14.829  0.7828 -0.7318  0.6603
 3064SOL    HW220652   3.664   3.161  14.805 -0.5775 -0.9542  1.0736
 3065SOL     OW20653   4.154   3.155   3.715  0.0524 -1.1590 -0.1661
 3065SOL    HW120654   4.155   3.073   3.764  4.0636 -2.0611 -1.8303
 3065SOL    HW220655   4.209   3.208   3.772  1.1056 -1.1748 -1.1770
 3066SOL     OW20656   0.896   1.813  14.022 -0.4979 -0.1358 -0.2362
 3066SOL    HW120657   0.909   1.744  13.958 -0.5522  3.0713 -3.7124
 3066SOL    HW220658   0.927   1.886  13.967  2.6702 -1.6294 -0.4248
 3067SOL     OW20659   0.677   3.720   4.374 -0.2186 -0.0599 -0.0348
 3067SOL    HW120660   0.683   3.691   4.283 -0.6785 -0.6444  0.1174
 3067SOL    HW220661   0.666   3.637   4.422 -1.8511 -0.6764 -1.4795
 3068SOL     OW20662   0.883   3.127  15.297 -0.0973 -0.4746 -0.4126
 3068SOL    HW120663   0.893   3.171  15.213  0.5161  0.3970  0.1204
 3068SOL    HW220664   0.819   3.177  15.348  2.0847  0.4619  1.4199
 3069SOL     OW20665   1.725   2.208   2.939  0.0041 -0.1040 -0.8200
 3069SOL    HW120666   1.734   2.181   3.030 -0.0631  2.2912 -0.0938
 3069SOL    HW220667   1.813   2.181   2.913 -0.0724 -0.2761 -0.8986
 3070SOL     OW20668   0.669   2.346   0.064 -0.3290 -0.0363 -0.4233
 3070SOL    HW120669   0.601   2.368   0.127 -1.0897 -1.5387 -0.7262
 3070SOL    HW220670   0.615   2.303  17.679  1.3601  1.2052 -2.5924
 3071SOL     OW20671   2.694   3.833   8.439 -0.2505 -0.6218 -0.6487
 3071SOL    HW120672   2.657   3.828   8.527  2.0348  0.0231  0.3465
 3071SOL    HW220673   2.786   3.816   8.456  0.3358  0.1090 -3.1372
 3072SOL     OW20674   1.503   0.898   5.144 -0.0293 -0.1796  0.4947
 3072SOL    HW120675   1.482   0.833   5.077  1.7745 -1.1684  0.8850
 3072SOL    HW220676   1.595   0.907   5.120  0.3750  0.9355  2.4859
 3073SOL     OW20677   1.674   2.050   0.679  0.0520 -0.2788  0.2269
 3073SOL    HW120678   1.616   2.029   0.605  0.6008 -0.0672 -0.2681
 3073SOL    HW220679   1.658   2.144   0.680 -1.6618 -0.5651 -0.5694
 3074SOL     OW20680   2.327   1.558   3.935  0.5771 -0.0765 -0.0083
 3074SOL    HW120681   2.369   1.570   3.850  1.1682  0.2372  0.3333
 3074SOL    HW220682   2.387   1.609   3.989  1.1011 -2.4302  1.6436
 3075SOL     OW20683   3.695   3.709  14.122  0.0328  0.5646  0.0013
 3075SOL    HW120684   3.610   3.745  14.095 -0.3001  0.5515  1.0355
 3075SOL    HW220685   3.662   3.647  14.187  2.3351 -0.5979  0.0656
 3076SOL     OW20686   2.122   4.475   8.630 -0.0781 -0.1610 -0.5402
 3076SOL    HW120687   2.105   4.563   8.664 -1.5497 -0.8753  0.5586
 3076SOL    HW220688   2.172   4.441   8.704  0.2941 -0.1198 -0.7746
 3077SOL     OW20689   1.976   2.394   2.629 -0.2545  0.0642 -0.0001
 3077SOL    HW120690   2.036   2.395   2.703  1.9601 -1.6430 -1.7745
 3077SOL    HW220691   1.986   2.487   2.610  0.3392  0.5833  2.8116
 3078SOL     OW20692   4.052   1.968   6.726  0.0648  0.3987 -0.3523
 3078SOL    HW120693   4.124   2.016   6.684 -0.2883 -1.0724 -2.6436
 3078SOL    HW220694   4.089   1.880   6.729  1.4568  1.0506  1.1937
 3079SOL     OW20695   2.998   0.012   0.412  0.2720 -0.4137  0.1922
 3079SOL    HW120696   2.966   4.715   0.323 -1.8761  1.4871  0.6464
 3079SOL    HW220697   2.961   4.653   0.452 -2.6666  0.0331 -1.6881
 3080SOL     OW20698   0.275   1.060  17.344  0.7908 -0.2186  0.4566
 3080SOL    HW120699   0.186   1.038  17.374  1.0668 -0.3297  1.1883
 3080SOL    HW220700   0.308   0.971  17.334 -0.2143 -0.5067 -0.3407
 3081SOL     OW20701   3.426   0.591   1.833 -0.1689 -0.0809  0.1565
 3081SOL    HW120702   3.504   0.581   1.886 -0.7568  2.8926  1.6112
 3081SOL    HW220703   3.467   0.645   1.766  2.0648 -0.3078  1.3607
 3082SOL     OW20704   1.425   1.365   3.974  0.7354  0.3488 -0.3032
 3082SOL    HW120705   1.484   1.355   4.049 -0.6817 -0.0680  0.7640
 3082SOL    HW220706   1.474   1.348   3.894 -0.2506 -0.4499 -0.7368
 3083SOL     OW20707   1.309   4.589   3.908 -0.3581 -0.1648 -0.2461
 3083SOL    HW120708   1.268   4.657   3.961 -1.1387 -0.3963 -0.5386
 3083SOL    HW220709   1.261   4.590   3.825  2.2150 -3.1833 -1.7550
 3084SOL     OW20710   0.203   0.254   5.816 -0.0076 -0.2894 -0.3016
 3084SOL    HW120711   0.259   0.314   5.766 -1.7496  1.4703 -0.1391
 3084SOL    HW220712   0.243   0.169   5.797 -0.7150 -0.9666  1.2209
 3085SOL     OW20713   0.651   0.883   3.029  0.3216 -0.2647 -0.8565
 3085SOL    HW120714   0.741   0.862   3.055  0.3156 -0.6771 -1.1651
 3085SOL    HW220715   0.631   0.964   3.075 -0.1009 -1.2015  0.5894
 3086SOL     OW20716   1.627   1.878   2.883  0.7070  0.5704  0.3414
 3086SOL    HW120717   1.618   1.857   2.790  1.6796 -0.0739  0.3892
 3086SOL    HW220718   1.721   1.887   2.898  0.7078  1.6722 -0.3574
 3087SOL     OW20719   2.081   2.259   7.979  0.3153  0.6125 -0.1863
 3087SOL    HW120720   2.099   2.236   8.070  0.0976  0.1247 -0.2700
 3087SOL    HW220721   2.154   2.319   7.961 -0.4832  1.8006  0.5307
 3088SOL     OW20722   3.409   3.388   6.960  0.6153 -0.0619 -0.3220
 3088SOL    HW120723   3.394   3.294   6.972 -1.0661  0.4938  2.0043
 3088SOL    HW220724   3.408   3.423   7.049  1.0802  3.5162 -1.7437
 3089SOL     OW20725   3.298   4.320   8.198  0.2587  0.1221 -0.3238
 3089SOL    HW120726   3.313   4.412   8.221  0.1961  0.4411 -1.5454
 3089SOL    HW220727   3.280   4.281   8.283  3.3048  2.3254  1.3266
 3090SOL     OW20728   2.639   2.741   6.239  0.6221 -0.1658  0.5939
 3090SOL    HW120729   2.704   2.676   6.265  0.6128 -1.2053 -1.9701
 3090SOL    HW220730   2.610   2.763   6.328  2.1767 -1.3313  1.3908
 3091SOL     OW20731   4.080   3.873   5.660  0.0980 -0.0868  0.2303
 3091SOL    HW120732   4.031   3.792   5.667 -1.9015  1.0544 -0.4626
 3091SOL    HW220733   4.164   3.860   5.704  1.0558  0.0309 -1.5932
 3092SOL     OW20734   4.290   4.165   0.723 -0.5178  0.4828 -0.2925
 3092SOL    HW120735   4.293   4.261   0.720 -0.5982  0.4766 -0.5499
 3092SOL    HW220736   4.263   4.157   0.632  1.7127 -0.0236 -0.9219
 3093SOL     OW20737   4.660   2.105   0.654 -0.1451  0.7061  0.3307
 3093SOL    HW120738   4.639   2.128   0.744 -0.3794 -0.7412  0.6502
 3093SOL    HW220739   4.573   2.119   0.617  0.2490  1.3355 -0.3472
 3094SOL     OW20740   4.225   2.246   4.950  0.4712 -0.0115  0.2389
 3094SOL    HW120741   4.306   2.228   4.902 -0.2919  0.5613 -1.2951
 3094SOL    HW220742   4.252   2.272   5.038 -0.0291  0.5245  0.2273
 3095SOL     OW20743   1.509   2.918   8.378 -0.3692 -0.2815 -0.9695
 3095SOL    HW120744   1.451   2.842   8.382 -0.8450  0.0831 -0.8850
 3095SOL    HW220745   1.581   2.897   8.436  0.4620  0.1024 -1.8643
 3096SOL     OW20746   3.598   4.052   5.074  0.0767 -0.7506 -0.1007
 3096SOL    HW120747   3.509   4.020   5.084 -0.4987  0.9089  0.2072
 3096SOL    HW220748   3.592   4.128   5.132  0.3965 -0.7424 -0.0793
 3097SOL     OW20749   0.549   3.505   7.565  0.1996  0.0566 -0.2874
 3097SOL    HW120750   0.555   3.560   7.643 -2.4104  1.3142 -0.9946
 3097SOL    HW220751   0.487   3.441   7.599  0.8260 -0.2305  0.3196
 3098SOL     OW20752   4.242   3.409   2.429  0.2178  0.5313 -0.1626
 3098SOL    HW120753   4.277   3.474   2.489 -0.4576  0.8714 -0.1360
 3098SOL    HW220754   4.154   3.394   2.465 -0.3804 -0.5085 -2.0065
 3099SOL     OW20755   4.708   2.496   3.545 -0.2305 -0.2550  0.4364
 3099SOL    HW120756   4.691   2.589   3.527  1.0450 -0.2735 -0.8595
 3099SOL    HW220757   0.074   2.490   3.503 -0.3403 -1.0321  0.3259
 3100SOL     OW20758   0.462   0.128   8.828  0.1074  0.1314  0.9143
 3100SOL    HW120759   0.539   0.076   8.849  0.4445  0.2417 -0.0500
 3100SOL    HW220760   0.491   0.195   8.766 -0.2473 -0.6739 -0.1106
 3101SOL     OW20761   2.550   3.140  14.201 -0.1471 -0.0210  0.1145
 3101SOL    HW120762   2.509   3.107  14.121 -0.0018  0.0108  0.0258
 3101SOL    HW220763   2.634   3.097  14.185  0.1470 -0.2112  2.1937
 3102SOL     OW20764   1.757   4.627   1.924 -0.1651 -0.7367 -0.1871
 3102SOL    HW120765   1.851   4.635   1.904 -0.5825  0.7491 -1.5336
 3102SOL    HW220766   1.745   4.713   1.962  2.1536 -0.2265 -0.5741
 3103SOL     OW20767   4.551   2.804   3.990  0.7375 -0.0881 -0.2551
 3103SOL    HW120768   4.505   2.834   4.068 -0.3440  2.4158 -1.8524
 3103SOL    HW220769   4.636   2.784   4.029  0.2911 -2.4942 -0.4826
 3104SOL     OW20770   4.293   3.250  15.881 -0.0004  0.3897  0.0595
 3104SOL    HW120771   4.201   3.265  15.863 -0.3243 -2.0948 -0.3305
 3104SOL    HW220772   4.333   3.321  15.830  0.4646 -0.2923 -0.5179
 3105SOL     OW20773   0.213   3.097  13.655 -0.6637  0.1519  0.6122
 3105SOL    HW120774   0.173   3.165  13.601  3.3200 -0.7092 -3.3736
 3105SOL    HW220775   0.276   3.059  13.594  0.9295  1.5034  1.4371
 3106SOL     OW20776   1.690   0.414   4.674  0.1158 -0.7931 -0.4271
 3106SOL    HW120777   1.698   0.385   4.583 -1.3778 -0.3281 -0.7230
 3106SOL    HW220778   1.641   0.496   4.664 -0.5594 -1.2406 -0.8173
 3107SOL     OW20779   2.407   3.580   5.102  0.3267 -0.0722 -0.3116
 3107SOL    HW120780   2.482   3.628   5.136  0.7391 -1.1420  0.2928
 3107SOL    HW220781   2.360   3.544   5.178 -0.5005  0.5849 -0.5137
 3108SOL     OW20782   3.165   1.856  17.088  0.0741 -0.1729  0.7842
 3108SOL    HW120783   3.109   1.900  17.152  0.1555  0.5090  0.3772
 3108SOL    HW220784   3.117   1.773  17.078  0.7384 -0.5380  0.6122
 3109SOL     OW20785   0.981   2.348  16.462 -0.1076  0.2672 -0.3153
 3109SOL    HW120786   0.950   2.382  16.378 -3.1535  0.6810  0.9529
 3109SOL    HW220787   0.909   2.288  16.483 -2.2661  2.7556 -0.5089
 3110SOL     OW20788   2.166   0.612   1.671  0.0488 -0.2770  0.1867
 3110SOL    HW120789   2.209   0.552   1.611  0.5440 -0.1595  0.4189
 3110SOL    HW220790   2.089   0.558   1.687 -0.5488 -0.0860 -2.0440
 3111SOL     OW20791   4.184   2.556   3.031  0.7582 -0.2737 -0.5600
 3111SOL    HW120792   4.149   2.468   3.014 -1.7080  0.5689  0.2702
 3111SOL    HW220793   4.145   2.604   2.958 -0.7169  1.1336  1.1530
 3112SOL     OW20794   2.999   1.874  16.728  0.3047  0.1268 -0.4543
 3112SOL    HW120795   3.039   1.881  16.815 -2.2175 -1.0635  0.8046
 3112SOL    HW220796   3.066   1.855  16.662  1.8313  3.6858  0.0579
 3113SOL     OW20797   1.943   2.576   7.717 -0.4152 -0.3073  0.3057
 3113SOL    HW120798   1.882   2.511   7.750 -1.9822  1.2174  0.4119
 3113SOL    HW220799   1.889   2.654   7.729  1.6100  1.2149 -0.3535
 3114SOL     OW20800   4.384   3.402   5.591  0.2343  0.8569 -0.0986
 3114SOL    HW120801   4.317   3.438   5.533  0.8858 -0.7101 -1.8218
 3114SOL    HW220802   4.453   3.467   5.580  0.5143  0.5637 -0.0878
 3115SOL     OW20803   0.887   2.698   5.153 -0.1738  0.1842 -0.2364
 3115SOL    HW120804   0.964   2.668   5.104  1.0189 -0.9614  2.3775
 3115SOL    HW220805   0.815   2.640   5.131  0.3208  0.2094 -1.9421
 3116SOL     OW20806   4.369   3.013   5.957  0.4886  0.2066 -0.5792
 3116SOL    HW120807   4.329   2.935   5.919  1.1458 -0.4918  0.1431
 3116SOL    HW220808   4.358   3.080   5.890 -1.5162  2.7864  2.3696
 3117SOL     OW20809   1.829   0.439   7.486 -0.6415 -0.1261 -0.2950
 3117SOL    HW120810   1.811   0.516   7.540 -2.2059 -0.1034 -0.8357
 3117SOL    HW220811   1.905   0.410   7.536 -2.0467 -2.9141  0.2555
 3118SOL     OW20812   1.713   4.523   2.937 -0.0905 -0.4028  0.1993
 3118SOL    HW120813   1.766   4.603   2.934  0.8460 -1.0667 -1.1906
 3118SOL    HW220814   1.672   4.529   3.023 -0.5635  0.0393 -0.0579
 3119SOL     OW20815   0.281   1.304   5.130  0.4027 -0.3359 -0.4146
 3119SOL    HW120816   0.266   1.273   5.219 -0.0967 -0.8943 -0.6871
 3119SOL    HW220817   0.191   1.290   5.100  0.3549 -0.5464 -0.1699
 3120SOL     OW20818   2.407   1.781   1.789 -0.4719 -0.0325  0.4604
 3120SOL    HW120819   2.343   1.764   1.858 -0.4987 -0.0632  0.4278
 3120SOL    HW220820   2.442   1.868   1.809 -0.8272  0.1534  0.2575
 3121SOL     OW20821   1.645   1.184   7.367 -0.1223  0.1980  0.1680
 3121SOL    HW120822   1.682   1.125   7.433 -2.2607  0.0390  1.2121
 3121SOL    HW220823   1.642   1.262   7.423  1.4413 -0.0339  0.5628
 3122SOL     OW20824   3.812   4.067  11.882 -0.5186  0.1651  0.3331
 3122SOL    HW120825   3.783   3.995  11.939  1.8610  0.6689  2.1506
 3122SOL    HW220826   3.903   4.047  11.862 -0.9450 -1.7566  0.2660
 3123SOL     OW20827   4.327   1.029   0.703 -0.0976  0.3002 -0.2076
 3123SOL    HW120828   4.381   1.107   0.690  1.3945 -0.9756 -1.7207
 3123SOL    HW220829   4.339   1.009   0.796 -2.1451 -1.7215 -0.3644
 3124SOL     OW20830   1.305   3.659   6.654 -0.1211 -0.1631  0.9485
 3124SOL    HW120831   1.337   3.569   6.657 -0.5813 -0.3096  1.7144
 3124SOL    HW220832   1.367   3.702   6.714  2.3750 -2.0483 -0.2884
 3125SOL     OW20833   1.321   3.109  13.697  0.0446 -0.2795 -0.1025
 3125SOL    HW120834   1.337   3.169  13.624 -1.4723 -1.4133 -1.3759
 3125SOL    HW220835   1.376   3.032  13.683 -1.0579 -0.6351 -2.4816
 3126SOL     OW20836   0.571   1.881  14.443  0.3347  0.1643 -0.2494
 3126SOL    HW120837   0.623   1.831  14.379 -0.5012 -1.2134  0.1537
 3126SOL    HW220838   0.484   1.853  14.417 -0.2666  2.6456 -0.9462
 3127SOL     OW20839   3.186   4.550   1.261  1.0212  0.3165 -0.5189
 3127SOL    HW120840   3.109   4.493   1.254  0.4626  1.1247 -0.9233
 3127SOL    HW220841   3.243   4.511   1.194 -0.9279 -0.5892 -1.6678
 3128SOL     OW20842   2.659   3.377   6.032  0.6071 -0.0933  0.1406
 3128SOL    HW120843   2.751   3.352   6.041  0.2503 -1.3134  0.3291
 3128SOL    HW220844   2.628   3.360   6.121  1.4639 -0.2618  0.4078
 3129SOL     OW20845   2.324   3.074   8.013  0.4560  0.1604  0.2970
 3129SOL    HW120846   2.354   3.016   8.082 -1.4197 -0.4129  0.6334
 3129SOL    HW220847   2.235   3.041   7.998  0.5271  0.0144  0.2043
 3130SOL     OW20848   4.054   1.079   5.233  0.2080  0.1210 -0.5192
 3130SOL    HW120849   4.100   1.050   5.311  0.7723  2.5572  0.0462
 3130SOL    HW220850   4.033   1.167   5.265  0.3345  0.5196 -1.5218
 3131SOL     OW20851   4.393   1.594  13.623  0.4856 -0.1356  0.1550
 3131SOL    HW120852   4.437   1.644  13.691 -0.6654 -1.9073  2.2160
 3131SOL    HW220853   4.356   1.527  13.681 -1.8070  1.3717  0.4213
 3132SOL     OW20854   1.168   1.773   4.697  0.2413 -0.8399 -0.2047
 3132SOL    HW120855   1.096   1.715   4.723 -0.5375  0.2727  0.1083
 3132SOL    HW220856   1.186   1.738   4.610 -0.5683 -1.1562 -0.2452
 3133SOL     OW20857   1.022   1.165   1.812  0.4842  0.1742  0.4354
 3133SOL    HW120858   1.034   1.124   1.727  0.3596  1.0104  0.0148
 3133SOL    HW220859   1.113   1.172   1.842  1.0060 -1.0877 -0.8572
 3134SOL     OW20860   4.655   3.750   7.262 -0.4952 -0.0742 -0.0773
 3134SOL    HW120861   4.594   3.737   7.334 -0.2399 -1.1931 -0.0484
 3134SOL    HW220862   0.013   3.761   7.318 -0.4350  0.3081 -0.2399
 3135SOL     OW20863   1.516   4.043  13.347 -0.6124 -0.5442  0.2203
 3135SOL    HW120864   1.423   4.051  13.328 -0.1295  1.4416 -1.3189
 3135SOL    HW220865   1.540   4.131  13.376  0.1419 -0.7094  0.1026
 3136SOL     OW20866   2.210   3.536  11.002  0.5131 -0.1449  0.1998
 3136SOL    HW120867   2.220   3.599  11.073  3.0844  0.4076 -0.6634
 3136SOL    HW220868   2.299   3.503  10.996  0.2489 -0.4867 -2.2348
 3137SOL     OW20869   0.178   0.897   4.280  0.8867 -0.7211  0.4460
 3137SOL    HW120870   0.117   0.826   4.301  1.5256 -2.0148 -2.0360
 3137SOL    HW220871   0.235   0.896   4.357  0.2277 -0.5850  0.9315
 3138SOL     OW20872   2.986   3.930   1.612 -0.1658  0.0965  0.1125
 3138SOL    HW120873   3.081   3.936   1.601 -0.0357  1.6118  2.1323
 3138SOL    HW220874   2.957   3.958   1.525  1.0195 -1.2500 -0.7169
 3139SOL     OW20875   4.522   3.465  13.179  0.5141 -0.2873 -0.6022
 3139SOL    HW120876   4.605   3.497  13.143  1.5737 -1.1605  1.0539
 3139SOL    HW220877   4.565   3.441  13.261  0.4158  1.1033 -0.1519
 3140SOL     OW20878   1.652   3.158   5.828  0.2873  0.3162  0.5751
 3140SOL    HW120879   1.571   3.182   5.783 -0.2833  0.0080  1.4356
 3140SOL    HW220880   1.690   3.098   5.763  0.4384  0.5386  0.4586
 3141SOL     OW20881   3.525   0.460   7.659 -0.1609 -0.0409  0.0470
 3141SOL    HW120882   3.529   0.503   7.744 -1.6283  0.3589 -0.0691
 3141SOL    HW220883   3.615   0.481   7.635 -0.4142  0.7866 -0.2077
 3142SOL     OW20884   1.698   0.372  17.516  0.2640 -0.1908 -0.4029
 3142SOL    HW120885   1.786   0.336  17.528  0.2606  0.8959  2.9580
 3142SOL    HW220886   1.685   0.350  17.424  1.5999  3.1149 -1.3569
 3143SOL     OW20887   3.552   2.669  16.472 -1.0757  0.1371  0.0106
 3143SOL    HW120888   3.508   2.659  16.388 -0.1847  0.4975 -0.5002
 3143SOL    HW220889   3.563   2.762  16.488 -0.8234 -0.0550  0.9552
 3144SOL     OW20890   4.456   1.444  12.267  0.1059 -0.3413  0.2289
 3144SOL    HW120891   4.405   1.389  12.327  1.6732 -0.2251  1.6392
 3144SOL    HW220892   4.546   1.435  12.296 -0.0643 -0.0354  0.8589
 3145SOL     OW20893   4.158   4.132   8.724  0.3025  0.4410 -0.0522
 3145SOL    HW120894   4.094   4.061   8.726  0.0456  0.7339  2.0927
 3145SOL    HW220895   4.198   4.123   8.810 -2.5975  2.9775  1.5396
 3146SOL     OW20896   3.242   3.610   3.240 -0.0470  0.4563 -0.3889
 3146SOL    HW120897   3.308   3.548   3.209 -0.6743 -0.9290  1.0378
 3146SOL    HW220898   3.266   3.613   3.332 -1.5790  0.7508  0.0004
 3147SOL     OW20899   3.498   2.549   9.407 -0.1425  0.1209  0.0351
 3147SOL    HW120900   3.586   2.534   9.372  0.0772 -1.7420  1.4371
 3147SOL    HW220901   3.502   2.506   9.492  0.3447 -0.5028 -0.3051
 3148SOL     OW20902   0.040   4.051  13.016 -0.1598  0.0030 -0.1722
 3148SOL    HW120903   0.062   4.059  13.109 -1.3675 -1.6641  0.2548
 3148SOL    HW220904   0.041   3.957  12.999 -2.0661 -0.0011 -0.3186
 3149SOL     OW20905   2.449   3.207   7.784  0.8067  0.2562 -0.2656
 3149SOL    HW120906   2.436   3.287   7.835  0.3987  0.2779 -0.4038
 3149SOL    HW220907   2.422   3.140   7.847 -0.5848  2.8155  1.8782
 3150SOL     OW20908   1.656   0.891  15.959 -1.0707  0.0129 -0.0682
 3150SOL    HW120909   1.628   0.816  15.908 -1.0327 -0.1784  0.1946
 3150SOL    HW220910   1.577   0.945  15.956 -0.8038  0.5875  2.7086
 3151SOL     OW20911   0.543   0.596   2.490 -0.2373  0.4113  0.5795
 3151SOL    HW120912   0.567   0.557   2.574 -0.8641  0.3150  0.7203
 3151SOL    HW220913   0.507   0.516   2.453 -0.1597  2.2659 -3.4371
 3152SOL     OW20914   0.881   0.936  17.184  0.6682  0.5042  0.0524
 3152SOL    HW120915   0.888   1.009  17.244 -2.8103  0.4695  0.5209
 3152SOL    HW220916   0.947   0.958  17.118  1.1683  0.8464  0.6659
 3153SOL     OW20917   1.988   1.921   7.852 -0.9474 -0.2345  0.0607
 3153SOL    HW120918   2.063   1.967   7.815 -0.7598 -1.0598 -0.5835
 3153SOL    HW220919   1.926   1.992   7.869 -0.6196  0.4696 -1.6498
 3154SOL     OW20920   4.687   4.590   5.170  0.0748  0.5805  0.4719
 3154SOL    HW120921   4.666   4.509   5.124 -0.4416  0.4746  0.8977
 3154SOL    HW220922   0.038   4.559   5.228 -0.0536 -1.7994 -0.6261
 3155SOL     OW20923   3.880   0.879   8.758  0.1836  0.3718  0.3043
 3155SOL    HW120924   3.852   0.787   8.751 -2.6393  1.1230  1.5690
 3155SOL    HW220925   3.942   0.881   8.685  0.5624  0.3950  0.6311
 3156SOL     OW20926   3.603   0.760   1.734 -0.3228  0.1465 -0.2324
 3156SOL    HW120927   3.613   0.839   1.682  0.7389 -1.3350 -2.2741
 3156SOL    HW220928   3.641   0.701   1.669 -1.6019 -1.9831  0.9151
 3157SOL     OW20929   0.628   2.711   7.275 -0.2488 -0.4502  0.5644
 3157SOL    HW120930   0.555   2.756   7.318  0.8130  1.4032  0.4410
 3157SOL    HW220931   0.624   2.625   7.316 -1.1485 -0.6238  0.1060
 3158SOL     OW20932   2.636   2.791  17.316  0.3587 -0.0426 -0.0067
 3158SOL    HW120933   2.541   2.788  17.310  0.2486  0.8160  1.2475
 3158SOL    HW220934   2.649   2.714  17.371  0.9924 -0.0838 -0.2167
 3159SOL     OW20935   2.007   2.186   2.478 -0.0643  0.1330 -0.6629
 3159SOL    HW120936   1.927   2.137   2.496  0.4710 -1.2658 -2.0850
 3159SOL    HW220937   1.991   2.255   2.543 -0.6743 -1.2634  0.6904
 3160SOL     OW20938   3.198   3.458   8.499  0.5424  0.2967 -0.0806
 3160SOL    HW120939   3.250   3.518   8.446  0.0598  0.6332 -0.1726
 3160SOL    HW220940   3.258   3.408   8.555  1.1415  1.7020  0.5334
 3161SOL     OW20941   3.217   3.435   9.211 -0.2653  0.0341  0.3967
 3161SOL    HW120942   3.168   3.471   9.137 -0.6657 -0.3649  0.4649
 3161SOL    HW220943   3.185   3.478   9.290 -1.8214 -0.1033 -0.1535
 3162SOL     OW20944   3.093   4.106   8.471  0.0025 -0.2871 -0.1629
 3162SOL    HW120945   3.182   4.096   8.436  1.0088  1.4660  1.9096
 3162SOL    HW220946   3.107   4.051   8.548  0.0484 -2.4392 -1.7006
 3163SOL     OW20947   1.571   3.513  13.992 -0.9586 -0.1845  0.2320
 3163SOL    HW120948   1.651   3.495  13.942  1.0509 -2.5849  4.3310
 3163SOL    HW220949   1.606   3.587  14.041  0.7731 -2.4383  2.3154
 3164SOL     OW20950   0.898   2.040  11.524  0.3825 -0.1957  0.0643
 3164SOL    HW120951   0.986   2.041  11.563  0.1757  0.7687  0.5136
 3164SOL    HW220952   0.849   2.023  11.605  1.7440  2.2972  1.4221
 3165SOL     OW20953   2.700   0.225   3.903  0.2763 -0.2526 -0.0546
 3165SOL    HW120954   2.780   0.183   3.872  1.3141  0.8390  1.1313
 3165SOL    HW220955   2.698   0.191   3.992 -0.7469 -1.6594 -0.6246
 3166SOL     OW20956   0.157   2.963  15.014  0.0657  0.2697  0.3230
 3166SOL    HW120957   0.189   2.876  14.990 -3.7971 -1.6535  2.2180
 3166SOL    HW220958   0.230   3.018  14.985  0.0301  1.1298  1.8551
 3167SOL     OW20959   0.616   0.888  13.230  0.1127  0.2034  0.0420
 3167SOL    HW120960   0.616   0.975  13.269  0.5656 -0.2251  1.0114
 3167SOL    HW220961   0.635   0.829  13.303  1.8634  0.4749 -0.1926
 3168SOL     OW20962   3.409   3.612   1.132  0.0491 -0.1226  0.4867
 3168SOL    HW120963   3.380   3.521   1.127 -1.1067  0.3192 -0.8529
 3168SOL    HW220964   3.484   3.597   1.189  0.6693 -1.3926 -0.6685
 3169SOL     OW20965   4.189   3.745   4.369 -0.0154  0.2350 -0.3922
 3169SOL    HW120966   4.232   3.753   4.454  0.2542  0.3688 -0.5424
 3169SOL    HW220967   4.253   3.706   4.310  0.6244 -0.8500  1.0103
 3170SOL     OW20968   3.669   2.979  13.945 -0.5694  0.5023 -0.1808
 3170SOL    HW120969   3.595   3.037  13.960  0.7727  1.8229  1.3241
 3170SOL    HW220970   3.724   3.034  13.889 -0.5019 -0.4245 -1.0376
 3171SOL     OW20971   1.997   0.540   3.573 -0.8707 -0.4783  0.0483
 3171SOL    HW120972   1.997   0.445   3.565 -3.1581 -0.2949 -2.1296
 3171SOL    HW220973   1.910   0.554   3.610 -1.1107 -1.2518 -0.2170
 3172SOL     OW20974   4.034   0.173   7.337 -0.1147 -0.1956  0.5650
 3172SOL    HW120975   3.963   0.185   7.402 -0.2786 -1.0979  0.5591
 3172SOL    HW220976   4.063   0.264   7.337  2.4668 -1.0370  0.4252
 3173SOL     OW20977   3.959   1.143   4.639 -0.8930  0.2659 -0.5953
 3173SOL    HW120978   3.978   1.232   4.668 -2.2943  0.7784 -1.2317
 3173SOL    HW220979   3.865   1.144   4.622 -0.8135 -0.5539 -1.1393
 3174SOL     OW20980   0.926   0.636  12.844 -0.5180 -0.5750  0.0830
 3174SOL    HW120981   0.975   0.714  12.820 -0.1494 -0.7171  0.3823
 3174SOL    HW220982   0.854   0.677  12.892  0.6844  0.8848  0.6212
 3175SOL     OW20983   3.078   0.134  15.171  0.4907 -0.4426  0.2250
 3175SOL    HW120984   3.149   0.111  15.111 -0.8401 -0.2414 -1.4348
 3175SOL    HW220985   3.036   0.206  15.124  1.2722 -0.0297  0.1592
 3176SOL     OW20986   4.590   4.646   7.039 -0.4667  0.1092  0.0436
 3176SOL    HW120987   4.593   4.669   6.946  1.9558  2.3585  0.6806
 3176SOL    HW220988   4.597   4.552   7.018 -1.1747 -0.0919  0.7162
 3177SOL     OW20989   2.868   2.135  12.747 -0.4202  0.0741 -0.8144
 3177SOL    HW120990   2.826   2.208  12.791  1.1478 -0.0846  0.9559
 3177SOL    HW220991   2.862   2.166  12.657 -0.7967 -0.6594 -1.0439
 3178SOL     OW20992   0.850   3.988   8.777  0.0298 -0.5013 -0.1441
 3178SOL    HW120993   0.754   3.986   8.776  0.0260 -1.7779  3.5387
 3178SOL    HW220994   0.863   4.017   8.687 -2.8752  0.6386 -0.2039
 3179SOL     OW20995   1.556   0.819   5.602 -0.0775  0.2175 -0.2287
 3179SOL    HW120996   1.624   0.753   5.617  0.3723  0.6295 -0.4741
 3179SOL    HW220997   1.528   0.827   5.693  1.2371 -0.7663  0.2698
 3180SOL     OW20998   2.966   3.071   3.115 -0.3569  0.3791  0.8486
 3180SOL    HW120999   3.031   3.001   3.118  0.4198  1.0522 -0.3383
 3180SOL    HW221000   2.902   3.044   3.049  0.6182  0.7636 -0.2679
 3181SOL     OW21001   2.567   3.511  11.313 -0.7059  0.5155 -0.0713
 3181SOL    HW121002   2.602   3.590  11.273 -2.0057  0.9007 -0.4328
 3181SOL    HW221003   2.520   3.543  11.390  0.4913  0.7542  0.5671
 3182SOL     OW21004   2.226   4.106  10.331 -0.0050 -0.1128 -0.6000
 3182SOL    HW121005   2.159   4.165  10.295  0.5104  0.1129 -1.1675
 3182SOL    HW221006   2.270   4.150  10.404 -0.6019 -0.2179 -0.1718
 3183SOL     OW21007   3.372   0.086   7.297  0.1901  0.3243 -0.1392
 3183SOL    HW121008   3.314   0.023   7.254 -0.5490  0.2688  0.9505
 3183SOL    HW221009   3.459   0.082   7.257  0.3005  0.6300  0.0704
 3184SOL     OW21010   3.354   3.174   9.113  0.4489  0.6763  0.1267
 3184SOL    HW121011   3.358   3.266   9.136 -1.7180  0.7209  0.3349
 3184SOL    HW221012   3.405   3.132   9.182  0.0570 -1.3595 -0.8226
 3185SOL     OW21013   0.498   3.924   9.635  0.5226  0.0664 -0.4105
 3185SOL    HW121014   0.542   3.840   9.641  2.6000  1.3217  1.8846
 3185SOL    HW221015   0.531   3.953   9.720  0.9639 -1.4448 -0.0781
 3186SOL     OW21016   1.724   0.863   8.464  0.4143 -0.3992  0.4280
 3186SOL    HW121017   1.658   0.890   8.400  1.0935  0.1355 -0.0342
 3186SOL    HW221018   1.785   0.934   8.445 -0.3909  0.2973  0.4575
 3187SOL     OW21019   1.072   2.068   5.400  0.4504  0.1148  0.4412
 3187SOL    HW121020   1.122   2.121   5.338  1.0367 -1.8617 -0.7694
 3187SOL    HW221021   1.054   2.136   5.466  3.0595 -0.3286  1.5893
 3188SOL     OW21022   0.413   3.178  16.294 -0.4030  0.4916  0.1867
 3188SOL    HW121023   0.428   3.187  16.200  1.2271  1.4907  0.5403
 3188SOL    HW221024   0.430   3.085  16.304 -0.4892  0.3486 -1.0236
 3189SOL     OW21025   2.100   1.648  12.773  0.3765 -0.1298  0.3560
 3189SOL    HW121026   2.163   1.689  12.832 -1.7086  0.4378  2.1783
 3189SOL    HW221027   2.046   1.589  12.827 -2.4484  2.4476  0.2883
 3190SOL     OW21028   1.521   1.958   4.823 -0.0860 -0.1655 -0.0348
 3190SOL    HW121029   1.484   2.029   4.876  2.3566 -0.0481  1.5220
 3190SOL    HW221030   1.590   2.004   4.775 -1.6872  2.7281  0.4292
 3191SOL     OW21031   2.697   1.030  15.832  0.3172  0.4314 -0.3721
 3191SOL    HW121032   2.758   1.088  15.788  0.5566 -0.1974 -0.8659
 3191SOL    HW221033   2.609   1.060  15.809  0.4498 -0.4904 -2.0973
 3192SOL     OW21034   3.655   1.216   2.383  0.2240 -0.0006  0.5844
 3192SOL    HW121035   3.603   1.167   2.319  0.8932 -1.2153  0.9592
 3192SOL    HW221036   3.622   1.183   2.466  3.0163 -0.2458  1.6120
 3193SOL     OW21037   1.963   1.050   4.327 -0.2095 -0.3200 -0.3953
 3193SOL    HW121038   2.026   1.035   4.397  0.3561  2.3527 -0.3354
 3193SOL    HW221039   1.993   1.135   4.295  0.4526 -1.1938 -2.0943
 3194SOL     OW21040   1.853   3.704   9.424  0.5541  0.1818 -0.1047
 3194SOL    HW121041   1.866   3.720   9.330  2.7261 -0.3239  0.0965
 3194SOL    HW221042   1.868   3.610   9.433 -3.4342 -0.4809 -0.6016
 3195SOL     OW21043   1.449   1.542   8.541 -0.1149  0.0276  0.3905
 3195SOL    HW121044   1.537   1.573   8.563  0.1620  0.0415 -0.7323
 3195SOL    HW221045   1.483   1.528   8.453 -1.6381 -1.3711  0.0324
 3196SOL     OW21046   4.637   2.672  11.732  0.3252 -0.0322  0.6851
 3196SOL    HW121047   4.668   2.588  11.767  2.2219  0.5528  0.4093
 3196SOL    HW221048   4.698   2.682  11.659  0.7430 -0.2846  0.9950
 3197SOL     OW21049   1.935   1.468  12.932 -0.1240 -0.3625 -0.2696
 3197SOL    HW121050   1.851   1.492  12.891  1.1923  1.6470 -1.7966
 3197SOL    HW221051   1.928   1.380  12.968  1.7115 -0.2035  0.4453
 3198SOL     OW21052   4.029   2.123  10.130 -0.1444 -0.0298  0.2226
 3198SOL    HW121053   4.028   2.195  10.068 -1.7990 -0.2579 -0.0026
 3198SOL    HW221054   4.101   2.075  10.089  0.2032 -1.5654  2.6021
 3199SOL     OW21055   4.255   4.116   2.304  0.2092 -0.0601 -0.4709
 3199SOL    HW121056   4.197   4.070   2.364  2.4148 -0.9933  0.9236
 3199SOL    HW221057   4.213   4.095   2.220 -0.0305 -0.0943 -0.3446
 3200SOL     OW21058   2.547   1.696  15.763 -0.5602 -0.3521 -0.7014
 3200SOL    HW121059   2.589   1.781  15.778  0.6017 -0.4951 -3.1207
 3200SOL    HW221060   2.479   1.719  15.700 -0.4811 -0.8177 -0.9507
 3201SOL     OW21061   1.020   2.551   3.541  0.1801 -0.2014  0.1693
 3201SOL    HW121062   1.041   2.510   3.625  1.8563  3.3771  1.4985
 3201SOL    HW221063   0.969   2.483   3.498  0.6539 -0.2296 -0.3500
 3202SOL     OW21064   1.920   0.260   1.449 -0.0101  0.0726  0.1666
 3202SOL    HW121065   1.824   0.262   1.441 -0.0116 -1.0366 -0.0247
 3202SOL    HW221066   1.927   0.164   1.449  0.0622  0.0772 -0.3979
 3203SOL     OW21067   4.451   0.026   4.715  0.4687 -0.2294  0.3420
 3203SOL    HW121068   4.428   4.711   4.801 -2.0854  0.4575 -0.0519
 3203SOL    HW221069   4.545   0.037   4.726  0.2945  1.6682  0.0071
 3204SOL     OW21070   3.763   4.591   3.122  0.2751 -0.3652  0.0531
 3204SOL    HW121071   3.760   4.647   3.045  1.6783 -0.2938  0.0520
 3204SOL    HW221072   3.670   4.567   3.128  0.4721 -1.6783 -2.3423
 3205SOL     OW21073   3.195   0.541   5.083  0.6709  0.0350 -0.6524
 3205SOL    HW121074   3.116   0.501   5.047  0.6833  0.1662 -0.8304
 3205SOL    HW221075   3.167   0.633   5.085 -2.1774 -0.8366 -0.3925
 3206SOL     OW21076   3.582   4.050   4.425  0.0935 -0.6778  0.2340
 3206SOL    HW121077   3.525   4.090   4.491 -2.1351  1.0529 -2.7655
 3206SOL    HW221078   3.540   4.066   4.341 -0.3524  0.0201  0.5879
 3207SOL     OW21079   3.086   2.657   7.584 -0.2631  0.2684  0.2154
 3207SOL    HW121080   3.018   2.676   7.649 -0.8708 -0.0930 -0.3175
 3207SOL    HW221081   3.153   2.605   7.629 -0.3169 -1.1221 -1.3423
 3208SOL     OW21082   2.478   0.780   7.674 -0.1680  0.7523 -0.3128
 3208SOL    HW121083   2.562   0.739   7.654  0.1236  0.9938  0.4172
 3208SOL    HW221084   2.435   0.703   7.711 -0.5957 -0.1833 -2.7807
 3209SOL     OW21085   2.539   2.793   7.401 -0.1887  0.3555 -0.6548
 3209SOL    HW121086   2.604   2.732   7.366 -0.2787  0.0235 -0.2414
 3209SOL    HW221087   2.566   2.872   7.355 -1.0421  2.1782  2.0120
 3210SOL     OW21088   2.168   3.887   1.386  0.0843 -0.0565  0.0908
 3210SOL    HW121089   2.182   3.948   1.314  0.4167  0.1557  0.3379
 3210SOL    HW221090   2.110   3.938   1.443 -1.4336 -0.9236 -0.6770
 3211SOL     OW21091   0.047   1.089   5.694  0.3204  0.6533 -0.0487
 3211SOL    HW121092   4.683   1.122   5.726 -1.0007 -1.8205 -1.0047
 3211SOL    HW221093   0.033   1.090   5.599 -0.3485 -3.0141  0.0290
 3212SOL     OW21094   2.700   3.585   8.915 -0.1118 -0.3826 -0.1591
 3212SOL    HW121095   2.621   3.603   8.966 -0.1173  0.5679 -0.5048
 3212SOL    HW221096   2.772   3.596   8.977  1.3887  1.3898 -2.2204
 3213SOL     OW21097   3.561   3.677   7.019  0.2472  0.5493  0.5646
 3213SOL    HW121098   3.530   3.610   7.079  3.3488 -0.8574  0.6293
 3213SOL    HW221099   3.654   3.656   7.006 -0.1280  0.2130 -1.5887
 3214SOL     OW21100   3.867   2.053   4.927 -0.6040  0.1171  0.6195
 3214SOL    HW121101   3.812   2.055   4.849 -1.2088 -2.8121  0.9504
 3214SOL    HW221102   3.866   2.147   4.945 -0.3621 -0.1986  2.3338
 3215SOL     OW21103   3.609   2.581   6.562 -0.5310  0.7512 -0.0303
 3215SOL    HW121104   3.516   2.585   6.584 -0.9379 -2.1336 -1.3008
 3215SOL    HW221105   3.603   2.615   6.473  0.5315  0.0246 -0.3710
 3216SOL     OW21106   4.684   3.243   1.232 -0.3268 -0.0093 -0.1928
 3216SOL    HW121107   4.589   3.237   1.239 -0.3951 -0.2409 -1.2476
 3216SOL    HW221108   4.701   3.194   1.151  0.4598  0.0474 -0.0666
 3217SOL     OW21109   3.268   4.346   3.755 -0.4011 -0.0057  0.1785
 3217SOL    HW121110   3.257   4.348   3.850 -0.2523  0.9213  0.1792
 3217SOL    HW221111   3.360   4.320   3.758 -0.1258  0.9292 -0.2562
 3218SOL     OW21112   1.746   1.945   5.578  0.0118 -0.1238  0.1345
 3218SOL    HW121113   1.775   2.031   5.545  0.8932 -0.0688  1.0374
 3218SOL    HW221114   1.827   1.904   5.607  0.0741  0.1875  0.4112
 3219SOL     OW21115   4.254   1.742   3.659  0.1654  0.4283 -0.5300
 3219SOL    HW121116   4.330   1.761   3.603  0.4516  1.6721  0.2923
 3219SOL    HW221117   4.222   1.832   3.666  1.8955  1.0716 -0.9270
 3220SOL     OW21118   4.616   0.107  15.417  0.3230 -0.0049  0.3355
 3220SOL    HW121119   4.709   0.118  15.395 -0.4932  0.0807 -3.0802
 3220SOL    HW221120   4.578   0.078  15.334  2.3331  0.5679 -0.7934
 3221SOL     OW21121   4.554   3.849   7.018 -0.1034 -0.2870  0.6679
 3221SOL    HW121122   4.462   3.821   7.014 -0.3986  0.7427  0.3940
 3221SOL    HW221123   4.593   3.777   7.068  0.7737  2.2214  3.6340
 3222SOL     OW21124   1.431   4.496   3.386 -0.2665  0.3303  0.2496
 3222SOL    HW121125   1.370   4.424   3.368  3.0267 -2.0675 -1.4244
 3222SOL    HW221126   1.456   4.482   3.478  0.1666 -0.1061  0.0701
 3223SOL     OW21127   4.039   0.607   4.196  0.1916 -0.1534 -0.2089
 3223SOL    HW121128   3.980   0.672   4.157 -1.5922 -1.5276  0.2507
 3223SOL    HW221129   3.983   0.539   4.231 -0.2044  0.0785 -0.3976
 3224SOL     OW21130   1.802   2.661   4.960 -0.0184  0.1577 -0.1485
 3224SOL    HW121131   1.879   2.604   4.961  0.0710  0.2897  0.9243
 3224SOL    HW221132   1.785   2.670   4.867  1.2564 -0.0410 -0.3991
 3225SOL     OW21133   1.339   1.347   2.054  0.9435  0.6175 -0.0832
 3225SOL    HW121134   1.319   1.278   1.990 -0.1627 -0.4921  1.4372
 3225SOL    HW221135   1.344   1.411   1.984  0.7231  0.7643  0.0337
 3226SOL     OW21136   4.589   0.779   7.308 -0.4383 -0.2140  0.2781
 3226SOL    HW121137   4.509   0.737   7.277 -0.3932  0.2227 -0.4389
 3226SOL    HW221138   4.619   0.834   7.235  1.0774 -1.1560  0.1980
 3227SOL     OW21139   2.826   4.544  15.865 -0.3621 -0.1634 -0.7984
 3227SOL    HW121140   2.862   4.512  15.783  0.4261  0.0683 -0.5421
 3227SOL    HW221141   2.863   4.632  15.873 -1.1117  0.0284  0.6006
 3228SOL     OW21142   4.586   0.665   2.992 -0.2678 -0.0528  0.3367
 3228SOL    HW121143   4.567   0.660   3.086 -0.0294  0.6748  0.4259
 3228SOL    HW221144   4.667   0.614   2.984 -1.4287 -2.1122  1.6113
 3229SOL     OW21145   0.297   0.236  11.641 -0.1612 -0.4425 -0.6993
 3229SOL    HW121146   0.239   0.182  11.586 -0.5803  0.4344 -1.1317
 3229SOL    HW221147   0.364   0.256  11.576  0.3119  1.7096  0.4678
 3230SOL     OW21148   3.211   1.900   6.448 -0.3954 -0.3768 -0.2160
 3230SOL    HW121149   3.117   1.895   6.462 -0.3787  1.1652  0.3458
 3230SOL    HW221150   3.218   1.971   6.385  1.3578  1.0935  1.6179
 3231SOL     OW21151   1.245   1.925   7.872  0.0127 -0.2352  0.5403
 3231SOL    HW121152   1.241   2.021   7.865 -1.0830 -0.1108  3.0527
 3231SOL    HW221153   1.327   1.907   7.825 -0.7962 -0.5130 -0.7668
 3232SOL     OW21154   0.593   2.456   5.899  0.1074  0.0241 -0.0457
 3232SOL    HW121155   0.555   2.392   5.839 -0.9686  0.0125  0.6591
 3232SOL    HW221156   0.541   2.436   5.977 -0.8757  0.0076 -0.7078
 3233SOL     OW21157   4.342   3.157  13.264 -0.1999 -0.1287  0.1472
 3233SOL    HW121158   4.373   3.190  13.180 -0.7588  1.3766  0.5271
 3233SOL    HW221159   4.278   3.091  13.236 -2.2866  2.1111 -0.4143
 3234SOL     OW21160   3.007   3.429   6.062 -0.0232 -0.0771 -0.1286
 3234SOL    HW121161   3.047   3.403   5.979  0.3735 -1.1373  0.3888
 3234SOL    HW221162   2.972   3.348   6.100 -1.2226  0.4063 -0.2114
 3235SOL     OW21163   2.492   3.482   0.654  0.2898  0.0282  0.0877
 3235SOL    HW121164   2.448   3.399   0.672  0.7061 -0.3110 -0.4847
 3235SOL    HW221165   2.518   3.465   0.564 -0.5643  2.4601 -0.6293
 3236SOL     OW21166   0.151   3.080   8.611  0.0724  0.2004  0.2826
 3236SOL    HW121167   0.110   3.162   8.641 -0.8896  0.1040 -0.7341
 3236SOL    HW221168   0.242   3.094   8.635  0.3200 -1.8536  0.4871
 3237SOL     OW21169   0.607   0.947   3.972  0.3704  0.1228 -0.4353
 3237SOL    HW121170   0.700   0.935   3.951  0.8732  1.6872  0.8766
 3237SOL    HW221171   0.573   0.956   3.883 -0.3800  0.2506 -0.1384
 3238SOL     OW21172   3.502   3.256   5.158  0.0541  0.1341 -0.6798
 3238SOL    HW121173   3.481   3.258   5.251 -0.8875  1.6896 -0.9218
 3238SOL    HW221174   3.500   3.351   5.147  0.6415 -0.0451 -2.4262
 3239SOL     OW21175   3.783   1.541  10.108  0.4049 -0.0503 -0.3927
 3239SOL    HW121176   3.769   1.526  10.015  0.5636  0.7656 -0.5486
 3239SOL    HW221177   3.697   1.564  10.143  0.4731  0.4472 -0.5547
 3240SOL     OW21178   3.382   0.055  11.445 -0.3057  0.4902 -0.2057
 3240SOL    HW121179   3.354   0.034  11.534 -2.4311  1.4146 -0.6390
 3240SOL    HW221180   3.458   4.717  11.437 -1.4118 -0.7843 -1.5008
 3241SOL     OW21181   4.596   1.150   0.701  0.0668  0.3590 -0.1565
 3241SOL    HW121182   4.634   1.062   0.705 -1.4713 -0.3147 -0.2525
 3241SOL    HW221183   4.609   1.176   0.793  0.2561  1.1339 -0.4007
 3242SOL     OW21184   1.542   2.352   8.988 -0.1464  0.1102 -0.0528
 3242SOL    HW121185   1.529   2.400   8.906  2.1155 -0.1614 -0.5654
 3242SOL    HW221186   1.468   2.293   9.002  0.0644  0.0319  0.7431
 3243SOL     OW21187   3.246   2.322  11.836  0.3109  0.0121  0.0010
 3243SOL    HW121188   3.166   2.307  11.785  1.7851 -2.2542 -1.6230
 3243SOL    HW221189   3.267   2.234  11.867  1.1196  0.0571 -0.4166
 3244SOL     OW21190   1.224   1.497   7.202 -0.1309  0.1445  0.3083
 3244SOL    HW121191   1.309   1.456   7.218 -0.3106 -0.9761 -1.5429
 3244SOL    HW221192   1.159   1.427   7.196 -0.5307  0.5348  0.1009
 3245SOL     OW21193   1.727   4.529   1.623 -0.1969  0.3450  0.3197
 3245SOL    HW121194   1.664   4.473   1.668 -0.9807  1.1592  0.2496
 3245SOL    HW221195   1.797   4.546   1.686 -0.1667  0.3070  0.2964
 3246SOL     OW21196   1.275   3.156   2.672  0.6591  1.0093 -0.4786
 3246SOL    HW121197   1.291   3.130   2.762 -0.0494  3.9564  0.5212
 3246SOL    HW221198   1.207   3.221   2.692 -0.5617 -0.4322  0.0084
 3247SOL     OW21199   0.476   4.437   6.382  0.6407 -0.2317  0.1187
 3247SOL    HW121200   0.440   4.360   6.425  0.6898 -0.8925 -1.0256
 3247SOL    HW221201   0.425   4.494   6.440  1.3949  1.8281 -1.2155
 3248SOL     OW21202   1.332   0.215   6.397  0.2494  0.5786  0.2125
 3248SOL    HW121203   1.276   0.140   6.376  0.5433  0.7112 -1.0139
 3248SOL    HW221204   1.261   0.269   6.432  0.8985  2.2093 -1.0241
 3249SOL     OW21205   1.695   3.614   2.406 -0.3235  1.0446  0.1831
 3249SOL    HW121206   1.600   3.621   2.413 -0.4044 -0.5795  0.4892
 3249SOL    HW221207   1.710   3.539   2.463  3.5621  1.6355 -0.0653
 3250SOL     OW21208   2.458   3.424  10.935  0.1804 -0.3733  0.1547
 3250SOL    HW121209   2.507   3.505  10.950 -1.7510  0.9673 -0.7369
 3250SOL    HW221210   2.471   3.400  10.843  1.7669  0.7028  0.0865
 3251SOL     OW21211   3.423   0.578   8.510  0.6881  0.0476  0.1442
 3251SOL    HW121212   3.352   0.537   8.559  1.0238  0.2676  0.8175
 3251SOL    HW221213   3.441   0.655   8.565  1.5961 -0.7408  0.9456
 3252SOL     OW21214   1.088   2.714   0.914 -0.4729 -0.9664 -0.2261
 3252SOL    HW121215   1.021   2.653   0.946 -1.2903 -1.2270 -2.4076
 3252SOL    HW221216   1.132   2.665   0.844  0.9845 -2.8292  1.9737
 3253SOL     OW21217   0.323   2.711   2.488  0.5493  0.0806 -0.4145
 3253SOL    HW121218   0.287   2.721   2.575 -0.0669  1.6195 -0.8595
 3253SOL    HW221219   0.248   2.678   2.438 -0.6667 -1.0664  2.1853
 3254SOL     OW21220   4.391   1.219   3.442 -0.3455 -0.4185  0.3719
 3254SOL    HW121221   4.316   1.164   3.464 -0.7669 -0.4914 -1.2205
 3254SOL    HW221222   4.345   1.298   3.414 -0.2546 -0.9755 -1.3719
 3255SOL     OW21223   0.330   0.045   5.695  0.0333  0.8231 -0.0793
 3255SOL    HW121224   0.275   0.012   5.624 -0.7538  1.7646  0.0970
 3255SOL    HW221225   0.391   0.100   5.646  0.9771  1.3948  1.7555
 3256SOL     OW21226   4.060   0.307  16.937 -0.0501 -0.2421  0.2732
 3256SOL    HW121227   4.060   0.257  17.019 -1.7341  0.3881  0.6549
 3256SOL    HW221228   4.049   0.395  16.972 -1.2363 -1.1910  2.2962
 3257SOL     OW21229   1.400   1.050   8.900  0.4030 -0.3669  0.0170
 3257SOL    HW121230   1.429   1.023   8.813 -1.6014 -0.8997 -0.4901
 3257SOL    HW221231   1.479   1.041   8.953  0.4738 -0.4512 -0.1031
 3258SOL     OW21232   1.724   3.513  10.892 -0.1933 -0.2858 -0.1354
 3258SOL    HW121233   1.811   3.521  10.930 -0.0250  0.9055 -0.7496
 3258SOL    HW221234   1.720   3.591  10.836 -3.7771 -0.9741 -0.8563
 3259SOL     OW21235   3.157   2.218   7.022 -0.3373 -0.3880 -0.4308
 3259SOL    HW121236   3.079   2.166   7.006 -0.0266 -0.1740 -2.6573
 3259SOL    HW221237   3.150   2.231   7.117  3.7072 -1.2091 -0.0111
 3260SOL     OW21238   1.829   0.485   8.216  0.1423 -0.3924 -0.3205
 3260SOL    HW121239   1.907   0.469   8.268 -0.3210 -0.4422  0.3647
 3260SOL    HW221240   1.773   0.513   8.289 -1.3587  0.4871 -1.8150
 3261SOL     OW21241   0.016   1.822   5.307 -0.3759  0.2021  0.0169
 3261SOL    HW121242   0.088   1.839   5.367 -0.2137 -0.2494 -0.0503
 3261SOL    HW221243   0.055   1.852   5.225 -2.7153  0.9497 -0.8177
 3262SOL     OW21244   3.960   3.912  10.524  0.8792 -0.4910  0.2119
 3262SOL    HW121245   3.992   3.847  10.587 -0.9131  0.0317  1.6639
 3262SOL    HW221246   3.929   3.983  10.580  2.4325  0.2846  0.0786
 3263SOL     OW21247   0.065   3.653   6.424  0.5574 -0.0487 -0.7135
 3263SOL    HW121248   0.135   3.599   6.388  1.4362 -0.7634  2.0432
 3263SOL    HW221249   4.716   3.586   6.428 -0.9720  1.4819 -1.3200
 3264SOL     OW21250   1.604   2.913  16.717  0.3124 -0.0829 -0.5653
 3264SOL    HW121251   1.620   3.003  16.689 -1.1033  0.1914 -0.4707
 3264SOL    HW221252   1.685   2.880  16.678  1.3191  1.9458 -0.2169
 3265SOL     OW21253   2.473   2.719   5.097 -0.2802  0.1074  0.2216
 3265SOL    HW121254   2.426   2.646   5.057 -0.6679 -1.0951  2.9384
 3265SOL    HW221255   2.564   2.711   5.068 -0.4878  2.3156 -1.0722
 3266SOL     OW21256   0.601   0.601  11.034  0.3793 -0.2370 -0.0284
 3266SOL    HW121257   0.554   0.531  11.078  2.7430  0.3168  3.3402
 3266SOL    HW221258   0.531   0.635  10.978 -0.2216  2.8140  2.6090
 3267SOL     OW21259   4.090   2.250  17.227  0.0458 -0.6776 -0.6470
 3267SOL    HW121260   3.999   2.240  17.200 -1.2880  0.4134  3.5879
 3267SOL    HW221261   4.076   2.294  17.310 -0.8081  2.6209 -2.5576
 3268SOL     OW21262   2.681   1.950  15.811  0.4625  0.0172  0.1917
 3268SOL    HW121263   2.703   2.016  15.746 -1.5794  0.0361 -0.4765
 3268SOL    HW221264   2.599   1.986  15.843 -0.4668 -0.6806 -1.4396
 3269SOL     OW21265   1.490   4.271   4.879 -0.0788  0.3073  0.1243
 3269SOL    HW121266   1.436   4.212   4.931  0.7935  0.0752  0.7559
 3269SOL    HW221267   1.551   4.210   4.837  0.2717 -0.0781  1.2088
 3270SOL     OW21268   3.745   1.413   5.244 -0.0072 -0.4405  0.7096
 3270SOL    HW121269   3.752   1.504   5.272  1.1065  0.1540 -1.5438
 3270SOL    HW221270   3.838   1.392   5.236 -0.1937  0.1476 -2.6364
 3271SOL     OW21271   4.072   3.595   9.240  0.4748 -0.6438 -0.0032
 3271SOL    HW121272   4.156   3.574   9.200  1.9868 -0.0745  2.9170
 3271SOL    HW221273   4.014   3.585   9.164 -0.8700  1.7672  0.7264
 3272SOL     OW21274   1.454   2.158   3.649 -0.0421 -0.5710  0.0540
 3272SOL    HW121275   1.373   2.108   3.652 -1.0754  1.0126 -1.4574
 3272SOL    HW221276   1.502   2.114   3.579 -0.3964 -1.4215  0.3489
 3273SOL     OW21277   3.862   0.429   4.297 -0.3319  0.1480 -1.0209
 3273SOL    HW121278   3.903   0.358   4.347  0.8527  2.1758  0.8863
 3273SOL    HW221279   3.777   0.437   4.341 -0.3616  2.5119 -1.5425
 3274SOL     OW21280   0.395   2.714   6.572 -0.1770  0.4419 -0.2524
 3274SOL    HW121281   0.331   2.720   6.501 -1.1033 -2.2141  0.3663
 3274SOL    HW221282   0.383   2.796   6.619  1.2721  0.5357 -0.0507
 3275SOL     OW21283   2.953   4.061  12.967  0.0652  0.4787 -0.0744
 3275SOL    HW121284   3.008   4.021  13.035 -1.1403 -2.3622 -0.7780
 3275SOL    HW221285   2.882   3.997  12.968 -0.0637  0.5886 -1.9242
 3276SOL     OW21286   3.616   3.155  10.657  0.2533 -0.3234 -0.0881
 3276SOL    HW121287   3.697   3.107  10.642  0.2433  0.8036 -3.7942
 3276SOL    HW221288   3.578   3.147  10.569 -0.6640 -3.3462  0.5616
 3277SOL     OW21289   3.420   0.480   2.396  0.1698  0.5834  0.0045
 3277SOL    HW121290   3.383   0.543   2.458 -0.5381  1.5225 -1.3844
 3277SOL    HW221291   3.448   0.543   2.331 -3.9605  0.0115 -2.3145
 3278SOL     OW21292   1.137   0.655   8.302 -0.1656 -0.1379  0.7314
 3278SOL    HW121293   1.121   0.570   8.261 -0.6066  1.2162 -1.9073
 3278SOL    HW221294   1.228   0.676   8.281 -0.4610  1.0533  0.5844
 3279SOL     OW21295   2.755   3.602   7.791  0.0208 -0.0555 -0.0574
 3279SOL    HW121296   2.699   3.671   7.755  0.2305 -0.7877 -1.8072
 3279SOL    HW221297   2.703   3.580   7.868 -1.7449  1.4465 -0.8125
 3280SOL     OW21298   4.622   1.159   0.352  0.4063  0.1911 -0.0477
 3280SOL    HW121299   4.646   1.106   0.276  0.5524  1.4537 -0.8872
 3280SOL    HW221300   4.598   1.082   0.404  1.7386  0.8463  1.5402
 3281SOL     OW21301   0.917   4.606   7.342 -0.2845 -0.0368 -0.3084
 3281SOL    HW121302   0.908   4.686   7.290 -0.7431  0.8666  1.1549
 3281SOL    HW221303   0.907   4.542   7.272 -1.3729 -0.4652  0.2484
 3282SOL     OW21304   1.141   4.171   4.650  0.2757 -0.6445  0.2210
 3282SOL    HW121305   1.172   4.245   4.702  1.5709 -0.0844 -1.3515
 3282SOL    HW221306   1.160   4.186   4.558 -1.7721 -0.0403 -0.1090
 3283SOL     OW21307   3.730   2.492  13.747 -0.7629 -0.2101  0.7986
 3283SOL    HW121308   3.680   2.539  13.815 -1.8367  1.9423 -1.4890
 3283SOL    HW221309   3.766   2.413  13.788 -1.1203 -0.4109  0.7327
 3284SOL     OW21310   3.042   3.470   8.709  0.4608 -0.3502 -0.0664
 3284SOL    HW121311   3.104   3.495   8.641 -0.8138  0.3314 -0.9842
 3284SOL    HW221312   2.957   3.480   8.664  0.1281  0.8797  0.8224
 3285SOL     OW21313   4.306   3.647   7.191 -0.0414 -0.0179  0.3472
 3285SOL    HW121314   4.239   3.596   7.236  0.4392 -0.6047  0.3889
 3285SOL    HW221315   4.250   3.697   7.131  1.2456  2.2251  0.9812
 3286SOL     OW21316   3.764   2.172   2.672 -0.2121 -1.0277 -0.3094
 3286SOL    HW121317   3.808   2.257   2.681 -1.7623  0.1973 -4.3559
 3286SOL    HW221318   3.809   2.130   2.745  0.6829 -0.0381 -0.2911
 3287SOL     OW21319   3.428   4.327   7.794  0.1226 -0.3005 -0.1307
 3287SOL    HW121320   3.462   4.253   7.744  0.8345  0.2164 -0.4182
 3287SOL    HW221321   3.403   4.279   7.873  0.9363  0.1686  0.4031
 3288SOL     OW21322   3.821   4.520  17.223 -0.3951  0.1766 -0.2819
 3288SOL    HW121323   3.774   4.479  17.151 -1.7668 -0.6758  1.1051
 3288SOL    HW221324   3.749   4.543  17.281  0.0690  0.2637  0.2607
 3289SOL     OW21325   0.547   3.294  16.535 -0.6631 -0.0397 -0.1154
 3289SOL    HW121326   0.632   3.337  16.549 -1.2745  1.4290 -0.8701
 3289SOL    HW221327   0.569   3.208  16.570 -1.6731  0.0285  0.6627
 3290SOL     OW21328   3.807   0.633   6.822  0.2685  0.1034  0.5155
 3290SOL    HW121329   3.749   0.559   6.839  0.4354  0.4153  2.3957
 3290SOL    HW221330   3.816   0.671   6.909 -0.7898  0.8303  0.3037
 3291SOL     OW21331   2.935   0.220   9.114 -0.7673 -0.1855  0.4234
 3291SOL    HW121332   2.919   0.314   9.127 -0.0805 -0.0242  0.1147
 3291SOL    HW221333   2.862   0.193   9.059  0.3177 -1.4373 -0.3990
 3292SOL     OW21334   1.602   4.135  13.650  0.5830  0.0060  0.0484
 3292SOL    HW121335   1.692   4.163  13.637 -0.5725  2.5544 -2.3736
 3292SOL    HW221336   1.554   4.178  13.579 -0.8496 -1.0578  0.3564
 3293SOL     OW21337   2.523   0.432  10.438 -0.5816 -0.1442 -0.1683
 3293SOL    HW121338   2.462   0.505  10.451 -2.8592 -1.8213 -1.3942
 3293SOL    HW221339   2.566   0.458  10.357  1.1140 -0.4104  0.6330
 3294SOL     OW21340   1.565   1.680   2.473 -0.1757  0.5300 -0.0063
 3294SOL    HW121341   1.488   1.684   2.416  0.8045  1.8100 -1.2414
 3294SOL    HW221342   1.633   1.735   2.433 -0.8165  2.7942  2.0069
 3295SOL     OW21343   0.918   3.047   3.204  0.1431  0.2118  0.7195
 3295SOL    HW121344   0.951   3.104   3.273 -0.1290  1.2547 -0.0179
 3295SOL    HW221345   0.970   3.065   3.126  0.4687 -0.8969  0.6779
 3296SOL     OW21346   3.902   1.405   4.694 -0.2092  0.5063  0.3023
 3296SOL    HW121347   3.954   1.485   4.700  2.0615 -1.0925  2.0097
 3296SOL    HW221348   3.896   1.390   4.788 -0.5225  2.8144  0.6394
 3297SOL     OW21349   2.419   3.936   7.807 -0.5311 -0.1431  0.0323
 3297SOL    HW121350   2.478   3.920   7.881  1.0687  0.9136 -1.0146
 3297SOL    HW221351   2.361   4.002   7.845  2.1300 -0.0854  4.0832
 3298SOL     OW21352   4.713   4.048   5.301  0.1672 -0.3072  0.4229
 3298SOL    HW121353   4.711   4.131   5.349 -3.2532  0.7843 -1.5980
 3298SOL    HW221354   4.631   4.066   5.255  1.0241  0.4309 -0.8092
 3299SOL     OW21355   3.716   0.269   7.226  0.4135 -0.1996 -0.1632
 3299SOL    HW121356   3.669   0.201   7.178  0.4366  0.0278 -0.5067
 3299SOL    HW221357   3.642   0.323   7.252  1.5486  0.8291  0.9686
 3300SOL     OW21358   0.432   0.991  16.333  0.1691 -0.4265  0.1869
 3300SOL    HW121359   0.470   1.079  16.332  0.2953 -0.4984 -1.0650
 3300SOL    HW221360   0.469   0.951  16.255  1.0681  2.4483 -0.8486
 3301SOL     OW21361   2.908   0.450   9.240 -0.4858 -0.0663 -0.1211
 3301SOL    HW121362   2.857   0.531   9.240 -0.9682 -0.3693  1.5177
 3301SOL    HW221363   2.901   0.411   9.328 -1.6555 -0.7221 -0.5131
 3302SOL     OW21364   4.160   4.186  10.392 -0.3199  0.7430  0.3387
 3302SOL    HW121365   4.101   4.262  10.388 -0.1863  0.8679  0.7691
 3302SOL    HW221366   4.227   4.222  10.449 -1.9835  2.5279  1.1601
 3303SOL     OW21367   4.571   4.170  16.232 -0.3982  0.1972 -0.3121
 3303SOL    HW121368   4.507   4.237  16.259 -1.9018 -1.1875 -0.4352
 3303SOL    HW221369   4.507   4.103  16.207  0.0135 -0.1707 -0.3776
 3304SOL     OW21370   3.074   0.490  16.291 -0.1498  0.1070 -0.3010
 3304SOL    HW121371   3.157   0.539  16.282  0.0721 -0.3169 -0.5856
 3304SOL    HW221372   3.034   0.506  16.205  1.2507  1.1755 -0.7785
 3305SOL     OW21373   0.960   2.658   6.239 -0.4481 -0.6327  0.5111
 3305SOL    HW121374   0.892   2.615   6.188 -0.1882 -0.7147  0.2388
 3305SOL    HW221375   1.034   2.610   6.203  0.7019  1.1867  0.4459
 3306SOL     OW21376   3.357   3.284   8.615 -0.8385  0.4552  0.5315
 3306SOL    HW121377   3.328   3.204   8.658 -0.4136  0.1107  0.1842
 3306SOL    HW221378   3.431   3.307   8.671 -1.5225 -1.5821  2.2558
 3307SOL     OW21379   4.301   0.220   3.499  0.3878 -0.0940  0.1973
 3307SOL    HW121380   4.206   0.226   3.487  0.3141 -1.8720 -0.1293
 3307SOL    HW221381   4.315   0.155   3.430 -2.1684 -1.5578  1.0599
 3308SOL     OW21382   1.171   4.087   7.870 -0.3577 -0.0790 -0.1525
 3308SOL    HW121383   1.136   4.135   7.795  2.1046  0.4950 -0.9329
 3308SOL    HW221384   1.100   4.025   7.886  0.4860 -0.6140  1.5664
 3309SOL     OW21385   0.855   0.371   6.905  0.3676  0.3869  0.5074
 3309SOL    HW121386   0.772   0.326   6.887  1.4214 -2.5141  2.7719
 3309SOL    HW221387   0.899   0.316   6.970  0.5268 -0.3721 -0.2360
 3310SOL     OW21388   3.339   0.921   3.307 -0.4130  0.3127 -0.1967
 3310SOL    HW121389   3.380   0.912   3.393  1.0215  1.7069 -0.7374
 3310SOL    HW221390   3.336   0.829   3.281  0.3581  0.3386 -0.3656
 3311SOL     OW21391   3.584   4.676  16.897  0.4663 -0.2113 -0.2209
 3311SOL    HW121392   3.502   4.719  16.920  0.3615  0.4767 -1.9485
 3311SOL    HW221393   3.592   4.610  16.967  0.5448 -0.3724 -0.3810
 3312SOL     OW21394   0.046   0.117  11.787  0.1387 -0.0551  0.2382
 3312SOL    HW121395   4.694   0.108  11.725 -0.1259 -0.0593  0.5428
 3312SOL    HW221396   0.088   0.194  11.750  1.5605 -0.2384  1.4553
 3313SOL     OW21397   2.646   3.015   6.015  0.2880  0.4394 -0.6304
 3313SOL    HW121398   2.608   2.991   5.930  1.0266  1.2760 -1.1919
 3313SOL    HW221399   2.581   2.972   6.072 -0.7545 -2.6313 -4.0902
 3314SOL     OW21400   1.138   3.305   3.649 -0.3900 -0.3581  0.0390
 3314SOL    HW121401   1.230   3.320   3.673 -0.3677 -0.3773 -0.0336
 3314SOL    HW221402   1.098   3.391   3.663 -1.2328 -0.3875 -2.1068
 3315SOL     OW21403   3.298   2.105   0.963  0.5502  0.1094 -0.6138
 3315SOL    HW121404   3.309   2.189   1.008  0.9843  0.1683 -0.8246
 3315SOL    HW221405   3.236   2.129   0.894  1.3045  2.8354 -0.3608
 3316SOL     OW21406   1.681   1.174   9.250  0.0540  0.3172  0.5420
 3316SOL    HW121407   1.750   1.154   9.314  0.8170  2.3301  0.3633
 3316SOL    HW221408   1.601   1.178   9.301 -2.3167  0.1432 -3.2131
 3317SOL     OW21409   2.551   3.190   5.755  0.3385  0.3223 -0.1357
 3317SOL    HW121410   2.525   3.098   5.760 -0.6937  0.6524  0.5066
 3317SOL    HW221411   2.475   3.226   5.800 -1.4559 -0.4909 -2.5008
 3318SOL     OW21412   2.531   0.326   7.951  0.4709  0.5964  0.3260
 3318SOL    HW121413   2.492   0.412   7.938 -0.2716  0.0965 -0.7433
 3318SOL    HW221414   2.611   0.334   8.002  0.9263  1.5555 -0.5571
 3319SOL     OW21415   1.322   0.514  11.505  0.1805 -0.4767 -0.2690
 3319SOL    HW121416   1.311   0.429  11.547  1.4448 -0.5472 -0.0825
 3319SOL    HW221417   1.302   0.487  11.415 -1.2915 -0.8896  0.1743
 3320SOL     OW21418   2.659   2.874  15.210 -0.1618 -0.2389  0.2426
 3320SOL    HW121419   2.736   2.911  15.166  0.2274 -0.2603  0.9132
 3320SOL    HW221420   2.592   2.943  15.210  1.1229  1.0259 -1.0120
 3321SOL     OW21421   2.526   4.000   6.964 -0.3806 -0.4827 -0.3751
 3321SOL    HW121422   2.538   3.950   7.045 -0.6602 -0.4622 -0.3217
 3321SOL    HW221423   2.458   4.058   6.999 -0.4039  0.2336 -1.6092
 3322SOL     OW21424   1.122   2.682   7.768 -0.0231  0.4210  0.0796
 3322SOL    HW121425   1.163   2.718   7.847 -1.5714  0.9673  0.6361
 3322SOL    HW221426   1.160   2.742   7.705  1.4960 -0.3916  0.2146
 3323SOL     OW21427   2.982   4.585   9.873 -0.0311 -0.0601  0.8333
 3323SOL    HW121428   2.945   4.650   9.933  0.4885  1.7390 -0.7964
 3323SOL    HW221429   3.051   4.641   9.838 -1.9057  1.4970 -0.3103
 3324SOL     OW21430   1.588   2.330  11.196  0.2374  0.1587 -0.1651
 3324SOL    HW121431   1.514   2.313  11.137  0.9241  0.6314 -1.1626
 3324SOL    HW221432   1.557   2.291  11.278 -0.3324  0.1567 -0.3863
 3325SOL     OW21433   2.687   0.861  16.332 -0.1649 -0.1949 -0.3786
 3325SOL    HW121434   2.672   0.861  16.237 -1.8268 -0.0831 -0.1176
 3325SOL    HW221435   2.601   0.822  16.350  0.7483 -1.4102  1.4179
 3326SOL     OW21436   1.253   3.648  11.335 -0.7360  0.4151 -0.0229
 3326SOL    HW121437   1.335   3.685  11.300 -1.1571  1.1937 -0.1848
 3326SOL    HW221438   1.226   3.601  11.256  3.4999 -2.0679 -0.0211
 3327SOL     OW21439   2.132   0.624  11.507 -0.2875 -0.6356 -0.4316
 3327SOL    HW121440   2.047   0.600  11.471 -1.2812  1.2540  0.6309
 3327SOL    HW221441   2.176   0.656  11.428  1.0173  4.1418  2.2347
 3328SOL     OW21442   2.602   3.440   9.298 -0.2877  0.1691 -0.1201
 3328SOL    HW121443   2.585   3.348   9.279 -0.2566  0.1756 -0.1820
 3328SOL    HW221444   2.578   3.444   9.390 -2.4701  0.0584 -0.6929
 3329SOL     OW21445   2.003   4.423  10.003 -0.0621  0.0739 -0.2243
 3329SOL    HW121446   2.088   4.439   9.961  0.5070 -1.5153  0.3227
 3329SOL    HW221447   1.954   4.428   9.921 -0.4271  0.8663  0.0427
 3330SOL     OW21448   2.671   2.503   8.197 -0.3748  0.4569 -0.0262
 3330SOL    HW121449   2.588   2.549   8.182 -1.2754 -1.6143 -1.3274
 3330SOL    HW221450   2.639   2.430   8.250 -0.9527 -0.1956 -1.2749
 3331SOL     OW21451   1.128   0.666   5.094 -0.7162 -0.1684  0.2296
 3331SOL    HW121452   1.089   0.710   5.170 -2.2491 -0.3266 -0.4578
 3331SOL    HW221453   1.099   0.575   5.101 -0.4489 -0.1622  1.3213
 3332SOL     OW21454   1.622   4.689   3.830  0.0108 -0.0436 -0.1523
 3332SOL    HW121455   1.612   4.630   3.904 -3.1505  1.2393  0.4696
 3332SOL    HW221456   1.649   0.052   3.871 -0.3391 -0.0366  0.0674
 3333SOL     OW21457   3.236   0.237  15.353  0.1500 -0.2048  0.3563
 3333SOL    HW121458   3.275   0.172  15.411  1.7272 -0.2615 -0.7307
 3333SOL    HW221459   3.170   0.190  15.301 -0.5812  1.5130 -0.2543
 3334SOL     OW21460   0.211   0.795   9.140  0.4210  0.0094 -0.0492
 3334SOL    HW121461   0.277   0.778   9.072 -0.1318  3.0646 -1.3350
 3334SOL    HW221462   0.138   0.752   9.096  0.1967  2.0023 -1.5930
 3335SOL     OW21463   3.540   4.317   8.359 -0.1334  0.0169 -0.6568
 3335SOL    HW121464   3.565   4.348   8.272  0.9293  2.8170  0.6614
 3335SOL    HW221465   3.604   4.250   8.384  2.0481  2.2739 -0.2751
 3336SOL     OW21466   2.707   0.848   5.509 -0.1434  0.3165 -0.7079
 3336SOL    HW121467   2.779   0.789   5.486  0.2297 -0.2473  1.8941
 3336SOL    HW221468   2.733   0.934   5.478  3.0446 -0.0216  1.0389
 3337SOL     OW21469   3.004   2.363   6.799  0.1802 -0.5802 -0.3440
 3337SOL    HW121470   3.040   2.315   6.874  1.1532  0.2180 -0.3041
 3337SOL    HW221471   3.035   2.317   6.721 -1.5366 -1.6514 -0.4071
 3338SOL     OW21472   3.617   1.594   2.702  0.4880 -0.4126 -0.4946
 3338SOL    HW121473   3.646   1.535   2.771 -0.8441  0.4479  0.7934
 3338SOL    HW221474   3.607   1.682   2.738  0.5365 -1.2162  1.4667
 3339SOL     OW21475   3.530   0.261   0.988  0.2400  0.1480  0.6393
 3339SOL    HW121476   3.543   0.249   0.894 -0.1005 -1.7227  0.8258
 3339SOL    HW221477   3.608   0.309   1.013  1.2813 -0.7478 -0.9267
 3340SOL     OW21478   3.573   0.902  11.247 -0.2193 -0.5646 -0.2187
 3340SOL    HW121479   3.536   0.987  11.226  0.4621 -0.1777  0.1451
 3340SOL    HW221480   3.654   0.910  11.196 -1.6662  0.5694 -2.3312
 3341SOL     OW21481   4.590   0.790   4.078  0.1727  0.2007  0.3674
 3341SOL    HW121482   4.662   0.852   4.078 -1.1037  1.6639 -0.5635
 3341SOL    HW221483   4.509   0.841   4.076 -0.1291 -0.4907 -3.8063
 3342SOL     OW21484   1.028   3.798   2.849  0.7707 -0.2589 -0.0603
 3342SOL    HW121485   1.030   3.819   2.756  1.7247 -1.3406 -0.2843
 3342SOL    HW221486   0.972   3.721   2.857  1.9906 -1.0738  0.6708
 3343SOL     OW21487   0.126   1.867   8.214  0.0013 -0.1747 -0.1144
 3343SOL    HW121488   0.173   1.784   8.212 -0.0069 -0.2072  0.9582
 3343SOL    HW221489   0.151   1.898   8.301  0.5760 -1.0236  0.0213
 3344SOL     OW21490   2.935   1.409  13.244  0.1749 -0.3001 -0.0007
 3344SOL    HW121491   2.884   1.347  13.191 -0.6698  0.3914  0.0040
 3344SOL    HW221492   2.915   1.372  13.331 -0.6150  0.7296  0.2504
 3345SOL     OW21493   2.623   3.761  17.086  0.3173  0.4135  0.1968
 3345SOL    HW121494   2.656   3.844  17.050  2.5457 -1.1025 -1.3082
 3345SOL    HW221495   2.566   3.787  17.158  0.6184  2.4722 -0.3176
 3346SOL     OW21496   0.483   3.898   0.474 -0.4000  0.5193  0.5093
 3346SOL    HW121497   0.540   3.826   0.447 -0.9471  0.6627 -1.0084
 3346SOL    HW221498   0.407   3.841   0.485  1.9044 -3.1361 -2.5058
 3347SOL     OW21499   3.058   3.282   0.105 -0.5394  0.4221 -0.1532
 3347SOL    HW121500   3.005   3.309   0.180 -1.7833 -1.5131 -0.3105
 3347SOL    HW221501   3.031   3.190   0.098 -1.4800  0.5725  1.6177
 3348SOL     OW21502   3.305   3.487   1.663  0.8813 -0.4534 -0.5942
 3348SOL    HW121503   3.284   3.561   1.606  0.5048 -0.1977 -0.1237
 3348SOL    HW221504   3.248   3.414   1.639 -2.3464  1.8227  0.2065
 3349SOL     OW21505   3.469   0.867   1.972 -0.2074  0.1894 -0.6424
 3349SOL    HW121506   3.510   0.837   1.891  1.8290 -1.6401  1.0696
 3349SOL    HW221507   3.378   0.870   1.941  0.2158 -1.0310 -2.0288
 3350SOL     OW21508   4.092   1.233   8.015 -0.0770 -0.1512 -0.7383
 3350SOL    HW121509   4.159   1.199   8.074 -0.0996  2.0340  0.5027
 3350SOL    HW221510   4.011   1.211   8.059  0.2359  2.6657  1.2284
 3351SOL     OW21511   1.604   3.546   5.674  0.3911 -0.3000 -0.2867
 3351SOL    HW121512   1.686   3.512   5.638  1.0107  1.5993 -0.7076
 3351SOL    HW221513   1.595   3.490   5.751  1.0941  1.0093  0.7503
 3352SOL     OW21514   0.849   4.621   7.911 -0.4097 -0.0835  0.3887
 3352SOL    HW121515   0.939   4.617   7.945 -0.4642 -0.7105  0.4513
 3352SOL    HW221516   0.810   4.547   7.958  0.5028  0.1820  1.5663
 3353SOL     OW21517   3.876   1.473   6.768 -0.6414  0.2538 -0.5272
 3353SOL    HW121518   3.910   1.453   6.681  0.3209 -4.9009  1.0561
 3353SOL    HW221519   3.940   1.416   6.811 -1.3954 -0.1815  0.0078
 3354SOL     OW21520   2.419   0.276   2.343  0.0815  0.1029  0.3193
 3354SOL    HW121521   2.507   0.309   2.324  0.3556 -1.2338 -0.6827
 3354SOL    HW221522   2.391   0.263   2.253 -2.0439 -0.9189  1.1422
 3355SOL     OW21523   2.656   3.753   0.606 -0.6508  0.5512  0.3573
 3355SOL    HW121524   2.576   3.740   0.656 -1.2054 -1.4896 -1.0843
 3355SOL    HW221525   2.631   3.790   0.521  1.0412 -2.7198 -1.5706
 3356SOL     OW21526   3.979   1.572   7.844 -0.1238  0.2716  0.2015
 3356SOL    HW121527   4.067   1.601   7.820 -0.2294 -0.4866 -1.0845
 3356SOL    HW221528   3.989   1.478   7.855 -0.4973  0.4067  1.7474
 3357SOL     OW21529   0.455   3.289   0.123  0.1811  0.2180 -0.2488
 3357SOL    HW121530   0.467   3.195   0.133  0.6956  0.3969  0.7716
 3357SOL    HW221531   0.376   3.301   0.069 -0.4493 -1.7091  0.2314
 3358SOL     OW21532   4.079   2.196   4.235 -0.2858 -0.2489 -0.2081
 3358SOL    HW121533   4.119   2.273   4.194 -1.6265 -0.4844 -1.9365
 3358SOL    HW221534   4.095   2.210   4.329 -1.8257 -0.8133  0.1372
 3359SOL     OW21535   1.679   0.325  17.257  1.0604 -0.2016 -0.1549
 3359SOL    HW121536   1.665   0.241  17.214  0.0730  0.1868 -0.5860
 3359SOL    HW221537   1.772   0.335  17.236  1.1811 -0.4691  0.2592
 3360SOL     OW21538   1.894   3.735  12.286 -0.0912  0.6210 -0.2329
 3360SOL    HW121539   1.815   3.789  12.285 -0.0444  0.7260  3.3537
 3360SOL    HW221540   1.885   3.684  12.205 -0.9985 -0.4123  0.5323
 3361SOL     OW21541   0.620   3.618   1.196 -0.1577 -0.3808 -0.4889
 3361SOL    HW121542   0.586   3.529   1.198  3.1269 -1.5781  1.4906
 3361SOL    HW221543   0.710   3.598   1.172  0.1484 -0.1553  0.4677
 3362SOL     OW21544   0.709   1.708   5.082  0.2286  0.0518 -0.1258
 3362SOL    HW121545   0.663   1.640   5.032 -0.2538 -0.3553  0.8896
 3362SOL    HW221546   0.767   1.743   5.014 -1.0477  0.2569 -1.0941
 3363SOL     OW21547   3.762   3.728   4.705  0.0290  0.2221  0.2637
 3363SOL    HW121548   3.759   3.805   4.762  0.6581  0.1503  0.3954
 3363SOL    HW221549   3.667   3.718   4.699 -0.1442  1.9497  0.2081
 3364SOL     OW21550   2.340   1.698   3.171 -0.5119 -0.2639  0.5365
 3364SOL    HW121551   2.317   1.750   3.094  0.5784  0.3620  0.6334
 3364SOL    HW221552   2.365   1.616   3.129 -0.3165  0.6994 -1.2344
 3365SOL     OW21553   4.522   0.859   7.768  0.7497  0.6742 -0.1908
 3365SOL    HW121554   4.461   0.791   7.740  0.8534  0.0777  1.0521
 3365SOL    HW221555   4.480   0.891   7.847  0.7410 -1.1593  0.5310
 3366SOL     OW21556   3.686   4.411   6.938 -0.2830 -0.0927  0.0839
 3366SOL    HW121557   3.639   4.486   6.902 -0.7742  0.8090  2.6308
 3366SOL    HW221558   3.613   4.376   6.990  0.8006 -0.2210  1.5339
 3367SOL     OW21559   2.981   2.190   1.176 -0.6195  0.4501 -0.2911
 3367SOL    HW121560   2.987   2.188   1.080 -0.6105  0.2636 -0.2871
 3367SOL    HW221561   2.886   2.194   1.188  0.0928  2.2579  4.5729
 3368SOL     OW21562   3.574   3.179   9.543 -0.4237 -0.2478 -0.1948
 3368SOL    HW121563   3.664   3.155   9.562 -0.1464  1.6252  0.7509
 3368SOL    HW221564   3.578   3.274   9.533  0.8990 -0.4180 -1.1950
 3369SOL     OW21565   4.044   2.051  13.999  0.5098 -0.3863  0.0610
 3369SOL    HW121566   4.112   2.072  14.063 -0.1100  0.2782  0.4953
 3369SOL    HW221567   3.972   2.106  14.028 -1.1870 -2.2770 -0.5739
 3370SOL     OW21568   0.907   2.144   8.610  0.7829  0.1819 -0.1130
 3370SOL    HW121569   0.919   2.125   8.703  1.1494  0.5053 -0.0940
 3370SOL    HW221570   0.957   2.073   8.570 -2.1238 -2.1970  0.5548
 3371SOL     OW21571   2.981   2.912   6.820 -0.3252 -0.3820  0.4436
 3371SOL    HW121572   3.025   2.913   6.905  0.8001  2.2095 -0.1521
 3371SOL    HW221573   2.978   2.817   6.804  1.1947 -0.3731  0.0390
 3372SOL     OW21574   1.802   4.271   8.021 -0.2606 -0.2771  0.0115
 3372SOL    HW121575   1.873   4.322   7.983 -2.6217  1.9422 -1.4365
 3372SOL    HW221576   1.734   4.338   8.015 -0.8053 -0.9228 -0.8474
 3373SOL     OW21577   3.534   3.056  15.636 -0.0151  0.0494  0.2004
 3373SOL    HW121578   3.521   3.148  15.662 -0.8530  0.0186 -0.0974
 3373SOL    HW221579   3.580   3.029  15.715  2.3301 -0.8349 -1.4885
 3374SOL     OW21580   3.633   2.783  11.851 -0.1020  0.6924  0.2939
 3374SOL    HW121581   3.598   2.770  11.939 -0.6015  0.9468  0.1281
 3374SOL    HW221582   3.675   2.867  11.869  1.8276 -0.4672  1.2845
 3375SOL     OW21583   3.815   3.803   8.015 -0.2886  0.1357 -0.2389
 3375SOL    HW121584   3.758   3.880   8.020 -0.9556 -0.4380  1.0577
 3375SOL    HW221585   3.770   3.763   7.941 -1.0502  0.9002 -0.1960
 3376SOL     OW21586   0.041   3.098   2.547  0.0418 -0.2974  0.4700
 3376SOL    HW121587   0.078   3.104   2.635  0.6938 -2.0204  0.3118
 3376SOL    HW221588   4.689   3.162   2.551  0.9570  0.7701 -0.3358
 3377SOL     OW21589   4.444   4.320   7.492  0.1343 -0.0946  0.4414
 3377SOL    HW121590   4.439   4.279   7.578 -2.5917  0.1254  0.3864
 3377SOL    HW221591   4.537   4.318   7.469  1.0598 -0.9557  4.2183
 3378SOL     OW21592   0.238   4.175   2.569 -0.1341 -0.1877  0.3128
 3378SOL    HW121593   0.225   4.169   2.474  1.0504  0.0107  0.1406
 3378SOL    HW221594   0.171   4.108   2.582 -0.9157  1.2153  3.4341
 3379SOL     OW21595   2.737   3.688   5.935  0.5714 -0.2946  0.1487
 3379SOL    HW121596   2.651   3.652   5.915  0.0182 -0.0393  2.1042
 3379SOL    HW221597   2.717   3.781   5.943 -1.6412 -0.8883  1.3896
 3380SOL     OW21598   2.993   0.330   4.368 -0.2086 -0.0984  0.3506
 3380SOL    HW121599   2.936   0.377   4.308 -0.1442  1.8631  1.8050
 3380SOL    HW221600   3.075   0.372   4.342 -0.9875  1.4831  0.5161
 3381SOL     OW21601   3.763   0.151   7.858 -0.3402 -0.3847  0.4498
 3381SOL    HW121602   3.785   0.068   7.898  2.0074 -0.4245 -0.9561
 3381SOL    HW221603   3.678   0.125   7.822 -0.3900 -0.4471  0.6113
 3382SOL     OW21604   0.152   3.758   6.674  0.0139  0.4511  0.1008
 3382SOL    HW121605   0.166   3.731   6.583  0.3277  0.1185  0.2473
 3382SOL    HW221606   0.069   3.718   6.699 -0.6013  1.2631 -0.6713
 3383SOL     OW21607   3.906   0.951   9.210  0.1891  0.1405  0.3090
 3383SOL    HW121608   3.952   0.881   9.257 -0.2546  0.0616  0.6216
 3383SOL    HW221609   3.961   0.955   9.132  0.4233 -0.5935  0.4395
 3384SOL     OW21610   1.555   2.668   4.530 -0.2954  0.0581  0.0215
 3384SOL    HW121611   1.591   2.593   4.483 -0.2567 -1.7694  2.9748
 3384SOL    HW221612   1.472   2.688   4.487 -0.5800 -0.2306  0.4447
 3385SOL     OW21613   1.370   0.810   6.863  0.0555  0.0684  0.1744
 3385SOL    HW121614   1.438   0.876   6.850 -0.1191  0.0862 -0.6662
 3385SOL    HW221615   1.370   0.771   6.775 -0.6017  0.1914  0.1142
 3386SOL     OW21616   0.871   2.918   4.064 -0.1041  0.7187 -0.2967
 3386SOL    HW121617   0.800   2.981   4.054  0.2503  1.3088  0.8225
 3386SOL    HW221618   0.920   2.932   3.983  0.5254 -2.2343 -0.4385
 3387SOL     OW21619   1.397   3.241   5.476 -0.5187  0.1394 -0.3656
 3387SOL    HW121620   1.333   3.250   5.406 -0.5469 -1.2489 -0.5135
 3387SOL    HW221621   1.483   3.249   5.435 -0.7820 -1.8542 -1.2928
 3388SOL     OW21622   2.483   1.356  14.672  0.1809 -0.3394 -0.2790
 3388SOL    HW121623   2.427   1.418  14.625 -1.0265 -2.8655 -2.1841
 3388SOL    HW221624   2.567   1.356  14.626 -1.1581  1.1317 -2.7544
 3389SOL     OW21625   4.389   1.570  12.970  0.0793  0.4510 -0.3337
 3389SOL    HW121626   4.426   1.604  13.051 -0.8533 -3.3296  1.6556
 3389SOL    HW221627   4.308   1.619  12.961 -2.0058 -2.8612  0.4420
 3390SOL     OW21628   1.016   3.685   6.555 -0.1686 -0.6269  0.0196
 3390SOL    HW121629   1.109   3.681   6.577 -0.8872  1.7940  3.6072
 3390SOL    HW221630   0.981   3.623   6.620  1.7244  1.0271  2.5922
 3391SOL     OW21631   1.804   1.224   6.551  0.4385  0.1369 -0.0300
 3391SOL    HW121632   1.731   1.209   6.611  1.7199  0.6765  1.6262
 3391SOL    HW221633   1.754   1.257   6.475  0.1038 -0.2382  0.0285
 3392SOL     OW21634   0.060   4.079   7.936  0.2164 -0.0875  0.1727
 3392SOL    HW121635   0.044   4.024   7.860 -1.2670  1.3116 -0.5432
 3392SOL    HW221636   4.695   4.122   7.952  0.3104 -0.4359  1.5901
 3393SOL     OW21637   3.825   3.920   5.252  0.2824 -0.0426  0.3826
 3393SOL    HW121638   3.766   3.987   5.287 -1.9404 -1.0264 -1.4843
 3393SOL    HW221639   3.826   3.853   5.321  2.3342 -1.9880 -1.5514
 3394SOL     OW21640   2.716   2.203  15.706  0.1800  0.1533  0.0440
 3394SOL    HW121641   2.679   2.244  15.784 -0.5911 -0.9929  0.2852
 3394SOL    HW221642   2.789   2.259  15.683  0.2351 -0.1332 -0.4866
 3395SOL     OW21643   0.068   1.293   4.139  0.4427 -0.7871 -0.6522
 3395SOL    HW121644   0.054   1.388   4.136 -0.5035 -0.8988  0.4182
 3395SOL    HW221645   0.137   1.286   4.073 -0.4291 -0.8919 -1.5574
 3396SOL     OW21646   4.010   1.530  16.859  0.4254  0.2457  0.0594
 3396SOL    HW121647   3.964   1.454  16.895  0.3307  0.5008  0.4825
 3396SOL    HW221648   4.084   1.540  16.919 -0.0690 -0.2959  0.7606
 3397SOL     OW21649   4.553   0.442   4.799 -0.1938 -0.2691  0.0964
 3397SOL    HW121650   4.559   0.519   4.856 -0.3003  0.5732 -1.0135
 3397SOL    HW221651   4.541   0.377   4.868  1.0479 -0.8559 -0.2554
 3398SOL     OW21652   0.839   1.300   8.867 -0.0367 -0.3531 -0.0061
 3398SOL    HW121653   0.935   1.300   8.871 -0.0475  1.4544  0.0420
 3398SOL    HW221654   0.817   1.392   8.856 -0.8330 -0.2914  1.9833
 3399SOL     OW21655   2.154   2.703  14.749 -0.6128 -0.6080  0.1149
 3399SOL    HW121656   2.128   2.617  14.782  2.9149 -0.6272  2.8155
 3399SOL    HW221657   2.099   2.720  14.672  0.6566 -0.4926 -0.7651
 3400SOL     OW21658   0.664   4.556   9.302  0.0198  0.1658  0.0143
 3400SOL    HW121659   0.713   4.517   9.375  0.2290  0.6541  0.1350
 3400SOL    HW221660   0.707   4.514   9.228  1.7244  0.7655  0.6486
 3401SOL     OW21661   2.513   0.473   6.973 -0.5318  0.3159 -0.1069
 3401SOL    HW121662   2.548   0.400   6.921  0.4487  2.1794 -2.0817
 3401SOL    HW221663   2.469   0.425   7.043 -3.0432 -0.8481 -2.4652
 3402SOL     OW21664   2.909   1.384   8.038  0.3642 -0.1749 -0.3313
 3402SOL    HW121665   2.818   1.401   8.014  0.6926  2.4824  0.2922
 3402SOL    HW221666   2.904   1.379   8.134  1.2417  0.9169 -0.2181
 3403SOL     OW21667   2.563   0.522   5.514  0.2872  0.1573 -0.1342
 3403SOL    HW121668   2.492   0.532   5.577  0.3643  3.6507 -0.6358
 3403SOL    HW221669   2.605   0.442   5.547 -2.3123 -1.1550 -0.0190
 3404SOL     OW21670   0.458   1.495   4.633 -0.4927  0.3694 -0.0107
 3404SOL    HW121671   0.460   1.590   4.649  1.4643  0.3852 -0.2847
 3404SOL    HW221672   0.372   1.489   4.674  0.1293 -1.1324  1.0598
 3405SOL     OW21673   0.743   1.204   8.589 -0.1202  0.2661 -0.3397
 3405SOL    HW121674   0.675   1.140   8.612  1.1226 -1.9241 -2.7809
 3405SOL    HW221675   0.793   1.216   8.670 -0.5547 -1.4133  0.1885
 3406SOL     OW21676   4.459   3.493  15.513 -0.0497  0.0223 -0.0955
 3406SOL    HW121677   4.417   3.453  15.438  0.7462 -0.7263 -0.1479
 3406SOL    HW221678   4.457   3.586  15.489  1.6881  0.1568  0.2248
 3407SOL     OW21679   1.032   1.076   8.560 -0.5458 -0.1990 -0.2683
 3407SOL    HW121680   0.967   1.010   8.535 -1.2699 -0.4568  2.3479
 3407SOL    HW221681   1.113   1.045   8.520  0.5764  2.1487  0.1931
 3408SOL     OW21682   2.731   0.173   4.204 -0.1682 -0.2517 -0.1679
 3408SOL    HW121683   2.813   0.125   4.214 -1.6720 -3.0352 -1.4894
 3408SOL    HW221684   2.665   0.110   4.178  0.9657 -0.0561 -3.5314
 3409SOL     OW21685   0.282   3.872   3.530 -0.6631  0.1458  0.4645
 3409SOL    HW121686   0.330   3.955   3.525  0.0597 -0.1324  2.9603
 3409SOL    HW221687   0.217   3.894   3.463 -1.0313  1.2290  1.1548
 3410SOL     OW21688   2.180   2.463   8.139 -0.1915 -0.1368 -0.0295
 3410SOL    HW121689   2.094   2.492   8.109 -0.4830 -0.0527  0.9153
 3410SOL    HW221690   2.168   2.479   8.232  0.9293 -0.7902  0.2210
 3411SOL     OW21691   4.461   1.136   1.710  0.2821  0.0609 -0.1140
 3411SOL    HW121692   4.421   1.104   1.629  2.5175 -1.3284 -0.6642
 3411SOL    HW221693   4.420   1.068   1.765  2.6059 -2.4926 -1.5188
 3412SOL     OW21694   2.859   3.595   2.340 -0.0471 -0.5677 -0.6727
 3412SOL    HW121695   2.778   3.599   2.390 -0.8080 -0.1719 -1.9510
 3412SOL    HW221696   2.870   3.690   2.334  0.2687 -0.5954 -0.5730
 3413SOL     OW21697   1.672   1.446   6.968  0.0465  0.2215 -0.1502
 3413SOL    HW121698   1.652   1.538   6.950  1.4988  0.4963 -0.3106
 3413SOL    HW221699   1.620   1.433   7.047  0.6141 -1.1911 -0.0196
 3414SOL     OW21700   4.696   0.140  13.406 -0.3491 -0.1970  0.4815
 3414SOL    HW121701   4.673   0.222  13.363 -0.5898 -0.9186 -0.7655
 3414SOL    HW221702   4.658   0.080  13.342 -2.0525  0.8894  0.4645
 3415SOL     OW21703   2.163   2.997   8.456 -1.1832 -0.1108 -0.1798
 3415SOL    HW121704   2.139   3.037   8.373  0.3837 -0.1949 -0.6721
 3415SOL    HW221705   2.257   2.977   8.448 -0.9872  0.0090  1.6400
 3416SOL     OW21706   0.716   1.058   1.331  0.0583  0.1996  0.1089
 3416SOL    HW121707   0.628   1.024   1.346 -0.5916  1.7730 -0.2074
 3416SOL    HW221708   0.714   1.093   1.242  3.0419 -0.2650 -0.1563
 3417SOL     OW21709   0.757   2.881   2.842  0.0636 -0.4721  0.5463
 3417SOL    HW121710   0.787   2.914   2.757 -1.5806  0.2471  0.2448
 3417SOL    HW221711   0.686   2.822   2.818 -0.1936  0.8306 -1.8702
 3418SOL     OW21712   0.347   2.934   3.097 -0.2372 -0.4001  0.3260
 3418SOL    HW121713   0.419   2.901   3.043 -0.9521 -1.4912  0.0474
 3418SOL    HW221714   0.375   2.915   3.187  1.6845  1.6114  0.1637
 3419SOL     OW21715   3.052   3.632  10.830  0.4264  0.3222  0.1518
 3419SOL    HW121716   3.052   3.619  10.924  1.2130 -1.5765 -0.0984
 3419SOL    HW221717   2.961   3.601  10.821  1.1300 -1.5892 -0.4861
 3420SOL     OW21718   0.641   0.964   3.350 -0.1193  0.2594  0.3224
 3420SOL    HW121719   0.718   1.013   3.322 -1.7189 -0.1416 -4.7776
 3420SOL    HW221720   0.566   1.006   3.308  0.7905  0.2264 -1.3401
 3421SOL     OW21721   3.341   1.781   9.125 -0.3530  0.0991  0.4534
 3421SOL    HW121722   3.401   1.761   9.196 -0.8577 -0.5100  0.7088
 3421SOL    HW221723   3.390   1.765   9.044 -1.8261  0.9513 -0.6160
 3422SOL     OW21724   3.276   3.036   9.950 -0.1854 -0.3034 -0.4253
 3422SOL    HW121725   3.190   3.050   9.909 -0.4827 -1.5796 -0.2289
 3422SOL    HW221726   3.331   3.025   9.872 -0.2264 -0.4958 -0.4278
 3423SOL     OW21727   1.697   4.248   8.321 -0.2912  0.0884 -0.4567
 3423SOL    HW121728   1.668   4.157   8.313  1.0858 -0.3348 -0.5309
 3423SOL    HW221729   1.750   4.254   8.242 -2.6399  1.4861 -1.9268
 3424SOL     OW21730   2.088   2.485   2.055  0.0742 -0.3025  0.2080
 3424SOL    HW121731   2.089   2.407   2.111  1.2755 -0.0953  0.4789
 3424SOL    HW221732   2.175   2.469   2.017  0.4215 -0.9161  1.2752
 3425SOL     OW21733   4.134   3.250  15.429  0.3738  0.1477 -0.0849
 3425SOL    HW121734   4.076   3.248  15.352 -0.5877  0.9455  0.6120
 3425SOL    HW221735   4.094   3.323  15.477  2.5704 -0.6943  2.9824
 3426SOL     OW21736   1.068   1.166   6.293  0.0711  0.3435 -0.0995
 3426SOL    HW121737   1.114   1.095   6.247  0.8803  0.2521  0.8338
 3426SOL    HW221738   1.077   1.240   6.234 -0.3211  1.2949  1.0467
 3427SOL     OW21739   0.232   2.635  15.431 -0.2086 -0.6474 -0.0088
 3427SOL    HW121740   0.238   2.655  15.525  1.1801 -1.1539  0.0072
 3427SOL    HW221741   0.246   2.719  15.388  0.3939 -0.4353  0.5899
 3428SOL     OW21742   2.306   3.519   3.020  0.0382 -0.0379  0.0449
 3428SOL    HW121743   2.368   3.513   3.093 -1.8464  1.4589  1.7853
 3428SOL    HW221744   2.224   3.513   3.070 -1.8782  0.2137 -3.0524
 3429SOL     OW21745   2.222   2.438  11.359 -0.1437  1.0348  0.1561
 3429SOL    HW121746   2.225   2.345  11.341 -1.5879  0.1422  4.4413
 3429SOL    HW221747   2.148   2.433  11.420 -0.3758  0.0618 -0.2137
 3430SOL     OW21748   3.776   2.837   3.082 -0.2723 -0.5964 -0.3286
 3430SOL    HW121749   3.715   2.784   3.133 -0.7698 -0.1010 -0.4115
 3430SOL    HW221750   3.789   2.773   3.011  0.8832  0.2376 -0.8508
 3431SOL     OW21751   3.024   1.020   9.092  0.1950  0.5683  0.2274
 3431SOL    HW121752   2.936   1.056   9.107 -0.0703  1.5854 -3.7211
 3431SOL    HW221753   3.071   1.073   9.156  1.6226  0.2581 -0.5598
 3432SOL     OW21754   3.617   4.434  15.703 -0.3578  0.0481  0.3978
 3432SOL    HW121755   3.637   4.437  15.796  0.5769 -1.3334  0.2455
 3432SOL    HW221756   3.524   4.457  15.704 -0.0795  1.1286  0.5708
 3433SOL     OW21757   0.535   2.842   4.002  0.2384 -0.2996 -0.2619
 3433SOL    HW121758   0.448   2.811   4.026  0.9220 -0.6698  1.7606
 3433SOL    HW221759   0.581   2.760   4.019  0.0693  0.0324  1.7673
 3434SOL     OW21760   3.256   0.366   6.440 -0.4437  0.0486  0.9979
 3434SOL    HW121761   3.177   0.400   6.481  0.6292  1.4065  1.9614
 3434SOL    HW221762   3.221   0.379   6.352  1.7572 -0.7789 -0.0061
 3435SOL     OW21763   2.364   4.021   7.527 -0.0527 -0.1539 -0.2109
 3435SOL    HW121764   2.434   4.069   7.483 -1.8576  1.0611 -1.7350
 3435SOL    HW221765   2.405   4.006   7.613 -0.8166  0.7637  0.3109
 3436SOL     OW21766   0.929   1.997   3.252  0.0872  0.1319  0.0284
 3436SOL    HW121767   0.975   1.974   3.172  1.8107 -1.5731  1.5126
 3436SOL    HW221768   0.977   2.076   3.276  0.3499  0.3072 -1.0655
 3437SOL     OW21769   2.156   0.326   3.895  0.4465 -0.1114  0.5933
 3437SOL    HW121770   2.240   0.342   3.851  1.1543 -1.7497  1.3581
 3437SOL    HW221771   2.116   0.280   3.822 -2.1032 -1.4018  2.8074
 3438SOL     OW21772   1.082   4.256   7.639  0.4543 -0.4006  0.1046
 3438SOL    HW121773   1.125   4.340   7.655 -0.2003  0.1566 -1.0326
 3438SOL    HW221774   1.032   4.296   7.568  1.9161  0.9687 -0.1363
 3439SOL     OW21775   3.513   1.184   8.037 -0.2099  0.6010  0.1362
 3439SOL    HW121776   3.438   1.141   7.997  1.0775 -0.7832 -0.7561
 3439SOL    HW221777   3.562   1.116   8.083 -2.4304 -0.1390  1.4227
 3440SOL     OW21778   4.364   0.691   7.223 -0.0140 -0.0329 -0.4007
 3440SOL    HW121779   4.354   0.621   7.159 -0.8252 -0.8847  0.6546
 3440SOL    HW221780   4.273   0.706   7.251  0.5007 -0.5279  1.5250
 3441SOL     OW21781   1.165   1.614   6.502  0.1515 -0.2171 -0.1016
 3441SOL    HW121782   1.189   1.603   6.410  0.2091 -2.2020  0.1585
 3441SOL    HW221783   1.079   1.573   6.508 -1.3603  2.5547 -2.9077
 3442SOL     OW21784   3.818   3.869  10.089 -0.1944 -0.0902  0.0279
 3442SOL    HW121785   3.863   3.908  10.014  1.1899 -0.0429  0.8760
 3442SOL    HW221786   3.858   3.921  10.159 -0.7662 -0.8753  0.9484
 3443SOL     OW21787   0.692   2.517   6.186 -0.8338 -0.0950 -0.0038
 3443SOL    HW121788   0.691   2.446   6.251 -0.9103 -0.6051 -0.5658
 3443SOL    HW221789   0.600   2.526   6.161 -0.9845  2.9541  1.6281
 3444SOL     OW21790   4.689   3.102   5.854 -0.4238 -1.0240  0.2377
 3444SOL    HW121791   4.649   3.077   5.770 -1.4933  0.8987  0.1781
 3444SOL    HW221792   4.621   3.098   5.922 -1.4362  2.5696 -0.5503
 3445SOL     OW21793   2.738   1.457   4.925  0.5529  0.1314  0.0236
 3445SOL    HW121794   2.698   1.493   5.005  0.6928  1.0448 -0.3234
 3445SOL    HW221795   2.792   1.530   4.896 -0.8265  0.4747 -1.6797
 3446SOL     OW21796   0.640   0.501   2.763  0.1033  0.1980 -0.2912
 3446SOL    HW121797   0.652   0.413   2.801 -1.1228  0.3790  0.5274
 3446SOL    HW221798   0.605   0.550   2.838 -0.0492 -0.3952  0.0272
 3447SOL     OW21799   3.336   1.823   7.888 -1.0022 -0.0531  0.5354
 3447SOL    HW121800   3.261   1.774   7.919 -0.2038 -0.6104  1.5731
 3447SOL    HW221801   3.331   1.824   7.792  0.1873  1.4315  0.4750
 3448SOL     OW21802   2.500   0.866   4.310  0.1829 -0.4514  0.6468
 3448SOL    HW121803   2.568   0.803   4.286 -1.0604 -1.6650  0.2816
 3448SOL    HW221804   2.544   0.935   4.360 -1.7931  1.1182  0.2116
 3449SOL     OW21805   0.964   0.213   7.111  0.0647 -0.6294  0.4783
 3449SOL    HW121806   0.973   0.280   7.180 -0.1919  0.8367 -0.9185
 3449SOL    HW221807   1.054   0.215   7.079 -1.6854 -2.1416 -4.4419
 3450SOL     OW21808   3.340   1.213   1.411 -0.0810 -0.4519  0.0239
 3450SOL    HW121809   3.273   1.185   1.349 -0.7106 -1.2232  1.0425
 3450SOL    HW221810   3.412   1.170   1.367  0.6163 -0.3397  1.0457
 3451SOL     OW21811   1.501   0.411   7.661 -0.2490  0.6372 -0.3230
 3451SOL    HW121812   1.481   0.421   7.754  1.0702  0.0179  0.0146
 3451SOL    HW221813   1.576   0.355   7.678  0.7462  1.1683 -3.0268
 3452SOL     OW21814   4.170   0.870   0.560  0.0762  0.7393  0.8277
 3452SOL    HW121815   4.130   0.944   0.514  0.0984  0.2548  0.0289
 3452SOL    HW221816   4.222   0.918   0.625  0.5195  1.1520  0.1679
 3453SOL     OW21817   0.884   2.992  12.918  0.2911  0.0941  0.2322
 3453SOL    HW121818   0.942   3.067  12.912  0.2028  0.0562 -0.9813
 3453SOL    HW221819   0.920   2.963  13.002 -1.0110  0.2831  0.8684
 3454SOL     OW21820   1.133   0.737   6.984 -0.0007  0.2901  0.1990
 3454SOL    HW121821   1.169   0.686   7.057  0.7937 -0.1319 -0.4798
 3454SOL    HW221822   1.210   0.769   6.936  3.0650 -1.3603  3.9893
 3455SOL     OW21823   3.258   3.241   2.254 -0.4115 -0.3800 -0.2528
 3455SOL    HW121824   3.215   3.178   2.196  0.0704  0.1598 -1.1937
 3455SOL    HW221825   3.222   3.324   2.223  0.4736 -0.1186 -0.5683
 3456SOL     OW21826   0.913   3.955  14.542 -0.3150 -0.1328 -0.6310
 3456SOL    HW121827   0.976   4.015  14.581 -0.6681 -0.0025 -0.2504
 3456SOL    HW221828   0.836   3.973  14.597 -0.6696  1.8451 -1.7945
 3457SOL     OW21829   1.846   3.622   5.906 -0.1384 -0.4360 -0.5596
 3457SOL    HW121830   1.914   3.569   5.864 -0.1359 -0.7235 -0.1873
 3457SOL    HW221831   1.774   3.560   5.920 -2.0406  1.4217 -2.1254
 3458SOL     OW21832   3.186   3.338   2.968 -0.5668 -0.7181 -0.3969
 3458SOL    HW121833   3.269   3.291   2.973  0.7956  1.6115 -1.3858
 3458SOL    HW221834   3.146   3.297   2.891 -0.6089 -0.0653 -0.7255
 3459SOL     OW21835   1.270   4.466   1.675 -0.4202 -0.3618  0.1010
 3459SOL    HW121836   1.225   4.480   1.759  0.1150 -1.3522  0.5602
 3459SOL    HW221837   1.304   4.555   1.662  1.9861 -1.2867 -0.0108
 3460SOL     OW21838   0.499   2.490   5.015  0.4872  0.0132  0.0895
 3460SOL    HW121839   0.563   2.520   5.080  1.2743 -1.3460 -0.0422
 3460SOL    HW221840   0.539   2.405   4.996 -2.3697 -1.2864 -0.1535
 3461SOL     OW21841   3.337   0.919   5.855  0.4490 -0.1848  0.4075
 3461SOL    HW121842   3.393   0.996   5.867  2.8003 -1.8087 -0.0567
 3461SOL    HW221843   3.368   0.904   5.765  1.6298  0.1795  0.7552
 3462SOL     OW21844   0.322   0.396   3.394  0.0582  0.2534 -0.0541
 3462SOL    HW121845   0.327   0.355   3.481 -0.7522  1.0681  0.3755
 3462SOL    HW221846   0.236   0.436   3.383  0.9839  2.2916  0.0834
 3463SOL     OW21847   3.764   3.591   1.515  0.0549 -0.2628  0.2959
 3463SOL    HW121848   3.756   3.512   1.568 -1.2278 -0.4009 -0.1053
 3463SOL    HW221849   3.731   3.662   1.571  1.3068 -0.1433  0.8793
 3464SOL     OW21850   2.817   1.184  16.468  0.0168  0.2520  0.1412
 3464SOL    HW121851   2.828   1.169  16.562  0.0333 -0.7135 -0.0141
 3464SOL    HW221852   2.723   1.168  16.461  0.0044  0.7844 -1.0031
 3465SOL     OW21853   4.171   1.792   8.857  0.2023 -0.5746  0.6293
 3465SOL    HW121854   4.121   1.771   8.935 -1.3508 -0.7284 -0.4084
 3465SOL    HW221855   4.172   1.887   8.845  3.4732 -0.6475  0.1572
 3466SOL     OW21856   0.579   1.965   5.104 -0.3091 -0.2647 -0.1247
 3466SOL    HW121857   0.617   1.878   5.095 -0.0802  0.0522 -2.0965
 3466SOL    HW221858   0.540   1.955   5.191  0.7526 -0.8462  0.2764
 3467SOL     OW21859   0.075   0.069   6.307 -0.0621  0.2946  0.1624
 3467SOL    HW121860   0.118   4.704   6.294 -0.9122 -0.2636  0.9296
 3467SOL    HW221861   4.706   0.038   6.288 -0.6917  2.1298  0.0820
 3468SOL     OW21862   4.087   4.000  11.821 -0.7180  0.6522 -0.0030
 3468SOL    HW121863   4.165   4.033  11.865 -0.4281 -0.3317  0.2218
 3468SOL    HW221864   4.101   4.032  11.731  0.8805 -0.2578 -0.0671
 3469SOL     OW21865   4.620   2.284   0.102 -0.4198 -0.6753 -0.7767
 3469SOL    HW121866   4.592   2.365   0.059  0.2334 -0.3421 -0.5816
 3469SOL    HW221867   4.662   2.242   0.026  0.0612  0.9607 -1.4212
 3470SOL     OW21868   2.681   3.831   3.785 -0.4748 -0.2859 -0.6606
 3470SOL    HW121869   2.678   3.855   3.877  1.2641 -1.4320 -0.3242
 3470SOL    HW221870   2.743   3.759   3.779  0.5931  0.6793 -1.1406
 3471SOL     OW21871   3.477   3.432   4.544  0.1816 -0.0168  0.3594
 3471SOL    HW121872   3.571   3.445   4.531  0.2344  0.4837  1.2562
 3471SOL    HW221873   3.474   3.339   4.568 -2.4073 -0.8657 -3.3175
 3472SOL     OW21874   4.126   4.067   2.553  0.5314  0.3006  0.9140
 3472SOL    HW121875   4.059   4.029   2.611 -2.4339  2.8614 -0.8051
 3472SOL    HW221876   4.210   4.063   2.598  0.3467 -1.8909  1.0409
 3473SOL     OW21877   3.234   0.859   4.831  0.5532 -0.4120  0.0282
 3473SOL    HW121878   3.328   0.848   4.817  0.6036 -1.3541  1.0888
 3473SOL    HW221879   3.194   0.805   4.763 -0.2018  1.9097 -1.3645
 3474SOL     OW21880   2.280   2.938   7.267 -0.1928 -0.4595 -0.1638
 3474SOL    HW121881   2.309   2.972   7.352 -0.5818 -0.2810 -0.0980
 3474SOL    HW221882   2.245   2.853   7.293  0.1553 -0.2460  1.0204
 3475SOL     OW21883   3.240   2.958   8.186  0.1527 -0.2494 -0.4875
 3475SOL    HW121884   3.188   2.931   8.110  0.2720 -1.1069 -0.2729
 3475SOL    HW221885   3.318   2.995   8.147 -1.1154  0.7014 -2.1196
 3476SOL     OW21886   3.994   0.607   6.131 -0.3936 -0.2399  0.4057
 3476SOL    HW121887   4.072   0.553   6.144 -0.7835 -0.7701  0.5557
 3476SOL    HW221888   3.929   0.545   6.164  0.0208  0.2601  2.1929
 3477SOL     OW21889   3.505   0.644   4.553 -0.3587  0.6533  0.1986
 3477SOL    HW121890   3.451   0.677   4.481 -0.7184  1.2050  0.7184
 3477SOL    HW221891   3.526   0.723   4.603  0.5053 -0.0458  0.9569
 3478SOL     OW21892   4.266   2.362   4.130  0.1511  0.6453  0.5664
 3478SOL    HW121893   4.328   2.419   4.084  0.5186  0.2377  0.5554
 3478SOL    HW221894   4.205   2.431   4.154  0.6811  1.5051 -0.5432
 3479SOL     OW21895   2.145   3.142   9.611 -0.6911  0.1140  0.1383
 3479SOL    HW121896   2.204   3.186   9.672 -0.1816 -2.2798  1.3722
 3479SOL    HW221897   2.075   3.135   9.675 -1.0062 -0.6011 -0.2814
 3480SOL     OW21898   4.607   2.041   4.511  0.0907  0.4623 -0.0478
 3480SOL    HW121899   4.691   2.055   4.469  0.0481 -2.8434 -1.2346
 3480SOL    HW221900   4.606   1.947   4.494  0.7859 -0.1836  3.4818
 3481SOL     OW21901   3.627   3.562   7.454  0.2900 -0.5934 -0.2177
 3481SOL    HW121902   3.666   3.509   7.384 -0.9112  1.4473 -2.4378
 3481SOL    HW221903   3.630   3.653   7.425  0.7931 -0.4507  0.2891
 3482SOL     OW21904   3.331   2.581   2.321 -0.7589 -0.1507  0.4648
 3482SOL    HW121905   3.405   2.604   2.265  0.4933 -2.3108  1.1879
 3482SOL    HW221906   3.301   2.497   2.285 -1.1144  0.2250 -0.0962
 3483SOL     OW21907   0.492   0.721   4.854 -0.1659 -0.0338 -0.0373
 3483SOL    HW121908   0.532   0.677   4.779 -0.6215  1.8848 -1.3902
 3483SOL    HW221909   0.486   0.812   4.825  2.3079 -0.4757 -1.9211
 3484SOL     OW21910   4.084   1.676   6.964  0.4062 -0.6751 -0.5291
 3484SOL    HW121911   4.081   1.754   7.019  0.7966 -0.2226 -1.1436
 3484SOL    HW221912   4.093   1.606   7.028  0.5433  0.7302  0.9883
 3485SOL     OW21913   1.488   3.916  10.996 -0.5573  0.1505 -0.5148
 3485SOL    HW121914   1.426   3.952  10.932 -0.0676 -0.3224 -1.2554
 3485SOL    HW221915   1.562   3.971  10.968  0.3823 -1.1205 -0.5326
 3486SOL     OW21916   2.830   2.163   6.565  0.1209  0.5736  0.3896
 3486SOL    HW121917   2.845   2.191   6.656  0.0486 -1.3051  0.9851
 3486SOL    HW221918   2.902   2.209   6.522  1.3040  0.0665  1.8503
 3487SOL     OW21919   1.304   1.851   2.712  0.2791  0.0839 -0.1506
 3487SOL    HW121920   1.339   1.762   2.716 -1.2908 -0.4782  1.4155
 3487SOL    HW221921   1.376   1.888   2.661 -2.4099  1.9463 -2.5907
 3488SOL     OW21922   1.999   3.806   6.340  0.0425 -0.5869 -0.0850
 3488SOL    HW121923   2.056   3.817   6.416 -0.4820  2.0738 -0.0625
 3488SOL    HW221924   2.014   3.896   6.311  0.2361  0.7105  4.0992
 3489SOL     OW21925   1.281   3.234   5.230  0.7174 -0.0219  0.0294
 3489SOL    HW121926   1.362   3.199   5.191 -0.7400 -1.1341 -2.0166
 3489SOL    HW221927   1.283   3.313   5.176 -0.3506  0.5461  0.8347
 3490SOL     OW21928   2.216   4.085   0.988 -0.1986 -0.1353 -0.0612
 3490SOL    HW121929   2.241   4.148   0.921  0.6412  0.8671  1.2134
 3490SOL    HW221930   2.217   4.001   0.942  0.4345  0.6853 -1.5491
 3491SOL     OW21931   0.312   4.402  12.129  0.3175  0.9149 -0.6643
 3491SOL    HW121932   0.325   4.398  12.034  1.2779 -0.6031 -0.4780
 3491SOL    HW221933   0.338   4.315  12.161 -0.0825  2.2099  3.1744
 3492SOL     OW21934   0.931   3.402   8.322 -0.2981  0.0600 -0.3928
 3492SOL    HW121935   0.955   3.465   8.390  0.9698 -0.0899 -0.6914
 3492SOL    HW221936   0.859   3.450   8.281  1.4592  0.4601 -3.0573
 3493SOL     OW21937   4.686   3.602  12.654  0.0524 -0.1837  0.7056
 3493SOL    HW121938   4.674   3.534  12.720 -0.4535 -0.8223 -0.0457
 3493SOL    HW221939   4.626   3.666  12.691 -0.5902 -1.1013  1.2401
 3494SOL     OW21940   1.904   2.181  11.404  0.5161  0.1570  0.3684
 3494SOL    HW121941   1.814   2.154  11.385  0.2599  1.8787 -0.7760
 3494SOL    HW221942   1.938   2.162  11.317 -0.8578 -2.6564  0.4545
 3495SOL     OW21943   4.378   0.982   4.101  1.1476 -0.5501 -0.0526
 3495SOL    HW121944   4.284   0.963   4.105  1.6862 -3.2955 -0.1208
 3495SOL    HW221945   4.380   1.062   4.152 -2.7924  0.6286 -1.7711
 3496SOL     OW21946   2.855   1.799   0.444  0.2636 -0.2990  0.8373
 3496SOL    HW121947   2.857   1.760   0.531  1.0448 -1.5522  0.2505
 3496SOL    HW221948   2.768   1.768   0.416  0.7944 -0.3585 -0.7348
 3497SOL     OW21949   1.085   3.932   6.445  0.0338  0.0448 -0.4195
 3497SOL    HW121950   1.066   3.979   6.526  0.6066 -3.4456  1.7649
 3497SOL    HW221951   1.064   3.843   6.477 -1.4870  0.7945  0.7089
 3498SOL     OW21952   0.939   3.552  10.790 -0.0602  0.5906 -0.5621
 3498SOL    HW121953   0.923   3.489  10.860  0.9242  0.3541 -0.5484
 3498SOL    HW221954   0.958   3.627  10.845 -0.1442  1.6062 -1.9030
 3499SOL     OW21955   1.294   1.161   1.845  0.3056  0.2431  0.3142
 3499SOL    HW121956   1.323   1.134   1.758 -0.7508  0.1139 -0.0055
 3499SOL    HW221957   1.281   1.081   1.897 -2.3527  0.3596 -0.1965
 3500SOL     OW21958   3.059   0.811   7.576 -0.0229  0.4414  0.1889
 3500SOL    HW121959   3.092   0.749   7.641 -0.8698 -0.2481 -0.0356
 3500SOL    HW221960   3.066   0.889   7.631 -0.0218  0.0246  0.7752
 3501SOL     OW21961   1.830   3.507   2.669  0.1923 -0.0877 -0.3032
 3501SOL    HW121962   1.917   3.481   2.638  0.1429  1.6487 -1.8931
 3501SOL    HW221963   1.778   3.448   2.615  1.5681 -2.0846  0.5408
 3502SOL     OW21964   2.418   0.548  11.376  0.8382 -0.6116  0.1319
 3502SOL    HW121965   2.468   0.612  11.426  0.3589 -1.4468  1.6810
 3502SOL    HW221966   2.482   0.478  11.367 -0.6927 -2.3134  2.3023
 3503SOL     OW21967   1.830   0.921   9.420 -0.1541  0.3946 -0.0583
 3503SOL    HW121968   1.879   0.865   9.480  2.6512  1.4630 -1.3223
 3503SOL    HW221969   1.800   0.989   9.481 -2.8621  1.0578 -2.1691
 3504SOL     OW21970   3.487   2.366   7.719  0.2191  0.1403  0.4017
 3504SOL    HW121971   3.577   2.347   7.694 -0.2327 -0.7404 -0.5952
 3504SOL    HW221972   3.498   2.461   7.724  1.0032 -0.0133  1.4724
 3505SOL     OW21973   2.148   1.422   5.677 -0.0768  0.1083  0.4361
 3505SOL    HW121974   2.112   1.350   5.625  0.7977 -2.2530  3.1528
 3505SOL    HW221975   2.199   1.469   5.611 -0.8771  0.9516  0.4186
 3506SOL     OW21976   2.655   2.941   7.751  1.0748  0.0820 -0.2933
 3506SOL    HW121977   2.589   2.915   7.687  1.1641 -0.8900 -0.0002
 3506SOL    HW221978   2.633   2.888   7.828  2.3297  1.9399  1.3635
 3507SOL     OW21979   1.328   3.569   0.831 -0.2081 -0.2891  0.8538
 3507SOL    HW121980   1.297   3.523   0.910 -0.4801 -2.2619 -0.3941
 3507SOL    HW221981   1.422   3.554   0.841 -0.1920 -1.4162 -0.9165
 3508SOL     OW21982   3.977   1.115  13.671  0.0052  0.0146 -0.0452
 3508SOL    HW121983   3.950   1.026  13.694  2.7220 -1.2042 -1.5344
 3508SOL    HW221984   3.913   1.130  13.602  0.9399 -0.1228 -0.9352
 3509SOL     OW21985   0.008   3.472  14.173  0.2144  0.3149 -0.4279
 3509SOL    HW121986   4.686   3.496  14.090  0.5898  1.0493 -0.4102
 3509SOL    HW221987   0.049   3.386  14.169  0.8366  0.6794 -1.9608
 3510SOL     OW21988   2.048   3.253   3.462  0.4419  0.6371 -0.1364
 3510SOL    HW121989   2.084   3.178   3.414  1.6211 -0.0715  1.8352
 3510SOL    HW221990   2.124   3.302   3.494  1.4527 -0.4409 -0.8747
 3511SOL     OW21991   0.136   2.332  14.540 -0.2256  0.0954  0.0238
 3511SOL    HW121992   0.177   2.346  14.454 -0.0671  0.7371  0.2037
 3511SOL    HW221993   0.064   2.272  14.521 -0.3309  0.1423  0.2650
 3512SOL     OW21994   4.147   4.671   5.932  0.5089  0.5464  0.1730
 3512SOL    HW121995   4.109   4.585   5.953 -1.9456  1.7016  0.5392
 3512SOL    HW221996   4.062   4.706   5.905  0.5454 -0.5382 -1.3614
 3513SOL     OW21997   4.243   3.613  11.893 -0.1112 -0.1063 -0.0886
 3513SOL    HW121998   4.282   3.679  11.949 -0.4481 -0.9801  1.1975
 3513SOL    HW221999   4.154   3.648  11.897  1.3864  3.3217  2.7799
 3514SOL     OW22000   1.917   4.090  12.611 -0.0385 -0.1959 -0.3991
 3514SOL    HW122001   1.889   4.074  12.521  0.1752 -1.5640 -0.2171
 3514SOL    HW222002   1.841   4.055  12.658 -0.0228  0.9035  0.4544
 3515SOL     OW22003   2.672   2.474   3.486  0.0626 -0.0291  0.6636
 3515SOL    HW122004   2.660   2.556   3.535 -0.9838 -0.3251  0.9180
 3515SOL    HW222005   2.582   2.457   3.457  0.2997  0.1618 -0.1773
 3516SOL     OW22006   0.106   2.346   5.105 -0.1381 -0.4848 -0.1734
 3516SOL    HW122007   0.177   2.285   5.126  0.6766  0.2173 -0.8609
 3516SOL    HW222008   0.109   2.338   5.009 -0.6116 -1.2680 -0.1224
 3517SOL     OW22009   2.198   1.300   7.678 -0.5204  0.2460  0.4370
 3517SOL    HW122010   2.173   1.392   7.667  0.7389  0.3671 -1.3592
 3517SOL    HW222011   2.127   1.256   7.631 -0.2613  0.6327 -0.3174
 3518SOL     OW22012   4.569   0.117   3.842  0.2523  0.2099  0.3161
 3518SOL    HW122013   4.628   0.170   3.789  2.4223  0.8482  3.3222
 3518SOL    HW222014   4.625   0.048   3.878 -1.3077 -1.1349  0.1611
 3519SOL     OW22015   4.345   2.469  15.151  0.1815 -0.1354  0.3661
 3519SOL    HW122016   4.255   2.457  15.122 -0.0103  0.2222  0.8022
 3519SOL    HW222017   4.334   2.545  15.208 -0.6418  0.0226 -0.0128
 3520SOL     OW22018   2.366   2.190  12.619  0.2216  0.2519 -0.0808
 3520SOL    HW122019   2.375   2.096  12.637  2.6859  0.6758  0.7612
 3520SOL    HW222020   2.339   2.220  12.705  0.5375  0.9822 -0.2389
 3521SOL     OW22021   0.101   4.555  12.239 -0.2215  0.6596 -0.1813
 3521SOL    HW122022   0.169   4.494  12.210  1.6748  0.8899  3.7576
 3521SOL    HW222023   0.145   4.621  12.293  2.5657 -1.3493  0.0079
 3522SOL     OW22024   1.328   3.808   7.821  0.2994  0.5329 -0.1884
 3522SOL    HW122025   1.265   3.763   7.878  0.0426 -1.0520 -1.7553
 3522SOL    HW222026   1.290   3.799   7.734 -1.9818  5.3289  0.2835
 3523SOL     OW22027   1.931   0.438  14.053 -0.6702 -0.0426 -0.5536
 3523SOL    HW122028   1.839   0.449  14.027 -0.5378 -0.0763 -1.0346
 3523SOL    HW222029   1.921   0.425  14.147 -0.1695 -2.2794 -0.8044
 3524SOL     OW22030   0.903   2.021   8.848 -0.1691 -0.4206  0.3112
 3524SOL    HW122031   0.840   1.954   8.871 -0.3024 -0.1930  0.6210
 3524SOL    HW222032   0.879   2.086   8.914  0.6536  2.5505 -2.3149
 3525SOL     OW22033   2.285   3.131   2.013 -0.6326 -0.4183 -0.0699
 3525SOL    HW122034   2.195   3.163   2.023 -1.0325 -1.6365  0.2536
 3525SOL    HW222035   2.306   3.171   1.929 -2.9320 -3.0327 -1.9031
 3526SOL     OW22036   0.571   4.231  13.231 -0.0287 -0.1835 -0.4232
 3526SOL    HW122037   0.514   4.266  13.300  0.4959 -1.1160  0.4913
 3526SOL    HW222038   0.532   4.146  13.210  0.1150 -0.4253  0.2674
 3527SOL     OW22039   1.892   2.470   4.109 -0.1807 -0.8002 -0.0941
 3527SOL    HW122040   1.984   2.490   4.091 -0.8756  0.9975 -1.6655
 3527SOL    HW222041   1.856   2.494   4.023 -2.4116  0.3475  1.1640
 3528SOL     OW22042   3.867   4.569  11.502 -0.3801 -0.3560 -0.2397
 3528SOL    HW122043   3.907   4.519  11.573  1.5304  0.1299 -0.9575
 3528SOL    HW222044   3.820   4.633  11.555  1.2773  0.2724  0.4815
 3529SOL     OW22045   2.679   0.846   3.590 -0.1110 -0.0333  0.2226
 3529SOL    HW122046   2.594   0.885   3.571  0.6994  1.6862  0.0982
 3529SOL    HW222047   2.736   0.924   3.595 -0.2565  0.1528 -0.9887
 3530SOL     OW22048   2.134   0.882   7.175 -0.1396 -0.5332  0.4168
 3530SOL    HW122049   2.227   0.864   7.192  0.0464  0.5592  0.5204
 3530SOL    HW222050   2.087   0.803   7.201  2.1380 -1.2580  2.3125
 3531SOL     OW22051   1.496   3.732   8.183  0.5084 -0.4238  0.7103
 3531SOL    HW122052   1.548   3.674   8.128  1.0978 -0.2879  1.1328
 3531SOL    HW222053   1.413   3.685   8.196 -0.6787  1.3049 -0.5066
 3532SOL     OW22054   3.031   1.251  15.021 -0.2706 -0.4816 -0.1656
 3532SOL    HW122055   3.110   1.289  15.058 -1.0201  1.7033 -0.7851
 3532SOL    HW222056   2.973   1.260  15.096 -1.8538 -0.9642 -1.3172
 3533SOL     OW22057   3.623   3.312   9.863  0.8978 -0.7265  0.0267
 3533SOL    HW122058   3.583   3.396   9.883 -1.1888 -2.0966  1.6728
 3533SOL    HW222059   3.603   3.310   9.769  1.7063 -0.8340 -0.1467
 3534SOL     OW22060   0.349   3.804   8.636 -0.2246  0.3183 -0.5485
 3534SOL    HW122061   0.301   3.825   8.556  0.4777  0.9573 -0.7998
 3534SOL    HW222062   0.282   3.749   8.677  0.4053  1.7128  2.3560
 3535SOL     OW22063   1.789   1.257  13.146  0.6029  0.0306  0.2432
 3535SOL    HW122064   1.745   1.173  13.137  0.8712 -0.1679  0.7979
 3535SOL    HW222065   1.884   1.245  13.140  1.1944  3.5702  2.3177
 3536SOL     OW22066   0.117   1.151   8.619  0.2422  0.4894  0.4168
 3536SOL    HW122067   0.188   1.206   8.652  1.1161 -0.0438 -0.5564
 3536SOL    HW222068   0.129   1.153   8.524  0.2107  0.1077  0.4035
 3537SOL     OW22069   2.758   3.404   5.575 -0.0609  0.8217  0.6111
 3537SOL    HW122070   2.684   3.370   5.525  0.1184 -1.7352  2.0960
 3537SOL    HW222071   2.732   3.405   5.667  0.3253 -0.8262  0.7388
 3538SOL     OW22072   3.962   1.333  10.216  0.2491  0.1889 -0.1359
 3538SOL    HW122073   3.924   1.260  10.167  1.6898 -0.6776  0.0641
 3538SOL    HW222074   3.900   1.401  10.188 -1.4261 -0.2183  2.5834
 3539SOL     OW22075   1.404   0.974   3.974  0.5856  0.0437 -0.2387
 3539SOL    HW122076   1.482   1.011   3.932  1.5944 -2.4616 -0.5605
 3539SOL    HW222077   1.360   0.951   3.892  2.0654  1.6487 -1.4829
 3540SOL     OW22078   3.142   1.869  12.682  0.4073 -0.0148  0.2495
 3540SOL    HW122079   3.072   1.925  12.715  0.0397 -1.5490  2.0553
 3540SOL    HW222080   3.122   1.786  12.726 -1.4733  0.1460 -0.2874
 3541SOL     OW22081   3.559   3.026   5.595  0.1968  0.0713 -0.0559
 3541SOL    HW122082   3.559   2.937   5.559  0.1560  0.1595 -0.2738
 3541SOL    HW222083   3.643   3.059   5.563 -0.4772  0.0185 -1.8762
 3542SOL     OW22084   4.544   0.140  11.618  0.0412  0.1982  0.1571
 3542SOL    HW122085   4.489   0.082  11.564  1.4668  0.4446 -1.5558
 3542SOL    HW222086   4.494   0.219  11.639  1.7425  0.9425  1.4343
 3543SOL     OW22087   2.919   1.918   6.477  0.0465  0.0923 -0.4496
 3543SOL    HW122088   2.895   2.009   6.498  2.1170  1.0191 -2.1502
 3543SOL    HW222089   2.853   1.895   6.412 -0.0225 -0.5486 -0.1522
 3544SOL     OW22090   3.098   4.611  15.744 -0.1451 -0.5609 -0.3315
 3544SOL    HW122091   3.052   4.666  15.806  0.6527  1.0367 -1.1542
 3544SOL    HW222092   3.032   4.617  15.674 -0.8476 -1.8580  0.2196
 3545SOL     OW22093   2.119   0.438   9.347  0.7227  0.3427  0.0328
 3545SOL    HW122094   2.132   0.522   9.390 -1.4076  0.9387 -0.4880
 3545SOL    HW222095   2.197   0.395   9.382  1.3431  1.6883  0.2753
 3546SOL     OW22096   1.522   2.174  11.406 -0.5782 -0.2249  0.4731
 3546SOL    HW122097   1.581   2.114  11.360  0.8798  1.1892  0.4784
 3546SOL    HW222098   1.440   2.127  11.420 -1.2657  0.1912 -2.1088
 3547SOL     OW22099   2.176   2.590  11.142 -0.1082  0.3894 -0.2238
 3547SOL    HW122100   2.202   2.524  11.206  1.4735  1.4970  0.2620
 3547SOL    HW222101   2.211   2.669  11.183 -0.0942  0.7350 -0.9110
 3548SOL     OW22102   2.507   1.450  12.836 -0.3428 -0.5816  0.6320
 3548SOL    HW122103   2.518   1.543  12.817  1.6376 -0.4496  2.4604
 3548SOL    HW222104   2.598   1.424  12.850 -0.8608 -1.8775  1.5843
 3549SOL     OW22105   4.232   3.917   1.069  0.1701 -0.6838 -0.5310
 3549SOL    HW122106   4.205   3.982   1.134 -3.4361 -1.2144 -1.4901
 3549SOL    HW222107   4.155   3.911   1.012  0.3469 -0.4595 -0.7988
 3550SOL     OW22108   3.396   3.220   6.533 -0.3333  1.1735 -0.3244
 3550SOL    HW122109   3.488   3.228   6.506 -0.5317  1.2132 -0.9893
 3550SOL    HW222110   3.408   3.172   6.615  1.6262  2.4348  0.1321
 3551SOL     OW22111   0.327   0.537   3.963 -0.5025  0.2351  0.4225
 3551SOL    HW122112   0.385   0.480   3.912  1.0941  0.4507  1.9847
 3551SOL    HW222113   0.305   0.472   4.030  2.4241 -1.3730 -0.1809
 3552SOL     OW22114   2.413   1.425   3.381  0.8771 -0.2375  0.0374
 3552SOL    HW122115   2.500   1.464   3.384 -0.0989  2.2466 -3.7791
 3552SOL    HW222116   2.397   1.433   3.287 -2.4922  0.2038  0.6648
 3553SOL     OW22117   2.459   2.587   7.743 -0.3886  0.3593  0.3162
 3553SOL    HW122118   2.412   2.661   7.782 -0.0243  0.4702  0.5460
 3553SOL    HW222119   2.392   2.520   7.750  1.3949 -1.4307  0.3444
 3554SOL     OW22120   0.865   3.021   6.524  0.4355 -0.4148 -0.0164
 3554SOL    HW122121   0.894   2.976   6.444 -0.2036  1.4053 -1.2691
 3554SOL    HW222122   0.779   2.983   6.542 -0.4608  0.4351 -2.5271
 3555SOL     OW22123   4.519   1.277   2.558 -0.1947  0.4297  0.2466
 3555SOL    HW122124   4.499   1.226   2.637 -0.8909 -0.3692 -0.4465
 3555SOL    HW222125   4.445   1.258   2.500  1.7658 -2.2623 -1.3909
 3556SOL     OW22126   1.749   1.092   0.330  0.0004 -0.5014  0.4787
 3556SOL    HW122127   1.657   1.071   0.317  0.1976 -1.9624  1.3790
 3556SOL    HW222128   1.751   1.187   0.340  0.2318 -0.5181  0.5980
 3557SOL     OW22129   4.419   1.706   9.057  0.7218 -0.2926  0.1379
 3557SOL    HW122130   4.392   1.628   9.009  0.1992  0.1022 -0.2063
 3557SOL    HW222131   4.337   1.754   9.062  1.4123  0.9522 -0.4254
 3558SOL     OW22132   2.085   0.967   6.101 -0.2938 -0.0087  0.0004
 3558SOL    HW122133   2.098   0.873   6.085 -0.5525 -0.2317  1.0783
 3558SOL    HW222134   2.139   0.980   6.179  0.8628 -2.7027 -0.3404
 3559SOL     OW22135   2.688   1.374   5.659  0.1689  0.3793  0.0350
 3559SOL    HW122136   2.730   1.335   5.582  0.7336  0.1672  0.4545
 3559SOL    HW222137   2.600   1.336   5.654 -0.0466  0.8587  0.2296
 3560SOL     OW22138   4.332   1.490  16.687 -0.1618  0.3344  0.5716
 3560SOL    HW122139   4.248   1.445  16.678  0.8830 -1.7036  0.9465
 3560SOL    HW222140   4.394   1.438  16.634 -0.5735  0.0253  0.3900
 3561SOL     OW22141   4.093   1.241   1.042  0.1131 -0.1597 -0.2081
 3561SOL    HW122142   4.043   1.177   0.992 -1.5185  0.7754  0.2474
 3561SOL    HW222143   4.038   1.262   1.117  0.5321 -3.1144  0.9143
 3562SOL     OW22144   4.191   3.263   3.308  0.2209 -0.5374  0.3985
 3562SOL    HW122145   4.269   3.220   3.272  0.0695 -0.8193  0.4088
 3562SOL    HW222146   4.231   3.348   3.329  0.4990 -1.1447  2.3025
 3563SOL     OW22147   0.191   1.898   3.767 -0.1092 -0.5583  0.2915
 3563SOL    HW122148   0.148   1.814   3.786  0.1402 -0.5167  1.0555
 3563SOL    HW222149   0.138   1.917   3.690  2.2896 -0.1819 -1.2465
 3564SOL     OW22150   0.815   2.634   2.563  0.4220  0.3573  0.4792
 3564SOL    HW122151   0.787   2.725   2.567  0.4572  0.5145 -2.5911
 3564SOL    HW222152   0.746   2.601   2.505 -0.3886 -1.4231  2.4706
 3565SOL     OW22153   2.299   0.581  13.567  0.3956  0.0887  0.7597
 3565SOL    HW122154   2.209   0.582  13.534 -0.4855  1.0124  3.1144
 3565SOL    HW222155   2.288   0.543  13.655 -3.0342 -2.6318 -0.8489
 3566SOL     OW22156   1.485   3.777   4.891  0.7380  0.3602  0.6533
 3566SOL    HW122157   1.401   3.787   4.847  0.9104 -0.3576  0.1572
 3566SOL    HW222158   1.535   3.762   4.810  0.4718 -2.3458  0.9931
 3567SOL     OW22159   2.982   3.330   5.232  0.0381 -0.3016 -0.4802
 3567SOL    HW122160   2.966   3.339   5.138 -0.1579 -0.9799 -0.5095
 3567SOL    HW222161   3.007   3.417   5.263  0.8428 -0.0886 -1.7128
 3568SOL     OW22162   3.599   1.825   2.810 -0.1448  0.5333  0.4804
 3568SOL    HW122163   3.653   1.868   2.877  0.1739  0.1003  0.4973
 3568SOL    HW222164   3.508   1.826   2.841  0.8723  0.6112  3.4217
 3569SOL     OW22165   2.952   2.272   5.063 -0.0315  0.2133 -0.0519
 3569SOL    HW122166   2.859   2.254   5.059  0.0053 -0.2255  1.0242
 3569SOL    HW222167   2.980   2.180   5.063 -0.6504  0.0136  2.2721
 3570SOL     OW22168   0.296   2.369   8.677  0.2397  0.0297 -0.1050
 3570SOL    HW122169   0.362   2.436   8.696  0.9132 -1.2567  2.1133
 3570SOL    HW222170   0.289   2.383   8.583 -2.3640  0.5274  0.1848
 3571SOL     OW22171   4.098   1.916   7.083  0.1831  0.4073  0.2365
 3571SOL    HW122172   4.072   1.893   7.172  1.2095 -0.4965  0.3065
 3571SOL    HW222173   4.050   1.998   7.076 -1.1851 -0.3953  0.1356
 3572SOL     OW22174   3.643   3.749   6.024 -0.1946 -0.0951 -0.2344
 3572SOL    HW122175   3.594   3.814   6.074  0.5122  0.9141 -0.8443
 3572SOL    HW222176   3.700   3.718   6.095  0.4541 -0.1855 -0.7923
 3573SOL     OW22177   0.697   3.754   3.539 -0.2214 -0.2728  0.5299
 3573SOL    HW122178   0.636   3.680   3.541 -0.2697 -0.2429  0.1374
 3573SOL    HW222179   0.768   3.715   3.588  1.3553  0.1202 -1.4523
 3574SOL     OW22180   3.437   2.640  10.816 -0.3096  0.1557  0.5103
 3574SOL    HW122181   3.349   2.612  10.840  0.3466 -1.5357  0.9059
 3574SOL    HW222182   3.490   2.615  10.891 -0.7199  0.5879  0.9432
 3575SOL     OW22183   4.677   0.403  16.098 -0.0372 -0.3411 -0.1720
 3575SOL    HW122184   4.643   0.449  16.175 -0.0211 -0.5261 -0.0558
 3575SOL    HW222185   0.017   0.471  16.066 -1.9981  1.1989 -0.5740
 3576SOL     OW22186   1.720   3.426   3.757  0.3519 -0.0696 -0.7023
 3576SOL    HW122187   1.626   3.434   3.768  0.6803 -0.2431  2.2647
 3576SOL    HW222188   1.736   3.519   3.769  0.4843 -0.3131  0.9587
 3577SOL     OW22189   3.386   3.025   9.683  0.3127 -0.1142 -0.4729
 3577SOL    HW122190   3.416   3.084   9.614 -1.9965 -1.1249 -2.3377
 3577SOL    HW222191   3.391   2.947   9.628  1.8735 -1.7296  1.9916
 3578SOL     OW22192   1.370   3.347   1.921 -0.0475  0.6096 -0.3917
 3578SOL    HW122193   1.324   3.298   1.989 -0.7232  1.3936 -0.2967
 3578SOL    HW222194   1.296   3.402   1.895 -0.7617 -1.1779 -2.2244
 3579SOL     OW22195   0.975   1.167   2.169  0.5520  0.7147 -0.1471
 3579SOL    HW122196   0.891   1.122   2.174  0.9015  0.1433  0.4642
 3579SOL    HW222197   1.003   1.146   2.080  0.4322  0.0839 -0.0307
 3580SOL     OW22198   1.001   0.395   7.542 -0.2275 -0.4082  0.2012
 3580SOL    HW122199   1.019   0.485   7.515 -0.6509 -0.6753 -0.9582
 3580SOL    HW222200   0.940   0.378   7.470 -2.9595 -0.2669  2.4541
 3581SOL     OW22201   1.355   4.419   6.037 -0.0596 -0.2250 -0.4891
 3581SOL    HW122202   1.421   4.439   5.971  0.2666  1.0070  0.2207
 3581SOL    HW222203   1.346   4.505   6.077 -0.2643  0.1088 -1.2528
 3582SOL     OW22204   0.777   4.485  17.120 -0.0866 -0.0070  0.3687
 3582SOL    HW122205   0.744   4.410  17.071 -1.7257  0.0501  1.3798
 3582SOL    HW222206   0.855   4.450  17.163  1.6656  1.4988 -1.5990
 3583SOL     OW22207   2.603   0.177  10.201  0.0882 -0.2987  0.0922
 3583SOL    HW122208   2.676   0.121  10.228 -1.1632 -1.4155  1.1672
 3583SOL    HW222209   2.537   0.151  10.265  0.5720 -2.7953 -0.4441
 3584SOL     OW22210   4.686   1.495   6.274 -0.0435  0.1248  0.0571
 3584SOL    HW122211   4.594   1.485   6.297  0.2696 -0.9577  0.8023
 3584SOL    HW222212   4.713   1.407   6.249 -1.5007 -1.0336  2.5231
 3585SOL     OW22213   2.430   3.232   1.256 -0.9560 -0.0848 -0.1289
 3585SOL    HW122214   2.387   3.198   1.178  0.4186  0.4969 -1.1328
 3585SOL    HW222215   2.403   3.173   1.327 -0.1909 -0.1774  0.0818
 3586SOL     OW22216   0.764   2.700   5.966 -0.0424 -0.1826 -0.3601
 3586SOL    HW122217   0.853   2.699   5.931 -0.5706  0.9382 -1.7739
 3586SOL    HW222218   0.740   2.609   5.950 -2.6946  0.5961 -0.8032
 3587SOL     OW22219   4.465   0.044   2.718 -0.4582  0.3233  0.3540
 3587SOL    HW122220   4.374   0.049   2.746 -0.6277  0.3284 -0.1987
 3587SOL    HW222221   4.509   0.100   2.783  2.1977 -1.7630  0.3570
 3588SOL     OW22222   2.944   2.931   9.304 -0.5233  0.4659  0.0098
 3588SOL    HW122223   2.861   2.959   9.341 -0.9108 -0.3301 -0.2447
 3588SOL    HW222224   2.940   2.839   9.331 -0.0006 -0.6758 -3.8897
 3589SOL     OW22225   2.939   2.212   5.750  0.3782  0.6485  0.4335
 3589SOL    HW122226   2.937   2.261   5.668 -1.7893  0.6657  0.4850
 3589SOL    HW222227   2.934   2.119   5.727 -1.6396  0.7683  0.3877
 3590SOL     OW22228   1.913   4.138  12.065  0.2141 -0.5726 -0.3575
 3590SOL    HW122229   1.977   4.150  11.995  0.8758 -2.5948 -0.1187
 3590SOL    HW222230   1.857   4.074  12.021 -1.8116  0.6369  0.4813
 3591SOL     OW22231   0.843   2.708   3.026 -0.0308 -0.0033  0.0338
 3591SOL    HW122232   0.823   2.767   2.953  3.4123  0.9585 -0.1456
 3591SOL    HW222233   0.910   2.761   3.070  1.9257 -1.1315 -1.5592
 3592SOL     OW22234   1.885   0.147   5.530  0.1313 -0.0773 -0.3213
 3592SOL    HW122235   1.907   0.054   5.517  0.6612 -0.1260  0.8808
 3592SOL    HW222236   1.954   0.187   5.477 -1.2144 -0.2282 -2.1950
 3593SOL     OW22237   3.386   3.136  13.511 -0.3254  0.1666 -0.0826
 3593SOL    HW122238   3.465   3.081  13.518 -0.9753 -0.7024  0.3869
 3593SOL    HW222239   3.410   3.206  13.572 -0.8681  1.1107 -0.9538
 3594SOL     OW22240   2.323   2.904   1.330  0.1052  0.4841  0.3240
 3594SOL    HW122241   2.264   2.941   1.396 -2.4324  0.7882 -2.1079
 3594SOL    HW222242   2.265   2.893   1.255  2.2386 -0.7339 -1.1479
 3595SOL     OW22243   3.461   2.424   9.654 -0.0251  0.2883 -0.0645
 3595SOL    HW122244   3.370   2.396   9.640  0.5389 -1.4948 -0.1282
 3595SOL    HW222245   3.452   2.472   9.736  0.0018 -0.2729  0.2702
 3596SOL     OW22246   0.505   1.135   9.571  0.0161 -0.0793 -0.1196
 3596SOL    HW122247   0.471   1.114   9.658  0.0267  0.4938  0.0272
 3596SOL    HW222248   0.522   1.047   9.540  1.4923 -0.3059  1.3419
 3597SOL     OW22249   2.251   0.051   2.756 -0.2357 -0.8522  0.2993
 3597SOL    HW122250   2.276   4.685   2.792  1.2904 -0.3956  0.3102
 3597SOL    HW222251   2.313   0.101   2.810 -1.1409  0.1292  0.4272
 3598SOL     OW22252   3.077   0.376   8.308  0.3009 -0.5355  0.0562
 3598SOL    HW122253   3.137   0.315   8.265 -1.5891 -1.5630 -1.1581
 3598SOL    HW222254   3.120   0.404   8.389  0.4472  0.0858 -0.2389
 3599SOL     OW22255   1.342   2.170   8.986 -0.2586  0.4395 -0.0871
 3599SOL    HW122256   1.284   2.112   8.936  1.3567 -1.2924  0.0476
 3599SOL    HW222257   1.277   2.207   9.046 -0.3498 -1.1382  0.7732
 3600SOL     OW22258   0.744   2.803   8.252 -0.3051 -0.4255  0.6076
 3600SOL    HW122259   0.776   2.817   8.341  2.2742  0.1532 -0.4072
 3600SOL    HW222260   0.650   2.798   8.267 -0.3378 -0.2893  0.4428
 3601SOL     OW22261   1.021   2.302   2.468 -0.0057  0.2396 -0.1270
 3601SOL    HW122262   1.057   2.364   2.531  2.2035 -1.9338  0.7919
 3601SOL    HW222263   1.041   2.343   2.383 -1.9251  0.0320 -0.6747
 3602SOL     OW22264   0.692   1.821   2.565 -0.3952 -0.0050 -0.3754
 3602SOL    HW122265   0.667   1.858   2.480  1.3640  1.6409 -0.1865
 3602SOL    HW222266   0.610   1.775   2.583 -0.4580 -0.1180 -0.9644
 3603SOL     OW22267   2.002   0.566   4.901 -0.0642  0.0935 -0.0192
 3603SOL    HW122268   1.910   0.555   4.925  0.5597 -1.8352  1.5178
 3603SOL    HW222269   2.049   0.490   4.937 -2.1853 -0.4652  1.6209
 3604SOL     OW22270   4.625   2.450   6.577  0.0844 -0.4856 -0.1787
 3604SOL    HW122271   4.551   2.432   6.519 -0.2057  1.1624 -0.3135
 3604SOL    HW222272   4.581   2.473   6.659  0.7337  0.2244 -0.0335
 3605SOL     OW22273   3.432   2.271   4.209  0.7663  0.1604 -0.4638
 3605SOL    HW122274   3.365   2.319   4.258 -0.8120 -1.6287 -0.8686
 3605SOL    HW222275   3.498   2.336   4.187 -0.2887 -0.2359 -4.7586
 3606SOL     OW22276   1.006   3.479  16.318  0.2474  0.2274 -0.6020
 3606SOL    HW122277   1.019   3.520  16.233 -0.5717  1.1685 -0.2670
 3606SOL    HW222278   1.095   3.446  16.333 -0.4122 -2.2655 -2.0468
 3607SOL     OW22279   3.687   3.843   6.279 -0.0811 -0.2032 -0.3868
 3607SOL    HW122280   3.641   3.921   6.249  1.2465 -0.3357 -2.6982
 3607SOL    HW222281   3.777   3.866   6.261 -0.7337  1.5361 -1.3401
 3608SOL     OW22282   0.238   1.003   3.100 -0.1165 -0.6734 -0.4089
 3608SOL    HW122283   0.234   0.932   3.164 -1.9072  1.5695  1.9132
 3608SOL    HW222284   0.152   1.042   3.117 -1.0575 -2.2960 -1.3027
 3609SOL     OW22285   1.328   1.878   2.185  0.2943  1.2401  0.1471
 3609SOL    HW122286   1.409   1.923   2.160  0.4683  0.5883 -0.4800
 3609SOL    HW222287   1.283   1.868   2.101  3.0144 -0.3650 -1.1297
 3610SOL     OW22288   0.545   4.393   0.753  0.0220  0.2227 -0.1553
 3610SOL    HW122289   0.621   4.413   0.700 -0.1815  1.4848  0.0181
 3610SOL    HW222290   0.582   4.408   0.840 -0.6946  0.6087  0.0869
 3611SOL     OW22291   0.490   2.696   3.068 -0.0220  0.9739 -0.4229
 3611SOL    HW122292   0.586   2.703   3.067  0.2068 -2.5863 -1.0573
 3611SOL    HW222293   0.474   2.699   2.974 -2.5137  0.2106 -0.0193
 3612SOL     OW22294   0.193   0.174   0.442  0.4040 -0.0323 -0.1412
 3612SOL    HW122295   0.232   0.088   0.428 -2.1333 -1.1512 -0.2736
 3612SOL    HW222296   0.101   0.157   0.421 -0.1679 -0.9400  3.1302
 3613SOL     OW22297   1.518   2.067   5.725  0.0077  0.6874  0.0305
 3613SOL    HW122298   1.595   2.041   5.674  1.9929  2.0016  2.3540
 3613SOL    HW222299   1.445   2.020   5.685 -0.0821  0.1372  0.8517
 3614SOL     OW22300   3.016   4.204  11.474 -0.0322 -0.2551  0.0435
 3614SOL    HW122301   3.073   4.232  11.403 -0.5031  0.6470  0.0319
 3614SOL    HW222302   2.955   4.276  11.484  0.6956  0.5612 -1.4280
 3615SOL     OW22303   0.295   2.280   2.998  0.3234 -0.3266  0.1368
 3615SOL    HW122304   0.291   2.234   2.914  2.2373  0.0105 -0.1435
 3615SOL    HW222305   0.375   2.330   2.984 -0.5289  1.0874  0.3110
 3616SOL     OW22306   0.832   2.414  13.152  0.3950  0.0713 -0.4007
 3616SOL    HW122307   0.788   2.375  13.228  0.4437 -3.4378 -2.1653
 3616SOL    HW222308   0.814   2.508  13.163  0.1613  0.1708 -1.5859
 3617SOL     OW22309   2.659   3.962   3.059  0.1434  0.4649  0.6532
 3617SOL    HW122310   2.646   3.912   3.140  0.2789 -1.0997 -0.2780
 3617SOL    HW222311   2.755   3.954   3.054 -0.0814 -0.4957 -1.9500
 3618SOL     OW22312   2.993   2.441   5.250 -0.5244 -0.3879  0.4508
 3618SOL    HW122313   2.905   2.476   5.263 -1.3411 -1.4607 -2.2310
 3618SOL    HW222314   2.984   2.366   5.192  0.6112 -1.0158  1.0882
 3619SOL     OW22315   3.390   1.777   6.119 -0.1401  0.3205 -0.3308
 3619SOL    HW122316   3.305   1.799   6.080  0.0582 -0.3196 -1.1033
 3619SOL    HW222317   3.403   1.693   6.076 -2.1608 -1.0164  1.6408
 3620SOL     OW22318   2.391   3.890   2.205 -0.2623  0.3196  0.0700
 3620SOL    HW122319   2.398   3.813   2.262 -2.1917 -0.6498 -0.9777
 3620SOL    HW222320   2.482   3.885   2.176  0.2337 -1.7310  1.9821
 3621SOL     OW22321   1.689   2.029  11.243 -0.4889  0.2951  0.0047
 3621SOL    HW122322   1.720   2.060  11.158 -0.2588 -0.7701 -0.2970
 3621SOL    HW222323   1.728   1.942  11.238 -0.1919  0.4325 -0.0541
 3622SOL     OW22324   3.731   1.167  12.722 -0.1003 -0.4506  0.4264
 3622SOL    HW122325   3.786   1.240  12.694  0.6842 -0.4978  1.8555
 3622SOL    HW222326   3.788   1.104  12.766  0.3245 -0.3771 -0.0249
 3623SOL     OW22327   0.249   0.382  16.821  0.2907 -0.2066 -0.3216
 3623SOL    HW122328   0.251   0.288  16.801  0.7798  0.3350 -2.8189
 3623SOL    HW222329   0.312   0.393  16.892 -0.2523 -0.7748  0.2480
 3624SOL     OW22330   4.206   3.235  10.347  0.9433  0.4533  0.7086
 3624SOL    HW122331   4.232   3.317  10.387  1.4237 -0.2947  1.9399
 3624SOL    HW222332   4.206   3.255  10.253 -0.5163 -1.2521  0.3448
 3625SOL     OW22333   3.421   4.068   5.933  0.0261  0.6633 -0.3097
 3625SOL    HW122334   3.354   4.016   5.888  0.5828 -0.8271  0.5744
 3625SOL    HW222335   3.493   4.056   5.872 -0.3327 -0.7321 -0.4753
 3626SOL     OW22336   0.138   0.611  16.108  0.4362  0.2851 -0.5027
 3626SOL    HW122337   0.167   0.699  16.084 -0.6195  1.2811  1.7979
 3626SOL    HW222338   0.196   0.564  16.049 -0.3357 -0.0829 -0.9604
 3627SOL     OW22339   1.013   2.765  11.165  0.2147  0.3481  0.1037
 3627SOL    HW122340   0.955   2.689  11.163  2.1525 -1.0740 -2.1738
 3627SOL    HW222341   0.957   2.820  11.220 -1.9635  1.9709 -3.7094
 3628SOL     OW22342   1.819   0.833   7.771 -0.6436  0.7619 -0.1457
 3628SOL    HW122343   1.885   0.851   7.704 -1.2605  0.8184 -0.7488
 3628SOL    HW222344   1.880   0.841   7.844 -1.2851 -0.1030  0.4805
 3629SOL     OW22345   2.934   3.379   3.570  0.3116 -0.1914  0.0023
 3629SOL    HW122346   2.947   3.425   3.487 -0.0006 -0.0639  0.0245
 3629SOL    HW222347   2.879   3.312   3.530 -0.1280  0.0576  0.1859
 3630SOL     OW22348   3.755   3.795   4.428 -0.6933 -0.2011 -0.3420
 3630SOL    HW122349   3.702   3.875   4.439 -1.1654 -0.7285  1.3130
 3630SOL    HW222350   3.783   3.765   4.515  0.7458  2.3091  0.0627
 3631SOL     OW22351   4.035   3.678   3.767  0.6085 -0.2629 -0.4561
 3631SOL    HW122352   4.026   3.583   3.759  1.0312 -0.4023  0.7107
 3631SOL    HW222353   4.120   3.701   3.731  1.2268 -0.9359  0.5801
 3632SOL     OW22354   3.798   0.911  16.984 -0.3008 -0.3904  0.0675
 3632SOL    HW122355   3.748   0.991  16.998  2.1030  0.9200  1.1500
 3632SOL    HW222356   3.877   0.938  16.937 -0.0876  1.8192  1.7574
 3633SOL     OW22357   0.821   2.540   8.407  0.9817  0.3757  0.5214
 3633SOL    HW122358   0.770   2.523   8.486  0.3650 -0.2035 -0.0041
 3633SOL    HW222359   0.900   2.489   8.422 -0.9619 -2.4739  0.9454
 3634SOL     OW22360   0.361   0.393  10.962  0.7801 -0.2887 -0.4407
 3634SOL    HW122361   0.338   0.473  10.915  2.0386 -0.3549 -1.1669
 3634SOL    HW222362   0.364   0.436  11.047 -4.0056 -0.4450 -0.1874
 3635SOL     OW22363   2.084   1.243   7.237 -0.0346  0.3768 -0.0248
 3635SOL    HW122364   2.051   1.157   7.259 -0.9333  0.9457  0.8203
 3635SOL    HW222365   2.002   1.293   7.235  0.9236  2.0080  2.3066
 3636SOL     OW22366   0.718   2.218  13.407  0.3802  0.6350 -0.0724
 3636SOL    HW122367   0.698   2.265  13.488 -1.5099  1.0770 -0.7890
 3636SOL    HW222368   0.705   2.125  13.429 -1.6951  0.7409 -0.8425
 3637SOL     OW22369   0.420   0.628   0.957 -0.1620  0.1046 -0.6229
 3637SOL    HW122370   0.499   0.680   0.944 -2.2707  3.8045  1.1037
 3637SOL    HW222371   0.397   0.645   1.048  0.5324  0.4923 -0.5267
 3638SOL     OW22372   1.391   4.075   7.141  0.0316 -0.2561 -0.0758
 3638SOL    HW122373   1.355   4.131   7.209 -1.2756 -0.3604 -0.6822
 3638SOL    HW222374   1.343   3.993   7.149  1.8201 -1.1601  1.4393
 3639SOL     OW22375   3.106   2.411  13.605 -0.3064 -0.0958 -0.1191
 3639SOL    HW122376   3.113   2.331  13.552  2.1454  1.2644 -1.8494
 3639SOL    HW222377   3.079   2.472  13.535  0.2919  0.0122 -0.2516
 3640SOL     OW22378   3.002   0.931   3.056  0.4217  0.0950  0.5263
 3640SOL    HW122379   2.919   0.931   3.105  0.9042  0.4491  1.3513
 3640SOL    HW222380   3.023   0.838   3.055 -0.1590 -0.0177 -0.9263
 3641SOL     OW22381   0.964   3.516   2.348 -0.0890  0.6632 -0.1223
 3641SOL    HW122382   0.893   3.458   2.321 -0.1733 -0.0847  1.6792
 3641SOL    HW222383   0.959   3.574   2.272 -1.5001 -0.0401 -0.5769
 3642SOL     OW22384   0.451   3.055   1.685 -0.5597 -0.1602  0.0861
 3642SOL    HW122385   0.511   3.083   1.754 -0.4671 -0.7371  0.2376
 3642SOL    HW222386   0.501   3.090   1.611 -1.5220  0.2819 -0.3540
 3643SOL     OW22387   1.989   2.400   6.226 -0.0095 -0.1064 -0.1290
 3643SOL    HW122388   2.032   2.484   6.242  0.3082 -0.0298 -1.4679
 3643SOL    HW222389   1.946   2.431   6.147  2.2649 -2.7870 -2.4009
 3644SOL     OW22390   4.448   4.333   4.254 -0.2342 -0.3720 -0.3969
 3644SOL    HW122391   4.442   4.243   4.286 -1.6545 -1.4065 -3.5685
 3644SOL    HW222392   4.378   4.326   4.188  0.2421 -0.2123 -0.9149
 3645SOL     OW22393   1.399   1.582   4.850  0.9764 -0.0190 -1.1472
 3645SOL    HW122394   1.317   1.554   4.891  0.8299 -1.2191 -2.2880
 3645SOL    HW222395   1.378   1.649   4.785 -0.2990  1.0306  0.3516
 3646SOL     OW22396   4.505   2.405   6.086  0.1851  0.2330 -0.3269
 3646SOL    HW122397   4.417   2.407   6.124 -0.0209  2.0880 -0.8796
 3646SOL    HW222398   4.531   2.497   6.100  2.1288 -0.5081  0.9823
 3647SOL     OW22399   2.500   4.347   4.704  0.1427 -0.6137  0.0128
 3647SOL    HW122400   2.411   4.377   4.683  0.6130 -0.2124 -1.4436
 3647SOL    HW222401   2.474   4.258   4.729 -1.1764 -0.1209  0.3955
 3648SOL     OW22402   4.417   3.909   6.740 -0.5097 -0.5221 -0.1389
 3648SOL    HW122403   4.417   3.932   6.833 -0.1797  0.5619 -0.4136
 3648SOL    HW222404   4.322   3.911   6.730 -0.5708 -0.5472  0.4296
 3649SOL     OW22405   2.717   0.690  14.127  0.0193 -0.3719 -0.4873
 3649SOL    HW122406   2.730   0.625  14.196 -1.9525 -0.8029 -0.5215
 3649SOL    HW222407   2.624   0.674  14.108 -0.0048  1.5198 -2.0078
 3650SOL     OW22408   2.996   4.240   5.702 -0.0966  0.2567 -0.2778
 3650SOL    HW122409   3.035   4.209   5.621 -0.9056  1.3978 -1.1175
 3650SOL    HW222410   2.916   4.187   5.710 -0.1269  0.5602  1.5339
 3651SOL     OW22411   0.463   3.110  12.384 -0.3035 -0.2887 -0.8334
 3651SOL    HW122412   0.401   3.071  12.446 -0.5080  0.8512 -0.3274
 3651SOL    HW222413   0.538   3.059  12.414  0.3163  0.8666 -0.4185
 3652SOL     OW22414   0.205   4.481   7.335  0.4233  0.2832 -0.0309
 3652SOL    HW122415   0.264   4.535   7.387 -0.2582  0.4430  0.5753
 3652SOL    HW222416   0.158   4.548   7.286  1.2737  2.5851  2.3559
 3653SOL     OW22417   2.120   1.067   3.444  0.3630 -0.4839  0.1072
 3653SOL    HW122418   2.036   1.086   3.485  1.2182  2.3837  0.5020
 3653SOL    HW222419   2.142   1.006   3.514  1.0258  0.8203  1.0323
 3654SOL     OW22420   0.288   2.858   5.376  0.1861 -0.4475  0.1644
 3654SOL    HW122421   0.265   2.922   5.444  2.0032  0.0701  0.3031
 3654SOL    HW222422   0.245   2.883   5.295 -0.9557  1.1199  1.2571
 3655SOL     OW22423   1.087   1.889   7.105 -0.1627  0.3264  0.0848
 3655SOL    HW122424   1.020   1.937   7.056  1.3309  1.7109 -0.5911
 3655SOL    HW222425   1.038   1.807   7.113 -3.1978  2.0040 -1.4956
 3656SOL     OW22426   3.781   3.407   2.088  0.1127 -0.2411  0.5613
 3656SOL    HW122427   3.856   3.362   2.127  1.0329  0.4775 -0.3934
 3656SOL    HW222428   3.758   3.348   2.016  0.8763  1.3185 -0.9475
 3657SOL     OW22429   4.398   3.176   7.692 -0.0357  0.1725 -0.0131
 3657SOL    HW122430   4.416   3.086   7.666 -1.3519 -0.2879  0.6763
 3657SOL    HW222431   4.382   3.222   7.610 -0.2162 -0.0442 -0.0987
 3658SOL     OW22432   1.641   1.010   9.016  0.9355  0.0835  0.1095
 3658SOL    HW122433   1.711   0.969   8.964  0.7414 -1.2512  0.9134
 3658SOL    HW222434   1.681   1.057   9.089 -0.2523 -0.7501  1.2834
 3659SOL     OW22435   0.159   0.132   6.819  0.0673  0.5000  0.1144
 3659SOL    HW122436   0.247   0.096   6.821 -0.5297 -0.9005  0.8124
 3659SOL    HW222437   0.142   0.140   6.725  1.2932  0.0398 -0.1352
 3660SOL     OW22438   4.625   3.053   7.017  0.5597  0.1282  0.2600
 3660SOL    HW122439   4.689   2.982   7.015  1.4110  0.8737  1.1194
 3660SOL    HW222440   4.558   3.008   6.966 -0.2517  0.4317  1.0588
 3661SOL     OW22441   0.224   2.706  15.700  0.2761  0.1997 -0.1147
 3661SOL    HW122442   0.220   2.679  15.791 -0.2994 -2.8888 -1.0409
 3661SOL    HW222443   0.152   2.769  15.699  0.0435 -0.0701 -0.1964
 3662SOL     OW22444   2.616   1.764  11.362 -0.3170  0.1134  0.5469
 3662SOL    HW122445   2.533   1.776  11.410 -0.5545 -1.1855  0.4789
 3662SOL    HW222446   2.611   1.837  11.300  2.1928 -0.4979 -0.3721
 3663SOL     OW22447   2.061   0.630  11.916  0.1585 -0.0377  0.7849
 3663SOL    HW122448   2.115   0.579  11.856  0.8890  1.5312  0.0996
 3663SOL    HW222449   2.078   0.593  12.002 -0.9715 -1.2218  0.4978
 3664SOL     OW22450   0.455   4.434   6.740  0.2289 -0.4913  1.1884
 3664SOL    HW122451   0.530   4.438   6.682 -0.6373 -1.9009 -0.0427
 3664SOL    HW222452   0.399   4.504   6.708  1.2768  0.8025  2.1886
 3665SOL     OW22453   3.902   4.215  14.771  0.1394  0.2787  0.0641
 3665SOL    HW122454   3.892   4.253  14.858 -1.0652 -0.8988  0.4401
 3665SOL    HW222455   3.953   4.135  14.785 -2.2246 -0.9713  1.5538
 3666SOL     OW22456   2.548   1.225  12.512  0.2868 -0.0891 -0.1916
 3666SOL    HW122457   2.580   1.313  12.532  1.3853 -0.1500 -1.6858
 3666SOL    HW222458   2.528   1.233  12.419 -1.4394  0.7577  0.2465
 3667SOL     OW22459   0.312   0.219   4.831  0.8071 -0.2176 -0.1924
 3667SOL    HW122460   0.249   0.162   4.787  0.6162 -0.6317  0.6086
 3667SOL    HW222461   0.336   0.271   4.755 -1.2659 -0.6152 -1.1108
 3668SOL     OW22462   2.160   0.891   1.646  0.3601 -0.1678 -0.0071
 3668SOL    HW122463   2.137   0.800   1.668 -0.1773 -0.5058 -1.9347
 3668SOL    HW222464   2.249   0.873   1.615  0.3179 -0.6520  0.1488
 3669SOL     OW22465   0.993   3.381   1.593 -0.2798  0.6906  0.7513
 3669SOL    HW122466   1.041   3.460   1.567 -1.2870  0.2858 -2.3520
 3669SOL    HW222467   1.049   3.316   1.550 -1.8099  0.8234 -1.4634
 3670SOL     OW22468   2.554   4.242   2.999  0.4221  0.6440 -0.4878
 3670SOL    HW122469   2.602   4.162   3.019  0.7763  0.7648 -0.8411
 3670SOL    HW222470   2.589   4.301   3.065 -0.5333  0.5643  0.0935
 3671SOL     OW22471   1.796   3.513   3.471 -0.0813  0.3656  0.5492
 3671SOL    HW122472   1.755   3.427   3.481 -0.5356  0.7274  1.7399
 3671SOL    HW222473   1.766   3.560   3.548  0.1392  0.2322  0.7172
 3672SOL     OW22474   2.829   2.108  17.132 -0.0884 -0.3946  0.3058
 3672SOL    HW122475   2.885   2.057  17.190  1.5340  1.6362  0.5191
 3672SOL    HW222476   2.857   2.068  17.050  0.4796  1.1191 -0.2515
 3673SOL     OW22477   4.349   3.404  15.234 -0.0273  0.6996 -0.0533
 3673SOL    HW122478   4.297   3.479  15.206  0.1976  0.0589 -2.2388
 3673SOL    HW222479   4.289   3.330  15.227  0.3636  0.3928 -0.1687
 3674SOL     OW22480   1.943   2.155   0.466 -0.3446 -0.3193  0.0584
 3674SOL    HW122481   1.899   2.237   0.443  1.6376  0.1017 -2.2055
 3674SOL    HW222482   2.023   2.161   0.414 -0.1110 -2.3397  0.1962
 3675SOL     OW22483   3.168   0.950  14.306 -0.1846 -0.1726 -0.3842
 3675SOL    HW122484   3.175   0.914  14.394  2.0424  1.8870  0.2853
 3675SOL    HW222485   3.109   0.881  14.274  1.3802 -1.8666  0.3544
 3676SOL     OW22486   3.558   0.460   7.333 -0.2955 -0.3801 -0.3694
 3676SOL    HW122487   3.521   0.450   7.421  1.0485  2.5049  0.5464
 3676SOL    HW222488   3.629   0.521   7.355 -1.4499  1.5094 -1.8842
 3677SOL     OW22489   3.882   2.362   1.345 -0.1693  0.3590  0.3192
 3677SOL    HW122490   3.954   2.378   1.284 -0.1425  0.6683  0.4303
 3677SOL    HW222491   3.866   2.269   1.361 -0.0097  0.1459 -0.7501
 3678SOL     OW22492   0.479   0.862   2.477  0.3552 -0.3562  0.3509
 3678SOL    HW122493   0.387   0.852   2.505  0.0531 -0.9388 -0.8864
 3678SOL    HW222494   0.515   0.774   2.469 -1.4204 -1.2539  1.9365
 3679SOL     OW22495   3.794   4.582  14.243 -0.3854  0.1607  0.3377
 3679SOL    HW122496   3.771   4.546  14.157  1.1563  0.3850 -0.1616
 3679SOL    HW222497   3.729   4.546  14.304  0.7915 -1.3616  0.7062
 3680SOL     OW22498   3.114   0.231   5.497  0.1420  0.1294  0.1052
 3680SOL    HW122499   3.153   0.294   5.438 -0.5720  1.2850  0.8730
 3680SOL    HW222500   3.194   0.216   5.547  1.4313  1.7734 -1.4669
 3681SOL     OW22501   1.927   1.437   3.969  0.1025  0.3685 -0.0332
 3681SOL    HW122502   2.000   1.376   3.980 -0.5048 -0.2606  0.5022
 3681SOL    HW222503   1.940   1.456   3.876  2.6714  1.5603  0.5891
 3682SOL     OW22504   1.167   1.895   2.405 -0.2896 -0.4236  0.3835
 3682SOL    HW122505   1.234   1.890   2.337 -1.1447  2.1476 -0.6403
 3682SOL    HW222506   1.219   1.927   2.479 -1.3145  1.2127  0.3898
 3683SOL     OW22507   1.450   2.507   3.070 -0.1751 -0.8207  0.0349
 3683SOL    HW122508   1.524   2.513   3.009  0.5458 -2.1140  0.7996
 3683SOL    HW222509   1.474   2.439   3.132 -1.7127 -3.4910 -2.2820
 3684SOL     OW22510   4.153   2.909  17.448 -0.0609  0.4474 -0.1284
 3684SOL    HW122511   4.105   2.862  17.379  2.3499 -0.8918 -0.9009
 3684SOL    HW222512   4.210   2.972  17.403  2.0217 -0.0631  1.8214
 3685SOL     OW22513   1.154   0.168   7.539 -0.2681  0.1663 -0.1589
 3685SOL    HW122514   1.082   0.105   7.550 -0.4495  1.0280  3.7289
 3685SOL    HW222515   1.123   0.257   7.560 -1.0895 -0.4088  1.0507
 3686SOL     OW22516   2.032   3.780   6.775 -0.3808  0.1605 -0.4820
 3686SOL    HW122517   2.076   3.850   6.823 -0.9281  0.4185 -0.3518
 3686SOL    HW222518   2.000   3.829   6.699 -1.2255  0.3798  0.0109
 3687SOL     OW22519   0.404   2.918   8.036 -0.3443 -0.1866 -0.0914
 3687SOL    HW122520   0.409   2.994   7.978  0.7863 -0.3045 -0.1593
 3687SOL    HW222521   0.321   2.879   8.010  0.2645 -1.5204 -0.0510
 3688SOL     OW22522   3.243   2.473   7.702  0.7413 -0.1578  0.0303
 3688SOL    HW122523   3.331   2.434   7.700  1.8765  2.4880 -2.6594
 3688SOL    HW222524   3.237   2.474   7.797 -2.8187 -1.0804 -0.1767
 3689SOL     OW22525   0.918   1.213   1.466 -0.3809  0.5156  0.0124
 3689SOL    HW122526   0.869   1.183   1.389  0.6637  2.4997 -1.4307
 3689SOL    HW222527   0.940   1.124   1.492 -1.9527  0.7205  2.0665
 3690SOL     OW22528   0.986   3.768   6.921 -0.4089 -0.8168 -0.6703
 3690SOL    HW122529   1.074   3.795   6.898 -0.4402 -0.4744 -0.3859
 3690SOL    HW222530   0.946   3.849   6.954  2.1751  0.9781 -1.9530
 3691SOL     OW22531   0.407   1.627  10.334  0.0027 -0.1423 -0.5505
 3691SOL    HW122532   0.388   1.570  10.408  0.4705  0.6694  0.2044
 3691SOL    HW222533   0.391   1.716  10.365 -1.7657 -0.0485 -1.7358
 3692SOL     OW22534   3.002   3.721   7.733 -0.1752  0.1815 -0.4939
 3692SOL    HW122535   2.927   3.747   7.787 -0.1798  1.3071 -1.0381
 3692SOL    HW222536   3.037   3.644   7.778 -2.1586 -0.4959 -0.0796
 3693SOL     OW22537   1.475   4.574   9.503  0.2890 -0.1741 -0.1472
 3693SOL    HW122538   1.552   4.627   9.483 -0.6420  1.5100  0.7874
 3693SOL    HW222539   1.409   4.607   9.442  1.7823 -0.9846 -2.2062
 3694SOL     OW22540   0.780   1.973   5.432  0.0924 -0.1253  0.3196
 3694SOL    HW122541   0.732   1.910   5.487 -2.5935  1.4573 -0.2150
 3694SOL    HW222542   0.862   1.928   5.410  0.6728  1.7974 -1.3975
 3695SOL     OW22543   1.762   2.142   7.311 -0.6279 -0.4080  0.4060
 3695SOL    HW122544   1.731   2.074   7.372 -1.4229 -0.9924 -0.6548
 3695SOL    HW222545   1.813   2.091   7.249  1.4388 -0.8259  2.4416
 3696SOL     OW22546   1.689   0.126   1.729 -0.4101 -0.2856  0.2079
 3696SOL    HW122547   1.681   0.160   1.640  2.2208 -1.3631 -0.4711
 3696SOL    HW222548   1.727   0.039   1.714 -0.9932 -0.4528 -0.2937
 3697SOL     OW22549   1.957   3.773   8.907 -0.2055 -0.2905 -0.0286
 3697SOL    HW122550   1.862   3.771   8.908 -0.1786 -2.1834  0.1031
 3697SOL    HW222551   1.959   3.826   8.986 -1.4664  2.4936 -1.8419
 3698SOL     OW22552   0.877   4.494   8.713 -0.3952 -0.0026  0.8205
 3698SOL    HW122553   0.895   4.417   8.766 -0.4297 -0.0042  0.8303
 3698SOL    HW222554   0.966   4.528   8.724 -0.0329 -0.6659 -0.1203
 3699SOL     OW22555   3.135   3.505   1.883 -0.1522 -0.2502 -0.2153
 3699SOL    HW122556   3.195   3.514   1.809 -0.7618 -0.2712 -0.7166
 3699SOL    HW222557   3.077   3.580   1.867  1.2480  0.6294 -1.1906
 3700SOL     OW22558   0.161   1.418   4.508  0.0908 -0.2896  0.2889
 3700SOL    HW122559   0.176   1.387   4.597  0.4978  3.6536  1.5854
 3700SOL    HW222560   0.130   1.509   4.510 -1.5181 -0.7919 -1.9647
 3701SOL     OW22561   3.772   2.016  10.852 -0.6159  0.5807 -0.1944
 3701SOL    HW122562   3.819   2.040  10.932  0.6220 -0.7128 -0.5493
 3701SOL    HW222563   3.724   2.096  10.830 -1.0691  0.9637  2.1446
 3702SOL     OW22564   2.302   0.933  11.735 -0.1940 -0.4635  0.0554
 3702SOL    HW122565   2.210   0.915  11.755 -0.5743 -0.0396 -1.2579
 3702SOL    HW222566   2.335   0.850  11.769 -0.1217 -0.1728  0.6985
 3703SOL     OW22567   2.520   2.631  12.254 -0.9310  0.0465 -0.6567
 3703SOL    HW122568   2.551   2.623  12.344 -0.4449 -1.4804 -0.9614
 3703SOL    HW222569   2.432   2.668  12.248 -1.6284 -1.2890  1.7426
 3704SOL     OW22570   4.584   3.110   5.345  0.2423  0.0631 -0.1172
 3704SOL    HW122571   4.626   3.192   5.321  1.0407  0.3022  2.0658
 3704SOL    HW222572   4.602   3.054   5.270  0.8094 -2.6275  2.0195
 3705SOL     OW22573   4.084   0.081   8.742 -0.1208 -0.0313 -0.0726
 3705SOL    HW122574   4.106   0.162   8.695 -0.5984 -1.6178 -2.9916
 3705SOL    HW222575   4.164   0.032   8.722  0.4183  0.5357  0.7047
 3706SOL     OW22576   1.799   3.281   2.231 -0.1209  0.0122  0.1794
 3706SOL    HW122577   1.863   3.345   2.199  0.3323 -0.7083 -0.3514
 3706SOL    HW222578   1.714   3.312   2.199  0.2129  1.0665  0.3004
 3707SOL     OW22579   3.246   1.628   2.210  0.3206  0.3507  0.3597
 3707SOL    HW122580   3.247   1.724   2.207  0.1243  0.3758  1.0401
 3707SOL    HW222581   3.296   1.598   2.134  1.7400  0.1823  1.3495
 3708SOL     OW22582   3.833   0.012  13.388 -0.1856  0.4602  0.1422
 3708SOL    HW122583   3.761   4.673  13.408  0.5577 -1.0183 -1.5040
 3708SOL    HW222584   3.830   0.007  13.293  1.1210 -0.0235  0.1242
 3709SOL     OW22585   0.187   3.894   3.190  0.2686  0.3668 -0.2769
 3709SOL    HW122586   0.263   3.840   3.209 -1.1905 -1.7271 -0.4086
 3709SOL    HW222587   0.116   3.831   3.178  2.2721 -1.9603  0.1780
 3710SOL     OW22588   3.335   0.873   1.672  0.3948  0.2441 -0.2122
 3710SOL    HW122589   3.418   0.920   1.671  1.0997 -0.9961 -0.2867
 3710SOL    HW222590   3.341   0.855   1.578  2.2597  0.3481 -0.1056
 3711SOL     OW22591   4.233   1.167  13.761 -0.0284  0.5342  0.6737
 3711SOL    HW122592   4.224   1.081  13.802 -1.6555 -0.0544 -0.9202
 3711SOL    HW222593   4.146   1.169  13.720  0.2371  0.7257  0.1210
 3712SOL     OW22594   1.229   2.485   9.911 -0.0287 -0.4266  0.3711
 3712SOL    HW122595   1.200   2.566   9.954  0.4680 -0.1062  0.0994
 3712SOL    HW222596   1.307   2.460   9.960  0.3027 -2.2746 -1.1251
 3713SOL     OW22597   2.298   1.095   9.493  0.3687 -0.0044  0.1610
 3713SOL    HW122598   2.351   1.096   9.572  1.9862  1.6892 -0.9319
 3713SOL    HW222599   2.212   1.117   9.531 -0.3788 -1.8222 -0.5035
 3714SOL     OW22600   2.128   3.354   1.462 -0.0187 -0.6207  0.1367
 3714SOL    HW122601   2.150   3.441   1.429 -0.4166 -0.5955 -0.0551
 3714SOL    HW222602   2.210   3.304   1.465 -0.6154 -1.5678  0.8056
 3715SOL     OW22603   4.314   1.292   5.383 -0.0916  0.4474 -0.3182
 3715SOL    HW122604   4.333   1.251   5.467 -0.6570  0.5140 -0.1604
 3715SOL    HW222605   4.359   1.372   5.407  0.1423  0.2800 -0.1939
 3716SOL     OW22606   3.712   1.882   3.833  0.1555 -0.4726 -0.5159
 3716SOL    HW122607   3.698   1.977   3.830  2.5100 -0.1001  0.3753
 3716SOL    HW222608   3.724   1.880   3.928 -0.9036 -1.5190 -0.4017
 3717SOL     OW22609   1.856   3.339  14.796 -0.5978  0.3579 -0.3337
 3717SOL    HW122610   1.894   3.256  14.769 -1.1042  0.5712 -1.6624
 3717SOL    HW222611   1.894   3.342  14.884 -0.0855  1.9847 -0.6082
 3718SOL     OW22612   2.018   3.984  17.492 -0.1179 -0.8046  0.7081
 3718SOL    HW122613   2.071   4.060  17.468  0.0997 -1.5064 -1.0431
 3718SOL    HW222614   1.933   4.025  17.510  0.1256  0.5738 -1.2561
 3719SOL     OW22615   3.774   4.257  14.249 -0.2248 -0.4691  0.7370
 3719SOL    HW122616   3.765   4.162  14.247  2.2461 -0.7134  0.9906
 3719SOL    HW222617   3.855   4.264  14.198 -1.0140  2.4910 -0.1082
 3720SOL     OW22618   0.078   2.824   6.997 -0.3553 -0.4290 -0.4888
 3720SOL    HW122619   0.109   2.745   6.953  0.7059 -0.2255 -0.1022
 3720SOL    HW222620   0.163   2.841   7.038  0.0358  0.0709 -1.5106
 3721SOL     OW22621   0.926   1.469   6.502 -0.2268 -0.0285  0.5269
 3721SOL    HW122622   0.845   1.430   6.534  0.9147 -1.7719  1.2886
 3721SOL    HW222623   0.891   1.496   6.417  1.6546  0.9738  0.0681
 3722SOL     OW22624   1.809   4.208   1.897  0.6061 -0.2602 -0.0139
 3722SOL    HW122625   1.874   4.158   1.946 -0.9043 -1.1702  1.0754
 3722SOL    HW222626   1.733   4.163   1.934  0.0298 -0.3385 -1.2708
 3723SOL     OW22627   0.455   3.587  11.722  0.4761  0.5989  0.2463
 3723SOL    HW122628   0.444   3.569  11.816  0.5264 -0.7645 -0.0098
 3723SOL    HW222629   0.497   3.672  11.732 -1.1862  1.4900 -0.4906
 3724SOL     OW22630   2.114   2.517   5.144  0.4649  0.5838  0.0405
 3724SOL    HW122631   2.075   2.469   5.071 -0.2566 -0.1333  0.8963
 3724SOL    HW222632   2.202   2.531   5.109  0.7741  0.0392  0.5901
 3725SOL     OW22633   2.122   3.473  14.644  0.0736 -0.1943  0.3078
 3725SOL    HW122634   2.114   3.556  14.692 -0.9175  0.5812 -1.1869
 3725SOL    HW222635   2.210   3.437  14.651 -0.6723 -1.8765  0.9603
 3726SOL     OW22636   3.661   4.586   0.372 -0.1562 -0.2949 -0.6894
 3726SOL    HW122637   3.713   4.508   0.352 -0.9602 -0.5726 -1.7211
 3726SOL    HW222638   3.727   4.655   0.379 -1.1631  0.6104 -0.0029
 3727SOL     OW22639   2.072   1.520   8.117 -0.7250 -0.1331 -0.6029
 3727SOL    HW122640   2.110   1.492   8.034  3.3202 -0.4849  1.3370
 3727SOL    HW222641   2.059   1.613   8.099  0.3285 -0.4197 -2.9371
 3728SOL     OW22642   2.238   0.962   6.316 -0.0964 -0.2578 -0.0582
 3728SOL    HW122643   2.306   0.895   6.322 -0.7601 -0.8690  0.7098
 3728SOL    HW222644   2.237   1.001   6.403  0.5341  0.6818 -0.4793
 3729SOL     OW22645   3.593   0.324   0.711 -0.1961 -0.0803 -0.0508
 3729SOL    HW122646   3.516   0.380   0.704  0.0405 -0.2411 -4.5129
 3729SOL    HW222647   3.596   0.280   0.626  0.6985  0.6362 -0.3958
 3730SOL     OW22648   0.818   3.254   2.178  0.4715 -0.0125  0.3901
 3730SOL    HW122649   0.876   3.277   2.105 -0.7461  0.9540 -0.2805
 3730SOL    HW222650   0.766   3.335   2.179  0.1703 -0.1936 -0.5834
 3731SOL     OW22651   2.463   4.042   3.457  0.4433  0.0304 -0.5808
 3731SOL    HW122652   2.388   3.983   3.453 -0.1482  0.8192 -0.9003
 3731SOL    HW222653   2.452   4.100   3.382  2.6212 -0.0499 -0.9729
 3732SOL     OW22654   0.149   2.515   6.085  0.1123  0.1098  0.4246
 3732SOL    HW122655   0.098   2.510   6.004  1.0133 -0.7218 -0.0890
 3732SOL    HW222656   0.088   2.558   6.144  1.8669  1.5266  1.2132
 3733SOL     OW22657   4.621   1.979   1.397  0.4120  0.0035  0.2149
 3733SOL    HW122658   4.639   1.886   1.389 -2.6571 -0.4578 -1.0994
 3733SOL    HW222659   4.538   1.971   1.350  0.4360 -1.0953  0.3715
 3734SOL     OW22660   3.324   3.717   0.864  0.0724  0.4583  0.2702
 3734SOL    HW122661   3.334   3.800   0.910 -0.6503  1.1826 -0.8664
 3734SOL    HW222662   3.381   3.665   0.919  0.4597 -1.0945 -1.5990
 3735SOL     OW22663   1.190   4.504   7.631 -0.4705 -0.0608 -0.0574
 3735SOL    HW122664   1.111   4.557   7.637 -0.6916 -0.5468  1.3259
 3735SOL    HW222665   1.251   4.573   7.603 -1.2663  0.3680 -0.7064
 3736SOL     OW22666   0.230   2.747   7.775 -0.5856  0.7863 -0.4701
 3736SOL    HW122667   0.320   2.745   7.743 -0.2723 -0.8354  0.5296
 3736SOL    HW222668   0.181   2.727   7.695 -0.9352  1.7105 -0.4869
 3737SOL     OW22669   1.392   0.680   8.222 -0.1626 -0.6954 -0.3125
 3737SOL    HW122670   1.437   0.765   8.214  1.5919 -1.4718  1.4012
 3737SOL    HW222671   1.457   0.628   8.268  1.4733  0.2131 -1.5631
 3738SOL     OW22672   2.249   4.635   8.389 -0.1541  0.5460  0.5427
 3738SOL    HW122673   2.264   4.574   8.462  0.8414  0.4947  0.2860
 3738SOL    HW222674   2.228   0.002   8.425 -0.9796  0.0378  1.2984
 3739SOL     OW22675   0.514   0.217   5.624  0.1763 -0.3039 -0.3635
 3739SOL    HW122676   0.574   0.207   5.551  0.6462  0.5815 -0.0911
 3739SOL    HW222677   0.505   0.312   5.633 -0.6172 -0.3731 -0.3500
 3740SOL     OW22678   1.955   1.131   8.676 -0.7686 -0.1903 -0.1671
 3740SOL    HW122679   1.954   1.188   8.753  0.7569  0.2757 -0.4829
 3740SOL    HW222680   2.005   1.064   8.722 -1.0785  0.3757  1.0021
 3741SOL     OW22681   3.769   4.645  12.154 -0.0547  0.1539  0.3559
 3741SOL    HW122682   3.745   4.583  12.223  0.1799  0.9216  1.1276
 3741SOL    HW222683   3.778   4.712  12.222 -1.3299 -1.1532  1.8110
 3742SOL     OW22684   1.205   3.509   5.529 -0.1584  0.0017  0.3341
 3742SOL    HW122685   1.185   3.591   5.572 -0.7040 -0.0755  0.2251
 3742SOL    HW222686   1.121   3.481   5.491 -0.5370  0.8426  0.5643
 3743SOL     OW22687   2.271   4.381   3.808 -0.5073  0.0369  0.0675
 3743SOL    HW122688   2.227   4.431   3.739  4.4829  1.5088 -2.0259
 3743SOL    HW222689   2.359   4.364   3.773  0.0304  0.5198  1.1854
 3744SOL     OW22690   0.629   4.359   8.931 -0.2327  0.9805  0.0237
 3744SOL    HW122691   0.681   4.339   9.009 -0.0888  0.5669 -0.1778
 3744SOL    HW222692   0.537   4.359   8.959 -1.6393 -1.6082 -4.4308
 3745SOL     OW22693   1.563   0.671   2.069  0.2098 -0.1894  0.4282
 3745SOL    HW122694   1.580   0.735   2.138  2.3653 -2.0031  1.5805
 3745SOL    HW222695   1.497   0.608   2.099 -1.1595  1.8838  1.7908
 3746SOL     OW22696   2.133   4.362   2.680  0.6603  0.3983 -0.1991
 3746SOL    HW122697   2.117   4.445   2.634  0.0195 -0.1936 -1.0574
 3746SOL    HW222698   2.052   4.313   2.670 -0.5005  2.8627 -3.0082
 3747SOL     OW22699   1.101   3.342   6.955 -0.0924 -0.2381  0.5777
 3747SOL    HW122700   1.168   3.410   6.955  0.9206 -1.2235 -1.0789
 3747SOL    HW222701   1.122   3.282   6.883 -0.7023 -0.4309  0.5613
 3748SOL     OW22702   0.662   0.918  17.543  0.0524 -0.3198 -0.8012
 3748SOL    HW122703   0.661   0.895  17.636 -3.1230 -0.0816 -0.7565
 3748SOL    HW222704   0.580   0.969  17.539 -0.7876 -1.5612  0.7222
 3749SOL     OW22705   2.453   1.396  13.690  0.1706 -0.2052 -0.3066
 3749SOL    HW122706   2.376   1.430  13.644  0.4403 -1.2968 -1.5889
 3749SOL    HW222707   2.456   1.465  13.755 -1.1736 -0.0285 -0.4316
 3750SOL     OW22708   3.837   0.629   3.775  0.3496 -0.4454 -0.2442
 3750SOL    HW122709   3.914   0.632   3.831  0.5874 -1.3252 -0.5213
 3750SOL    HW222710   3.875   0.588   3.697  1.7286 -0.6453  0.5453
 3751SOL     OW22711   3.536   0.850   6.644 -0.3174  0.3299  0.3925
 3751SOL    HW122712   3.505   0.777   6.699  0.4743  0.6301  1.2418
 3751SOL    HW222713   3.534   0.804   6.560  0.9891 -0.3223  0.7249
 3752SOL     OW22714   4.474   3.385   5.320 -0.1899  0.4691  0.3078
 3752SOL    HW122715   4.550   3.361   5.268 -0.5361 -0.7386  0.3742
 3752SOL    HW222716   4.443   3.301   5.354  2.3522 -0.1542  1.0287
 3753SOL     OW22717   0.323   0.802   8.576 -0.3938  0.3947 -0.5560
 3753SOL    HW122718   0.384   0.728   8.575 -0.7398  0.0756  2.5479
 3753SOL    HW222719   0.383   0.877   8.584  0.6742 -0.1901 -2.9724
 3754SOL     OW22720   2.030   4.708   2.262 -0.7184  0.5706  0.0724
 3754SOL    HW122721   2.077   4.649   2.203  1.1193  0.3735  1.6853
 3754SOL    HW222722   1.961   0.029   2.211 -0.4505  1.3225  0.3159
 3755SOL     OW22723   4.357   4.356   8.049 -0.3030  0.5321  0.1050
 3755SOL    HW122724   4.262   4.345   8.057 -0.1344 -3.0426 -2.6356
 3755SOL    HW222725   4.356   4.427   7.985  1.2157 -1.1441 -1.7634
 3756SOL     OW22726   4.217   1.662  15.375 -0.2747 -0.3871 -0.3562
 3756SOL    HW122727   4.300   1.642  15.419 -0.0625 -0.9663 -1.0330
 3756SOL    HW222728   4.204   1.583  15.323 -0.3069  1.6784 -3.4654
 3757SOL     OW22729   4.151   1.276   7.486  0.0799 -0.5921 -0.5665
 3757SOL    HW122730   4.123   1.223   7.561  0.2623 -2.5316 -1.8558
 3757SOL    HW222731   4.086   1.346   7.491  0.5065 -0.2178 -0.2921
 3758SOL     OW22732   0.412   1.370   3.175 -0.7178 -0.3081 -0.7283
 3758SOL    HW122733   0.380   1.431   3.109 -0.4770 -1.1121 -1.5862
 3758SOL    HW222734   0.332   1.364   3.227 -0.9668 -2.3213 -1.3417
 3759SOL     OW22735   2.265   3.381   3.851  0.0951 -0.2997 -0.4990
 3759SOL    HW122736   2.278   3.288   3.830 -0.6646 -0.6006  0.3209
 3759SOL    HW222737   2.280   3.410   3.761 -0.3470  1.2076 -0.0854
 3760SOL     OW22738   2.144   0.943   8.415  0.2849  0.0426  0.0277
 3760SOL    HW122739   2.118   0.878   8.480 -1.6551  2.0469  1.2856
 3760SOL    HW222740   2.206   1.001   8.459 -0.6291 -1.4818  3.3081
 3761SOL     OW22741   3.519   2.421  11.506  0.1948  0.8474 -0.1230
 3761SOL    HW122742   3.473   2.400  11.425  1.1198 -0.9343 -0.1827
 3761SOL    HW222743   3.595   2.365  11.492  0.9203  1.2760  2.0890
 3762SOL     OW22744   3.777   4.505  15.504 -0.4775 -0.4151 -0.2250
 3762SOL    HW122745   3.806   4.546  15.585  0.1133 -2.0214  0.3713
 3762SOL    HW222746   3.705   4.451  15.537 -0.1472 -0.8222 -0.1756
 3763SOL     OW22747   3.898   0.033   5.797  0.0764 -0.1145 -0.1556
 3763SOL    HW122748   3.935   0.036   5.708  0.6811  0.1115  0.1090
 3763SOL    HW222749   3.891   0.125   5.820 -0.0270  0.0439 -0.8009
 3764SOL     OW22750   2.054   1.894   2.195  0.3570  0.3969  0.5724
 3764SOL    HW122751   1.988   1.941   2.145  0.3422  0.4382  0.6311
 3764SOL    HW222752   2.109   1.970   2.211  0.6060  0.0652  1.2867
 3765SOL     OW22753   4.140   1.060   2.720  0.0396  0.0587  0.2591
 3765SOL    HW122754   4.118   0.979   2.673  0.6975 -0.8698  1.5485
 3765SOL    HW222755   4.052   1.098   2.723  0.1484  0.3221  0.0967
 3766SOL     OW22756   4.051   0.805   2.591  0.3503 -0.4246 -0.0250
 3766SOL    HW122757   4.060   0.747   2.666 -1.2060 -0.8978 -0.2136
 3766SOL    HW222758   4.139   0.803   2.553  0.8751 -1.1179  1.2490
 3767SOL     OW22759   0.341   1.597  17.337  0.7742  0.0056 -0.1191
 3767SOL    HW122760   0.409   1.609  17.403  0.5533  1.5056 -0.1611
 3767SOL    HW222761   0.373   1.515  17.300  1.4690  0.6391 -0.9379
 3768SOL     OW22762   0.946   0.699   9.387  0.5616 -0.0217 -0.1720
 3768SOL    HW122763   0.852   0.700   9.368  0.7254 -0.4180 -0.9830
 3768SOL    HW222764   0.955   0.778   9.440  1.7903  0.2080 -0.7322
 3769SOL     OW22765   0.627   3.224  16.853  0.3786 -0.5003 -0.0514
 3769SOL    HW122766   0.652   3.313  16.875 -1.1148 -0.5797  1.9149
 3769SOL    HW222767   0.534   3.231  16.872  1.0078 -0.2169  2.9297
 3770SOL     OW22768   2.242   3.873   3.165 -0.0019  0.1016  0.5019
 3770SOL    HW122769   2.297   3.894   3.089  0.9490  0.1278  1.1948
 3770SOL    HW222770   2.301   3.877   3.240  1.3847  1.6601 -0.6610
 3771SOL     OW22771   1.475   0.231   9.380  0.5259  0.3771  0.0803
 3771SOL    HW122772   1.566   0.204   9.392  1.2831  1.6608 -2.7644
 3771SOL    HW222773   1.474   0.326   9.373  0.8598  0.3819  0.1186
 3772SOL     OW22774   2.711   4.538   6.756  0.1317  0.0398 -0.0655
 3772SOL    HW122775   2.767   4.586   6.818 -1.5700 -1.4208  2.5978
 3772SOL    HW222776   2.711   4.449   6.790  1.6070 -0.1270 -0.4863
 3773SOL     OW22777   3.551   2.485   3.850  0.4780  0.4525 -0.1721
 3773SOL    HW122778   3.523   2.576   3.849 -0.0014  0.2772 -2.6059
 3773SOL    HW222779   3.562   2.467   3.757 -0.3169  1.1704 -0.4009
 3774SOL     OW22780   0.792   2.830   9.597  0.7526  0.2500  0.2613
 3774SOL    HW122781   0.765   2.837   9.505  1.9815 -3.7999 -0.4224
 3774SOL    HW222782   0.779   2.920   9.626 -2.6257  0.7817 -2.9097
 3775SOL     OW22783   0.895   1.670  16.388 -0.1423 -0.5793  0.1471
 3775SOL    HW122784   0.861   1.582  16.375 -1.5926 -0.2782  1.9623
 3775SOL    HW222785   0.971   1.671  16.329  0.0193  2.3911  0.3942
 3776SOL     OW22786   0.478   1.269  12.816 -0.1286 -0.3018 -0.0736
 3776SOL    HW122787   0.513   1.311  12.895 -0.4607 -1.3853  0.6482
 3776SOL    HW222788   0.488   1.337  12.750  0.0189 -1.9139 -1.7201
 3777SOL     OW22789   0.675   1.964  13.486  0.4652  0.3280  0.1036
 3777SOL    HW122790   0.728   1.936  13.561 -0.0982  1.7064  1.0037
 3777SOL    HW222791   0.687   1.880  13.440  0.6213  0.8233 -0.7582
 3778SOL     OW22792   4.510   2.755   3.375  0.1973 -0.7366  0.7718
 3778SOL    HW122793   4.585   2.718   3.328  1.1408 -0.6618  2.1888
 3778SOL    HW222794   4.453   2.769   3.300  0.9661 -1.7834 -0.0177
 3779SOL     OW22795   3.669   1.191  17.038 -0.2108  0.4855  0.0752
 3779SOL    HW122796   3.657   1.284  17.021 -0.7554  0.4926  0.4879
 3779SOL    HW222797   3.582   1.150  17.030 -0.1493  0.3239  0.2183
 3780SOL     OW22798   0.492   4.513   3.241 -0.3027 -0.1373  0.1156
 3780SOL    HW122799   0.402   4.488   3.221  0.4364 -1.5361 -1.4522
 3780SOL    HW222800   0.514   4.442   3.302  0.9089  1.0182  1.0293
 3781SOL     OW22801   3.535   4.446  11.638  0.3270 -0.1795 -0.0475
 3781SOL    HW122802   3.453   4.429  11.684  0.5248  1.1182  0.7996
 3781SOL    HW222803   3.599   4.446  11.710 -0.0246 -0.0623  0.2651
 3782SOL     OW22804   2.062   4.598   4.309  0.2229  0.5038 -0.3057
 3782SOL    HW122805   2.151   4.627   4.289  1.4326 -0.4413  3.5104
 3782SOL    HW222806   2.038   4.552   4.229 -2.5914  1.3651  0.0627
 3783SOL     OW22807   2.748   1.295   5.388  0.6195 -0.1021  0.0042
 3783SOL    HW122808   2.780   1.211   5.422  1.0335 -0.5252 -1.4133
 3783SOL    HW222809   2.709   1.262   5.307 -1.2633 -1.2127  1.3639
 3784SOL     OW22810   4.679   0.630   1.966  0.2681  0.0239  0.2019
 3784SOL    HW122811   4.638   0.544   1.967  0.7095 -0.1944 -0.5073
 3784SOL    HW222812   4.634   0.673   1.893  2.0406 -0.4159 -1.1642
 3785SOL     OW22813   3.782   2.746   4.788 -0.5562 -0.4501 -0.2786
 3785SOL    HW122814   3.781   2.829   4.741  0.6397 -0.5517 -0.4824
 3785SOL    HW222815   3.697   2.739   4.832  0.7909  1.5010  2.6003
 3786SOL     OW22816   0.600   2.346   4.694  0.2048  0.1219  0.5896
 3786SOL    HW122817   0.671   2.291   4.662 -0.6299 -0.0524 -0.9590
 3786SOL    HW222818   0.644   2.421   4.735  1.5666 -0.1443 -0.4095
 3787SOL     OW22819   2.206   0.989   0.350  0.0005  0.0098 -0.3880
 3787SOL    HW122820   2.147   1.006   0.424 -1.0485 -1.2397 -0.9382
 3787SOL    HW222821   2.153   0.961   0.275 -2.0892  1.0158  0.7008
 3788SOL     OW22822   0.144   1.937   6.251  0.6700 -0.4442  0.6038
 3788SOL    HW122823   0.154   1.896   6.337 -0.0677  1.6966  1.7019
 3788SOL    HW222824   0.108   2.024   6.269  2.5411  0.3912  0.3574
 3789SOL     OW22825   0.452   0.203   2.948 -0.2107 -0.1865 -0.5458
 3789SOL    HW122826   0.450   0.141   3.021 -0.2520 -1.3421 -1.5399
 3789SOL    HW222827   0.447   0.285   2.998  0.6206 -0.2755 -0.3125
 3790SOL     OW22828   0.429   4.209  17.340 -0.3775 -0.1879  0.0703
 3790SOL    HW122829   0.515   4.246  17.360 -0.1048 -1.9070  2.0886
 3790SOL    HW222830   0.453   4.122  17.308 -0.4860  0.9578 -3.1059
 3791SOL     OW22831   0.679   2.515  11.380  0.3870  0.5489  0.1470
 3791SOL    HW122832   0.662   2.603  11.414 -0.3580  0.6032 -0.3644
 3791SOL    HW222833   0.748   2.491  11.442 -1.1896  1.6335  2.3193
 3792SOL     OW22834   3.584   0.025  15.134 -0.5871  0.5557  0.8400
 3792SOL    HW122835   3.659   0.001  15.188 -0.5396  0.7336  0.8504
 3792SOL    HW222836   3.549   0.111  15.158 -0.3032  0.1954  2.5177
 3793SOL     OW22837   1.567   2.813  14.446  0.4700  0.3290  0.5652
 3793SOL    HW122838   1.571   2.792  14.539  0.6219  0.7776  0.6615
 3793SOL    HW222839   1.490   2.870  14.446  1.2200  1.3504 -0.5403
 3794SOL     OW22840   2.606   3.927   0.377 -0.0982 -0.3670 -0.5993
 3794SOL    HW122841   2.535   3.947   0.316 -0.7977  0.5627  0.5066
 3794SOL    HW222842   2.669   3.879   0.324  1.5048  1.2457 -0.1735
 3795SOL     OW22843   0.606   2.626   1.706  0.4287 -0.3060  0.5602
 3795SOL    HW122844   0.556   2.703   1.732  2.0537  0.2519  2.0802
 3795SOL    HW222845   0.578   2.617   1.615 -0.1049 -0.5842  0.7510
 3796SOL     OW22846   4.522   3.790  13.140  0.2246 -0.1803  0.1562
 3796SOL    HW122847   4.600   3.808  13.088  1.2160 -0.6650  1.5004
 3796SOL    HW222848   4.546   3.706  13.180  0.6798 -0.2296 -0.2218
 3797SOL     OW22849   1.403   2.512   2.268 -0.2410 -0.0124  0.1799
 3797SOL    HW122850   1.373   2.496   2.357  0.0439 -2.4616 -0.1772
 3797SOL    HW222851   1.393   2.607   2.268 -0.2191 -0.0092 -0.3792
 3798SOL     OW22852   2.888   0.972  11.070 -0.6576 -0.1510 -0.2930
 3798SOL    HW122853   2.971   0.927  11.059 -1.0735 -0.9038 -0.3237
 3798SOL    HW222854   2.900   1.049  11.013 -2.1476  0.1706 -0.1835
 3799SOL     OW22855   3.645   0.600   4.903  0.2105 -0.0840 -0.1024
 3799SOL    HW122856   3.705   0.540   4.947 -0.8589 -0.5096  0.7613
 3799SOL    HW222857   3.561   0.556   4.917  0.0493  0.8722  1.9578
 3800SOL     OW22858   2.861   4.440   8.870 -0.0169 -0.3286 -0.3360
 3800SOL    HW122859   2.945   4.426   8.825 -0.4627  0.2038 -1.3543
 3800SOL    HW222860   2.889   4.464   8.958 -0.7137  2.0799 -0.7518
 3801SOL     OW22861   3.507   4.511  11.395 -0.5688 -0.2281  0.4561
 3801SOL    HW122862   3.555   4.446  11.344 -0.9572  1.8713 -2.6470
 3801SOL    HW222863   3.537   4.488  11.483  0.5976 -2.5466 -0.5594
 3802SOL     OW22864   1.472   2.999   3.164 -0.4264 -0.1166 -0.2010
 3802SOL    HW122865   1.454   2.905   3.170  0.3751 -0.2643 -0.0354
 3802SOL    HW222866   1.531   3.009   3.239 -2.4898  1.3569  1.2194
 3803SOL     OW22867   4.100   2.604   5.700 -0.3361  0.6269  0.6162
 3803SOL    HW122868   4.063   2.516   5.703  1.7038 -0.2406  0.4748
 3803SOL    HW222869   4.173   2.589   5.640 -0.9143 -3.2544  0.9142
 3804SOL     OW22870   3.525   1.441  15.253 -0.3108 -0.6001  0.2133
 3804SOL    HW122871   3.462   1.402  15.193  1.5434  0.4232 -2.3985
 3804SOL    HW222872   3.508   1.535  15.250  3.3760  0.1147  0.8399
 3805SOL     OW22873   2.279   4.695  14.893  0.1428 -0.3342 -0.7136
 3805SOL    HW122874   2.351   4.638  14.920 -0.3333  0.3915  2.0465
 3805SOL    HW222875   2.256   0.006  14.981  0.6527 -3.3730  0.5014
 3806SOL     OW22876   3.668   1.487   2.963  0.2581  0.7739 -0.8311
 3806SOL    HW122877   3.662   1.548   3.036  1.1758  0.9811 -0.9271
 3806SOL    HW222878   3.723   1.420   3.003  0.0459  0.6887 -0.6821
 3807SOL     OW22879   1.300   4.688   9.307  0.4232 -0.1391 -0.7074
 3807SOL    HW122880   1.223   4.631   9.303  0.8382 -0.5972 -2.3983
 3807SOL    HW222881   1.301   4.716   9.215  1.7290  0.0826 -0.6171
 3808SOL     OW22882   2.289   0.581   2.159  0.9852  0.0327 -0.2435
 3808SOL    HW122883   2.249   0.505   2.201 -0.2913  0.1495 -1.2404
 3808SOL    HW222884   2.281   0.654   2.220  1.4815 -0.9326  0.9800
 3809SOL     OW22885   3.152   0.125   3.209  0.0347 -0.0343 -0.2051
 3809SOL    HW122886   3.172   0.125   3.116  0.0868 -0.0147 -0.1943
 3809SOL    HW222887   3.215   0.061   3.243 -0.8788 -2.6813 -3.5829
 3810SOL     OW22888   3.806   1.262   8.656 -0.0142 -0.2739  0.2595
 3810SOL    HW122889   3.741   1.253   8.587 -0.7921  0.1187  0.9430
 3810SOL    HW222890   3.888   1.236   8.614 -0.7728 -0.8342 -0.8410
 3811SOL     OW22891   3.640   3.571   0.057  0.2405  0.2568 -0.6262
 3811SOL    HW122892   3.612   3.482   0.037 -0.4991  0.0271  1.4280
 3811SOL    HW222893   3.619   3.618  17.658  0.3273  0.0763 -0.7522
 3812SOL     OW22894   3.138   3.274   1.588 -0.2999 -0.4279 -0.2357
 3812SOL    HW122895   3.092   3.222   1.523  1.8072  0.9007 -2.7867
 3812SOL    HW222896   3.141   3.207   1.657  0.2230 -0.6996 -0.5225
 3813SOL     OW22897   0.911   2.474   5.410  0.0328  0.2625 -0.2740
 3813SOL    HW122898   0.962   2.524   5.473 -1.8445  1.3109  0.4005
 3813SOL    HW222899   0.893   2.539   5.341  1.8647  1.7006  0.6089
 3814SOL     OW22900   4.082   1.576  13.149 -0.0368 -0.0179  0.6760
 3814SOL    HW122901   4.153   1.586  13.212  0.4810 -0.0856  0.1114
 3814SOL    HW222902   4.111   1.630  13.076  0.6515 -0.7202  0.4274
 3815SOL     OW22903   4.513   0.895   3.557  0.1984  0.0843 -0.1316
 3815SOL    HW122904   4.558   0.811   3.550 -0.3895 -0.0719 -2.0986
 3815SOL    HW222905   4.497   0.899   3.652 -0.0260 -2.3441 -0.0599
 3816SOL     OW22906   0.852   1.805  15.405  0.4352 -0.2793  0.5441
 3816SOL    HW122907   0.941   1.823  15.372  0.1287 -0.3439 -0.3296
 3816SOL    HW222908   0.801   1.851  15.338  0.7320 -1.0899 -0.2540
 3817SOL     OW22909   4.312   0.830   0.058 -0.0309 -0.1689 -0.1745
 3817SOL    HW122910   4.385   0.862   0.110  0.5330 -0.2594 -0.9124
 3817SOL    HW222911   4.278   0.754   0.105 -0.5747  0.5706  0.6168
 3818SOL     OW22912   0.298   2.086  14.497 -0.5044 -0.1162  0.0054
 3818SOL    HW122913   0.322   2.081  14.590 -1.8452  1.9683  0.4573
 3818SOL    HW222914   0.261   2.173  14.491 -0.1500  0.1312  1.3015
 3819SOL     OW22915   1.591   0.369   0.374  0.2871 -0.0113 -0.2856
 3819SOL    HW122916   1.585   0.453   0.420 -0.2747 -0.3805  0.3246
 3819SOL    HW222917   1.663   0.389   0.314 -0.6422  2.5172 -0.5713
 3820SOL     OW22918   0.676   4.663   6.791 -0.1053 -0.1326 -0.0140
 3820SOL    HW122919   0.744   4.691   6.853  1.2488 -0.5168 -1.3104
 3820SOL    HW222920   0.729   4.594   6.750  0.6943  0.1857  0.4773
 3821SOL     OW22921   1.326   2.707   8.009  0.3103  0.2025 -0.4578
 3821SOL    HW122922   1.270   2.755   8.070 -1.1109 -0.3214 -1.3343
 3821SOL    HW222923   1.401   2.763   7.987 -0.0627  0.2796 -1.5482
 3822SOL     OW22924   0.836   2.363   3.342 -0.0300  0.0061  0.2681
 3822SOL    HW122925   0.822   2.456   3.322 -0.6426 -0.3080 -0.7881
 3822SOL    HW222926   0.773   2.322   3.283  1.1138  1.5608 -2.0353
 3823SOL     OW22927   1.598   1.666   4.100  0.9120  0.0370 -0.2085
 3823SOL    HW122928   1.608   1.690   4.192 -0.6183 -0.6176  0.1348
 3823SOL    HW222929   1.561   1.578   4.101  2.7173 -0.7177 -0.3116
 3824SOL     OW22930   0.524   0.864   7.757  0.0195 -0.7984 -0.4614
 3824SOL    HW122931   0.434   0.833   7.747 -1.3080  2.2078  2.3010
 3824SOL    HW222932   0.553   0.829   7.841 -1.1850 -1.7696 -0.4377
 3825SOL     OW22933   2.409   2.673   9.321  0.0608 -0.0185 -0.0410
 3825SOL    HW122934   2.386   2.763   9.345  2.6546  1.6947 -3.8967
 3825SOL    HW222935   2.499   2.692   9.297 -0.0507 -1.2710 -1.4935
 3826SOL     OW22936   4.394   1.101  14.431 -0.1828 -0.6860 -0.1431
 3826SOL    HW122937   4.400   1.181  14.377  4.2467 -1.0273 -0.1725
 3826SOL    HW222938   4.485   1.072  14.432  0.0931  0.2408  2.2826
 3827SOL     OW22939   1.650   3.513   5.242  0.1953  0.1412 -0.2315
 3827SOL    HW122940   1.598   3.570   5.300  0.3796  1.3059 -1.1941
 3827SOL    HW222941   1.624   3.426   5.273  0.2076  0.6791  1.2920
 3828SOL     OW22942   0.723   2.944   6.031  0.2341  0.1349 -0.3443
 3828SOL    HW122943   0.731   2.850   6.014 -0.3169  0.1488 -0.6609
 3828SOL    HW222944   0.712   2.976   5.942 -1.2164 -1.2243 -0.6791
 3829SOL     OW22945   3.236   3.737   4.712  0.1425  0.0978  0.7310
 3829SOL    HW122946   3.186   3.674   4.764  0.5690  0.0187  1.0475
 3829SOL    HW222947   3.169   3.773   4.655  2.2283 -0.8181 -2.2854
 3830SOL     OW22948   0.456   3.370  10.380  0.5436  0.2052 -0.0726
 3830SOL    HW122949   0.519   3.299  10.388  0.8372  0.0537 -3.9248
 3830SOL    HW222950   0.393   3.352  10.450  1.4243 -1.5144  0.2672
 3831SOL     OW22951   4.663   4.401   4.747 -0.2035 -0.1807 -0.3535
 3831SOL    HW122952   0.014   4.372   4.804  0.1131 -0.6727 -1.0080
 3831SOL    HW222953   4.644   4.486   4.787  1.9913 -0.1237  0.5457
 3832SOL     OW22954   3.969   0.699  14.108 -0.1866 -0.2649 -0.0865
 3832SOL    HW122955   4.055   0.662  14.130 -0.3704 -1.4640 -1.3603
 3832SOL    HW222956   3.953   0.661  14.021  1.3859  0.1387 -0.5367
 3833SOL     OW22957   2.293   4.244  14.156  0.1146 -0.1063  0.1271
 3833SOL    HW122958   2.286   4.339  14.149  0.3097 -0.2097 -1.4967
 3833SOL    HW222959   2.387   4.230  14.161  0.5276  1.6730 -2.5310
 3834SOL     OW22960   0.267   2.039   3.434  0.0444  0.2125  0.0868
 3834SOL    HW122961   0.294   1.952   3.405  2.3563  0.7987  0.4448
 3834SOL    HW222962   0.338   2.059   3.495 -0.2972 -2.0686  1.2477
 3835SOL     OW22963   3.963   2.369   2.935  0.7003  0.4271  0.3652
 3835SOL    HW122964   3.941   2.391   2.844 -0.2154 -0.5544  0.3487
 3835SOL    HW222965   3.929   2.279   2.941 -1.3541  1.3173  2.1323
 3836SOL     OW22966   3.501   1.531  11.962  0.1678  0.0394  0.1158
 3836SOL    HW122967   3.415   1.574  11.970  0.0769  0.2468 -1.7633
 3836SOL    HW222968   3.465   1.443  11.963  1.3025 -0.3856  1.8783
 3837SOL     OW22969   4.716   1.670  17.240  0.2987  0.2434  0.7509
 3837SOL    HW122970   0.054   1.681  17.315  1.9217 -1.8571 -0.1688
 3837SOL    HW222971   4.711   1.761  17.211 -2.7984  0.1409  0.9360
 3838SOL     OW22972   4.283   2.278   2.414 -0.1348  0.5835  0.2973
 3838SOL    HW122973   4.316   2.205   2.361  1.4912  1.6218 -0.1012
 3838SOL    HW222974   4.345   2.289   2.486  1.8186  0.0065 -1.3059
 3839SOL     OW22975   2.518   1.950   4.873 -0.2001 -0.2614 -0.1017
 3839SOL    HW122976   2.610   1.946   4.902 -0.7392  0.1680  1.6856
 3839SOL    HW222977   2.467   1.926   4.950 -1.3097 -1.9669 -1.3683
 3840SOL     OW22978   3.127   2.165  13.450  0.7065  0.4801 -0.8527
 3840SOL    HW122979   3.036   2.163  13.421  0.4046 -0.6736  0.1591
 3840SOL    HW222980   3.169   2.185  13.366  0.9395  1.3538 -0.5281
 3841SOL     OW22981   3.368   0.005  17.232  0.2619 -0.2487 -0.2606
 3841SOL    HW122982   3.405   0.025  17.146 -0.0817 -0.2959 -0.4162
 3841SOL    HW222983   3.328   4.644  17.199 -0.3363 -0.3475  0.7142
 3842SOL     OW22984   2.448   0.628  14.072  0.3553 -0.0279 -0.0294
 3842SOL    HW122985   2.357   0.597  14.070  0.9078 -1.7210  1.0288
 3842SOL    HW222986   2.426   0.717  14.043 -1.5870 -0.0595  1.3153
 3843SOL     OW22987   0.390   1.042   1.165 -0.4839  0.0021 -0.8377
 3843SOL    HW122988   0.299   1.069   1.152  0.0423  1.6491 -1.0385
 3843SOL    HW222989   0.401   1.051   1.259  2.7946 -0.1403 -1.2106
 3844SOL     OW22990   0.590   2.420   7.693 -0.0359 -0.0194 -0.3146
 3844SOL    HW122991   0.565   2.510   7.716  2.4500  0.7527 -0.6600
 3844SOL    HW222992   0.685   2.417   7.692 -0.0876 -1.2547 -1.0035
 3845SOL     OW22993   0.827   4.527  14.751  0.1198  0.6157 -0.4392
 3845SOL    HW122994   0.775   4.498  14.676 -0.1227 -2.4326  0.9318
 3845SOL    HW222995   0.761   4.577  14.798 -0.6579 -0.5787 -0.2826
 3846SOL     OW22996   3.752   1.032   7.429 -0.1365 -0.4775 -0.2296
 3846SOL    HW122997   3.742   1.123   7.403  3.3168 -0.4609 -1.5472
 3846SOL    HW222998   3.847   1.030   7.412 -0.0732 -1.3298  0.1863
 3847SOL     OW22999   0.793   1.230   6.300  0.5036 -0.2232  0.6668
 3847SOL    HW123000   0.752   1.244   6.385  1.3786 -2.0323  1.3716
 3847SOL    HW223001   0.885   1.220   6.324 -0.2238  2.0937  4.3821
 3848SOL     OW23002   4.490   4.651   7.668 -0.0401 -0.3040 -0.6294
 3848SOL    HW123003   4.567   4.596   7.682  0.2498  0.0686 -0.7515
 3848SOL    HW223004   4.503   0.017   7.709  4.1526 -1.7593  1.0191
 3849SOL     OW23005   0.689   1.147   7.332  0.2581 -0.0332  0.5490
 3849SOL    HW123006   0.673   1.082   7.264 -2.0661  1.0520  0.0694
 3849SOL    HW223007   0.646   1.220   7.288 -6.5358 -1.9426  3.9581
 3850SOL     OW23008   1.972   4.417   9.173 -0.8084 -0.5373 -0.3188
 3850SOL    HW123009   1.892   4.469   9.179 -1.0224 -1.2606  2.9873
 3850SOL    HW223010   2.035   4.481   9.141  0.4595 -1.0195  1.2147
 3851SOL     OW23011   0.966   4.315   7.413  0.0376  0.0376  0.8394
 3851SOL    HW123012   0.901   4.317   7.343 -1.5532 -1.8335  2.2411
 3851SOL    HW223013   0.987   4.408   7.420 -2.3770  0.6854 -0.5888
 3852SOL     OW23014   1.334   2.615   4.342 -0.3478  0.0296 -0.4235
 3852SOL    HW123015   1.276   2.556   4.294 -0.8432 -0.8454  1.2559
 3852SOL    HW223016   1.263   2.654   4.392 -1.1058 -2.4409  0.4534
 3853SOL     OW23017   1.542   1.718   8.830  0.0943  0.1677  0.6422
 3853SOL    HW123018   1.517   1.650   8.893  0.3648 -1.9586 -1.5777
 3853SOL    HW223019   1.632   1.691   8.815  0.1771 -0.1390  1.6802
 3854SOL     OW23020   1.338   0.359   0.226 -0.2464  0.5441 -0.7402
 3854SOL    HW123021   1.411   0.371   0.287 -0.7761 -0.1502  0.0233
 3854SOL    HW223022   1.386   0.324   0.151 -0.5645 -1.8233  0.1699
 3855SOL     OW23023   0.207   1.559   4.754 -0.3974  0.1669 -0.8836
 3855SOL    HW123024   0.229   1.620   4.824 -1.0417  1.0114 -1.4339
 3855SOL    HW223025   0.116   1.538   4.775 -0.6299  1.5551 -0.5473
 3856SOL     OW23026   4.491   1.488   5.418  0.3500  0.3838 -0.1172
 3856SOL    HW123027   4.583   1.474   5.392  0.5624 -0.5297  1.1445
 3856SOL    HW223028   4.500   1.583   5.408  0.9305 -0.1233 -4.4778
 3857SOL     OW23029   0.946   1.404   3.135 -0.1356 -0.4446 -0.1926
 3857SOL    HW123030   0.941   1.496   3.162 -0.9122 -0.1882 -1.2400
 3857SOL    HW223031   0.973   1.355   3.212  0.7026 -1.1918 -0.9619
 3858SOL     OW23032   1.044   0.457   0.626  0.7478 -0.1064 -0.3810
 3858SOL    HW123033   1.010   0.523   0.687 -0.5114  1.1641 -2.4355
 3858SOL    HW223034   1.127   0.502   0.610  1.6961 -1.2370  1.4303
 3859SOL     OW23035   0.992   1.835   1.595 -0.9962  0.1412 -0.0138
 3859SOL    HW123036   1.067   1.827   1.537 -0.3653  0.4069  0.7708
 3859SOL    HW223037   1.031   1.808   1.678 -0.5341  1.5480  0.2157
 3860SOL     OW23038   1.080   4.078   2.447 -0.0994 -0.0141 -0.4706
 3860SOL    HW123039   0.996   4.119   2.424  0.3889  0.4878 -1.3542
 3860SOL    HW223040   1.118   4.078   2.359 -1.4114 -0.7722 -1.0332
 3861SOL     OW23041   1.524   3.999  10.698 -0.6827  0.0219 -0.0077
 3861SOL    HW123042   1.610   4.026  10.730 -0.7558 -0.1862  0.3618
 3861SOL    HW223043   1.469   4.056  10.751  1.1052  1.0197  0.7896
 3862SOL     OW23044   2.798   4.198  10.533 -0.3748  0.1893  0.0290
 3862SOL    HW123045   2.828   4.233  10.449 -0.7645  0.8325  0.1528
 3862SOL    HW223046   2.712   4.159  10.517  0.2577 -0.8802 -0.7285
 3863SOL     OW23047   2.818   1.543  14.236 -0.4110 -0.2657  0.2213
 3863SOL    HW123048   2.729   1.540  14.269 -0.8412 -1.2987 -1.0499
 3863SOL    HW223049   2.827   1.626  14.189  0.5648 -0.6500 -0.2692
 3864SOL     OW23050   4.672   3.427  12.886 -0.4255  0.0037  0.0305
 3864SOL    HW123051   0.044   3.408  12.863  0.1537  1.5286  1.0849
 3864SOL    HW223052   4.684   3.481  12.964 -0.1374  2.3818 -1.6636
 3865SOL     OW23053   1.083   1.914   3.807 -1.1089  0.1487  0.2914
 3865SOL    HW123054   1.010   1.974   3.789 -2.4630 -1.4904  0.2299
 3865SOL    HW223055   1.106   1.892   3.717 -1.0137  1.8853 -0.1052
 3866SOL     OW23056   4.408   3.803  11.984  0.4984  0.0186  0.5118
 3866SOL    HW123057   4.484   3.861  11.979  0.6434 -0.3354 -1.2272
 3866SOL    HW223058   4.366   3.828  12.067 -1.5254  0.3631 -0.6076
 3867SOL     OW23059   0.126   3.431   7.949 -0.9688 -0.1861  0.3803
 3867SOL    HW123060   0.036   3.407   7.973 -0.5726 -1.9222  0.1150
 3867SOL    HW223061   0.130   3.389   7.863 -0.8819  0.5661  0.0193
 3868SOL     OW23062   2.849   3.407   7.398  0.1601 -0.1053 -0.1590
 3868SOL    HW123063   2.900   3.486   7.416 -0.8271  1.0174 -2.3548
 3868SOL    HW223064   2.837   3.376   7.488  0.1627 -1.3406 -0.5781
 3869SOL     OW23065   0.207   0.753   4.904 -0.0090  0.4080 -0.1038
 3869SOL    HW123066   0.300   0.748   4.882  0.4957 -0.8292  2.3261
 3869SOL    HW223067   0.209   0.683   4.969 -1.0912  0.1941 -0.3135
 3870SOL     OW23068   1.707   2.434   5.279 -0.3424 -0.1412  0.4229
 3870SOL    HW123069   1.637   2.407   5.220  1.6862 -1.9754 -1.1352
 3870SOL    HW223070   1.784   2.394   5.239  0.5627  0.2597  1.7610
 3871SOL     OW23071   3.820   0.853  12.066  0.0746 -0.1102  0.0973
 3871SOL    HW123072   3.736   0.806  12.064  0.4394 -0.6665 -2.1761
 3871SOL    HW223073   3.797   0.921  12.129  0.8118 -1.4154  1.7716
 3872SOL     OW23074   2.072   0.670  15.720  0.0763  0.3648 -0.4733
 3872SOL    HW123075   2.028   0.594  15.680 -4.5916  1.3733  2.7537
 3872SOL    HW223076   2.008   0.689  15.788 -0.0237  1.9854 -0.9993
 3873SOL     OW23077   2.090   0.406   2.292  0.0592  0.2112  0.3655
 3873SOL    HW123078   1.998   0.398   2.268  0.6200 -0.7871 -1.5109
 3873SOL    HW223079   2.101   0.334   2.354  2.0802 -0.6521 -0.9807
 3874SOL     OW23080   0.446   1.478   5.812  0.0991  0.7058 -0.1730
 3874SOL    HW123081   0.356   1.460   5.838 -0.4468 -0.0359 -2.5720
 3874SOL    HW223082   0.460   1.568   5.839 -1.1737  0.4160  1.4248
 3875SOL     OW23083   0.096   3.363   3.509  0.6092 -0.0286 -0.0148
 3875SOL    HW123084   0.096   3.446   3.556  1.1935 -0.3771  0.5969
 3875SOL    HW223085   0.027   3.375   3.444  0.1854 -0.7018  0.3079
 3876SOL     OW23086   3.779   0.854   2.563 -0.7140 -0.2674 -0.1067
 3876SOL    HW123087   3.871   0.830   2.576 -0.8762 -0.0292  1.5358
 3876SOL    HW223088   3.763   0.853   2.469  0.1550 -1.9479 -0.2245
 3877SOL     OW23089   2.312   2.329   7.794 -0.2252 -0.4415 -0.0614
 3877SOL    HW123090   2.376   2.290   7.733 -0.6065 -0.2670 -0.5695
 3877SOL    HW223091   2.371   2.330   7.870 -1.3525  0.7865  0.7913
 3878SOL     OW23092   2.916   4.489   9.157  0.3481  0.0975  0.1889
 3878SOL    HW123093   3.011   4.485   9.157  0.3655  0.7819  0.8751
 3878SOL    HW223094   2.906   4.560   9.220 -1.2604 -0.2311  0.3127
 3879SOL     OW23095   3.781   1.127   3.865  0.4786  0.2497  0.2697
 3879SOL    HW123096   3.718   1.085   3.923  0.7123  1.5243  1.4580
 3879SOL    HW223097   3.753   1.218   3.873 -0.1104  0.1446 -0.6092
 3880SOL     OW23098   2.115   3.425   9.242 -0.4883  0.3630 -0.4096
 3880SOL    HW123099   2.202   3.450   9.211 -0.6307  1.9429  0.4428
 3880SOL    HW223100   2.135   3.334   9.261 -0.3603  0.3464 -0.6235
 3881SOL     OW23101   0.590   1.493   8.777 -0.5036 -0.5534 -0.3345
 3881SOL    HW123102   0.632   1.564   8.730  0.7970 -0.5818  0.7944
 3881SOL    HW223103   0.606   1.423   8.713 -0.7909 -1.3503  0.4591
 3882SOL     OW23104   1.954   0.013   6.282 -0.1830  0.2460  0.2626
 3882SOL    HW123105   1.892   0.038   6.214 -1.0374 -0.3586  0.8256
 3882SOL    HW223106   2.027   4.691   6.237 -0.4651 -0.7440  0.7200
 3883SOL     OW23107   3.872   4.212   2.302  0.3862  0.3356 -0.0668
 3883SOL    HW123108   3.815   4.180   2.372  0.1046  2.2152  0.5717
 3883SOL    HW223109   3.807   4.260   2.250 -0.9405 -1.0950  0.2481
 3884SOL     OW23110   0.056   1.902  14.505  0.1816  0.1006 -0.4264
 3884SOL    HW123111   0.011   1.975  14.548  0.3768  0.1424 -0.2933
 3884SOL    HW223112   0.129   1.954  14.472 -0.6455  2.5543  1.6266
 3885SOL     OW23113   1.692   3.155  15.212  0.1026  0.2251 -0.0246
 3885SOL    HW123114   1.728   3.237  15.245  3.9156 -2.3147  2.0008
 3885SOL    HW223115   1.774   3.118  15.181 -1.9319 -1.8129 -3.0019
 3886SOL     OW23116   3.679   4.010   5.775 -0.3807  0.1464 -0.4120
 3886SOL    HW123117   3.692   4.087   5.719 -0.1440  1.2139  1.0881
 3886SOL    HW223118   3.732   4.040   5.849  0.0027  1.8305 -1.3650
 3887SOL     OW23119   1.138   1.884  14.481  0.3015  0.8368 -0.0439
 3887SOL    HW123120   1.067   1.844  14.532 -0.2554  2.5186  0.4884
 3887SOL    HW223121   1.103   1.875  14.392 -0.1491  2.7565 -0.0590
 3888SOL     OW23122   0.986   0.708   8.511 -0.1235  0.4462  0.3016
 3888SOL    HW123123   1.043   0.692   8.586 -1.5783 -0.2082  1.2794
 3888SOL    HW223124   1.042   0.681   8.438 -0.7897  4.1296 -1.5867
 3889SOL     OW23125   0.667   1.385   5.747  0.6185 -0.2287 -0.4231
 3889SOL    HW123126   0.590   1.436   5.773 -0.2724 -1.1154 -1.3061
 3889SOL    HW223127   0.656   1.325   5.822  1.5227  2.3260  1.7386
 3890SOL     OW23128   1.450   3.599   4.546 -0.1073 -0.1179 -0.6029
 3890SOL    HW123129   1.528   3.635   4.588  0.4068 -1.1296 -0.7006
 3890SOL    HW223130   1.495   3.545   4.481  1.5566  0.4366  0.0962
 3891SOL     OW23131   0.871   1.325   5.031  0.1783  0.5731  0.0021
 3891SOL    HW123132   0.898   1.403   4.983  1.5341 -0.1507 -0.4025
 3891SOL    HW223133   0.945   1.315   5.090  0.2607  0.8700 -0.0494
 3892SOL     OW23134   2.430   4.524   6.826 -0.0086 -0.3133  0.1921
 3892SOL    HW123135   2.491   4.541   6.754 -0.2092  0.4501  0.2087
 3892SOL    HW223136   2.419   4.606   6.873 -1.1514  0.4950 -1.4885
 3893SOL     OW23137   4.021   3.898   4.716 -0.0081  0.0994 -0.5844
 3893SOL    HW123138   3.986   3.827   4.662 -1.0085 -0.3880  0.6993
 3893SOL    HW223139   3.990   3.980   4.677  2.7985  0.2142 -2.5715
 3894SOL     OW23140   4.618   1.491  15.318 -0.4610 -0.2806  0.1088
 3894SOL    HW123141   4.624   1.526  15.229 -1.5356 -1.7658 -0.5676
 3894SOL    HW223142   4.575   1.563  15.364  0.7423 -0.0745  0.8979
 3895SOL     OW23143   1.970   0.029  14.818  0.2288  0.1226 -0.1437
 3895SOL    HW123144   1.986   0.118  14.849  0.0890  0.5968 -1.4073
 3895SOL    HW223145   2.029   4.692  14.868 -0.3570 -0.3481  0.0147
 3896SOL     OW23146   3.467   1.777  10.565  0.0960  0.3013  0.1813
 3896SOL    HW123147   3.430   1.726  10.637  1.6117 -1.2970 -0.1798
 3896SOL    HW223148   3.510   1.702  10.523 -0.5359  0.6209 -1.0521
 3897SOL     OW23149   1.965   1.398   2.109  0.3159  0.7899  0.1202
 3897SOL    HW123150   2.037   1.402   2.046 -0.7410 -1.1428 -1.2195
 3897SOL    HW223151   2.013   1.361   2.184 -3.0163 -1.3722  1.1651
 3898SOL     OW23152   4.179   0.306   5.886 -0.1330 -0.2748  0.0815
 3898SOL    HW123153   4.098   0.336   5.845 -0.9712 -0.2058  1.7905
 3898SOL    HW223154   4.155   0.290   5.977  1.0923 -1.3668  0.2274
 3899SOL     OW23155   0.239   3.797   3.797 -0.1907 -0.1659 -0.5940
 3899SOL    HW123156   0.288   3.842   3.729 -1.8679  2.3272 -0.1294
 3899SOL    HW223157   0.303   3.747   3.848 -0.8470 -0.5449 -0.1334
 3900SOL     OW23158   2.036   3.861   9.577  0.1592 -0.1514  0.5410
 3900SOL    HW123159   1.977   3.808   9.523  0.5378 -1.9818  1.9191
 3900SOL    HW223160   2.123   3.829   9.554  0.0057 -0.9123  0.9970
 3901SOL     OW23161   1.712   4.005   7.491  0.3930 -0.0807  0.1233
 3901SOL    HW123162   1.660   3.954   7.553  2.3691 -2.5970 -0.2788
 3901SOL    HW223163   1.749   4.076   7.543  0.6959 -0.7260  0.7908
 3902SOL     OW23164   0.724   3.985   4.457 -0.0672 -0.4369  0.1267
 3902SOL    HW123165   0.731   3.894   4.485  2.9202  0.3854  2.0833
 3902SOL    HW223166   0.650   3.975   4.397  0.1695  0.5280 -0.3230
 3903SOL     OW23167   3.790   1.597  11.335 -0.2836 -0.1499  0.1047
 3903SOL    HW123168   3.722   1.580  11.269 -1.8734  0.0985  1.6814
 3903SOL    HW223169   3.784   1.690  11.355 -0.5409  0.4198 -2.6333
 3904SOL     OW23170   0.492   0.051  16.323  0.1610 -0.0846  0.0170
 3904SOL    HW123171   0.457   0.029  16.237  0.0046 -0.8522  0.2757
 3904SOL    HW223172   0.417   0.098  16.358 -1.3297 -0.4342 -2.7217
 3905SOL     OW23173   2.837   1.518   6.419 -0.4730  0.2725  0.2513
 3905SOL    HW123174   2.852   1.425   6.435  1.6624  0.4937 -0.4410
 3905SOL    HW223175   2.749   1.529   6.455 -0.9474  0.7990 -1.0749
 3906SOL     OW23176   4.692   0.782  12.583 -0.0714 -0.2711  0.1890
 3906SOL    HW123177   4.683   0.768  12.489  0.5348 -3.4894  0.6400
 3906SOL    HW223178   0.061   0.816  12.589  0.0263 -0.3362 -0.8573
 3907SOL     OW23179   3.487   1.396  15.823  0.1707 -0.1197  0.2764
 3907SOL    HW123180   3.418   1.413  15.758 -0.4462  1.8538  1.4590
 3907SOL    HW223181   3.429   1.379  15.897  1.6162 -0.5882  1.3026
 3908SOL     OW23182   1.768   3.778   3.350  0.3753 -0.1032  0.1333
 3908SOL    HW123183   1.754   3.754   3.259 -1.4781  0.1595  0.3444
 3908SOL    HW223184   1.766   3.692   3.393  2.0681  0.3691  1.1467
 3909SOL     OW23185   3.725   1.296   7.375 -0.1875 -0.4490 -0.3000
 3909SOL    HW123186   3.689   1.378   7.409  0.5963  0.2488 -1.1656
 3909SOL    HW223187   3.735   1.325   7.285  3.0317  0.1069  0.2524
 3910SOL     OW23188   0.313   1.239   4.004  0.0758  0.4801 -0.3195
 3910SOL    HW123189   0.350   1.169   4.057 -0.2018 -0.4062 -1.3056
 3910SOL    HW223190   0.382   1.261   3.940  3.0098 -1.1300  2.2887
 3911SOL     OW23191   2.527   2.696   6.482  0.3178  0.0872 -0.1775
 3911SOL    HW123192   2.454   2.758   6.481  0.1947 -0.0559  0.1621
 3911SOL    HW223193   2.547   2.687   6.575  0.9582 -0.2178 -0.3448
 3912SOL     OW23194   3.247   2.733  10.585 -0.1443 -0.4191 -0.1164
 3912SOL    HW123195   3.249   2.828  10.600 -1.0462 -0.2620 -0.9676
 3912SOL    HW223196   3.169   2.701  10.630  0.9460  0.3321  2.3036
 3913SOL     OW23197   1.326   0.236   3.541 -0.1212 -0.3644 -0.6672
 3913SOL    HW123198   1.305   0.195   3.625  0.8920  2.2424  0.8481
 3913SOL    HW223199   1.411   0.277   3.557 -0.3057  0.4719 -1.8701
 3914SOL     OW23200   1.475   4.415   7.270 -0.1638  0.2473  0.5787
 3914SOL    HW123201   1.469   4.510   7.263 -1.4421  0.1454  0.3341
 3914SOL    HW223202   1.526   4.410   7.351 -1.5240 -0.0104  1.4179
 3915SOL     OW23203   2.718   2.867  12.908 -0.2788  0.1883  0.3746
 3915SOL    HW123204   2.743   2.897  12.996  0.0792 -0.4479  0.4913
 3915SOL    HW223205   2.745   2.775  12.908  1.1270  0.5960 -1.0086
 3916SOL     OW23206   1.963   1.723   7.272  0.0886  0.7678  0.5464
 3916SOL    HW123207   1.880   1.758   7.239  0.5137  2.6245  1.4504
 3916SOL    HW223208   2.007   1.692   7.193 -0.3939  1.6869 -0.0790
 3917SOL     OW23209   3.900   2.395   6.067 -0.5502  0.1827 -0.0651
 3917SOL    HW123210   3.940   2.322   6.112  0.7961  0.6037 -0.5669
 3917SOL    HW223211   3.976   2.435   6.025  0.0687  0.1738  1.0598
 3918SOL     OW23212   0.045   1.379  13.854  0.0026 -0.4538 -0.0004
 3918SOL    HW123213   0.037   1.314  13.923  1.7001  1.5637  2.1035
 3918SOL    HW223214   0.036   1.463  13.899 -1.9615 -0.5439 -0.2450
 3919SOL     OW23215   1.310   4.566   4.512 -0.1736 -0.0973  0.0613
 3919SOL    HW123216   1.301   4.507   4.587  0.1593 -1.0421 -0.6515
 3919SOL    HW223217   1.398   4.546   4.479 -0.2414  0.3653 -0.4049
 3920SOL     OW23218   0.132   1.422  11.765  0.6145  0.1738 -0.0928
 3920SOL    HW123219   0.041   1.424  11.737  0.7388 -1.4806 -0.6016
 3920SOL    HW223220   0.132   1.455  11.855 -2.4200  0.4082 -0.1931
 3921SOL     OW23221   3.909   2.160  16.130 -0.0543  0.8723 -0.0107
 3921SOL    HW123222   3.903   2.138  16.223 -0.7598 -0.8682 -0.4727
 3921SOL    HW223223   3.997   2.193  16.109 -0.8149  2.0727 -1.3594
 3922SOL     OW23224   2.356   3.792   1.566 -0.0756  0.6825 -0.0233
 3922SOL    HW123225   2.292   3.834   1.509 -1.9049  0.4451  1.8512
 3922SOL    HW223226   2.435   3.843   1.550  1.0739 -0.4704  2.0286
 3923SOL     OW23227   2.650   3.092   2.680 -0.3735 -0.1515  0.4950
 3923SOL    HW123228   2.680   3.059   2.596 -1.1346 -0.1091  0.2036
 3923SOL    HW223229   2.718   3.153   2.707  0.5884 -0.3874 -1.4468
 3924SOL     OW23230   0.677   2.336  16.964  0.6055 -0.2952  0.3189
 3924SOL    HW123231   0.764   2.313  16.931 -0.6717 -4.2993 -0.2712
 3924SOL    HW223232   0.698   2.382  17.045  1.0007  0.6995 -0.3501
 3925SOL     OW23233   0.968   0.610   3.451 -0.2662 -0.2892  0.4360
 3925SOL    HW123234   0.898   0.671   3.476 -1.1614 -1.5239  0.8904
 3925SOL    HW223235   0.929   0.557   3.382  0.8222  0.9269 -1.1216
 3926SOL     OW23236   2.535   4.597   2.302  0.1289  0.1723 -0.1146
 3926SOL    HW123237   2.549   4.517   2.250  0.8748 -1.1892  2.1817
 3926SOL    HW223238   2.524   4.666   2.237  0.2589  2.7778  2.6455
 3927SOL     OW23239   2.301   1.916  12.717  0.0958 -0.5720  0.0340
 3927SOL    HW123240   2.390   1.893  12.745  0.0299  0.5802  1.2114
 3927SOL    HW223241   2.285   1.865  12.638 -1.4190 -0.0407 -0.0014
 3928SOL     OW23242   3.876   4.539   8.800  0.0783 -0.0237 -0.3233
 3928SOL    HW123243   3.937   4.482   8.753 -1.8821 -1.4756 -1.1050
 3928SOL    HW223244   3.794   4.522   8.753 -0.1340 -0.7229  0.3138
 3929SOL     OW23245   3.015   4.602  10.155 -0.2085 -0.5307  0.1086
 3929SOL    HW123246   3.053   4.574  10.238 -2.1671 -1.8992  0.5414
 3929SOL    HW223247   2.989   4.524  10.107 -2.6559  1.0465 -1.1656
 3930SOL     OW23248   4.186   4.587  11.122  0.2569  0.1214 -0.0274
 3930SOL    HW123249   4.226   4.616  11.204 -1.3956 -2.6643  1.7827
 3930SOL    HW223250   4.121   4.657  11.110 -1.4211 -1.1184  1.7256
 3931SOL     OW23251   1.141   3.211   1.460 -0.6271 -0.1304 -0.1151
 3931SOL    HW123252   1.234   3.207   1.439 -0.1998  2.8081  1.2489
 3931SOL    HW223253   1.125   3.118   1.479 -0.4421  0.2651  1.9696
 3932SOL     OW23254   1.855   1.981   2.008  0.2294 -0.2845  0.2201
 3932SOL    HW123255   1.820   1.898   1.976  0.2191 -0.6364  1.1463
 3932SOL    HW223256   1.851   2.033   1.927  0.0146  0.3682  0.6578
 3933SOL     OW23257   1.068   0.126   3.407  0.2345  0.7368  0.2165
 3933SOL    HW123258   1.138   0.119   3.472  1.5695  2.2514 -1.0676
 3933SOL    HW223259   1.012   0.185   3.457  0.7242  0.6590  0.8630
 3934SOL     OW23260   4.596   0.705   2.486 -0.5779  0.0314 -0.0777
 3934SOL    HW123261   4.629   0.656   2.411  1.8155 -0.9737  1.6434
 3934SOL    HW223262   4.669   0.763   2.507 -1.8371  1.3727  0.5997
 3935SOL     OW23263   1.931   3.426   5.746 -0.1265 -0.0820  0.2569
 3935SOL    HW123264   1.890   3.411   5.661  2.2972  0.2075 -0.9695
 3935SOL    HW223265   1.898   3.350   5.795  0.0328  0.3414  1.0189
 3936SOL     OW23266   0.566   3.734   5.739  0.1090 -0.1765  0.7740
 3936SOL    HW123267   0.491   3.679   5.717  0.8328 -0.5170 -0.8215
 3936SOL    HW223268   0.629   3.703   5.674 -0.5920  0.7034 -0.3508
 3937SOL     OW23269   3.260   0.380   6.990 -0.2316  0.9799  0.5450
 3937SOL    HW123270   3.264   0.334   7.074  0.6933  1.3540  0.7026
 3937SOL    HW223271   3.328   0.444   7.010  0.1227  1.3792 -1.9076
 3938SOL     OW23272   0.044   0.024   3.578  0.2395  0.0701 -0.1597
 3938SOL    HW123273   0.001   0.100   3.540 -3.7426 -1.9620  0.3045
 3938SOL    HW223274   4.690   4.687   3.602  0.8284 -1.2427 -1.4571
 3939SOL     OW23275   1.916   2.684   5.219 -0.1087 -0.8257  0.4083
 3939SOL    HW123276   1.997   2.642   5.189  1.1519  0.6205  1.7510
 3939SOL    HW223277   1.868   2.700   5.138  0.0874  0.3163  0.5155
 3940SOL     OW23278   4.137   1.070   5.996  0.0527  0.1243 -0.1214
 3940SOL    HW123279   4.134   1.165   6.007 -0.7148  0.2955 -1.9601
 3940SOL    HW223280   4.053   1.033   6.024  0.0043  1.8214  2.0253
 3941SOL     OW23281   2.625   0.671   4.787  0.0472  0.5183  0.0616
 3941SOL    HW123282   2.531   0.654   4.777  0.5928 -1.7914 -1.2097
 3941SOL    HW223283   2.658   0.629   4.708 -0.9636 -1.2233  0.5631
 3942SOL     OW23284   2.894   0.503   5.841  0.6031 -0.2781  0.6121
 3942SOL    HW123285   2.879   0.410   5.824  0.5347 -0.1210 -0.1564
 3942SOL    HW223286   2.804   0.523   5.818  0.3081 -1.6074  0.5665
 3943SOL     OW23287   1.014   4.337   8.142 -0.4069 -0.2916 -0.0715
 3943SOL    HW123288   1.086   4.380   8.095 -0.5674 -0.1408 -0.1753
 3943SOL    HW223289   0.953   4.308   8.074 -0.0196  2.7591 -1.6881
 3944SOL     OW23290   0.224   3.905  17.220  0.6147 -0.0010 -0.6444
 3944SOL    HW123291   0.250   3.992  17.190  0.3997  0.9693  2.0397
 3944SOL    HW223292   0.183   3.930  17.302  0.2457 -1.6215 -0.3270
 3945SOL     OW23293   2.499   2.388   2.932 -0.7027  0.1670 -0.0999
 3945SOL    HW123294   2.517   2.301   2.895  2.8925  0.1810  1.6147
 3945SOL    HW223295   2.517   2.357   3.021  1.9054  5.1536  1.0978
 3946SOL     OW23296   2.843   0.391   6.596 -0.3051 -0.1270 -0.7377
 3946SOL    HW123297   2.771   0.372   6.536 -1.6334  0.7423  0.5928
 3946SOL    HW223298   2.913   0.343   6.552  0.0062  0.3635 -0.7793
 3947SOL     OW23299   0.176   0.712   7.219 -0.5862  0.0808  0.3294
 3947SOL    HW123300   0.215   0.777   7.161  3.3166 -1.1991  1.5348
 3947SOL    HW223301   0.083   0.735   7.221 -0.1022  2.0080  0.3862
 3948SOL     OW23302   0.274   3.039   5.561 -0.5188  0.5174  0.6240
 3948SOL    HW123303   0.244   3.026   5.651  0.6220  0.7965  1.0493
 3948SOL    HW223304   0.366   3.060   5.579  0.4745 -2.8911 -0.5591
 3949SOL     OW23305   4.344   0.373   3.906  0.1023  0.5611  0.2989
 3949SOL    HW123306   4.345   0.330   3.991  0.5509  0.9317  0.4786
 3949SOL    HW223307   4.403   0.321   3.852 -0.8729 -1.6184  1.3721
 3950SOL     OW23308   0.213   3.162   5.148  0.5257  0.3864  0.1470
 3950SOL    HW123309   0.299   3.165   5.105 -1.0025  0.4130 -2.9089
 3950SOL    HW223310   0.191   3.069   5.158  0.6163  0.3355 -0.1397
 3951SOL     OW23311   3.627   2.166   8.540  0.3795 -0.4410  0.5544
 3951SOL    HW123312   3.635   2.261   8.548  0.6315 -0.4593  0.5200
 3951SOL    HW223313   3.617   2.152   8.634  0.2150  0.2300  0.6374
 3952SOL     OW23314   4.338   3.305  14.274  0.0543  0.0079  0.4855
 3952SOL    HW123315   4.428   3.291  14.244  0.4380  0.6046  1.3442
 3952SOL    HW223316   4.293   3.255  14.207  1.7289 -1.1506  0.2095
 3953SOL     OW23317   0.647   4.443  10.514 -0.4462  0.0778  0.6232
 3953SOL    HW123318   0.639   4.522  10.459  0.7513 -0.5365 -0.4422
 3953SOL    HW223319   0.718   4.477  10.569 -0.4972 -0.2807  0.9069
 3954SOL     OW23320   1.805   0.840  11.574 -0.0061 -0.7624 -0.1503
 3954SOL    HW123321   1.712   0.855  11.559  0.4298  1.2547 -0.7977
 3954SOL    HW223322   1.800   0.747  11.597 -2.3292 -0.6138 -0.1245
 3955SOL     OW23323   1.270   0.195   7.290  0.2012  0.6288  0.7386
 3955SOL    HW123324   1.241   0.189   7.381  1.7817 -3.4227  0.9439
 3955SOL    HW223325   1.257   0.107   7.257  0.6878  1.5733 -1.9492
 3956SOL     OW23326   2.703   4.430   6.499  0.3817  0.1358  0.7255
 3956SOL    HW123327   2.676   4.502   6.442  0.2723 -0.6923 -0.2908
 3956SOL    HW223328   2.684   4.473   6.581 -1.6065  2.9659 -1.2386
 3957SOL     OW23329   0.531   2.735   8.452  0.2367 -0.3035 -0.2948
 3957SOL    HW123330   0.472   2.663   8.475  0.7437 -1.1096 -1.5478
 3957SOL    HW223331   0.467   2.801   8.423 -0.0459  0.1977  1.4321
 3958SOL     OW23332   1.285   4.333   1.124 -0.3756  0.3651 -0.5992
 3958SOL    HW123333   1.241   4.248   1.123  0.2621  0.0235  0.2947
 3958SOL    HW223334   1.356   4.311   1.064 -1.2281 -0.1092 -1.4296
 3959SOL     OW23335   4.146   1.143   3.495  0.3032  0.6932  0.1715
 3959SOL    HW123336   4.167   1.128   3.588 -1.9900  1.7648  0.8566
 3959SOL    HW223337   4.079   1.210   3.510  0.7955  1.6951 -2.1048
 3960SOL     OW23338   1.023   0.442   5.760  0.2571  0.0769 -0.6316
 3960SOL    HW123339   0.947   0.462   5.814  2.0855  1.3513  1.4934
 3960SOL    HW223340   1.062   0.375   5.817 -0.6859  0.0993  0.0246
 3961SOL     OW23341   3.474   2.792   5.405  0.3087  0.0441  0.1882
 3961SOL    HW123342   3.441   2.745   5.329 -1.0561  0.1488  0.7050
 3961SOL    HW223343   3.500   2.869   5.355 -0.3819  0.3915  0.3479
 3962SOL     OW23344   4.288   3.532   9.095 -0.0143 -0.1251  0.2454
 3962SOL    HW123345   4.257   3.441   9.092  0.0789 -0.1546  0.1828
 3962SOL    HW223346   4.295   3.559   9.004  0.2996 -1.5552 -0.1671
 3963SOL     OW23347   0.653   0.386  12.058  0.7187 -0.2575 -0.2945
 3963SOL    HW123348   0.583   0.373  11.994  1.4500 -2.0105 -0.7435
 3963SOL    HW223349   0.602   0.424  12.130  0.1446  0.8521 -1.2840
 3964SOL     OW23350   4.159   3.248   5.364  0.2030  0.1453  0.1919
 3964SOL    HW123351   4.098   3.176   5.350  1.9710 -0.7121 -3.1919
 3964SOL    HW223352   4.110   3.308   5.419 -0.0280 -0.2487  0.4142
 3965SOL     OW23353   0.818   1.259  11.102  0.1859 -0.2563  0.0706
 3965SOL    HW123354   0.786   1.348  11.088  1.9599  0.4817  0.7183
 3965SOL    HW223355   0.740   1.219  11.063 -1.6033  2.3750  0.9295
 3966SOL     OW23356   2.812   0.903  11.497 -0.3950 -0.5345 -0.5441
 3966SOL    HW123357   2.734   0.850  11.511  2.0000 -4.2156 -1.2991
 3966SOL    HW223358   2.859   0.885  11.579 -1.4930  0.2585  0.2625
 3967SOL     OW23359   3.639   4.650   0.759 -0.0866  0.4909  0.3876
 3967SOL    HW123360   3.733   4.631   0.758 -0.0202  0.8638 -0.5333
 3967SOL    HW223361   3.613   4.570   0.712 -0.6336 -0.7826  2.8697
 3968SOL     OW23362   2.154   2.459   5.426 -0.2135  0.6436 -0.1502
 3968SOL    HW123363   2.107   2.402   5.486  0.0411  1.7391  1.0975
 3968SOL    HW223364   2.115   2.435   5.343 -1.3261 -0.1838  0.6169
 3969SOL     OW23365   1.771   2.819   6.940  0.5547 -0.0130  1.0097
 3969SOL    HW123366   1.686   2.820   6.895  0.9426  3.3406  0.3553
 3969SOL    HW223367   1.807   2.732   6.926  1.8524  1.1181 -2.5220
 3970SOL     OW23368   3.298   4.258   6.067 -0.4632  0.2948 -0.1696
 3970SOL    HW123369   3.347   4.196   6.013 -0.2323  0.0077  0.3630
 3970SOL    HW223370   3.237   4.198   6.111 -0.6517  1.4921  1.2160
 3971SOL     OW23371   1.893   2.357   1.639 -0.2957  0.2113  0.9390
 3971SOL    HW123372   1.868   2.406   1.717 -0.2041  0.4780  0.8019
 3971SOL    HW223373   1.868   2.414   1.566  0.1175 -2.2396 -1.0993
 3972SOL     OW23374   0.038   1.035   3.483  0.5001  0.4288  0.1124
 3972SOL    HW123375   4.717   1.053   3.399  0.2261 -2.2430 -0.3122
 3972SOL    HW223376   4.680   1.008   3.532  1.2792 -1.3071  0.3806
 3973SOL     OW23377   4.395   1.157   9.067 -0.5319  0.3207  0.2545
 3973SOL    HW123378   4.402   1.138   9.160  1.5579 -2.1593 -0.4358
 3973SOL    HW223379   4.485   1.164   9.036 -0.8571  1.1263 -0.5521
 3974SOL     OW23380   1.620   1.253   3.404  0.4090  0.2665  0.0845
 3974SOL    HW123381   1.711   1.228   3.391  0.7390  1.1977  0.6095
 3974SOL    HW223382   1.569   1.203   3.341  0.8579  0.1008 -0.1473
 3975SOL     OW23383   0.028   1.015   4.059  0.3569 -0.0842 -0.2873
 3975SOL    HW123384   0.087   0.974   4.123  0.6031  1.5400  0.5196
 3975SOL    HW223385   0.046   1.099   4.100  0.1859  0.4169 -1.2579
 3976SOL     OW23386   4.534   3.804   1.221 -0.4082 -0.1024 -0.2858
 3976SOL    HW123387   4.486   3.852   1.290 -1.4677  0.7188 -1.5900
 3976SOL    HW223388   4.585   3.877   1.186 -1.0558  0.8523  0.7469
 3977SOL     OW23389   2.399   4.238  16.989 -0.5552  0.0993 -0.2002
 3977SOL    HW123390   2.458   4.312  17.001  0.7145 -0.9555  0.1121
 3977SOL    HW223391   2.406   4.184  17.067  2.3862  1.0022  0.1866
 3978SOL     OW23392   0.774   1.587  17.378  0.1193 -0.2960  0.4991
 3978SOL    HW123393   0.753   1.680  17.384 -2.4995 -0.9882  2.1415
 3978SOL    HW223394   0.865   1.587  17.409  0.3027  1.3748 -0.0535
 3979SOL     OW23395   2.587   0.934   8.645  0.0927  0.8408  0.1761
 3979SOL    HW123396   2.653   0.946   8.714 -2.5433 -0.0564  2.8235
 3979SOL    HW223397   2.648   0.884   8.589 -1.7093  0.5770 -1.5518
 3980SOL     OW23398   4.103   0.383   2.140 -0.1913  0.3780 -0.6544
 3980SOL    HW123399   4.138   0.326   2.072 -1.9990 -1.8036  0.2572
 3980SOL    HW223400   4.154   0.463   2.128  0.5861 -0.1326 -0.7646
 3981SOL     OW23401   3.943   2.179   7.742 -0.1648  0.0687  0.1974
 3981SOL    HW123402   3.941   2.188   7.837 -0.5000  0.1671  0.1817
 3981SOL    HW223403   4.025   2.225   7.723  0.5272 -1.6085 -0.8857
 3982SOL     OW23404   2.002   0.288   3.517  0.3700 -0.2266  0.9067
 3982SOL    HW123405   2.040   0.243   3.441 -0.6820 -0.6258  0.6081
 3982SOL    HW223406   1.942   0.221   3.549  0.1674 -0.4984 -0.0181
 3983SOL     OW23407   0.466   0.965   8.901 -0.4300  0.2400  0.0538
 3983SOL    HW123408   0.534   1.033   8.908  0.7744 -0.8378 -1.1220
 3983SOL    HW223409   0.472   0.948   8.807 -0.2494 -0.3141  0.1653
 3984SOL     OW23410   0.887   4.368   3.006 -0.5491 -0.3715  0.0353
 3984SOL    HW123411   0.955   4.397   3.067  1.8894  0.8570 -3.3160
 3984SOL    HW223412   0.822   4.438   3.019 -0.5634 -0.3947  0.0901
 3985SOL     OW23413   4.674   2.237   0.362  0.0740  0.0660 -0.6676
 3985SOL    HW123414   4.642   2.277   0.282 -1.2521 -1.4190 -0.8780
 3985SOL    HW223415   4.593   2.229   0.413 -0.4172 -2.2221 -1.7753
 3986SOL     OW23416   1.598   0.807   7.128  0.5658 -0.3388 -0.5441
 3986SOL    HW123417   1.558   0.791   7.043  0.0981 -2.2486  0.0404
 3986SOL    HW223418   1.556   0.737   7.178  1.4520 -2.4879 -2.8304
 3987SOL     OW23419   2.663   0.947  14.254  1.0086 -0.4146 -0.1828
 3987SOL    HW123420   2.724   0.993  14.196 -1.3640  1.8189 -0.8637
 3987SOL    HW223421   2.665   0.860  14.215  2.0464 -0.6420  0.3776
 3988SOL     OW23422   2.387   0.165   5.064  0.0874  0.2324 -0.1104
 3988SOL    HW123423   2.396   0.099   5.133 -0.0413 -0.8536 -1.1217
 3988SOL    HW223424   2.380   0.241   5.121 -0.3502  1.2069 -1.4686
 3989SOL     OW23425   0.106   4.124  16.562  0.2395  0.0554 -0.2491
 3989SOL    HW123426   0.155   4.203  16.541 -1.3061  0.7329 -1.2888
 3989SOL    HW223427   0.093   4.092  16.473 -0.4633  0.4932 -0.3034
 3990SOL     OW23428   0.297   0.423   5.453  0.7940 -0.0760  0.5380
 3990SOL    HW123429   0.287   0.447   5.545  0.0460 -0.6788  0.6073
 3990SOL    HW223430   0.204   0.411   5.437  0.9357  1.1082 -1.1984
 3991SOL     OW23431   1.527   1.514   3.436 -0.5300 -0.1989  0.2156
 3991SOL    HW123432   1.573   1.433   3.419  0.7533  0.6190 -0.2207
 3991SOL    HW223433   1.442   1.486   3.471 -1.2940  1.0794 -0.5500
 3992SOL     OW23434   3.824   4.307  10.474 -0.1269  0.1760  0.1290
 3992SOL    HW123435   3.775   4.294  10.393 -1.1110  0.3657  0.6936
 3992SOL    HW223436   3.912   4.300  10.438 -0.2634 -0.7301 -0.0240
 3993SOL     OW23437   4.173   0.917  14.954  0.0063  0.9004 -0.0697
 3993SOL    HW123438   4.122   0.998  14.962 -0.0521  0.9054 -0.5039
 3993SOL    HW223439   4.187   0.900  15.047 -0.8412 -1.7660 -0.4445
 3994SOL     OW23440   2.392   1.390  15.087  0.2519 -0.8571  0.0815
 3994SOL    HW123441   2.408   1.314  15.030 -1.3195 -0.6076 -0.7037
 3994SOL    HW223442   2.365   1.459  15.026 -0.8560 -2.5582 -1.3422
 3995SOL     OW23443   1.961   0.436   1.676  0.6733 -0.1914 -0.3441
 3995SOL    HW123444   1.916   0.380   1.612  1.8139 -0.2535 -1.1011
 3995SOL    HW223445   1.885   0.486   1.706  1.7881  0.8473  0.7420
 3996SOL     OW23446   3.479   3.005   7.558  0.1459  0.2232 -0.3466
 3996SOL    HW123447   3.388   3.024   7.581  0.4426 -1.4866  2.3586
 3996SOL    HW223448   3.480   3.043   7.471 -0.0432 -1.3997 -1.0589
 3997SOL     OW23449   1.254   4.445   8.024 -0.3789  0.8218 -0.0804
 3997SOL    HW123450   1.319   4.423   8.090 -1.0934  1.1991  0.7584
 3997SOL    HW223451   1.308   4.451   7.945 -2.5823  0.1718 -1.6452
 3998SOL     OW23452   0.565   4.699   3.788  0.2989 -0.3997 -0.1438
 3998SOL    HW123453   0.627   0.039   3.746  0.8345 -0.5834  0.3815
 3998SOL    HW223454   0.484   0.021   3.759  1.0308  0.4844 -0.8864
 3999SOL     OW23455   0.487   2.406  16.788  0.2743  0.6167  0.4146
 3999SOL    HW123456   0.554   2.379  16.850  1.6082  2.6217 -0.1643
 3999SOL    HW223457   0.408   2.356  16.808  0.9182  0.0120  1.4334
 4000SOL     OW23458   3.816   0.623   7.868  0.2590  0.2468 -0.5517
 4000SOL    HW123459   3.864   0.671   7.935 -2.3290 -0.0053  1.4741
 4000SOL    HW223460   3.809   0.686   7.796  1.3603 -0.5045 -1.3084
 4001SOL     OW23461   3.853   3.811   3.346  0.0155 -0.0830  0.1489
 4001SOL    HW123462   3.842   3.767   3.430 -2.7235 -1.8328 -1.1025
 4001SOL    HW223463   3.777   3.773   3.302 -1.0612  2.6345 -0.2905
 4002SOL     OW23464   2.234   3.084   2.306 -0.0463  0.1024  0.5348
 4002SOL    HW123465   2.280   3.024   2.247  1.4791  0.3662  1.4480
 4002SOL    HW223466   2.145   3.073   2.275 -0.0584 -2.0232  1.3056
 4003SOL     OW23467   3.993   0.069  11.122  0.1958 -0.1805  0.0294
 4003SOL    HW123468   3.960   0.057  11.033 -0.8794  2.6320  0.0219
 4003SOL    HW223469   3.924   0.020  11.166  0.9518  0.4731  1.9428
 4004SOL     OW23470   4.208   0.362   6.851  0.6250  0.1400  0.5729
 4004SOL    HW123471   4.192   0.395   6.763  0.4162  0.4437  0.7276
 4004SOL    HW223472   4.255   0.280   6.832  0.4832 -0.0633  1.1027
 4005SOL     OW23473   1.755   4.647   2.564 -0.1734  0.6004  0.1695
 4005SOL    HW123474   1.718   0.004   2.520  1.8773  1.5106  0.0297
 4005SOL    HW223475   1.818   4.697   2.615  0.5074 -1.6941  1.5396
 4006SOL     OW23476   1.390   1.116   5.949 -0.5867  0.1521 -0.0596
 4006SOL    HW123477   1.301   1.150   5.957 -0.7428 -0.9777  3.3108
 4006SOL    HW223478   1.419   1.109   6.040  0.8190 -0.4230 -0.5551
 4007SOL     OW23479   4.177   1.649  10.853 -0.4299  0.1397  0.8960
 4007SOL    HW123480   4.133   1.638  10.937 -0.8203  0.2107  0.7012
 4007SOL    HW223481   4.183   1.745  10.857 -0.5309  0.0526  3.0887
 4008SOL     OW23482   3.420   3.511   7.232 -0.3375  0.4520 -0.0100
 4008SOL    HW123483   3.340   3.464   7.253 -0.3801  0.9902  1.0293
 4008SOL    HW223484   3.461   3.522   7.317 -0.6176  1.0444  0.0510
 4009SOL     OW23485   4.533   0.377   8.831  0.0229 -0.2965  0.3994
 4009SOL    HW123486   4.508   0.361   8.922  0.9218 -1.1144  0.4880
 4009SOL    HW223487   4.459   0.429   8.799 -0.8240 -1.5095  0.3876
 4010SOL     OW23488   1.336   2.725   5.840 -0.0799  0.0176  0.4156
 4010SOL    HW123489   1.376   2.642   5.867  1.5347  1.4992  2.5658
 4010SOL    HW223490   1.367   2.791   5.902 -0.2133 -0.8232  1.3851
 4011SOL     OW23491   1.030   1.262   3.811  0.0100 -0.2113 -0.4190
 4011SOL    HW123492   1.089   1.304   3.873 -0.5391  2.2737 -1.5559
 4011SOL    HW223493   0.991   1.338   3.768  0.8066  0.8173  0.6955
 4012SOL     OW23494   4.207   2.371   0.133  0.3685 -0.8119 -0.1185
 4012SOL    HW123495   4.299   2.373   0.159  0.3255 -1.2423  0.0715
 4012SOL    HW223496   4.199   2.462   0.104 -0.4926 -0.2518  1.9096
 4013SOL     OW23497   0.862   3.957   3.758 -0.4423  0.5815  0.0164
 4013SOL    HW123498   0.912   3.935   3.679 -0.2553  2.5664 -0.4108
 4013SOL    HW223499   0.784   3.980   3.708 -0.7429  0.1972  0.3015
 4014SOL     OW23500   2.492   2.049   4.617  0.0722 -0.2124  0.4422
 4014SOL    HW123501   2.406   2.009   4.616  0.1987 -0.4337 -2.1183
 4014SOL    HW223502   2.511   2.004   4.699  0.4968  0.3537  0.6600
 4015SOL     OW23503   2.380   2.622   3.674 -0.7191 -0.1759  0.4183
 4015SOL    HW123504   2.379   2.552   3.609  2.4032  0.8771 -0.7614
 4015SOL    HW223505   2.413   2.577   3.752 -0.1985 -0.6003 -0.0571
 4016SOL     OW23506   4.454   0.486   2.191 -0.1791  0.4075 -0.4371
 4016SOL    HW123507   4.518   0.460   2.257  1.0177  1.6731 -1.0998
 4016SOL    HW223508   4.445   0.401   2.148  0.7854  0.4750 -0.7616
 4017SOL     OW23509   4.069   0.659  15.164  0.0461  0.6722  0.4779
 4017SOL    HW123510   4.039   0.609  15.088  3.2662  1.4149 -1.2875
 4017SOL    HW223511   4.163   0.653  15.145 -0.0223 -1.2460  0.7454
 4018SOL     OW23512   2.494   0.549   6.164 -0.6181 -0.0273 -0.5173
 4018SOL    HW123513   2.450   0.536   6.248 -1.0290 -0.6879 -0.8310
 4018SOL    HW223514   2.503   0.644   6.164 -1.2698  0.0130  1.8115
 4019SOL     OW23515   4.518   1.742   7.678 -0.2363 -0.8651  0.7132
 4019SOL    HW123516   4.434   1.713   7.714 -0.2922  0.7405  1.8958
 4019SOL    HW223517   4.573   1.668   7.703 -0.3272 -1.1909 -0.0560
 4020SOL     OW23518   4.629   2.870   8.399  0.1874 -0.1827 -0.2263
 4020SOL    HW123519   4.549   2.902   8.443 -0.6172 -1.8454 -0.4860
 4020SOL    HW223520   4.654   2.957   8.369 -1.8925 -0.1256 -1.7817
 4021SOL     OW23521   3.036   4.032   3.292  0.0120  0.0421  0.0871
 4021SOL    HW123522   2.986   4.040   3.210 -1.5781  0.8801  1.1378
 4021SOL    HW223523   2.976   4.074   3.354  0.2108  0.4441  0.0068
 4022SOL     OW23524   0.731   0.695   5.351  0.2256  0.0818 -0.1973
 4022SOL    HW123525   0.822   0.720   5.336  0.7541 -1.9269 -0.4331
 4022SOL    HW223526   0.688   0.697   5.265  1.6955 -1.4961 -0.9751
 4023SOL     OW23527   4.322   2.089   4.506 -0.0277  0.1897 -0.1837
 4023SOL    HW123528   4.415   2.072   4.521  0.4936  0.6979 -2.7519
 4023SOL    HW223529   4.315   2.045   4.421 -1.8249  1.8789 -0.9031
 4024SOL     OW23530   1.181   3.914   8.912 -0.2950 -0.1413  0.3311
 4024SOL    HW123531   1.163   3.884   8.823  2.8420 -2.6211  0.5126
 4024SOL    HW223532   1.277   3.920   8.907 -0.2769 -1.6411 -1.5027
 4025SOL     OW23533   3.965   4.265   3.794  0.4641 -0.0291 -0.0556
 4025SOL    HW123534   3.973   4.243   3.701 -1.3881 -1.0212  0.0181
 4025SOL    HW223535   4.056   4.253   3.824 -0.2043 -1.2146  1.5206
 4026SOL     OW23536   1.051   4.640   6.127  0.3094  0.3545  0.6256
 4026SOL    HW123537   1.043   4.548   6.102 -1.4443  0.9300 -0.9289
 4026SOL    HW223538   1.114   4.660   6.057  0.6417  2.5499  1.5515
 4027SOL     OW23539   1.151   0.887  14.010 -0.0086  0.2366  0.2455
 4027SOL    HW123540   1.105   0.809  14.041 -0.9012  1.3291  1.6648
 4027SOL    HW223541   1.115   0.873  13.923 -2.8931  2.1728  1.1374
 4028SOL     OW23542   1.844   1.828  13.388 -0.1584  0.1759  0.1840
 4028SOL    HW123543   1.814   1.804  13.300  0.2280 -2.5685  0.8104
 4028SOL    HW223544   1.864   1.747  13.434  0.8046 -0.3337 -1.1303
 4029SOL     OW23545   1.774   2.427   1.049 -0.5717 -0.4552  0.2349
 4029SOL    HW123546   1.699   2.485   1.039 -0.5068 -0.5677 -0.8697
 4029SOL    HW223547   1.848   2.477   1.016 -1.6986  0.7055 -0.5216
 4030SOL     OW23548   2.690   1.319  14.427  0.2917 -0.2755 -0.2440
 4030SOL    HW123549   2.649   1.396  14.390 -2.3876 -0.6701  1.8801
 4030SOL    HW223550   2.782   1.339  14.412 -0.0393  0.1042 -1.7385
 4031SOL     OW23551   4.615   2.137   8.202  0.3869 -0.2560 -0.2000
 4031SOL    HW123552   4.569   2.086   8.136 -1.3690  1.7503 -0.5046
 4031SOL    HW223553   4.551   2.168   8.265  1.1216  1.2045 -0.1696
 4032SOL     OW23554   2.492   1.531   1.731 -0.1153 -0.0132  0.3177
 4032SOL    HW123555   2.483   1.626   1.736 -0.6583  0.0260 -1.3579
 4032SOL    HW223556   2.544   1.530   1.812  0.4515 -2.0929 -0.0618
 4033SOL     OW23557   1.265   3.956   7.541  0.2845 -0.4600  0.5939
 4033SOL    HW123558   1.224   3.872   7.559 -2.2696  0.1169 -2.7255
 4033SOL    HW223559   1.348   3.931   7.499  0.4546  1.0566  0.0310
 4034SOL     OW23560   3.716   2.123   2.347 -0.3386  0.5995 -0.6193
 4034SOL    HW123561   3.739   2.099   2.436 -0.0540  0.3652 -0.7552
 4034SOL    HW223562   3.658   2.197   2.362  0.8655  1.1675  1.2607
 4035SOL     OW23563   3.004   2.620   0.570 -0.2988  0.0240  0.0490
 4035SOL    HW123564   3.008   2.598   0.477 -1.3646 -0.8828  0.2282
 4035SOL    HW223565   2.963   2.707   0.568  1.1431  0.7210  0.6310
 4036SOL     OW23566   3.024   3.478   1.194 -0.1900  0.8346 -0.3754
 4036SOL    HW123567   3.049   3.540   1.125  1.6251  0.1577 -0.3150
 4036SOL    HW223568   3.111   3.456   1.227 -0.9464 -0.8707  0.4407
 4037SOL     OW23569   1.173   0.952   6.118  0.1400  0.1773  0.4309
 4037SOL    HW123570   1.175   0.999   6.035 -1.0736 -0.3707  0.0893
 4037SOL    HW223571   1.120   0.877   6.092  1.8072 -0.5688 -0.8541
 4038SOL     OW23572   4.164   2.386   5.193 -0.0388 -0.0033  0.1460
 4038SOL    HW123573   4.090   2.422   5.144  1.1694  2.8774  0.4475
 4038SOL    HW223574   4.139   2.395   5.285 -1.1507  1.1102 -0.2712
 4039SOL     OW23575   4.329   0.739   2.561 -0.2721 -0.2532 -0.3966
 4039SOL    HW123576   4.322   0.761   2.653 -1.7276 -0.8244 -0.3572
 4039SOL    HW223577   4.424   0.735   2.561 -0.1923  1.7426 -0.1828
 4040SOL     OW23578   2.761   2.157   4.819 -0.2421 -0.8036  0.0261
 4040SOL    HW123579   2.784   2.069   4.847  1.8215 -0.7292 -1.5132
 4040SOL    HW223580   2.782   2.152   4.726  0.1686  0.6987  0.0385
 4041SOL     OW23581   1.756   3.582  11.870 -0.6332  0.0323 -0.5972
 4041SOL    HW123582   1.822   3.615  11.810 -0.6842  1.6787  0.2429
 4041SOL    HW223583   1.676   3.579  11.818 -1.5059  2.3489  0.6391
 4042SOL     OW23584   0.869   1.570  14.660 -0.0593 -0.1683  0.5194
 4042SOL    HW123585   0.809   1.574  14.734 -0.1664  2.6866  0.2742
 4042SOL    HW223586   0.884   1.663  14.643  0.5064 -0.3176  0.1905
 4043SOL     OW23587   0.851   3.841   9.753 -0.6932  0.8396 -0.2655
 4043SOL    HW123588   0.801   3.911   9.795  0.3991  0.3326  1.8919
 4043SOL    HW223589   0.800   3.791   9.689 -1.5980  1.1828  0.1893
 4044SOL     OW23590   3.876   1.137   1.573  0.3816 -0.5017  0.3189
 4044SOL    HW123591   3.933   1.201   1.617  0.7515 -0.3536 -0.3812
 4044SOL    HW223592   3.815   1.203   1.540  1.5213  0.2485 -0.3083
 4045SOL     OW23593   3.364   4.477  15.790  0.2524 -0.0905  0.4588
 4045SOL    HW123594   3.291   4.536  15.810 -0.7343 -0.6576 -1.4649
 4045SOL    HW223595   3.309   4.412  15.747 -1.0199  1.8066 -0.7830
 4046SOL     OW23596   0.608   0.837   0.129 -0.1013  0.2272  0.1939
 4046SOL    HW123597   0.581   0.804   0.215 -1.7006 -2.7223 -1.4421
 4046SOL    HW223598   0.585   0.929   0.142 -0.9345  0.1339 -0.6435
 4047SOL     OW23599   4.089   2.105  11.282 -0.3020  0.0148  0.0659
 4047SOL    HW123600   4.073   2.097  11.376 -0.9235 -1.1829 -0.1367
 4047SOL    HW223601   4.176   2.143  11.291 -0.0635 -0.4014 -0.5004
 4048SOL     OW23602   2.586   4.304   5.658  0.4089  0.4362 -0.2068
 4048SOL    HW123603   2.609   4.336   5.571  1.7603  2.0475  0.7260
 4048SOL    HW223604   2.646   4.230   5.659 -3.1099 -2.4176 -2.6249
 4049SOL     OW23605   4.531   1.231   5.716 -0.2877  0.0903 -0.1004
 4049SOL    HW123606   4.574   1.316   5.714 -0.4935  0.1683 -1.1742
 4049SOL    HW223607   4.447   1.249   5.675 -1.7431  0.8309  3.1703
 4050SOL     OW23608   1.203   1.371  17.576  0.3321  0.2458  0.5946
 4050SOL    HW123609   1.139   1.396  17.642 -0.1866  1.5185 -0.3810
 4050SOL    HW223610   1.274   1.337  17.631  0.2083  0.6185  0.9831
 4051SOL     OW23611   4.010   0.110   0.637  0.4867 -0.2152  0.2723
 4051SOL    HW123612   3.966   0.149   0.713  0.2653 -1.0318  0.5712
 4051SOL    HW223613   4.075   0.174   0.610 -0.9185  1.3920  0.6679
 4052SOL     OW23614   1.386   2.249   2.255  0.1263  0.0912  0.0765
 4052SOL    HW123615   1.437   2.222   2.332  0.6890  1.6032  0.2384
 4052SOL    HW223616   1.399   2.344   2.252 -1.8165  0.3991  1.0946
 4053SOL     OW23617   1.955   0.840   6.884 -0.5263 -0.3048  0.0453
 4053SOL    HW123618   1.875   0.835   6.831 -0.1547 -0.5211 -0.4876
 4053SOL    HW223619   1.931   0.908   6.947  0.0887  2.7066 -2.9237
 4054SOL     OW23620   1.893   0.921   6.320 -0.6075  0.0096  0.8485
 4054SOL    HW123621   1.936   0.945   6.238 -1.1991 -1.8813 -0.0013
 4054SOL    HW223622   1.897   1.006   6.364  0.2841  1.1950 -1.5037
 4055SOL     OW23623   2.247   3.056   3.561 -0.2488 -0.1844  0.5063
 4055SOL    HW123624   2.312   3.108   3.513 -0.6721 -1.7065 -1.7213
 4055SOL    HW223625   2.276   3.086   3.647 -1.1110 -1.6721  1.2990
 4056SOL     OW23626   2.619   2.264   4.329 -0.1496 -0.0708 -0.1208
 4056SOL    HW123627   2.634   2.351   4.291  4.0260 -1.5126 -1.7452
 4056SOL    HW223628   2.533   2.281   4.368  0.3475 -0.2884  1.0720
 4057SOL     OW23629   4.192   1.472   7.228 -0.1110  0.0061  0.4538
 4057SOL    HW123630   4.162   1.524   7.302  3.2616  0.7849  1.2728
 4057SOL    HW223631   4.134   1.398   7.212 -1.3441  0.9064  0.7343
 4058SOL     OW23632   1.607   3.186   6.593  0.8147  0.2252  0.2517
 4058SOL    HW123633   1.668   3.204   6.665  2.3177 -1.6205 -0.5726
 4058SOL    HW223634   1.540   3.251   6.615  0.9235  0.1990  0.6707
 4059SOL     OW23635   4.565   2.971   5.101  0.3590 -0.2363 -0.3238
 4059SOL    HW123636   4.486   3.022   5.118 -0.9587 -1.6292 -2.2827
 4059SOL    HW223637   4.530   2.908   5.038 -0.9409  2.1194 -1.9595
 4060SOL     OW23638   1.159   4.480   1.955 -0.6048 -0.2133  0.0906
 4060SOL    HW123639   1.126   4.395   1.983  1.9493 -1.0867  0.5136
 4060SOL    HW223640   1.166   4.532   2.035  0.5245 -0.0096 -0.1385
 4061SOL     OW23641   1.486   2.343   5.657 -0.4598  0.3698 -0.0560
 4061SOL    HW123642   1.487   2.287   5.580  2.7805  1.2739 -0.6526
 4061SOL    HW223643   1.511   2.282   5.726 -2.2981  0.0297  0.3328
 4062SOL     OW23644   3.398   3.503   9.956 -0.1540 -0.1995 -0.5135
 4062SOL    HW123645   3.334   3.566   9.921 -0.6917 -1.1272 -1.1841
 4062SOL    HW223646   3.345   3.432   9.991  0.3666 -0.1403  0.4036
 4063SOL     OW23647   4.114   2.704   2.827  0.1838 -0.2503 -0.1759
 4063SOL    HW123648   4.059   2.767   2.780 -0.4208 -1.1831 -0.7358
 4063SOL    HW223649   4.183   2.763   2.856 -0.3909  1.0603 -1.4899
 4064SOL     OW23650   1.835   1.323  17.166 -0.2287  0.4586  0.3345
 4064SOL    HW123651   1.886   1.262  17.113 -0.9376 -0.9662  1.2884
 4064SOL    HW223652   1.787   1.258  17.218  2.3704 -0.9581  0.9538
 4065SOL     OW23653   4.150   0.681   9.523 -0.4938 -0.1101 -0.2678
 4065SOL    HW123654   4.111   0.767   9.535  0.2077  0.1394  0.2293
 4065SOL    HW223655   4.219   0.681   9.590  0.3099 -3.3528 -1.1047
 4066SOL     OW23656   2.167   2.298   1.672 -0.4430 -0.2449 -0.4795
 4066SOL    HW123657   2.204   2.387   1.675 -1.4997  0.1924 -0.2985
 4066SOL    HW223658   2.079   2.316   1.640 -0.9429  0.3804  1.2570
 4067SOL     OW23659   0.147   2.291  12.957  0.2604 -0.2534  0.0279
 4067SOL    HW123660   0.068   2.309  13.008  0.3717  0.8839 -0.1953
 4067SOL    HW223661   0.129   2.203  12.923 -1.5661  0.7881 -1.6861
 4068SOL     OW23662   3.570   3.134   2.143  0.0011  0.0532  0.0149
 4068SOL    HW123663   3.610   3.123   2.056  0.4962 -1.2524  0.4177
 4068SOL    HW223664   3.493   3.185   2.118  2.1038  2.2225 -2.1845
 4069SOL     OW23665   0.328   0.136  12.676 -0.0086 -0.3669  0.1417
 4069SOL    HW123666   0.334   0.202  12.745 -2.9355 -2.0527  2.0002
 4069SOL    HW223667   0.361   0.060  12.725 -0.8192  0.1600  1.4731
 4070SOL     OW23668   2.702   2.939   3.442  0.0687 -0.5769  0.1452
 4070SOL    HW123669   2.720   2.935   3.348  0.3419  1.5813  0.1099
 4070SOL    HW223670   2.648   2.860   3.443 -1.2156  0.3054 -0.7754
 4071SOL     OW23671   1.297   1.782   8.136 -0.2200  0.6885 -0.3419
 4071SOL    HW123672   1.316   1.858   8.080 -0.8103  0.2675 -1.1231
 4071SOL    HW223673   1.267   1.837   8.208  1.0909  0.1651  0.5974
 4072SOL     OW23674   2.667   2.056   5.438 -0.4801 -0.5264  0.6958
 4072SOL    HW123675   2.651   2.119   5.367 -1.1759 -0.4009  0.9638
 4072SOL    HW223676   2.762   2.072   5.443 -0.4868 -0.6320  1.1684
 4073SOL     OW23677   4.676   0.489   3.863  0.0428  0.3913  0.1502
 4073SOL    HW123678   4.616   0.549   3.820  2.5711  0.8554 -2.7280
 4073SOL    HW223679   4.647   0.492   3.955  4.8011 -1.3612  1.7423
 4074SOL     OW23680   0.275   3.516   3.968 -0.9082  0.3813 -0.0206
 4074SOL    HW123681   0.208   3.484   3.908 -2.0982  0.0949  1.4594
 4074SOL    HW223682   0.346   3.531   3.906  1.3857 -3.2696  1.7181
 4075SOL     OW23683   3.554   1.939   4.466 -0.1648 -0.4577  0.0971
 4075SOL    HW123684   3.567   2.033   4.476 -0.6793 -0.1706 -1.8333
 4075SOL    HW223685   3.492   1.911   4.533  1.6763 -0.1117  1.9312
 4076SOL     OW23686   0.402   4.434   4.099  0.5018  0.4587 -0.1215
 4076SOL    HW123687   0.398   4.524   4.132 -1.2369 -0.6710  2.6977
 4076SOL    HW223688   0.352   4.386   4.165  1.2285  2.6951  2.0777
 4077SOL     OW23689   3.612   3.951  10.281 -0.1118 -0.1778 -0.0373
 4077SOL    HW123690   3.648   3.972  10.367 -1.9447  1.4422  0.3270
 4077SOL    HW223691   3.575   4.036  10.258  0.0853 -0.0110  0.2663
 4078SOL     OW23692   2.699   1.319   2.787  0.0326  0.8445  0.5338
 4078SOL    HW123693   2.792   1.318   2.768 -0.2791  0.2443 -0.9849
 4078SOL    HW223694   2.680   1.225   2.784  1.2100  0.6973 -1.7522
 4079SOL     OW23695   4.388   3.442   5.860 -0.2610  0.3437 -0.3578
 4079SOL    HW123696   4.366   3.406   5.775 -0.4677 -0.7487  0.1543
 4079SOL    HW223697   4.459   3.497   5.829  1.9050 -1.8031  0.8437
 4080SOL     OW23698   2.330   0.237  15.081 -0.4469  0.3165  0.4715
 4080SOL    HW123699   2.280   0.162  15.114  1.2755 -1.4357 -0.9242
 4080SOL    HW223700   2.423   0.217  15.095  0.0105  1.6905 -0.6497
 4081SOL     OW23701   1.617   1.077  16.976  0.0369  0.3062  0.1110
 4081SOL    HW123702   1.534   1.032  16.989 -0.1402 -0.5643 -4.0363
 4081SOL    HW223703   1.604   1.140  17.047  0.9612 -0.1481  0.6844
 4082SOL     OW23704   1.545   3.436   0.895  0.4213  0.0271 -0.0672
 4082SOL    HW123705   1.633   3.472   0.909  0.9575 -0.6983 -1.5065
 4082SOL    HW223706   1.559   3.394   0.810  1.3947 -0.4936  0.3596
 4083SOL     OW23707   3.236   0.406   4.286 -0.6730  1.2596 -0.2649
 4083SOL    HW123708   3.252   0.486   4.337  1.5159  0.8171 -0.2630
 4083SOL    HW223709   3.326   0.374   4.290 -0.8109  1.0209  1.0565
 4084SOL     OW23710   2.641   4.603   8.847 -0.2428  0.0917 -0.2791
 4084SOL    HW123711   2.628   4.564   8.934 -0.3065  1.4429  0.3160
 4084SOL    HW223712   2.726   4.563   8.828 -0.6728 -1.4120  0.9666
 4085SOL     OW23713   4.453   3.211   6.292  0.0960 -0.2654 -0.1158
 4085SOL    HW123714   4.486   3.233   6.205 -0.8254 -0.5425 -0.5357
 4085SOL    HW223715   4.363   3.180   6.281 -0.1296 -0.1602  1.3611
 4086SOL     OW23716   2.231   1.396   8.531  0.1206  0.2363  0.4293
 4086SOL    HW123717   2.246   1.323   8.591  1.4896  0.6296  0.5732
 4086SOL    HW223718   2.164   1.453   8.569  1.2259 -0.1446  2.9209
 4087SOL     OW23719   1.818   0.328   4.166  0.3304 -0.6926  0.1081
 4087SOL    HW123720   1.869   0.257   4.206  1.4854  0.7025  1.0913
 4087SOL    HW223721   1.890   0.382   4.136 -1.8228  2.1698  0.0935
 4088SOL     OW23722   2.815   4.643   9.371 -0.7067  0.4916  0.2385
 4088SOL    HW123723   2.721   4.628   9.379 -0.4926 -0.2041  1.3959
 4088SOL    HW223724   2.849   4.617   9.456  0.9769 -0.4228 -0.7211
 4089SOL     OW23725   2.768   3.375   7.663 -0.3376 -0.1705  0.5441
 4089SOL    HW123726   2.797   3.330   7.743  1.6134  0.3560  0.1353
 4089SOL    HW223727   2.772   3.463   7.701 -0.1524 -0.1776  0.5405
 4090SOL     OW23728   0.824   4.460   5.592  0.4214 -0.3847  0.1637
 4090SOL    HW123729   0.801   4.371   5.567 -0.4664  0.6340 -2.5935
 4090SOL    HW223730   0.754   4.466   5.658  2.0341  0.2763  1.8193
 4091SOL     OW23731   2.030   4.118   4.640 -0.2821 -0.0973  0.3235
 4091SOL    HW123732   1.977   4.090   4.715 -0.9621  0.1349 -0.0651
 4091SOL    HW223733   1.985   4.203   4.633 -0.4031 -0.3745 -2.2232
 4092SOL     OW23734   0.447   2.588   8.693 -0.0693 -0.2489 -0.6854
 4092SOL    HW123735   0.536   2.622   8.693 -0.1707  0.0225  1.1024
 4092SOL    HW223736   0.402   2.672   8.708 -0.5259 -0.6427  0.1413
 4093SOL     OW23737   1.780   1.569  17.327 -0.0828  0.1435 -0.6412
 4093SOL    HW123738   1.871   1.563  17.298  0.7950  1.3351  1.9426
 4093SOL    HW223739   1.750   1.509  17.258  0.6129 -0.8254 -0.1033
 4094SOL     OW23740   1.240   3.425   6.435  0.2112  0.1283 -0.0264
 4094SOL    HW123741   1.288   3.426   6.353  0.4783  2.4075  0.1513
 4094SOL    HW223742   1.202   3.337   6.433  2.9811 -1.0618  0.5237
 4095SOL     OW23743   4.167   4.331   4.199 -0.3507  0.2210  0.0143
 4095SOL    HW123744   4.074   4.346   4.183 -0.6600  0.0629  1.7557
 4095SOL    HW223745   4.217   4.402   4.159 -1.9479  0.7855 -0.9997
 4096SOL     OW23746   1.145   1.581   7.504  0.1271 -0.1089 -0.1459
 4096SOL    HW123747   1.199   1.552   7.578 -3.3911 -2.4537  1.5026
 4096SOL    HW223748   1.136   1.497   7.460  0.7097  0.1591 -0.7796
 4097SOL     OW23749   0.287   3.560  16.530  0.1966 -0.2615 -0.2728
 4097SOL    HW123750   0.230   3.542  16.605  1.7727  1.5194  1.3403
 4097SOL    HW223751   0.283   3.655  16.521 -1.8610 -0.0796  2.4501
 4098SOL     OW23752   0.603   1.653   6.587 -0.5072  0.2692 -0.2808
 4098SOL    HW123753   0.630   1.728   6.534 -0.7439 -1.3429 -2.6795
 4098SOL    HW223754   0.667   1.662   6.658 -0.9591  1.5822 -0.0532
 4099SOL     OW23755   1.281   1.658   4.479 -0.1092 -0.2017  0.3741
 4099SOL    HW123756   1.355   1.697   4.526  1.2897 -2.3447 -0.0936
 4099SOL    HW223757   1.318   1.573   4.500  0.8289 -0.0206 -0.5397
 4100SOL     OW23758   1.622   2.794  10.340  0.4670  0.2880 -0.2152
 4100SOL    HW123759   1.624   2.755  10.428  0.1774 -1.9308 -1.2090
 4100SOL    HW223760   1.695   2.854  10.355  0.4723  0.6944 -1.9020
 4101SOL     OW23761   0.042   0.436   7.971 -0.4624  0.9400  0.4307
 4101SOL    HW123762   0.112   0.378   8.002 -0.2225  0.6395 -0.6607
 4101SOL    HW223763   0.092   0.517   7.959  2.0108 -0.4380  1.4756
 4102SOL     OW23764   1.615   4.712   4.239  0.2215  0.0816  0.2804
 4102SOL    HW123765   1.591   4.661   4.162 -0.0775  0.5221  0.0847
 4102SOL    HW223766   1.608   4.649   4.311 -0.3458  0.1995  0.3304
 4103SOL     OW23767   0.611   2.123   5.848  0.0647 -0.0392  0.1394
 4103SOL    HW123768   0.624   2.120   5.753  0.9978  0.6389  0.2438
 4103SOL    HW223769   0.520   2.153   5.854 -0.1515 -0.6498 -0.1440
 4104SOL     OW23770   0.204   4.449   5.221  0.3213  0.2726 -0.6191
 4104SOL    HW123771   0.235   4.379   5.162 -0.1776  0.9030 -1.6236
 4104SOL    HW223772   0.286   4.473   5.264 -0.1640 -0.1728  0.5273
 4105SOL     OW23773   0.723   2.869   3.523 -0.2086 -0.0026 -0.1820
 4105SOL    HW123774   0.817   2.864   3.506  0.2757 -0.2076  2.5869
 4105SOL    HW223775   0.728   2.838   3.613  1.0080 -2.0176 -0.9457
 4106SOL     OW23776   2.245   0.475   1.428  0.2630  0.2854 -0.3391
 4106SOL    HW123777   2.283   0.539   1.368 -0.8617  0.4252 -0.9008
 4106SOL    HW223778   2.187   0.430   1.366 -1.8758 -1.8405  3.2309
 4107SOL     OW23779   4.629   1.445   7.444 -0.8092 -0.1523 -0.3592
 4107SOL    HW123780   4.639   1.356   7.411 -2.2605 -0.5490  0.2597
 4107SOL    HW223781   4.712   1.458   7.488 -0.7456  0.1877 -0.5808
 4108SOL     OW23782   4.149   3.517   6.337  0.4839 -0.0152 -0.2266
 4108SOL    HW123783   4.218   3.546   6.276  0.7087 -2.3261 -1.0751
 4108SOL    HW223784   4.081   3.498   6.272 -0.3805  1.4500  0.2482
 4109SOL     OW23785   1.353   1.636   2.259 -0.1837 -0.1899 -0.4220
 4109SOL    HW123786   1.263   1.615   2.234 -0.9752  2.3812  0.3397
 4109SOL    HW223787   1.356   1.727   2.231 -1.9429  0.2877  0.9904
 4110SOL     OW23788   0.053   2.643   7.563 -0.1090 -0.2692  0.2334
 4110SOL    HW123789   0.025   2.689   7.484  0.5660  1.7714  1.2010
 4110SOL    HW223790   4.717   2.565   7.555  3.5922 -3.1268  2.2017
 4111SOL     OW23791   4.304   0.441   7.994 -0.2687 -0.6442  0.2206
 4111SOL    HW123792   4.349   0.526   7.995 -0.6637 -0.4169 -0.6588
 4111SOL    HW223793   4.253   0.442   7.913  0.2851  0.1929 -0.1229
 4112SOL     OW23794   1.789   2.195   5.488 -0.1102  0.1457  0.4437
 4112SOL    HW123795   1.705   2.239   5.481 -0.3671 -0.4910 -0.3532
 4112SOL    HW223796   1.807   2.196   5.394  2.4393  0.3768  0.9323
 4113SOL     OW23797   2.545   3.945   1.809  0.2228  0.4647  0.1158
 4113SOL    HW123798   2.543   3.853   1.780  0.7518  0.4039  0.2649
 4113SOL    HW223799   2.638   3.948   1.832  0.1231 -0.2683  0.6128
 4114SOL     OW23800   2.091   0.166   8.732  0.4107  0.0076  0.3531
 4114SOL    HW123801   2.031   0.093   8.749 -0.6606  0.8426  0.1384
 4114SOL    HW223802   2.092   0.214   8.814  0.6978  2.6272 -1.1991
 4115SOL     OW23803   0.743   0.021   5.551  0.0448 -0.4007 -0.5174
 4115SOL    HW123804   0.752   4.649   5.577 -0.4708  0.5082  2.8838
 4115SOL    HW223805   0.804   0.054   5.617 -2.1643 -3.4771  3.0733
 4116SOL     OW23806   0.192   3.786  15.633  0.2920  0.3753 -0.1531
 4116SOL    HW123807   0.139   3.778  15.713 -0.1471  2.6105 -0.2316
 4116SOL    HW223808   0.169   3.875  15.608  0.5922  0.4165 -0.2735
 4117SOL     OW23809   4.375   4.625   7.382 -0.2539 -0.3943  0.3424
 4117SOL    HW123810   4.445   4.562   7.367 -1.4394 -1.8426  0.8626
 4117SOL    HW223811   4.358   4.610   7.475 -1.5612  0.0984  0.1805
 4118SOL     OW23812   0.646   0.440   8.192  0.1662 -0.2904  0.0566
 4118SOL    HW123813   0.716   0.502   8.210  1.5343 -2.0643  0.9288
 4118SOL    HW223814   0.567   0.492   8.209  0.1191 -0.2399 -0.3207
 4119SOL     OW23815   0.233   1.064   9.016  0.3452  0.4261 -0.1270
 4119SOL    HW123816   0.292   1.049   8.942 -0.3917  1.6443 -0.9652
 4119SOL    HW223817   0.249   0.984   9.065  0.1951 -1.1566 -2.6589
 4120SOL     OW23818   1.880   1.560   1.707 -0.0691  0.1086 -0.3818
 4120SOL    HW123819   1.799   1.521   1.741  0.7432 -2.9162 -1.8625
 4120SOL    HW223820   1.855   1.582   1.617  1.3421 -0.4896 -0.9167
 4121SOL     OW23821   0.694   2.523   0.795  0.1299 -0.4624  0.2489
 4121SOL    HW123822   0.670   2.480   0.713 -0.2550  1.4179 -0.6470
 4121SOL    HW223823   0.773   2.572   0.770 -0.9059  0.8044 -0.5930
 4122SOL     OW23824   4.104   1.593   4.666  0.0805  0.8056 -0.2599
 4122SOL    HW123825   4.042   1.657   4.631  0.5183  1.9201  1.0155
 4122SOL    HW223826   4.122   1.552   4.581  0.6215 -0.4139  0.4571
 4123SOL     OW23827   2.895   1.398   9.271  0.0851 -0.3281 -0.2142
 4123SOL    HW123828   2.856   1.405   9.358  0.1969 -1.7898 -0.0378
 4123SOL    HW223829   2.886   1.305   9.250 -2.4457  0.2452 -1.7209
 4124SOL     OW23830   0.808   1.786   2.895 -0.0484 -0.4169 -0.4377
 4124SOL    HW123831   0.749   1.734   2.951  0.2560 -0.8620 -0.5309
 4124SOL    HW223832   0.791   1.876   2.922 -0.7422 -1.1161  1.4868
 4125SOL     OW23833   4.155   4.312  12.430 -0.1286  0.1338  0.2681
 4125SOL    HW123834   4.243   4.282  12.409  1.1542  1.5520  3.6203
 4125SOL    HW223835   4.166   4.406  12.439  0.3921 -0.0125  1.2101
 4126SOL     OW23836   3.537   1.857  11.114  0.1438  0.2958  0.1024
 4126SOL    HW123837   3.559   1.766  11.134  1.7942  0.9415  1.2550
 4126SOL    HW223838   3.511   1.842  11.023 -2.2522 -2.7988  1.3092
 4127SOL     OW23839   4.036   2.181   6.201  0.2508 -0.2388  0.0905
 4127SOL    HW123840   4.099   2.115   6.226 -0.0050  0.1080  1.6486
 4127SOL    HW223841   3.990   2.196   6.284  3.1720 -0.8084  1.8137
 4128SOL     OW23842   3.526   3.812   3.497  0.0154 -0.1621 -0.4948
 4128SOL    HW123843   3.540   3.899   3.533  3.6911 -1.1955  0.5511
 4128SOL    HW223844   3.546   3.825   3.405 -1.6764 -1.2289 -1.0114
 4129SOL     OW23845   2.419   2.749   4.223 -0.0211 -0.1389 -0.0982
 4129SOL    HW123846   2.408   2.838   4.258 -0.2339  0.6116 -2.0464
 4129SOL    HW223847   2.380   2.749   4.135 -1.3129 -2.1909  0.4790
 4130SOL     OW23848   3.791   4.343  12.857  0.6362 -0.4685  0.3297
 4130SOL    HW123849   3.851   4.363  12.785 -1.4777  1.4406 -0.9378
 4130SOL    HW223850   3.726   4.413  12.846 -1.0452 -2.0333  0.2585
 4131SOL     OW23851   4.244   4.400  13.941 -0.2851  1.0453 -0.1610
 4131SOL    HW123852   4.333   4.365  13.928 -0.8559 -0.3670 -0.3511
 4131SOL    HW223853   4.251   4.475  13.882  2.0978  2.2756  1.6973
 4132SOL     OW23854   1.110   2.865   4.181 -0.1184 -0.0866 -0.1839
 4132SOL    HW123855   1.126   2.880   4.275  0.4884  0.7737 -0.4154
 4132SOL    HW223856   1.016   2.883   4.180  0.1284  1.2879  1.5817
 4133SOL     OW23857   4.178   2.317   3.249  0.1950 -0.0087  0.2995
 4133SOL    HW123858   4.211   2.264   3.176 -0.1249 -0.5508  0.5454
 4133SOL    HW223859   4.168   2.407   3.220  1.0316  0.0921  0.3011
 4134SOL     OW23860   4.476   2.283   1.199  0.2262 -0.1717  0.5227
 4134SOL    HW123861   4.550   2.339   1.176  0.0326 -0.5234 -0.9553
 4134SOL    HW223862   4.416   2.341   1.244 -0.6591 -0.4755 -0.2668
 4135SOL     OW23863   0.653   0.646   2.109 -0.6464 -0.2138  0.0909
 4135SOL    HW123864   0.668   0.569   2.056 -0.6120 -0.3961  0.3649
 4135SOL    HW223865   0.635   0.705   2.036  3.0495  1.3562  0.4349
 4136SOL     OW23866   3.063   1.143   8.307  0.0652  0.6208  0.0265
 4136SOL    HW123867   3.107   1.176   8.385 -1.3533 -0.1544  1.1675
 4136SOL    HW223868   3.141   1.122   8.256  1.0252 -0.9381  2.1588
 4137SOL     OW23869   0.080   1.441   2.311  0.4160  0.4547  0.7116
 4137SOL    HW123870   0.019   1.449   2.238 -0.0362 -1.8540  0.8421
 4137SOL    HW223871   0.074   1.347   2.330  3.6166 -0.0765 -0.8335
 4138SOL     OW23872   4.016   0.515   7.014 -0.1903 -0.1586  0.0966
 4138SOL    HW123873   3.942   0.456   7.002 -0.2468  0.0024 -0.3371
 4138SOL    HW223874   4.081   0.481   6.952 -2.5346 -2.8494 -0.8629
 4139SOL     OW23875   0.350   2.267   4.124  0.1360  0.0097 -0.0392
 4139SOL    HW123876   0.260   2.278   4.156 -0.0149  1.0934 -0.8526
 4139SOL    HW223877   0.348   2.201   4.054 -0.1863  0.4110 -0.4020
 4140SOL     OW23878   0.855   0.458  10.186  0.5595  0.2180  0.0290
 4140SOL    HW123879   0.917   0.531  10.192 -0.1893  0.9303 -0.8515
 4140SOL    HW223880   0.786   0.474  10.250  1.6829  0.7028  1.1295
 4141SOL     OW23881   3.392   0.810   1.420 -0.6803  0.0541 -0.2732
 4141SOL    HW123882   3.451   0.753   1.371  0.7503  0.2320  1.2308
 4141SOL    HW223883   3.429   0.894   1.394  0.5472 -0.6662 -0.8593
 4142SOL     OW23884   0.099   0.780  15.189 -0.3406 -0.3301  0.4248
 4142SOL    HW123885   0.175   0.826  15.154 -1.5984 -0.0714 -1.9481
 4142SOL    HW223886   0.065   0.747  15.106 -1.5481  1.6995  0.1385
 4143SOL     OW23887   4.106   3.013   6.454  0.3528  0.1851  0.0436
 4143SOL    HW123888   4.042   2.959   6.500  0.2235 -0.4766 -0.9131
 4143SOL    HW223889   4.176   2.953   6.428  1.5793  0.4337  2.7738
 4144SOL     OW23890   0.504   0.678   2.950  0.3334 -0.4867  0.1613
 4144SOL    HW123891   0.424   0.727   2.934 -1.5278 -3.9374 -1.1352
 4144SOL    HW223892   0.554   0.746   2.994 -1.2202  1.8393 -1.6593
 4145SOL     OW23893   4.350   1.914   5.777 -0.0890 -0.1447  0.1349
 4145SOL    HW123894   4.312   1.836   5.818  0.0909 -0.2212  0.1530
 4145SOL    HW223895   4.430   1.919   5.829 -2.0601  0.3402  3.1032
 4146SOL     OW23896   3.925   3.903   6.140 -0.1104 -0.3722 -0.7112
 4146SOL    HW123897   3.998   3.935   6.193  0.5685 -0.7931 -1.3918
 4146SOL    HW223898   3.931   3.962   6.065  0.3767  0.1535 -0.2608
 4147SOL     OW23899   4.189   4.368   7.812 -0.5211  0.2055  0.1833
 4147SOL    HW123900   4.206   4.457   7.842 -0.8482  0.4333 -0.3152
 4147SOL    HW223901   4.106   4.383   7.767 -0.4946  0.6315  0.2741
 4148SOL     OW23902   0.132   1.024   2.679  0.4006  0.2749 -0.4170
 4148SOL    HW123903   0.130   0.962   2.606 -0.2561  1.8218 -1.7193
 4148SOL    HW223904   0.044   1.021   2.716  0.1396  0.5588 -1.0198
 4149SOL     OW23905   1.421   2.503  16.657 -0.0565  0.0027  0.2177
 4149SOL    HW123906   1.351   2.516  16.594  2.5796 -1.2954 -2.9757
 4149SOL    HW223907   1.432   2.408  16.649 -0.6453  0.0692 -1.2657
 4150SOL     OW23908   3.813   2.413   6.608 -0.1023 -0.4208  0.0223
 4150SOL    HW123909   3.822   2.396   6.702  0.5374 -4.0933 -0.7413
 4150SOL    HW223910   3.737   2.471   6.600 -0.6042 -1.2147 -0.9484
 4151SOL     OW23911   0.717   3.573   8.503  0.3595 -0.5961 -0.2208
 4151SOL    HW123912   0.703   3.558   8.409 -0.5393  0.4603 -0.2563
 4151SOL    HW223913   0.698   3.667   8.507 -1.2245 -0.8507 -1.6514
 4152SOL     OW23914   0.567   0.745   5.143  0.3823  0.2294  0.3178
 4152SOL    HW123915   0.533   0.716   5.058  0.9325  0.4711  0.0106
 4152SOL    HW223916   0.530   0.832   5.155 -3.5539 -1.3955 -0.0736
 4153SOL     OW23917   0.518   1.111   8.286 -0.0394  0.5140 -0.2284
 4153SOL    HW123918   0.590   1.174   8.274 -0.3281  0.9875  0.5596
 4153SOL    HW223919   0.516   1.054   8.209  1.4735 -1.5153  1.2287
 4154SOL     OW23920   4.085   1.278   1.711 -0.1966  0.2603 -0.0765
 4154SOL    HW123921   4.121   1.196   1.678 -0.2882  0.6317 -1.1002
 4154SOL    HW223922   4.139   1.293   1.788 -2.4646  1.3299  1.2978
 4155SOL     OW23923   4.182   1.383   2.603  0.1599 -0.3487 -0.2879
 4155SOL    HW123924   4.108   1.361   2.659 -0.6351 -3.3153 -2.4648
 4155SOL    HW223925   4.206   1.300   2.562 -0.6321  0.1169 -1.6725
 4156SOL     OW23926   1.919   3.057   5.677 -0.1312 -0.6297 -0.2630
 4156SOL    HW123927   1.931   2.968   5.710 -2.0085 -0.1077  1.8407
 4156SOL    HW223928   2.005   3.091   5.702 -1.5742  2.5164  0.4903
 4157SOL     OW23929   2.356   4.439   4.984 -0.2054 -0.3961  0.4727
 4157SOL    HW123930   2.307   4.521   4.976 -2.7647 -1.9948 -0.3175
 4157SOL    HW223931   2.348   4.398   4.898 -0.9262  1.1182 -0.1756
 4158SOL     OW23932   2.766   1.394   9.491 -0.1935 -0.2151  0.1729
 4158SOL    HW123933   2.674   1.377   9.471  0.0064 -0.8710 -0.2179
 4158SOL    HW223934   2.776   1.333   9.565 -0.7123  0.8583  1.1265
 4159SOL     OW23935   1.527   4.685   4.953  0.3736  0.4271 -0.3469
 4159SOL    HW123936   1.450   4.716   5.000  0.2323  0.1146 -0.3747
 4159SOL    HW223937   1.529   0.030   4.883  1.2938 -2.0048 -2.5367
 4160SOL     OW23938   1.232   4.668  11.259  0.7214  0.3060  0.1573
 4160SOL    HW123939   1.168   4.620  11.207  0.5282  0.0477  0.6379
 4160SOL    HW223940   1.279   4.605  11.315 -0.6740 -1.0208 -0.1791
 4161SOL     OW23941   3.410   1.887   3.263  0.3134 -0.6887 -0.1386
 4161SOL    HW123942   3.362   1.896   3.345 -0.5907  0.6210 -0.8154
 4161SOL    HW223943   3.472   1.960   3.261 -0.1439 -0.3085 -0.6247
 4162SOL     OW23944   3.883   1.362  15.164 -0.8339 -0.4764 -0.5040
 4162SOL    HW123945   3.818   1.307  15.206 -1.3215  1.0454  0.7452
 4162SOL    HW223946   3.855   1.451  15.188  0.3897 -0.9979  2.7787
 4163SOL     OW23947   0.095   0.574  11.017 -0.2037 -0.4235  0.0008
 4163SOL    HW123948   0.096   0.537  10.929  1.7030 -0.8130  0.1676
 4163SOL    HW223949   0.070   0.665  11.002  1.4440 -0.1872 -1.3484
 4164SOL     OW23950   2.348   3.570   2.292  0.3636  0.4175  1.0347
 4164SOL    HW123951   2.378   3.498   2.237  0.4311  2.3070 -1.4138
 4164SOL    HW223952   2.386   3.538   2.374  1.5646  1.0027  0.7100
 4165SOL     OW23953   2.640   3.675   5.226  0.5288  0.4290 -0.0622
 4165SOL    HW123954   2.704   3.675   5.298  1.4804  2.3045 -0.8930
 4165SOL    HW223955   2.713   3.668   5.165 -0.1264 -2.0803 -0.5332
 4166SOL     OW23956   2.340   0.069  16.779  0.1242 -0.2723 -0.2195
 4166SOL    HW123957   2.415   0.065  16.721  0.9845 -1.1827  0.9599
 4166SOL    HW223958   2.375   0.144  16.827 -1.7364  1.2420 -1.2248
 4167SOL     OW23959   1.937   0.642   7.279  0.1896  0.0113  0.2699
 4167SOL    HW123960   1.952   0.552   7.250  0.6872  0.2551 -0.2227
 4167SOL    HW223961   1.843   0.644   7.297  0.1641 -0.2314  0.1684
 4168SOL     OW23962   2.956   0.119  14.470 -0.3435  0.5204  0.0681
 4168SOL    HW123963   2.917   0.049  14.523 -2.2690  0.6361 -1.2071
 4168SOL    HW223964   2.903   0.185  14.515 -3.4475 -2.9240  1.5056
 4169SOL     OW23965   4.420   1.561  10.697 -0.6039  0.0223  0.0522
 4169SOL    HW123966   4.341   1.557  10.752  1.7079 -2.0228  3.2179
 4169SOL    HW223967   4.376   1.565  10.612  1.7409 -0.9634 -1.1853
 4170SOL     OW23968   4.416   2.889   4.206 -0.0346  0.6647  0.0230
 4170SOL    HW123969   4.362   2.826   4.253  0.4548  1.0024  1.0428
 4170SOL    HW223970   4.448   2.949   4.273 -0.7283  0.3956  0.5907
 4171SOL     OW23971   3.819   3.312  13.991 -0.3918 -0.2436  0.3596
 4171SOL    HW123972   3.808   3.264  13.908  0.5560 -0.5990  0.4466
 4171SOL    HW223973   3.769   3.394  13.985  0.3365  0.1572 -0.2379
 4172SOL     OW23974   4.299   4.495   9.538 -0.3331  0.7883  0.4195
 4172SOL    HW123975   4.353   4.434   9.488  0.9216 -1.0371  4.0293
 4172SOL    HW223976   4.220   4.444   9.519 -0.8546  1.4311  0.8582
 4173SOL     OW23977   2.762   3.780   6.850  0.0026  0.2078 -0.1887
 4173SOL    HW123978   2.669   3.798   6.863 -0.1515  0.9596 -2.3007
 4173SOL    HW223979   2.757   3.701   6.796  1.1616 -1.3841  2.0115
 4174SOL     OW23980   0.955   0.449   3.877  0.6323  0.1340 -0.1856
 4174SOL    HW123981   0.929   0.424   3.965 -1.5881 -3.6542 -1.9229
 4174SOL    HW223982   0.887   0.513   3.854 -0.0003 -0.5056 -0.0904
 4175SOL     OW23983   3.720   0.839   5.307 -0.1726  0.3779 -0.4958
 4175SOL    HW123984   3.782   0.824   5.378  1.1927  3.0419 -1.1185
 4175SOL    HW223985   3.704   0.933   5.320  1.1320  0.8521 -2.1971
 4176SOL     OW23986   4.346   4.218  16.496 -0.4579 -0.4636 -0.1762
 4176SOL    HW123987   4.400   4.180  16.565 -0.4698 -1.5326 -0.7637
 4176SOL    HW223988   4.404   4.293  16.480 -0.5057 -1.0183 -2.8749
 4177SOL     OW23989   2.398   1.263  11.938  0.1798  0.4569 -0.3442
 4177SOL    HW123990   2.321   1.239  11.886  1.2627 -1.3492 -1.1027
 4177SOL    HW223991   2.364   1.318  12.009 -1.7052 -1.2197  0.0820
 4178SOL     OW23992   2.999   3.214   8.570  0.8876  0.0921  0.2598
 4178SOL    HW123993   3.062   3.281   8.542 -0.6926 -0.3204 -4.3226
 4178SOL    HW223994   2.923   3.263   8.601  0.6305 -0.7449  0.9555
 4179SOL     OW23995   0.786   1.354  13.183 -0.4644 -0.5326 -0.4052
 4179SOL    HW123996   0.854   1.320  13.124  0.1828  2.5336 -1.4507
 4179SOL    HW223997   0.789   1.444  13.151  0.9770 -0.3138  0.3664
 4180SOL     OW23998   2.151   4.121  14.804  0.3266  0.5399  0.1702
 4180SOL    HW123999   2.114   4.201  14.767 -0.3425  0.6920  1.1942
 4180SOL    HW224000   2.081   4.055  14.801  0.0827  0.8031  0.0134
 4181SOL     OW24001   1.274   3.579   4.011 -0.5953 -0.3167 -0.1737
 4181SOL    HW124002   1.221   3.578   4.091  0.0887  0.2096  0.2825
 4181SOL    HW224003   1.217   3.634   3.956  1.3811  2.5576  0.7122
 4182SOL     OW24004   1.894   0.524  10.261 -0.5835 -0.5406 -0.3072
 4182SOL    HW124005   1.922   0.500  10.349  1.2650  0.5631 -0.6009
 4182SOL    HW224006   1.905   0.443  10.211  2.1559  0.0414 -0.6121
 4183SOL     OW24007   1.081   4.386   6.015 -0.1295 -0.3146  0.4607
 4183SOL    HW124008   1.052   4.311   6.068  0.6622 -1.7382 -1.0957
 4183SOL    HW224009   1.176   4.377   6.009 -0.2105 -2.5385  2.0701
 4184SOL     OW24010   3.343   3.106   2.487  0.1798  0.1919 -0.1633
 4184SOL    HW124011   3.310   3.016   2.489 -0.7119  0.5537  1.7433
 4184SOL    HW224012   3.313   3.127   2.399  0.7592 -1.5682 -0.7738
 4185SOL     OW24013   4.680   1.121   7.406  0.2160 -0.1140 -0.7088
 4185SOL    HW124014   4.595   1.079   7.401  0.8529 -1.5266  0.5249
 4185SOL    HW224015   0.004   1.055   7.460  0.0766  1.6196  1.5824
 4186SOL     OW24016   0.705   1.956   3.838  0.3087  0.1308  0.8879
 4186SOL    HW124017   0.619   1.913   3.840  0.1576  0.4803  1.8538
 4186SOL    HW224018   0.743   1.898   3.905  0.3234  0.6079  1.2900
 4187SOL     OW24019   2.027   4.597   4.695 -0.6846  0.2014  0.9546
 4187SOL    HW124020   1.981   4.662   4.748 -2.8257  0.3146 -1.0579
 4187SOL    HW224021   2.094   4.657   4.661 -0.2996 -1.5741 -1.4645
 4188SOL     OW24022   2.495   1.895   8.574 -0.9355  0.8692  0.4212
 4188SOL    HW124023   2.555   1.925   8.642  0.6595 -0.8306 -0.2341
 4188SOL    HW224024   2.524   1.806   8.552 -1.0804  0.5236  1.6483
 4189SOL     OW24025   3.094   0.223   2.489 -0.0990  0.1255 -0.2471
 4189SOL    HW124026   3.180   0.227   2.531 -0.5038  0.4284  0.5624
 4189SOL    HW224027   3.093   0.318   2.475 -0.7879  0.3015  0.9597
 4190SOL     OW24028   1.475   2.435   7.232 -0.1723  0.2774 -0.4632
 4190SOL    HW124029   1.505   2.373   7.298 -0.3189 -0.2688 -0.9088
 4190SOL    HW224030   1.410   2.484   7.282 -0.3390 -0.4023 -0.0145
 4191SOL     OW24031   1.733   3.712  10.705 -0.1322 -0.1312  0.7147
 4191SOL    HW124032   1.764   3.722  10.615 -0.3472  0.4249  0.7024
 4191SOL    HW224033   1.726   3.801  10.738 -1.0635  0.3361 -0.7391
 4192SOL     OW24034   3.964   0.961  14.275  0.2625  0.3784  0.6610
 4192SOL    HW124035   4.004   1.043  14.247 -0.4914  1.0803  1.6103
 4192SOL    HW224036   3.984   0.894  14.210 -0.7811  0.3703  0.3627
 4193SOL     OW24037   3.632   3.658   7.793  0.0517  0.4256  0.7822
 4193SOL    HW124038   3.638   3.680   7.700 -0.4016 -0.3583  0.5670
 4193SOL    HW224039   3.687   3.579   7.788 -1.5910 -0.6164 -0.7217
 4194SOL     OW24040   3.161   2.990   8.714  0.2070 -0.0739 -0.3742
 4194SOL    HW124041   3.095   3.040   8.666 -0.2296  0.7854  1.1611
 4194SOL    HW224042   3.153   2.903   8.674 -0.1555  0.1710 -0.8328
 4195SOL     OW24043   1.081   3.724  11.619  0.0475  0.5879 -0.5774
 4195SOL    HW124044   1.120   3.674  11.548 -0.4879  1.2609 -1.3485
 4195SOL    HW224045   1.127   3.682  11.692  0.6200  0.0194 -1.2648
 4196SOL     OW24046   0.014   1.704   5.780 -0.2329  0.0312 -0.2987
 4196SOL    HW124047   0.026   1.723   5.873 -0.7222 -0.6751 -0.0904
 4196SOL    HW224048   0.021   1.793   5.745  2.3672  1.0074  2.7343
 4197SOL     OW24049   1.815   4.181  13.068  0.3859 -0.5199  0.4489
 4197SOL    HW124050   1.810   4.227  13.152 -1.1093 -1.8053  1.0563
 4197SOL    HW224051   1.751   4.110  13.067  0.1584 -0.3039 -0.0781
 4198SOL     OW24052   4.177   2.090  14.619 -0.5202  0.2670 -0.0444
 4198SOL    HW124053   4.235   2.070  14.693  1.3180 -0.7495 -1.7510
 4198SOL    HW224054   4.238   2.092  14.545 -0.0897  0.3546  0.3173
 4199SOL     OW24055   3.572   0.257  11.784 -0.3495 -0.0436  0.0928
 4199SOL    HW124056   3.487   0.231  11.818 -0.1474 -0.9109 -0.0614
 4199SOL    HW224057   3.608   0.296  11.864 -0.3175  0.6187 -0.2428
 4200SOL     OW24058   2.246   3.023   5.709  0.1872 -0.5224  0.5322
 4200SOL    HW124059   2.261   2.964   5.635  0.5686 -0.3532  0.4757
 4200SOL    HW224060   2.262   3.109   5.671  1.0715 -1.3967 -1.0997
 4201SOL     OW24061   0.975   3.756   5.031 -0.0559  0.1004  0.0187
 4201SOL    HW124062   0.881   3.743   5.019  0.4153 -1.5391 -1.8454
 4201SOL    HW224063   1.013   3.682   4.984 -1.0085 -1.0826  1.1113
 4202SOL     OW24064   3.406   4.492  11.952 -0.1231  0.1512  0.2164
 4202SOL    HW124065   3.370   4.436  11.883 -1.9497  1.6490 -0.0348
 4202SOL    HW224066   3.453   4.563  11.908 -2.0489  0.7016 -0.9148
 4203SOL     OW24067   4.347   1.992  14.824  0.1196  0.2980  0.0617
 4203SOL    HW124068   4.353   1.946  14.907 -1.6130  0.9454  0.5459
 4203SOL    HW224069   4.432   1.967  14.789 -1.0681 -2.3281 -0.9868
 4204SOL     OW24070   1.933   3.622  15.747 -0.3714  0.3500  0.0149
 4204SOL    HW124071   1.996   3.597  15.680  1.5982 -0.5307  2.1881
 4204SOL    HW224072   1.874   3.668  15.687 -1.3556  0.7860  1.3089
 4205SOL     OW24073   2.033   0.478   6.644 -0.0584 -0.7540  0.2313
 4205SOL    HW124074   2.045   0.550   6.581  3.8987 -1.1722  0.4546
 4205SOL    HW224075   1.954   0.436   6.611 -1.1147  0.9644  0.5625
 4206SOL     OW24076   2.470   2.442   1.641 -0.1088 -0.0002 -0.5640
 4206SOL    HW124077   2.395   2.451   1.700 -1.3684  1.2248 -2.3926
 4206SOL    HW224078   2.447   2.504   1.572  1.5752  0.7721 -0.4323
 4207SOL     OW24079   3.645   1.872  11.745 -0.8020 -0.7287 -0.4055
 4207SOL    HW124080   3.677   1.898  11.658 -3.0315  0.3079 -0.9148
 4207SOL    HW224081   3.553   1.850  11.730 -0.9140  0.7665 -1.9576
 4208SOL     OW24082   1.125   2.503   6.122  0.1901  0.3495  0.0848
 4208SOL    HW124083   1.065   2.436   6.090  1.7881 -1.7759  1.5097
 4208SOL    HW224084   1.211   2.478   6.087 -0.1697 -0.6873 -0.0673
 4209SOL     OW24085   0.864   2.327   0.386  0.5909 -0.2123 -0.0351
 4209SOL    HW124086   0.847   2.244   0.342  0.0741 -0.2367  0.2079
 4209SOL    HW224087   0.779   2.357   0.417  1.7939  1.3316  1.7506
 4210SOL     OW24088   0.656   1.072   3.626 -0.0072 -0.9651  0.1408
 4210SOL    HW124089   0.671   0.994   3.573  1.6984 -0.8509  0.4516
 4210SOL    HW224090   0.737   1.078   3.677 -0.2355  0.6626  0.3033
 4211SOL     OW24091   1.620   2.978   9.966 -0.7422 -0.5397  0.2602
 4211SOL    HW124092   1.688   2.921  10.003  0.5711  1.3496  0.7919
 4211SOL    HW224093   1.613   2.952   9.874 -0.6552 -0.4298  0.2220
 4212SOL     OW24094   4.287   4.564  15.101  1.0211 -0.3429  0.0160
 4212SOL    HW124095   4.212   4.570  15.160  0.9059  2.4588 -0.4304
 4212SOL    HW224096   4.248   4.601  15.022  0.6405 -0.7051  0.0353
 4213SOL     OW24097   1.145   1.544  14.739 -0.4002 -0.8901 -0.5528
 4213SOL    HW124098   1.056   1.578  14.746  0.1874  0.8836 -1.7035
 4213SOL    HW224099   1.160   1.539  14.645  2.3135  0.0404 -0.1780
 4214SOL     OW24100   2.250   1.257   5.890  0.5107 -0.4465 -0.7512
 4214SOL    HW124101   2.241   1.162   5.884 -0.5145 -0.5673  2.5228
 4214SOL    HW224102   2.212   1.278   5.804 -0.6770 -1.3541 -0.4373
 4215SOL     OW24103   1.692   0.872   9.880 -0.2792 -0.0755  0.3693
 4215SOL    HW124104   1.680   0.952   9.932  0.0935 -0.3663  0.9028
 4215SOL    HW224105   1.713   0.804   9.944  1.6310 -0.4938 -0.7014
 4216SOL     OW24106   3.362   1.386   7.536 -0.0901  0.0272  0.1760
 4216SOL    HW124107   3.273   1.376   7.503  0.0267  1.4041 -0.5337
 4216SOL    HW224108   3.404   1.381   7.450  0.8105  0.9946  0.5540
 4217SOL     OW24109   0.058   1.840  14.889 -0.0239  0.1538 -0.0607
 4217SOL    HW124110   0.082   1.773  14.824 -0.6803  2.3470 -2.5717
 4217SOL    HW224111   4.704   1.885  14.847 -0.6338 -0.4585  0.3405
 4218SOL     OW24112   3.569   3.792   8.707 -0.2386 -0.1422 -0.6100
 4218SOL    HW124113   3.512   3.866   8.683  1.2233  0.3706 -2.4554
 4218SOL    HW224114   3.615   3.830   8.782 -0.3094  0.5588 -0.9188
 4219SOL     OW24115   4.181   4.510   6.401 -0.2789  0.1390 -0.4437
 4219SOL    HW124116   4.115   4.579   6.407 -0.0387  0.7457 -4.7099
 4219SOL    HW224117   4.256   4.551   6.444 -0.9691 -0.4087  1.2569
 4220SOL     OW24118   2.148   0.877  15.559 -0.2221  0.0525 -0.0379
 4220SOL    HW124119   2.083   0.821  15.601  0.6919 -1.3346 -0.4731
 4220SOL    HW224120   2.154   0.937  15.634  0.3231  0.5415 -0.4712
 4221SOL     OW24121   0.620   1.840   8.970 -0.3365 -0.5363  0.1630
 4221SOL    HW124122   0.548   1.813   9.027 -2.2896  0.7880 -1.6887
 4221SOL    HW224123   0.699   1.804   9.011  0.2543 -1.5306 -1.8558
 4222SOL     OW24124   2.151   1.810   3.337 -0.3965 -0.1342 -0.3512
 4222SOL    HW124125   2.061   1.785   3.320 -0.5260 -0.4187  0.7991
 4222SOL    HW224126   2.209   1.755   3.284  0.3218 -2.4534  2.8426
 4223SOL     OW24127   1.505   2.194   5.422 -0.3692 -0.1659 -0.4195
 4223SOL    HW124128   1.475   2.233   5.340 -2.1133  1.5760  1.0365
 4223SOL    HW224129   1.496   2.100   5.406  0.1316 -0.1777 -0.6377
 4224SOL     OW24130   4.447   0.985   7.511  0.3586  0.3942 -0.4796
 4224SOL    HW124131   4.380   0.918   7.525  0.7222 -0.0980 -1.0924
 4224SOL    HW224132   4.441   1.026   7.597 -1.3826  0.8383 -0.8086
 4225SOL     OW24133   2.123   1.055  15.777 -0.1485  0.3617  0.5490
 4225SOL    HW124134   2.057   1.034  15.844  0.5441  0.1943  1.1734
 4225SOL    HW224135   2.095   1.143  15.754  0.2681  0.4656  0.4428
 4226SOL     OW24136   3.193   2.848   6.500 -0.1460  0.2383 -0.1408
 4226SOL    HW124137   3.204   2.789   6.574  0.1734 -0.7263 -0.9514
 4226SOL    HW224138   3.112   2.894   6.524 -0.8710 -0.0653 -2.0064
 4227SOL     OW24139   0.748   3.058   5.107 -0.4483 -0.1834  0.2625
 4227SOL    HW124140   0.717   3.077   5.196 -2.6658  1.0643 -0.8023
 4227SOL    HW224141   0.752   3.147   5.072 -1.7250 -0.2459 -0.0356
 4228SOL     OW24142   3.927   2.626  11.141 -0.1229  0.0621 -0.0992
 4228SOL    HW124143   3.908   2.557  11.077  1.6355 -0.8393  0.3461
 4228SOL    HW224144   3.974   2.685  11.082 -1.4254  2.1880  1.0335
 4229SOL     OW24145   3.603   0.243   5.968  0.0446 -0.3230 -0.4633
 4229SOL    HW124146   3.512   0.225   5.949 -0.2992  0.7968  0.1243
 4229SOL    HW224147   3.618   0.233   6.062  2.0833 -2.3757 -0.9907
 4230SOL     OW24148   4.216   2.226   2.720 -0.4249  0.5635 -0.0682
 4230SOL    HW124149   4.262   2.150   2.685 -0.5955  1.5619 -2.4180
 4230SOL    HW224150   4.128   2.199   2.693 -0.8350  1.7297  0.0621
 4231SOL     OW24151   2.201   1.563   5.913  0.1351  0.0260  0.3656
 4231SOL    HW124152   2.175   1.511   5.837  1.4819  1.2929 -0.9657
 4231SOL    HW224153   2.128   1.544   5.972  1.4352  1.9682  2.6018
 4232SOL     OW24154   0.847   1.698   2.238 -0.0384  0.5865 -0.4390
 4232SOL    HW124155   0.754   1.711   2.224 -0.5032  0.1011  2.2402
 4232SOL    HW224156   0.881   1.786   2.253 -0.0664  0.4212  0.5952
 4233SOL     OW24157   0.269   0.124   0.147 -0.0352  0.0393 -0.1614
 4233SOL    HW124158   0.323   0.052   0.179  0.7120  0.7049  0.0800
 4233SOL    HW224159   0.212   0.084   0.081 -1.2032  2.3428 -0.5541
 4234SOL     OW24160   3.810   3.189   7.958 -0.0926 -0.3744  0.6117
 4234SOL    HW124161   3.758   3.142   7.893  1.9452 -0.7979 -0.7313
 4234SOL    HW224162   3.869   3.239   7.902 -0.4786  0.5182  1.0046
 4235SOL     OW24163   1.483   4.273   4.569  0.1549 -0.0438  0.3298
 4235SOL    HW124164   1.470   4.209   4.499  1.7230  0.4678 -0.4321
 4235SOL    HW224165   1.534   4.214   4.625  2.1939 -0.7447 -2.2953
 4236SOL     OW24166   3.492   0.175   8.562 -0.5256  0.3339  0.4559
 4236SOL    HW124167   3.411   0.212   8.527 -0.1715  0.1914 -0.5131
 4236SOL    HW224168   3.457   0.092   8.594 -0.1017  0.1294  0.3934
 4237SOL     OW24169   3.727   1.871   5.821  0.2751 -0.1483  0.1637
 4237SOL    HW124170   3.781   1.818   5.879 -1.4867 -0.1609  1.7696
 4237SOL    HW224171   3.752   1.831   5.737  2.3406  0.0097  0.7063
 4238SOL     OW24172   4.262   0.053   9.341 -0.3303 -0.0502 -1.3642
 4238SOL    HW124173   4.255   4.707   9.410 -0.9651  1.6989  0.2253
 4238SOL    HW224174   4.338   0.021   9.294  1.7434 -0.4121  2.2598
 4239SOL     OW24175   1.474   3.646   5.441 -0.0810 -0.1021  0.3403
 4239SOL    HW124176   1.383   3.640   5.472 -0.1244 -0.5757  0.1131
 4239SOL    HW224177   1.519   3.612   5.519  0.8876  0.0271 -0.1643
 4240SOL     OW24178   0.742   0.180  12.826  0.0379 -0.4068  0.0460
 4240SOL    HW124179   0.711   0.168  12.736 -0.4830 -0.8905  0.2885
 4240SOL    HW224180   0.775   0.270  12.816 -0.8649 -0.3076 -2.1240
 4241SOL     OW24181   4.507   3.302  12.676  0.1784 -0.9538  0.2604
 4241SOL    HW124182   4.577   3.331  12.736  0.1296 -0.4774  0.0855
 4241SOL    HW224183   4.530   3.341  12.592 -0.9072 -0.2171  0.3010
 4242SOL     OW24184   4.531   1.891   5.997  0.4886  0.4212 -0.5024
 4242SOL    HW124185   4.521   1.941   6.078 -0.1029 -1.3522  0.5245
 4242SOL    HW224186   4.620   1.862   6.016  0.2835 -0.0473 -0.2609
 4243SOL     OW24187   1.864   3.039   3.705 -0.2872  0.0542  0.4001
 4243SOL    HW124188   1.781   2.991   3.704 -0.1462 -0.1540 -1.1232
 4243SOL    HW224189   1.868   3.060   3.611 -2.5705 -1.7415 -0.0905
 4244SOL     OW24190   3.706   4.649   7.578  0.4763  0.1813  0.5298
 4244SOL    HW124191   3.640   4.708   7.615  0.6547  0.6675  0.0722
 4244SOL    HW224192   3.652   4.570   7.569 -0.2035  0.7225 -0.1854
 4245SOL     OW24193   1.600   3.416  11.636 -0.9181 -0.3874 -0.5687
 4245SOL    HW124194   1.537   3.433  11.567 -0.9963 -0.7999 -0.5945
 4245SOL    HW224195   1.671   3.471  11.601 -0.6901 -1.6480 -2.0860
 4246SOL     OW24196   0.632   1.634   5.371  0.1841 -0.0388  0.3848
 4246SOL    HW124197   0.633   1.675   5.285  0.1648 -0.9134 -0.0342
 4246SOL    HW224198   0.663   1.545   5.350 -0.7379 -0.4393  0.7321
 4247SOL     OW24199   1.138   3.220   1.078 -0.0360 -0.4670  0.0342
 4247SOL    HW124200   1.180   3.303   1.055  0.3376 -0.2452  1.4763
 4247SOL    HW224201   1.215   3.167   1.096  1.4067  1.2354 -1.1433
 4248SOL     OW24202   0.432   3.804   4.624 -0.2322  0.3970 -0.4773
 4248SOL    HW124203   0.441   3.868   4.695  0.2695  0.5599 -0.6835
 4248SOL    HW224204   0.339   3.825   4.621  0.1400  1.9808 -1.3499
 4249SOL     OW24205   0.572   0.152   8.558  0.1258  0.2610 -0.2751
 4249SOL    HW124206   0.630   0.079   8.535 -0.3167 -0.6551  1.5055
 4249SOL    HW224207   0.623   0.228   8.533  0.4046  0.6705  1.5047
 4250SOL     OW24208   1.363   2.662  13.193  0.1152  0.0464  0.5346
 4250SOL    HW124209   1.451   2.698  13.187  0.6108 -1.2087  0.2260
 4250SOL    HW224210   1.307   2.739  13.196 -1.5515 -1.1597  0.8026
 4251SOL     OW24211   0.200   0.282   7.317 -0.5275 -0.8742  0.5888
 4251SOL    HW124212   0.173   0.271   7.225  0.5279 -0.7418  0.2650
 4251SOL    HW224213   0.130   0.236   7.363  0.1980 -1.0396  1.5266
 4252SOL     OW24214   2.793   1.234  17.579  0.2778 -0.0490  0.0675
 4252SOL    HW124215   2.844   1.160  17.548 -0.4025 -0.2670 -0.5160
 4252SOL    HW224216   2.719   1.203  17.631  0.3828 -0.1864  0.1347
 4253SOL     OW24217   4.060   4.465   8.050  0.2118  0.4121  0.4132
 4253SOL    HW124218   4.017   4.391   8.007  0.2368  1.0784 -0.7610
 4253SOL    HW224219   4.058   4.426   8.137  2.3350 -1.6169 -0.4328
 4254SOL     OW24220   1.781   0.784   4.565 -0.3975 -0.0880 -0.1690
 4254SOL    HW124221   1.828   0.704   4.590  3.3627  2.7391  1.7768
 4254SOL    HW224222   1.858   0.828   4.531  0.1692 -1.3087 -0.4729
 4255SOL     OW24223   3.349   1.703   4.512 -0.1567  0.5508  0.1775
 4255SOL    HW124224   3.364   1.774   4.575  0.7353 -0.0530  0.6446
 4255SOL    HW224225   3.436   1.664   4.518 -0.8461 -1.2123 -1.3670
 4256SOL     OW24226   4.698   0.102   4.452 -0.0539 -0.2742  0.2952
 4256SOL    HW124227   4.664   0.187   4.424  1.6344  0.1999 -0.3443
 4256SOL    HW224228   4.645   0.045   4.397 -0.0155  0.0443 -0.0688
 4257SOL     OW24229   2.970   4.379   0.762 -0.5700 -0.6798 -0.3916
 4257SOL    HW124230   3.029   4.413   0.829 -0.9717 -3.4502  1.3771
 4257SOL    HW224231   2.948   4.293   0.797 -0.4717 -0.2272  0.8227
 4258SOL     OW24232   0.837   0.351   4.096  0.2674  0.0043 -0.0313
 4258SOL    HW124233   0.860   0.335   4.187  0.7392 -0.7416 -0.2811
 4258SOL    HW224234   0.764   0.410   4.111  1.1509  0.8072  1.0742
 4259SOL     OW24235   0.952   1.972   2.239  0.8570 -0.3810  0.7451
 4259SOL    HW124236   1.001   2.046   2.205  0.7449 -0.3541  0.6431
 4259SOL    HW224237   1.013   1.943   2.307  1.1277  2.6833  1.8047
 4260SOL     OW24238   2.319   3.371   4.221  0.2638 -0.7198  0.5645
 4260SOL    HW124239   2.239   3.359   4.170  1.1654 -0.4784 -0.8897
 4260SOL    HW224240   2.334   3.466   4.221 -1.0462 -0.5046  0.9735
 4261SOL     OW24241   4.294   0.522   9.775 -0.0764 -0.4885  0.4117
 4261SOL    HW124242   4.298   0.432   9.742 -0.4273  0.0340 -1.0764
 4261SOL    HW224243   4.289   0.510   9.870  1.6895  2.3066  0.8370
 4262SOL     OW24244   3.255   2.939   4.911  0.5466  0.0726 -0.2408
 4262SOL    HW124245   3.217   2.957   4.998  1.1377  0.0881  0.0101
 4262SOL    HW224246   3.224   3.015   4.862  1.1055  1.2814  1.2514
 4263SOL     OW24247   3.433   0.428   4.978 -0.1857 -0.2378 -0.3680
 4263SOL    HW124248   3.346   0.468   4.985 -1.0906 -2.5406  1.2984
 4263SOL    HW224249   3.460   0.435   5.069  2.8312  1.2834 -1.3753
 4264SOL     OW24250   3.144   0.698   8.319  0.0379  0.2513 -0.1316
 4264SOL    HW124251   3.065   0.752   8.326  0.0720  0.3493 -0.5168
 4264SOL    HW224252   3.167   0.678   8.410  2.2043 -0.1525 -0.7883
 4265SOL     OW24253   0.908   2.339   5.092  0.7111 -0.4034  0.1082
 4265SOL    HW124254   0.820   2.306   5.079  1.0992 -0.6328 -1.9501
 4265SOL    HW224255   0.888   2.432   5.103 -0.1608 -0.5529 -0.2305
 4266SOL     OW24256   0.182   2.421   2.601 -0.7145 -0.0992  0.3708
 4266SOL    HW124257   0.098   2.421   2.555 -1.1296  0.2450  1.1223
 4266SOL    HW224258   0.167   2.487   2.669  1.2482  0.2455  0.4768
 4267SOL     OW24259   4.487   0.030   8.328 -0.0139 -0.4379 -0.6116
 4267SOL    HW124260   4.487   0.122   8.302 -3.1570 -0.3147 -0.1740
 4267SOL    HW224261   4.415   4.718   8.273  0.7553 -1.3141 -1.1065
 4268SOL     OW24262   3.484   0.071   3.810 -0.3431  0.1724  0.2048
 4268SOL    HW124263   3.572   0.074   3.772 -1.1502 -1.2258 -1.7643
 4268SOL    HW224264   3.444   0.009   3.749 -0.6938  0.2093  0.4025
 4269SOL     OW24265   2.943   1.972   5.638 -0.5662 -0.2644 -0.1332
 4269SOL    HW124266   2.893   1.906   5.685  1.7299 -1.2060  0.9657
 4269SOL    HW224267   3.001   1.913   5.589  0.4822  0.4825  0.2035
 4270SOL     OW24268   0.207   0.096   2.682  0.4826  0.6485 -0.5652
 4270SOL    HW124269   0.267   0.030   2.648 -0.8842 -1.4745  1.1145
 4270SOL    HW224270   0.130   0.094   2.625  0.1028 -0.8323 -0.0170
 4271SOL     OW24271   3.920   0.843   5.085 -0.0436 -0.0113 -0.0082
 4271SOL    HW124272   3.977   0.914   5.115 -0.1041  0.6405 -1.4432
 4271SOL    HW224273   3.849   0.844   5.150 -1.0169  0.9260 -1.0874
 4272SOL     OW24274   2.348   3.569  10.345 -0.6813  0.7155  0.1573
 4272SOL    HW124275   2.442   3.563  10.361 -0.3575  0.2588 -1.8646
 4272SOL    HW224276   2.315   3.642  10.398 -1.6375  0.1723  0.3070
 4273SOL     OW24277   1.454   0.026   8.324 -0.2201  0.0248 -0.0002
 4273SOL    HW124278   1.529   0.054   8.377  0.5108  1.3482 -1.6945
 4273SOL    HW224279   1.492   0.024   8.236 -2.4822 -2.3902 -0.9044
 4274SOL     OW24280   2.348   1.840  16.563  0.5167 -0.1092  0.4378
 4274SOL    HW124281   2.253   1.828  16.564  0.4834  0.0164 -0.5483
 4274SOL    HW224282   2.353   1.933  16.583  0.8569  0.1140 -0.6463
 4275SOL     OW24283   2.026   1.009   8.173  0.2206 -0.3129 -0.3471
 4275SOL    HW124284   2.039   0.972   8.260  0.8361  1.5137  0.3401
 4275SOL    HW224285   2.063   1.096   8.187 -0.7493  0.2961 -1.5089
 4276SOL     OW24286   2.579   3.735   9.095  0.0197  0.3871  0.2040
 4276SOL    HW124287   2.616   3.774   9.174 -0.4427 -1.6582  1.4323
 4276SOL    HW224288   2.544   3.811   9.048 -0.8272 -0.5080 -0.6156
 4277SOL     OW24289   3.063   0.762   8.618 -0.3320 -0.4351  0.2854
 4277SOL    HW124290   3.043   0.775   8.711  0.6249  0.9167  0.2956
 4277SOL    HW224291   3.123   0.837   8.613 -0.1580 -0.4274  2.5049
 4278SOL     OW24292   1.234   3.174   6.754  0.4330  0.5901  0.2456
 4278SOL    HW124293   1.217   3.102   6.693  1.9618  0.9284 -0.5710
 4278SOL    HW224294   1.281   3.135   6.828 -1.1887  0.1241  1.0359
 4279SOL     OW24295   0.673   0.470   7.181 -0.2166 -0.0923  0.6249
 4279SOL    HW124296   0.678   0.428   7.096  1.8101  1.1550  0.1283
 4279SOL    HW224297   0.591   0.520   7.178  0.5542  1.1522  0.4608
 4280SOL     OW24298   3.393   0.241  16.562  0.0903 -0.3174 -0.4449
 4280SOL    HW124299   3.468   0.187  16.582  0.7480  1.1022  0.8943
 4280SOL    HW224300   3.398   0.309  16.629  2.4920 -1.7626  0.8314
 4281SOL     OW24301   0.494   0.616   6.974  0.7131 -0.0462 -0.1485
 4281SOL    HW124302   0.465   0.592   6.886 -1.7093  0.5224  0.5006
 4281SOL    HW224303   0.589   0.620   6.967  0.6616  0.5644 -0.4477
 4282SOL     OW24304   3.442   4.678  12.371  0.3021  0.0147  0.4715
 4282SOL    HW124305   3.433   0.002  12.286  4.2739 -3.2282 -1.6395
 4282SOL    HW224306   3.442   4.586  12.344  0.5083 -0.2369  1.3355
 4283SOL     OW24307   4.579   1.776   8.144  0.0752  0.0387 -0.3012
 4283SOL    HW124308   4.667   1.807   8.124 -0.8378  1.5447 -1.9940
 4283SOL    HW224309   4.596   1.721   8.221 -0.6428  1.4386  0.8752
 4284SOL     OW24310   2.435   4.475  14.962  0.1372 -0.0208  0.0575
 4284SOL    HW124311   2.372   4.407  14.983 -1.6331  1.5351 -0.2386
 4284SOL    HW224312   2.516   4.427  14.944  0.8591  0.5768  1.7315
 4285SOL     OW24313   3.797   2.575   3.669 -0.5805 -0.2751  0.3473
 4285SOL    HW124314   3.845   2.537   3.595 -0.8125 -0.4239  0.2758
 4285SOL    HW224315   3.821   2.517   3.742  0.1308 -1.6032 -0.9507
 4286SOL     OW24316   3.274   1.893   5.821  0.2929 -0.2305  0.5683
 4286SOL    HW124317   3.306   1.983   5.822 -1.0074  0.2549 -0.1116
 4286SOL    HW224318   3.222   1.891   5.902 -1.4928  2.1313 -0.4810
 4287SOL     OW24319   0.252   1.753  16.722 -0.0123  0.8283 -0.9652
 4287SOL    HW124320   0.161   1.724  16.721 -0.0191  0.7641  5.0963
 4287SOL    HW224321   0.264   1.794  16.807 -2.5966  1.1288 -0.7268
 4288SOL     OW24322   2.936   3.665   5.718  0.3860 -0.5694 -0.0948
 4288SOL    HW124323   2.868   3.652   5.783 -0.4255  1.0425 -0.6259
 4288SOL    HW224324   2.912   3.598   5.653 -1.3721 -1.7879  1.8540
 4289SOL     OW24325   0.004   2.243   5.456  0.0828 -0.3763  0.1768
 4289SOL    HW124326   4.629   2.235   5.447 -0.2185  1.2881  1.9082
 4289SOL    HW224327   0.012   2.338   5.446 -1.8922 -0.2467 -0.1569
 4290SOL     OW24328   0.628   4.079   6.485  0.0439 -0.0109 -0.3196
 4290SOL    HW124329   0.573   4.151   6.516 -0.3064 -0.1124 -0.7004
 4290SOL    HW224330   0.578   3.998   6.497  0.4482 -0.1544  0.4118
 4291SOL     OW24331   0.954   4.092   8.284  0.1067  0.1318 -0.2901
 4291SOL    HW124332   1.018   4.161   8.264  0.7428 -0.5430 -0.5516
 4291SOL    HW224333   0.906   4.143   8.349  1.1466  1.4566 -0.5512
 4292SOL     OW24334   1.548   4.535   1.297 -0.4054 -0.5391  0.2438
 4292SOL    HW124335   1.582   4.602   1.355 -1.4918  0.8973 -0.7958
 4292SOL    HW224336   1.623   4.474   1.299 -0.0131  0.0025  2.3368
 4293SOL     OW24337   2.224   0.392   9.084  0.7276 -0.3147  0.5023
 4293SOL    HW124338   2.209   0.408   9.177  0.0989 -0.5915  0.4469
 4293SOL    HW224339   2.289   0.460   9.066 -2.3405  2.2151 -0.9020
 4294SOL     OW24340   4.562   1.104   5.969 -0.4732 -0.0740 -0.4179
 4294SOL    HW124341   4.500   1.136   6.035  0.9426 -1.0173  1.3830
 4294SOL    HW224342   4.568   1.184   5.916 -0.6998 -0.0056 -0.3441
 4295SOL     OW24343   0.454   2.746   5.829 -0.3292 -0.3657 -0.0626
 4295SOL    HW124344   0.398   2.794   5.891 -0.5748 -1.6148  0.6809
 4295SOL    HW224345   0.482   2.672   5.883 -2.3465 -1.0510  0.0465
 4296SOL     OW24346   0.935   3.937   7.474  0.1220 -0.8563 -0.3117
 4296SOL    HW124347   0.939   3.841   7.484 -0.5026 -0.6427  2.0525
 4296SOL    HW224348   0.844   3.935   7.447  0.8288 -2.0557 -2.5800
 4297SOL     OW24349   0.701   2.208   4.984  0.0401 -0.3021 -0.7261
 4297SOL    HW124350   0.734   2.178   4.900 -0.3958 -1.4000 -0.5135
 4297SOL    HW224351   0.656   2.130   5.018 -1.0172  0.0541 -1.3138
 4298SOL     OW24352   3.895   1.429   4.273 -0.3480 -0.2440 -0.2149
 4298SOL    HW124353   3.822   1.417   4.333  0.7129  0.3997  1.2184
 4298SOL    HW224354   3.971   1.395   4.321 -0.3385 -0.6604 -0.5183
 4299SOL     OW24355   1.292   3.714   2.217 -0.6057  0.1366 -0.2850
 4299SOL    HW124356   1.230   3.648   2.248 -2.3955  2.2229  0.5757
 4299SOL    HW224357   1.352   3.718   2.292 -1.9116 -1.7572  0.8413
 4300SOL     OW24358   1.289   0.807   2.337  0.1713 -0.3525 -0.3132
 4300SOL    HW124359   1.308   0.785   2.428 -1.5628 -0.5381 -0.0106
 4300SOL    HW224360   1.195   0.791   2.329  0.1460  0.0804 -0.8769
 4301SOL     OW24361   0.518   2.002   8.408 -0.1458  0.4305  0.3617
 4301SOL    HW124362   0.565   1.950   8.343  0.0723 -0.2744  1.0797
 4301SOL    HW224363   0.521   2.091   8.372 -7.2623  0.2055 -0.8157
 4302SOL     OW24364   1.469   1.352   7.200 -0.7034  0.3557  0.3057
 4302SOL    HW124365   1.495   1.338   7.291  2.7696  0.9381 -0.6282
 4302SOL    HW224366   1.464   1.262   7.168 -1.3341  0.9760 -1.3075
 4303SOL     OW24367   4.416   1.021  15.256 -0.3813 -0.0914 -0.4658
 4303SOL    HW124368   4.393   1.113  15.272 -0.4288 -0.1508 -0.2042
 4303SOL    HW224369   4.328   0.984  15.257 -0.5086  0.0929 -3.5928
 4304SOL     OW24370   3.660   2.977   9.045 -0.5127  0.0704  0.0446
 4304SOL    HW124371   3.574   2.948   9.016 -1.0629  2.1848 -0.4749
 4304SOL    HW224372   3.700   2.891   9.034  2.6450  1.8249 -2.1291
 4305SOL     OW24373   0.605   4.679   9.686 -0.0399  0.0191  0.5705
 4305SOL    HW124374   0.513   4.705   9.689  0.6812  2.5308  0.7689
 4305SOL    HW224375   0.608   4.600   9.632  1.2659  0.2243  0.3361
 4306SOL     OW24376   0.945   2.548   0.007  0.0199 -0.5147 -0.7113
 4306SOL    HW124377   0.877   2.588   0.062  0.3127 -1.5130  0.3757
 4306SOL    HW224378   0.923   2.589  17.605 -0.4665  0.7755  0.0348
 4307SOL     OW24379   2.289   1.583   5.193 -0.7465 -0.1383 -0.3900
 4307SOL    HW124380   2.284   1.544   5.281  0.1218 -0.0638 -0.3029
 4307SOL    HW224381   2.250   1.526   5.127 -1.6567  1.5527 -1.2936
 4308SOL     OW24382   2.421   2.015   1.963  0.0193 -0.2180 -0.4594
 4308SOL    HW124383   2.493   1.995   2.023 -1.0846  0.3229  1.0410
 4308SOL    HW224384   2.404   2.109   1.968 -1.9126 -0.5362 -1.2086
 4309SOL     OW24385   1.868   1.971   4.453  0.7926 -0.9279 -0.6531
 4309SOL    HW124386   1.830   1.887   4.427 -1.4589 -0.4477  1.1215
 4309SOL    HW224387   1.943   1.979   4.394  0.3516  1.1143 -0.9210
 4310SOL     OW24388   2.035   3.539   3.125  0.4054  0.0804  0.6452
 4310SOL    HW124389   2.025   3.632   3.141 -2.2444 -0.0557 -0.2230
 4310SOL    HW224390   1.945   3.520   3.100  1.2105 -4.2476  0.9173
 4311SOL     OW24391   2.048   3.748  17.604  0.0956  0.3305 -0.2700
 4311SOL    HW124392   2.002   3.769   0.004 -2.4707  0.2951 -1.6794
 4311SOL    HW224393   2.043   3.831  17.555 -0.5128 -0.6972 -1.9339
 4312SOL     OW24394   0.390   3.613   3.511  0.3816 -0.7074  0.6504
 4312SOL    HW124395   0.407   3.687   3.453 -1.1443 -0.0314  1.0420
 4312SOL    HW224396   0.298   3.627   3.536  0.4431  0.0869  0.4288
 4313SOL     OW24397   3.534   2.690   8.104 -0.2389 -0.0893 -0.2513
 4313SOL    HW124398   3.440   2.676   8.098 -0.1583 -0.4689 -0.6750
 4313SOL    HW224399   3.547   2.779   8.138 -0.2749 -0.4943  0.8153
 4314SOL     OW24400   2.802   3.406  15.907 -0.0744  0.1698 -0.1851
 4314SOL    HW124401   2.800   3.360  15.991  0.2727 -0.2031 -0.3826
 4314SOL    HW224402   2.711   3.423  15.881  0.4106  0.9721 -1.3545
 4315SOL     OW24403   3.710   3.337   0.927 -0.0135 -0.3827 -0.0745
 4315SOL    HW124404   3.635   3.313   0.982 -0.4350  0.1805 -0.4035
 4315SOL    HW224405   3.696   3.278   0.853 -0.3223  1.9816 -1.8997
 4316SOL     OW24406   2.029   1.964   8.264  0.5978 -0.0673  1.1260
 4316SOL    HW124407   2.080   1.913   8.328  1.7947 -2.0018 -1.3318
 4316SOL    HW224408   2.094   2.028   8.235 -0.1148 -0.2077 -0.7693
 4317SOL     OW24409   1.345   0.262   2.695  0.4174  0.1794 -0.2188
 4317SOL    HW124410   1.415   0.289   2.755 -0.0981  1.7888 -0.3650
 4317SOL    HW224411   1.270   0.307   2.732  0.1210  0.9715 -1.8202
 4318SOL     OW24412   4.123   4.623   2.122 -0.0170  0.1322 -0.0349
 4318SOL    HW124413   4.152   4.542   2.080  0.2340  1.0359 -1.5983
 4318SOL    HW224414   4.029   4.614   2.107 -0.1999 -1.0541  1.7469
 4319SOL     OW24415   1.829   2.430  12.365  0.6283  0.2088 -0.3842
 4319SOL    HW124416   1.880   2.448  12.444 -0.3437  1.2828 -0.0085
 4319SOL    HW224417   1.862   2.508  12.320  1.9838  1.2959  2.4928
 4320SOL     OW24418   2.771   4.050   7.264 -0.2239 -0.1666 -0.2727
 4320SOL    HW124419   2.712   4.123   7.245 -0.2496  0.0016  0.4442
 4320SOL    HW224420   2.813   4.046   7.179 -0.2756 -0.6145 -0.2771
 4321SOL     OW24421   3.038   2.094  11.125 -0.1419  0.6254  0.0262
 4321SOL    HW124422   2.982   2.025  11.090 -0.1740  0.3160  0.6825
 4321SOL    HW224423   3.124   2.052  11.126  0.2019  1.3178  0.0958
 4322SOL     OW24424   1.855   4.104   7.075 -0.3333  0.7840  0.1508
 4322SOL    HW124425   1.882   4.015   7.098 -0.2200  1.0776  1.1418
 4322SOL    HW224426   1.824   4.140   7.158 -2.1423 -0.7202  0.1230
 4323SOL     OW24427   0.201   2.965  13.898 -0.0508 -0.2415  0.2598
 4323SOL    HW124428   0.189   2.884  13.849  0.0126 -1.0355  1.5635
 4323SOL    HW224429   0.197   3.027  13.825  1.1574  1.8690  1.9492
 4324SOL     OW24430   2.107   3.365   2.738 -0.0176  0.3632  0.6284
 4324SOL    HW124431   2.131   3.365   2.645 -1.5581  0.6258  0.2455
 4324SOL    HW224432   2.195   3.387   2.770  0.1710  2.4085 -1.2452
 4325SOL     OW24433   3.348   2.413   4.812  0.4175  0.3128 -0.0684
 4325SOL    HW124434   3.431   2.417   4.860  1.3664  3.3408 -2.0149
 4325SOL    HW224435   3.382   2.410   4.723 -0.4278 -0.4601 -0.3719
 4326SOL     OW24436   4.338   0.306   8.242  0.8070 -0.0746  0.3399
 4326SOL    HW124437   4.335   0.337   8.151  3.0031  0.2316  0.3733
 4326SOL    HW224438   4.387   0.380   8.276 -0.0689  0.3801  0.6104
 4327SOL     OW24439   3.191   4.132   1.389  0.5631 -0.2251  0.1556
 4327SOL    HW124440   3.249   4.149   1.315  0.5018  3.2238  0.9108
 4327SOL    HW224441   3.119   4.193   1.374  2.2038  1.1556 -2.0882
 4328SOL     OW24442   2.843   2.603   6.352  0.5776 -0.2295  0.2415
 4328SOL    HW124443   2.927   2.563   6.373  0.8056  1.1577  2.0117
 4328SOL    HW224444   2.849   2.683   6.405 -1.7409 -0.8249  1.3966
 4329SOL     OW24445   0.764   3.475   7.384  0.0676 -0.4849 -0.1531
 4329SOL    HW124446   0.734   3.389   7.356 -1.8002  0.8301 -2.1378
 4329SOL    HW224447   0.704   3.494   7.456  0.5377 -0.1209  0.1481
 4330SOL     OW24448   3.923   0.332   5.800  0.1133  0.4301 -0.0991
 4330SOL    HW124449   3.854   0.363   5.858  0.0086  0.6620 -0.3477
 4330SOL    HW224450   3.886   0.375   5.722  0.9306  2.6638  0.7432
 4331SOL     OW24451   2.444   1.754   4.129 -0.0598  0.2855  0.6838
 4331SOL    HW124452   2.456   1.838   4.173 -0.3402  0.1820  0.9510
 4331SOL    HW224453   2.530   1.751   4.085  0.6321 -0.5750  2.0727
 4332SOL     OW24454   0.762   0.261   4.843 -0.7997  0.4280 -0.5191
 4332SOL    HW124455   0.808   0.241   4.924  2.6175  1.5455 -2.2098
 4332SOL    HW224456   0.694   0.194   4.854 -0.8690  0.3965 -1.1002
 4333SOL     OW24457   2.505   0.312   6.515 -0.3515  0.2485 -0.1208
 4333SOL    HW124458   2.575   0.341   6.457  0.8501  1.8173  2.0873
 4333SOL    HW224459   2.547   0.238   6.560 -0.0698  0.9346  0.7530
 4334SOL     OW24460   2.608   3.367   9.582 -0.1310 -0.3000 -0.5220
 4334SOL    HW124461   2.693   3.398   9.612  1.1687 -3.6352 -0.7736
 4334SOL    HW224462   2.556   3.345   9.659 -1.7233  0.8688 -1.2570
 4335SOL     OW24463   2.334   1.219   9.225  0.4149 -0.3354 -0.4255
 4335SOL    HW124464   2.268   1.173   9.278  0.3535 -0.4600 -0.6074
 4335SOL    HW224465   2.386   1.147   9.191 -0.2532  0.2663 -2.6976
 4336SOL     OW24466   1.643   3.107   6.243 -0.1482  0.0510 -0.3475
 4336SOL    HW124467   1.729   3.141   6.217  0.6734 -0.7807  1.2615
 4336SOL    HW224468   1.664   3.015   6.259 -2.8301 -0.1422  1.9455
 4337SOL     OW24469   0.972   4.330  13.373  0.2254 -0.5693  0.1359
 4337SOL    HW124470   0.922   4.349  13.293  0.7168  1.1040  0.2173
 4337SOL    HW224471   0.907   4.269  13.407  0.1797  0.3706  1.7628
 4338SOL     OW24472   0.151   3.372   8.369  0.5619 -0.3001  0.2568
 4338SOL    HW124473   0.132   3.453   8.323 -2.1398 -2.1190 -1.8455
 4338SOL    HW224474   0.101   3.308   8.318  1.9598 -0.7104 -0.6049
 4339SOL     OW24475   4.514   1.951   5.574  0.3831  0.3377  0.3374
 4339SOL    HW124476   4.583   1.994   5.624  0.6331  1.0791 -0.6482
 4339SOL    HW224477   4.441   1.943   5.635  0.7318  0.2134  0.7412
 4340SOL     OW24478   2.066   1.607  17.270 -0.2241 -0.4040  0.0803
 4340SOL    HW124479   2.112   1.620  17.352  1.2720 -1.0122 -0.6655
 4340SOL    HW224480   2.104   1.674  17.213 -0.1100  0.4729  1.1951
 4341SOL     OW24481   0.957   2.523   6.990 -0.2245  0.3045 -0.0984
 4341SOL    HW124482   0.954   2.442   7.041 -1.9136  0.4378 -0.0045
 4341SOL    HW224483   0.944   2.592   7.055  1.7967  0.8317 -0.2507
 4342SOL     OW24484   1.311   3.432   1.078  0.5666  0.0842  0.5610
 4342SOL    HW124485   1.396   3.417   1.036 -1.0002 -0.8674 -2.2473
 4342SOL    HW224486   1.341   3.473   1.159 -0.7675  0.5938  0.8047
 4343SOL     OW24487   4.224   3.017  11.052 -0.3462  0.4384  0.0955
 4343SOL    HW124488   4.223   3.105  11.015  2.1452  0.2908 -0.3120
 4343SOL    HW224489   4.261   3.034  11.138 -1.4510 -2.9922  1.2626
 4344SOL     OW24490   1.388   1.785  14.531  0.2812 -0.4341 -0.9455
 4344SOL    HW124491   1.329   1.857  14.509  0.3107 -0.2694 -0.4930
 4344SOL    HW224492   1.333   1.707  14.523 -0.6897  0.0218  1.0855
 4345SOL     OW24493   4.082   4.314   1.952 -0.4652  0.0295  0.1386
 4345SOL    HW124494   4.122   4.243   2.003 -1.8961 -1.6077 -1.0487
 4345SOL    HW224495   3.991   4.297   1.975  0.1599 -1.5354  1.4864
 4346SOL     OW24496   1.053   0.285  16.331 -0.8128  0.3926  0.1446
 4346SOL    HW124497   1.121   0.351  16.348 -1.6366  0.4457  3.1772
 4346SOL    HW224498   1.074   0.220  16.398 -1.2046 -0.9961 -1.0731
 4347SOL     OW24499   1.988   1.433   5.274  0.3117  0.1571 -0.0922
 4347SOL    HW124500   2.007   1.526   5.289  0.8996  0.2141 -1.1816
 4347SOL    HW224501   2.044   1.408   5.200 -0.3796  0.4220 -0.7014
 4348SOL     OW24502   4.112   1.749   4.227  0.5385 -0.4518 -0.4872
 4348SOL    HW124503   4.033   1.736   4.279  0.7328  0.8362  0.1184
 4348SOL    HW224504   4.079   1.716   4.144  0.3399  1.2421 -1.0853
 4349SOL     OW24505   2.659   3.804   3.278  0.4191  0.1170  0.0887
 4349SOL    HW124506   2.683   3.716   3.248  1.2362  0.6658 -0.8645
 4349SOL    HW224507   2.583   3.778   3.330  0.1487 -2.3867 -1.5413
 4350SOL     OW24508   3.213   1.318   5.920  0.2213 -0.2901  0.0976
 4350SOL    HW124509   3.126   1.279   5.922  0.8750 -1.6175  2.6681
 4350SOL    HW224510   3.257   1.257   5.861 -0.7969  1.1624 -2.1441
 4351SOL     OW24511   0.535   4.306   4.343 -0.0246  0.9845 -0.2017
 4351SOL    HW124512   0.445   4.326   4.317  0.4906  1.4256 -1.6825
 4351SOL    HW224513   0.549   4.216   4.313 -3.5828 -0.7173  3.3626
 4352SOL     OW24514   1.320   1.894   3.977  0.3762 -0.1516 -0.3345
 4352SOL    HW124515   1.284   1.838   4.045  0.5738  1.6276  1.2113
 4352SOL    HW224516   1.244   1.890   3.919 -0.0962  2.7014  0.1217
 4353SOL     OW24517   0.041   1.863   3.291  1.3584  0.4222 -0.0022
 4353SOL    HW124518   0.096   1.784   3.288 -3.4246 -2.8678 -0.7794
 4353SOL    HW224519   0.077   1.917   3.221 -2.4227 -0.9259 -2.9704
 4354SOL     OW24520   4.279   3.054  11.996 -0.5819 -0.0415 -0.0871
 4354SOL    HW124521   4.324   2.976  12.028  0.1247  1.9155  3.6537
 4354SOL    HW224522   4.300   3.114  12.067 -4.9032  2.3251 -0.7924
 4355SOL     OW24523   1.143   1.477   0.849  0.0127 -0.2578 -0.1784
 4355SOL    HW124524   1.137   1.544   0.781 -1.8586 -0.7836 -0.5336
 4355SOL    HW224525   1.106   1.524   0.923  2.8718 -1.3783  1.9521
 4356SOL     OW24526   3.537   0.332   6.785  0.1821 -0.0494  0.1892
 4356SOL    HW124527   3.587   0.371   6.856  0.4951 -0.0732 -0.0207
 4356SOL    HW224528   3.582   0.251   6.764  0.3327  0.1502 -0.2645
 4357SOL     OW24529   3.465   4.499   5.904 -0.0057  0.5931 -0.7396
 4357SOL    HW124530   3.427   4.418   5.871  0.5651 -0.5647  1.3908
 4357SOL    HW224531   3.551   4.504   5.862 -0.9825  2.2323 -2.5524
 4358SOL     OW24532   3.387   4.643   3.610  0.1108 -0.2793  0.4420
 4358SOL    HW124533   3.369   4.668   3.519  1.4799 -0.7488  0.0457
 4358SOL    HW224534   3.346   4.556   3.614  1.1536 -0.8573 -1.1837
 4359SOL     OW24535   1.762   4.636  17.232  0.1543 -0.2937 -0.1139
 4359SOL    HW124536   1.816   4.708  17.201 -0.8005  0.4085 -0.1499
 4359SOL    HW224537   1.677   4.679  17.230 -0.0860 -0.7999 -0.9078
 4360SOL     OW24538   3.741   3.172   7.100  0.1528  0.0555  0.5891
 4360SOL    HW124539   3.827   3.132   7.113  0.8132  1.1868 -0.2470
 4360SOL    HW224540   3.732   3.176   7.004  0.9129  1.2216  0.5581
 4361SOL     OW24541   0.400   2.620   3.818  0.4720 -0.0392  0.1689
 4361SOL    HW124542   0.372   2.658   3.734 -0.2407 -2.2795 -0.6159
 4361SOL    HW224543   0.416   2.531   3.788  0.8142  0.3537 -0.8217
 4362SOL     OW24544   1.777   1.082  14.458 -0.3366 -0.4652  0.7362
 4362SOL    HW124545   1.686   1.108  14.446 -0.4630 -1.1889  0.1153
 4362SOL    HW224546   1.804   1.110  14.545  1.9183 -1.4422  0.3565
 4363SOL     OW24547   0.878   0.104   4.466 -0.4407 -0.0129 -0.4102
 4363SOL    HW124548   0.926   0.050   4.529 -0.3316  0.4003 -0.1367
 4363SOL    HW224549   0.788   0.105   4.500  0.2831 -0.0740  1.4863
 4364SOL     OW24550   1.145   4.132   5.595  0.7705 -0.3739 -0.2508
 4364SOL    HW124551   1.212   4.142   5.527  0.1360 -2.9510 -1.2476
 4364SOL    HW224552   1.194   4.157   5.673  3.4717 -0.6798 -1.8455
 4365SOL     OW24553   0.417   0.907   3.745 -0.5448  0.2580  0.4681
 4365SOL    HW124554   0.400   0.929   3.653  0.9662 -2.8685 -0.5720
 4365SOL    HW224555   0.341   0.939   3.793 -0.0474  0.4104  1.1501
 4366SOL     OW24556   1.680   4.471   4.834  0.2449 -0.0966  0.2773
 4366SOL    HW124557   1.615   4.400   4.827  0.8024 -0.4539 -1.2953
 4366SOL    HW224558   1.615   4.541   4.840  0.8036  0.2995  1.5493
 4367SOL     OW24559   2.387   2.096   8.420 -0.0417 -0.2951 -0.3827
 4367SOL    HW124560   2.370   2.109   8.514 -0.8203 -3.1064 -0.1421
 4367SOL    HW224561   2.428   2.010   8.427  1.0100  0.2183 -0.2608
 4368SOL     OW24562   4.378   0.346   5.694 -0.6845  0.0374 -0.0846
 4368SOL    HW124563   4.453   0.336   5.752 -0.3827 -1.0770 -0.6792
 4368SOL    HW224564   4.301   0.339   5.751 -0.3947 -1.3716  0.1264
 4369SOL     OW24565   4.521   1.836  15.249  0.4883  0.0959 -0.6935
 4369SOL    HW124566   4.556   1.925  15.246  1.1465 -0.1331  0.3535
 4369SOL    HW224567   4.466   1.832  15.171 -2.2032  0.4046  1.1686
 4370SOL     OW24568   3.196   4.226   0.532  0.1243 -0.3157  0.0626
 4370SOL    HW124569   3.187   4.253   0.623  0.5923  1.5698 -0.4271
 4370SOL    HW224570   3.248   4.148   0.548 -1.4022 -1.7454 -1.9478
 4371SOL     OW24571   2.641   2.379   3.193  0.1205 -0.6686 -0.3596
 4371SOL    HW124572   2.717   2.323   3.206  0.8870 -0.0716 -2.1568
 4371SOL    HW224573   2.593   2.336   3.263  1.3791  0.4273  1.1718
 4372SOL     OW24574   4.671   1.021  15.358 -0.1389 -0.1812 -0.2624
 4372SOL    HW124575   4.654   0.969  15.436 -1.1293  0.2058 -0.2282
 4372SOL    HW224576   4.581   1.033  15.330 -0.2284 -2.9636 -1.0962
 4373SOL     OW24577   4.111   0.471   0.880 -0.1731  0.2323  0.4342
 4373SOL    HW124578   4.132   0.378   0.889 -0.6881  0.1669  0.9703
 4373SOL    HW224579   4.061   0.470   0.798 -0.7814  2.3051  0.7773
 4374SOL     OW24580   4.071   3.625  11.425  0.0293  0.0674 -0.1415
 4374SOL    HW124581   4.065   3.531  11.406  1.5210  0.2761 -1.6599
 4374SOL    HW224582   4.158   3.653  11.396 -0.3282  1.0541 -0.2550
 4375SOL     OW24583   0.269   3.354  13.773  0.0987 -0.0530  0.2881
 4375SOL    HW124584   0.365   3.345  13.771  0.4435  3.6842  0.4992
 4375SOL    HW224585   0.230   3.298  13.705 -0.0846  1.5294 -0.9128
 4376SOL     OW24586   3.961   3.276   7.573 -0.9285 -0.1431  0.1307
 4376SOL    HW124587   3.902   3.332   7.522 -1.6467 -0.7826  0.2594
 4376SOL    HW224588   3.944   3.188   7.540  0.1662  0.6195 -2.4832
 4377SOL     OW24589   2.332   3.115   6.651 -0.5961  0.1656  0.2408
 4377SOL    HW124590   2.358   3.062   6.727  0.9623  1.6665  0.7814
 4377SOL    HW224591   2.241   3.135   6.673 -0.6320  2.0239 -1.6215
 4378SOL     OW24592   3.721   3.489   2.377  0.1027 -0.2160  0.0929
 4378SOL    HW124593   3.703   3.439   2.457 -3.6182  1.9654  0.6282
 4378SOL    HW224594   3.735   3.421   2.311 -2.2504  0.4739 -1.1063
 4379SOL     OW24595   1.885   3.630   4.461  0.2037  0.0597  0.2006
 4379SOL    HW124596   1.929   3.649   4.378 -1.1723  0.3135 -0.4656
 4379SOL    HW224597   1.801   3.590   4.437  0.0743  0.9202 -0.7439
 4380SOL     OW24598   4.173   2.663   7.498 -0.6974  0.1603  0.6569
 4380SOL    HW124599   4.154   2.719   7.573  0.0043  0.5554  0.5347
 4380SOL    HW224600   4.194   2.581   7.544 -1.2905  0.0495  0.7432
 4381SOL     OW24601   2.307   3.296   3.346  0.0109 -0.3882 -0.2003
 4381SOL    HW124602   2.349   3.210   3.344  3.7142  1.4216  0.0822
 4381SOL    HW224603   2.379   3.357   3.330 -0.8033  0.3702 -0.9242
 4382SOL     OW24604   3.176   4.034   4.313 -0.1748 -0.0418  0.1108
 4382SOL    HW124605   3.103   4.077   4.269 -0.0857  0.4856  0.4728
 4382SOL    HW224606   3.252   4.052   4.258 -0.4958 -0.9338 -0.6166
 4383SOL     OW24607   2.779   2.318   0.747  0.3328  0.3397 -0.3673
 4383SOL    HW124608   2.847   2.372   0.787 -0.3730  0.4140  0.7131
 4383SOL    HW224609   2.719   2.385   0.714  0.5399  0.4903 -0.4439
 4384SOL     OW24610   1.383   1.088   7.179 -0.1294 -0.0362  0.3997
 4384SOL    HW124611   1.355   1.033   7.105 -0.4254 -2.3926  2.2594
 4384SOL    HW224612   1.428   1.024   7.234  1.7657  1.5566  0.7012
 4385SOL     OW24613   4.282   1.064  11.763  0.5799 -0.4123  0.0241
 4385SOL    HW124614   4.210   1.001  11.759  3.0771 -3.3782  0.9879
 4385SOL    HW224615   4.243   1.126  11.824  1.9588  2.8107 -2.3753
 4386SOL     OW24616   3.169   2.421   0.616  0.2599  0.0950 -0.5040
 4386SOL    HW124617   3.088   2.472   0.610 -0.0957 -0.5261 -0.9698
 4386SOL    HW224618   3.203   2.438   0.528  2.0793 -4.5115 -0.6713
 4387SOL     OW24619   2.183   1.824  17.137 -0.5775  0.2281  0.3826
 4387SOL    HW124620   2.190   1.915  17.168  1.7213  0.3015 -0.3662
 4387SOL    HW224621   2.249   1.826  17.068 -0.0958  0.2547  0.8423
 4388SOL     OW24622   2.904   1.916   1.551 -0.6672  0.1772  0.6932
 4388SOL    HW124623   2.875   2.004   1.527 -0.4070 -0.6837 -2.7802
 4388SOL    HW224624   2.889   1.873   1.468 -0.9206 -2.0213  1.8844
 4389SOL     OW24625   2.648   1.576   3.427  0.1118 -0.1217 -0.5622
 4389SOL    HW124626   2.605   1.641   3.371  0.4960  1.9855  1.5991
 4389SOL    HW224627   2.738   1.584   3.397  0.6291  0.0341  1.0528
 4390SOL     OW24628   3.239   3.805   1.197 -0.2199  0.0504  0.1756
 4390SOL    HW124629   3.294   3.880   1.173  0.3661 -1.2958 -2.7201
 4390SOL    HW224630   3.286   3.729   1.162  0.5831  0.0132  1.3535
 4391SOL     OW24631   4.280   3.094   2.655 -0.3200  0.1121 -0.2488
 4391SOL    HW124632   4.283   3.017   2.711  1.5781  0.3968  0.0359
 4391SOL    HW224633   4.369   3.097   2.621  0.5879  1.7543  2.2620
 4392SOL     OW24634   4.103   3.475   5.524  0.2379  0.0073 -0.3691
 4392SOL    HW124635   4.033   3.520   5.571  0.1231  1.0127 -1.5063
 4392SOL    HW224636   4.093   3.503   5.433  0.5431  0.6928 -0.1974
 4393SOL     OW24637   1.338   3.512  11.548  0.3396 -0.9046  0.4601
 4393SOL    HW124638   1.337   3.555  11.462 -0.5832 -2.6825 -0.3982
 4393SOL    HW224639   1.262   3.454  11.542 -0.6462  0.1084  2.7153
 4394SOL     OW24640   0.392   0.429   3.087  0.1626  0.6093 -0.6933
 4394SOL    HW124641   0.367   0.445   3.178  0.0162 -2.0977 -0.2538
 4394SOL    HW224642   0.420   0.513   3.052  0.9329  1.1099  1.1355
 4395SOL     OW24643   4.128   4.278  16.330  0.9355 -0.1975 -0.8378
 4395SOL    HW124644   4.172   4.281  16.245  0.2548 -0.3168 -1.1970
 4395SOL    HW224645   4.200   4.238  16.378  1.9975  2.5835 -0.1186
 4396SOL     OW24646   3.344   1.913   7.288  0.5833  0.1603 -0.0371
 4396SOL    HW124647   3.363   1.965   7.209  0.5303 -0.1417 -0.2480
 4396SOL    HW224648   3.282   1.974   7.328  3.2842  1.6520  1.9283
 4397SOL     OW24649   0.049   2.682   4.574 -0.6502 -0.4032 -0.1815
 4397SOL    HW124650   0.113   2.682   4.645  0.0194  3.3649 -0.7967
 4397SOL    HW224651   0.107   2.707   4.502 -0.5745  1.3317  0.4734
 4398SOL     OW24652   1.181   2.479  13.186 -0.3459 -0.3874  0.3386
 4398SOL    HW124653   1.248   2.546  13.196 -0.4959 -0.0522 -0.8559
 4398SOL    HW224654   1.129   2.523  13.119 -1.0098  0.7692  1.6241
 4399SOL     OW24655   4.547   0.505   4.134  0.2554  0.2072  0.3177
 4399SOL    HW124656   4.455   0.513   4.159  0.4833  0.7219  0.9941
 4399SOL    HW224657   4.571   0.598   4.133 -0.3279  0.3409 -2.0681
 4400SOL     OW24658   4.043   2.025   8.418  0.0115 -0.2058 -0.0026
 4400SOL    HW124659   4.019   2.025   8.511  1.5464 -0.7606  0.4003
 4400SOL    HW224660   3.970   2.064   8.372  0.0108  1.6338  1.5756
 4401SOL     OW24661   1.688   1.233   6.166  0.0290 -0.0438 -1.0231
 4401SOL    HW124662   1.777   1.221   6.199 -0.7497 -0.9246  0.7060
 4401SOL    HW224663   1.654   1.280   6.242  1.7770 -1.7585  0.7969
 4402SOL     OW24664   0.634   2.454   2.408  0.7944 -0.0507  0.0271
 4402SOL    HW124665   0.622   2.382   2.346  0.0714 -1.0921  1.3742
 4402SOL    HW224666   0.655   2.524   2.345 -1.4239 -1.1049 -1.8954
 4403SOL     OW24667   2.615   4.356   3.233 -0.1171 -0.2468  0.1042
 4403SOL    HW124668   2.640   4.386   3.320 -2.4560  0.4915  0.5189
 4403SOL    HW224669   2.690   4.371   3.174 -2.3309 -0.7515 -2.8391
 4404SOL     OW24670   3.254   2.587   2.572 -0.0419 -0.1482 -0.1900
 4404SOL    HW124671   3.161   2.580   2.551 -0.0569 -1.8130  0.4767
 4404SOL    HW224672   3.298   2.581   2.486  2.3616  1.4475  0.9088
 4405SOL     OW24673   3.696   2.216  16.586 -0.1429  0.5706  0.8440
 4405SOL    HW124674   3.622   2.263  16.548 -0.5511 -0.1207  0.7870
 4405SOL    HW224675   3.669   2.125  16.574 -1.7563  1.2038 -0.2585
 4406SOL     OW24676   2.845   2.193   3.158 -0.0169  0.0227 -0.8529
 4406SOL    HW124677   2.917   2.185   3.095  1.1184 -0.3898  0.4897
 4406SOL    HW224678   2.795   2.113   3.142  1.3228 -0.8356 -0.7317
 4407SOL     OW24679   0.988   1.261  16.023  0.0307  0.1867 -0.3675
 4407SOL    HW124680   0.971   1.237  16.114 -0.9733  1.8774 -0.0984
 4407SOL    HW224681   0.933   1.337  16.006 -0.4347 -0.2410 -0.7664
 4408SOL     OW24682   3.047   1.042   7.756  0.0618 -0.0575 -0.0943
 4408SOL    HW124683   3.043   1.106   7.686 -1.0336 -0.3933 -0.3311
 4408SOL    HW224684   3.098   1.081   7.827 -3.2007 -0.0824  2.2478
 4409SOL     OW24685   1.019   0.965   6.504 -0.2506  0.1981 -0.0397
 4409SOL    HW124686   0.946   0.904   6.510  0.5994 -0.9612 -1.3722
 4409SOL    HW224687   0.995   1.023   6.432 -2.0114  0.1487  0.5070
 4410SOL     OW24688   1.769   1.739  13.125  0.1156 -0.1475 -0.5928
 4410SOL    HW124689   1.699   1.789  13.082  1.5880  1.0506 -1.5909
 4410SOL    HW224690   1.734   1.650  13.128  0.4816 -0.2764 -0.2096
 4411SOL     OW24691   2.262   3.484   6.935 -0.1529  0.2702 -0.4331
 4411SOL    HW124692   2.356   3.469   6.937 -0.3632 -0.6207  2.5227
 4411SOL    HW224693   2.233   3.394   6.950 -0.7523  0.7842  1.4163
 4412SOL     OW24694   0.600   1.331   7.144  0.2290  0.2541  0.5644
 4412SOL    HW124695   0.511   1.305   7.123  1.1914 -0.3471 -2.7497
 4412SOL    HW224696   0.619   1.370   7.059 -2.6848 -0.3760 -0.3764
 4413SOL     OW24697   4.604   2.604   0.395 -0.1172  0.1947 -0.0894
 4413SOL    HW124698   4.599   2.523   0.344  1.6642  0.1366 -0.1752
 4413SOL    HW224699   4.519   2.617   0.438 -0.0403 -3.1523  1.1195
 4414SOL     OW24700   2.846   3.167   3.424  0.0899 -0.0566 -0.1138
 4414SOL    HW124701   2.784   3.098   3.446 -0.1841 -0.6162 -2.6109
 4414SOL    HW224702   2.926   3.118   3.444 -0.4408 -1.0431 -0.3958
 4415SOL     OW24703   2.427   3.503   6.572  0.1050  0.1809 -0.8698
 4415SOL    HW124704   2.432   3.598   6.588  0.7873 -0.1686  0.9440
 4415SOL    HW224705   2.353   3.490   6.631  1.1248 -0.2151  0.3129
 4416SOL     OW24706   2.363   4.690   6.301  0.1803  0.2434 -0.1593
 4416SOL    HW124707   2.351   0.063   6.277 -0.0374  0.2719  0.0591
 4416SOL    HW224708   2.283   4.652   6.265  0.2673 -2.0331  2.0775
 4417SOL     OW24709   0.812   4.375   3.476  0.3758  0.6397  0.4944
 4417SOL    HW124710   0.866   4.451   3.453  1.5405 -0.4462 -0.3056
 4417SOL    HW224711   0.734   4.415   3.516 -0.2491 -0.0708 -0.0319
 4418SOL     OW24712   2.712   1.697   2.348 -0.4173 -0.2456 -0.1312
 4418SOL    HW124713   2.767   1.740   2.412  0.4641 -0.8502 -0.4800
 4418SOL    HW224714   2.752   1.611   2.338 -0.9551 -0.4340 -0.7642
 4419SOL     OW24715   1.555   0.721   1.793  0.1080  0.5334 -0.0095
 4419SOL    HW124716   1.530   0.671   1.871  1.7267 -0.5414 -0.1894
 4419SOL    HW224717   1.470   0.757   1.769 -0.1377 -2.2184 -3.3792
 4420SOL     OW24718   1.237   0.766  12.157 -0.0572 -0.3715  0.0145
 4420SOL    HW124719   1.185   0.703  12.107 -0.9551  0.4783 -0.1320
 4420SOL    HW224720   1.292   0.806  12.089 -1.1030  1.5103  0.2671
 4421SOL     OW24721   1.921   3.010   3.214 -0.3262  0.4429 -0.7783
 4421SOL    HW124722   1.995   3.069   3.198  0.2969  0.3044  1.6800
 4421SOL    HW224723   1.944   2.971   3.298  2.3202  1.3791 -1.0833
 4422SOL     OW24724   2.368   0.428   2.946  0.2426 -0.3060  0.0241
 4422SOL    HW124725   2.398   0.351   2.899 -2.8793 -1.1080 -0.6677
 4422SOL    HW224726   2.436   0.495   2.936 -1.0502  0.8237 -1.2458
 4423SOL     OW24727   4.542   4.674   2.298 -0.3844 -0.6158  0.0212
 4423SOL    HW124728   4.549   4.591   2.249  2.4576 -0.9794  1.0386
 4423SOL    HW224729   4.452   4.702   2.280 -0.3002  0.7484  1.7976
 4424SOL     OW24730   2.131   4.246   4.927  0.3772 -0.3147  0.0710
 4424SOL    HW124731   2.217   4.216   4.899  1.7366  2.6331  1.1200
 4424SOL    HW224732   2.112   4.171   4.983 -0.4358  0.1304  0.4067
 4425SOL     OW24733   0.101   0.222   7.070 -0.1925 -0.1090  0.1360
 4425SOL    HW124734   0.135   0.179   6.992 -1.1378 -0.1928 -0.2233
 4425SOL    HW224735   0.096   0.306   7.025  0.0369  0.8125  1.8384
 4426SOL     OW24736   3.796   2.242   7.167  0.0062 -0.0685 -0.0780
 4426SOL    HW124737   3.846   2.193   7.102  0.3895 -0.2539  0.3559
 4426SOL    HW224738   3.829   2.213   7.252 -0.1663  1.8055  0.6181
 4427SOL     OW24739   0.877   4.325  12.859  0.1315  0.1966 -0.1981
 4427SOL    HW124740   0.890   4.417  12.836  0.5524  0.1105 -0.3126
 4427SOL    HW224741   0.839   4.296  12.776  0.7679 -0.5704 -0.2212
 4428SOL     OW24742   2.318   3.229   8.590  0.1215  0.0485  0.0444
 4428SOL    HW124743   2.247   3.180   8.550 -0.1321 -0.2568  0.8734
 4428SOL    HW224744   2.374   3.224   8.512  0.8547  1.7365  0.4561
 4429SOL     OW24745   4.401   2.150   0.543 -0.3304 -0.0304 -0.4515
 4429SOL    HW124746   4.335   2.213   0.571 -1.5905 -1.3121 -0.4902
 4429SOL    HW224747   4.354   2.067   0.531  0.1826 -0.4719  0.5328
 4430SOL     OW24748   2.944   3.767   6.533  0.1375  0.3772  0.4917
 4430SOL    HW124749   2.980   3.756   6.621 -1.7017  2.2039  1.4624
 4430SOL    HW224750   2.904   3.681   6.522  3.0076 -0.7273 -1.3340
 4431SOL     OW24751   1.824   2.504   3.857  0.0256  0.1216  0.2469
 4431SOL    HW124752   1.749   2.462   3.815  2.4509 -0.3552 -3.5058
 4431SOL    HW224753   1.890   2.437   3.842  0.7576  1.1723 -1.1525
 4432SOL     OW24754   2.674   3.571   2.553  0.6080  0.1595  0.1042
 4432SOL    HW124755   2.639   3.655   2.581  0.5587  0.0459  0.3850
 4432SOL    HW224756   2.602   3.508   2.560  1.2714 -0.6769 -0.7343
 4433SOL     OW24757   1.746   1.618   2.665 -0.0393 -0.0832 -0.6448
 4433SOL    HW124758   1.730   1.524   2.677 -1.0052 -0.0626 -1.8229
 4433SOL    HW224759   1.678   1.639   2.602  0.2238 -2.5409 -1.7350
 4434SOL     OW24760   2.445   0.684   3.681 -0.2389 -0.0377  0.0432
 4434SOL    HW124761   2.452   0.776   3.655 -2.0383 -0.0353 -0.4137
 4434SOL    HW224762   2.391   0.658   3.607 -0.2327 -1.5037  0.5637
 4435SOL     OW24763   4.566   2.238   2.580 -0.4731 -0.2732 -0.2162
 4435SOL    HW124764   4.625   2.296   2.532  1.1751 -1.7759  0.0071
 4435SOL    HW224765   4.606   2.156   2.551  0.6308 -0.6425  2.3688
 4436SOL     OW24766   4.065   0.144   9.203  1.2823  0.4119 -0.2762
 4436SOL    HW124767   4.139   0.102   9.247  1.7858  0.5859 -0.9633
 4436SOL    HW224768   4.069   0.100   9.118  2.7893 -2.9333  1.5257
 4437SOL     OW24769   2.649   1.665   8.533  0.4398  0.0129  0.1377
 4437SOL    HW124770   2.624   1.622   8.451  0.6330  0.8247 -0.3510
 4437SOL    HW224771   2.683   1.588   8.578  0.0204  0.2023  0.7860
 4438SOL     OW24772   0.150   0.228   2.356 -0.4586 -0.3457 -0.2136
 4438SOL    HW124773   0.239   0.245   2.386 -0.9189  0.8352  0.4727
 4438SOL    HW224774   0.114   0.163   2.416  1.1878 -1.4234 -0.3973
 4439SOL     OW24775   1.354   4.639   6.696  0.1517  0.6904 -0.1546
 4439SOL    HW124776   1.384   4.645   6.605 -2.0285 -0.8792 -0.9877
 4439SOL    HW224777   1.393   4.719   6.729  0.1381  0.6214  0.0281
 4440SOL     OW24778   4.489   2.014   3.526  0.0211 -0.7185 -0.0767
 4440SOL    HW124779   4.570   1.997   3.575 -0.0339  1.0982  0.6415
 4440SOL    HW224780   4.470   2.106   3.544  1.2670 -0.1866 -1.4587
 4441SOL     OW24781   4.301   2.274  16.295 -1.0628 -0.0957 -0.0307
 4441SOL    HW124782   4.282   2.184  16.323  0.2566 -0.8585 -1.5464
 4441SOL    HW224783   4.396   2.269  16.284 -0.8554  2.9155  0.4074
 4442SOL     OW24784   2.896   3.686   9.079 -0.0396  0.2755 -0.7541
 4442SOL    HW124785   2.914   3.780   9.077 -0.2132  0.3502  1.3545
 4442SOL    HW224786   2.884   3.676   9.173  0.8897  2.8989 -0.3630
 4443SOL     OW24787   3.252   3.947   5.776  0.8311  0.0764  0.1239
 4443SOL    HW124788   3.182   3.946   5.711 -1.0217 -0.0514  2.1181
 4443SOL    HW224789   3.264   3.853   5.790 -2.7964 -0.3295  0.3107
 4444SOL     OW24790   0.540   0.473   6.503  0.5182 -0.1127 -0.0963
 4444SOL    HW124791   0.522   0.384   6.473 -0.3529 -0.2279  0.7956
 4444SOL    HW224792   0.635   0.473   6.492  0.3597  0.5762 -1.5056
 4445SOL     OW24793   1.340   1.719   7.357 -0.2368  0.1200  0.5447
 4445SOL    HW124794   1.277   1.657   7.395 -1.0499  0.6033  0.0047
 4445SOL    HW224795   1.290   1.749   7.281  1.8239  1.1768 -0.3932
 4446SOL     OW24796   1.680   2.168   4.079 -0.0118  0.2273 -0.2694
 4446SOL    HW124797   1.739   2.093   4.082  1.7824  1.7568  2.4578
 4446SOL    HW224798   1.676   2.182   3.984  1.1482  3.4671  0.1750
 4447SOL     OW24799   0.444   3.276   9.862  0.1440  0.2537 -0.3934
 4447SOL    HW124800   0.412   3.365   9.850  0.0658  0.1180 -1.2048
 4447SOL    HW224801   0.425   3.272   9.956  1.1504 -0.1317 -0.1985
 4448SOL     OW24802   0.259   1.761   5.471  0.2714  0.1191 -0.0552
 4448SOL    HW124803   0.247   1.674   5.509 -3.2683 -0.5499 -2.6892
 4448SOL    HW224804   0.278   1.807   5.553 -0.1769 -0.4634  0.3827
 4449SOL     OW24805   1.283   4.453  12.734 -0.5273 -0.9861 -0.1286
 4449SOL    HW124806   1.247   4.510  12.804  2.8160  1.2823 -0.2694
 4449SOL    HW224807   1.262   4.511  12.661  0.9902  0.4491  0.5657
 4450SOL     OW24808   1.834   3.551   1.694 -0.8882 -0.5984  0.1251
 4450SOL    HW124809   1.831   3.536   1.788  0.8217  0.0544  0.2888
 4450SOL    HW224810   1.897   3.622   1.700 -2.0014  0.4128 -0.2287
 4451SOL     OW24811   2.688   0.527   3.901 -0.3761  0.5121  0.3426
 4451SOL    HW124812   2.762   0.528   3.839 -1.3997  0.0989 -0.8787
 4451SOL    HW224813   2.646   0.444   3.880 -3.1709  1.7485  1.0955
 4452SOL     OW24814   3.466   0.026   4.551  0.2353 -0.3952 -0.3805
 4452SOL    HW124815   3.374   0.005   4.537  0.3700  1.1505 -3.4622
 4452SOL    HW224816   3.462   0.121   4.549 -0.6476 -0.4241 -0.1023
 4453SOL     OW24817   0.076   1.934   8.797 -0.4959  0.0388  0.1334
 4453SOL    HW124818   0.105   1.846   8.821 -2.4981 -0.4639  0.7168
 4453SOL    HW224819   0.009   1.923   8.730 -1.7327  3.0900  0.8699
 4454SOL     OW24820   2.875   2.905   2.872 -0.2704 -0.5678 -0.0965
 4454SOL    HW124821   2.783   2.899   2.844  0.2047  0.1811 -1.8244
 4454SOL    HW224822   2.914   2.950   2.797 -3.2598 -1.1333 -2.0226
 4455SOL     OW24823   4.295   2.849  16.482 -0.5300 -0.1078  0.3181
 4455SOL    HW124824   4.338   2.857  16.397 -0.3184  0.3391  0.4661
 4455SOL    HW224825   4.317   2.937  16.514  1.4407 -0.5404  0.1640
 4456SOL     OW24826   3.060   1.790   4.759 -0.3656  0.1625 -0.4242
 4456SOL    HW124827   3.082   1.869   4.709 -0.1591  1.9301  2.5036
 4456SOL    HW224828   3.112   1.805   4.838  0.9727 -1.4935 -0.9936
 4457SOL     OW24829   3.413   1.488   6.807 -0.4047 -0.3211 -0.2402
 4457SOL    HW124830   3.456   1.431   6.870 -0.0803 -0.0837 -0.2442
 4457SOL    HW224831   3.366   1.548   6.864 -0.4685 -0.0736 -0.5511
 4458SOL     OW24832   3.965   0.235   7.009 -0.5803 -0.4276  0.7813
 4458SOL    HW124833   4.055   0.209   6.988 -1.3429 -2.1348 -0.3880
 4458SOL    HW224834   3.924   0.169   7.064  1.1950 -0.8372  1.6073
 4459SOL     OW24835   4.143   3.300   4.514  0.4188  0.3037  0.5235
 4459SOL    HW124836   4.088   3.377   4.529  0.0165 -0.3568  2.3954
 4459SOL    HW224837   4.177   3.276   4.600  0.8774  0.3493  0.3562
 4460SOL     OW24838   2.266   1.912   4.498 -0.5265  0.0158  0.0557
 4460SOL    HW124839   2.334   1.871   4.446  1.7175  0.3093  2.7450
 4460SOL    HW224840   2.205   1.937   4.429  0.3436  3.7200  0.6275
 4461SOL     OW24841   0.258   2.080   7.489  0.0155  0.5351 -0.3015
 4461SOL    HW124842   0.281   2.173   7.485 -1.0663  0.7063 -2.6004
 4461SOL    HW224843   0.333   2.053   7.542  1.7638  0.1200 -3.0062
 4462SOL     OW24844   1.558   0.487   7.019  0.0676 -0.7607 -0.2797
 4462SOL    HW124845   1.510   0.533   7.087  2.5047 -0.5228  1.2739
 4462SOL    HW224846   1.493   0.422   6.992 -1.3611  0.7759 -0.5632
 4463SOL     OW24847   1.915   1.613   4.766 -0.0420 -0.0817  0.4505
 4463SOL    HW124848   1.988   1.666   4.734 -1.6369  0.7544 -1.7176
 4463SOL    HW224849   1.908   1.637   4.858 -1.1031  1.1278  0.0501
 4464SOL     OW24850   1.789   0.407   6.218  0.0779  0.4053  0.1391
 4464SOL    HW124851   1.705   0.388   6.261 -0.1637  1.0287 -0.0629
 4464SOL    HW224852   1.849   0.348   6.264 -0.5130 -0.4991 -0.2477
 4465SOL     OW24853   1.076   4.238  10.828  0.6120  0.0769  1.2928
 4465SOL    HW124854   0.993   4.198  10.803  0.6853  1.0796 -0.4956
 4465SOL    HW224855   1.070   4.333  10.827 -0.4006  0.0070  1.2813
 4466SOL     OW24856   2.205   2.524  14.476  0.3103 -0.0951 -0.2316
 4466SOL    HW124857   2.229   2.528  14.568  0.6286 -1.5937 -0.2465
 4466SOL    HW224858   2.197   2.429  14.476  0.4390 -0.1007 -1.4740
 4467SOL     OW24859   4.556   0.199  15.979  0.0958  0.0951  0.0084
 4467SOL    HW124860   4.595   0.279  16.013  0.6482 -0.0351 -0.3188
 4467SOL    HW224861   4.461   0.208  15.974  0.0293 -1.8613 -2.5380
 4468SOL     OW24862   4.259   4.611   6.751  0.2133  0.0915 -1.0276
 4468SOL    HW124863   4.183   4.553   6.742 -0.1786  0.4102  0.3154
 4468SOL    HW224864   4.220   4.647   6.831  0.1880 -1.0695 -0.5252
 4469SOL     OW24865   3.381   3.395   2.538  0.1438  0.1537  0.2745
 4469SOL    HW124866   3.476   3.386   2.547  0.3060  1.1379 -0.4340
 4469SOL    HW224867   3.376   3.309   2.498 -0.3101  0.5604 -0.5507
 4470SOL     OW24868   1.910   1.506  16.952 -0.2494 -0.3578  0.1310
 4470SOL    HW124869   1.891   1.600  16.957  0.8552 -0.0749 -1.0020
 4470SOL    HW224870   1.904   1.476  17.043  0.9256  0.0866  0.3537
 4471SOL     OW24871   0.059   3.994   8.792 -0.1038  0.1553 -0.4449
 4471SOL    HW124872   4.686   4.013   8.784 -0.4425 -1.6485 -0.7314
 4471SOL    HW224873   0.069   3.958   8.704 -0.9007 -0.9766 -0.0691
 4472SOL     OW24874   3.467   0.267   2.820  0.2908 -0.5592  0.7533
 4472SOL    HW124875   3.375   0.256   2.794 -0.4111  1.2995  2.4607
 4472SOL    HW224876   3.451   0.316   2.901  0.2790 -0.1770  0.5175
 4473SOL     OW24877   2.011   3.693   5.146 -0.1828  0.1752 -0.0650
 4473SOL    HW124878   2.003   3.606   5.185 -0.2331  1.7877  3.5329
 4473SOL    HW224879   2.061   3.674   5.067  1.2918  0.0439  0.9097
 4474SOL     OW24880   0.996   3.440   8.039 -0.4323  0.0756 -0.0667
 4474SOL    HW124881   1.037   3.437   8.125  2.4239 -1.8637 -1.4957
 4474SOL    HW224882   0.925   3.377   8.035 -2.1861  1.9448  1.5846
 4475SOL     OW24883   1.000   1.678   3.197 -0.0644 -0.0904  0.1526
 4475SOL    HW124884   0.907   1.703   3.199  0.3449  1.2338  1.9928
 4475SOL    HW224885   1.035   1.751   3.146 -1.7900 -1.0508 -2.4484
 4476SOL     OW24886   2.380   3.930  12.224  0.7784 -0.2423  0.0335
 4476SOL    HW124887   2.293   3.901  12.253  0.0070 -0.5643 -2.6157
 4476SOL    HW224888   2.392   3.866  12.155 -1.4370  0.1889 -0.7510
 4477SOL     OW24889   1.777   4.278   2.872  0.0071 -0.7056 -0.3826
 4477SOL    HW124890   1.749   4.235   2.952  0.9686 -1.0042 -0.2058
 4477SOL    HW224891   1.786   4.368   2.905  0.4255 -0.0623 -2.2422
 4478SOL     OW24892   3.990   4.108   7.606 -0.3540 -0.1621  0.2095
 4478SOL    HW124893   3.969   4.159   7.528 -0.4538  0.2553  0.5099
 4478SOL    HW224894   4.079   4.076   7.593 -0.5984 -2.1668  3.2684
 4479SOL     OW24895   4.016   1.930   8.066 -0.1020  0.9783 -1.3282
 4479SOL    HW124896   3.976   2.011   8.036  0.3373  1.7576  0.2001
 4479SOL    HW224897   3.942   1.870   8.078  0.0376  0.9175 -0.7657
 4480SOL     OW24898   3.745   3.640   3.857 -0.1883 -0.1896 -0.5719
 4480SOL    HW124899   3.766   3.612   3.946 -1.6194 -1.7438 -0.7284
 4480SOL    HW224900   3.763   3.735   3.860 -0.3190 -0.1832  0.1109
 4481SOL     OW24901   4.463   1.187  12.412 -0.1290 -0.2269  0.3270
 4481SOL    HW124902   4.554   1.163  12.430  0.1100 -1.6385 -2.8307
 4481SOL    HW224903   4.442   1.135  12.335  0.7481 -0.9881  0.5975
 4482SOL     OW24904   0.979   4.210   1.716  0.0554 -0.2814  0.5306
 4482SOL    HW124905   0.997   4.139   1.778  2.0847  0.9647  1.3649
 4482SOL    HW224906   0.897   4.250   1.746  2.2914  1.4667  4.1818
 4483SOL     OW24907   4.054   2.711   8.017  0.2774  0.6106 -0.1644
 4483SOL    HW124908   4.141   2.679   7.993  1.3198  1.6874  2.0784
 4483SOL    HW224909   4.051   2.797   7.976  2.4171  0.2500 -1.0655
 4484SOL     OW24910   4.498   0.099  16.692  0.4605 -0.2145 -0.6584
 4484SOL    HW124911   4.426   0.113  16.754  3.1190 -0.1644  2.4404
 4484SOL    HW224912   4.485   0.169  16.629 -3.0651  0.1730  0.4850
 4485SOL     OW24913   0.890   1.095   3.356  0.4208  0.1086 -0.2147
 4485SOL    HW124914   0.858   1.175   3.398  1.7859  1.4393 -1.6904
 4485SOL    HW224915   0.943   1.056   3.425 -1.4892 -1.3402  0.3975
 4486SOL     OW24916   0.600   0.479   4.091 -0.2019 -0.3103  0.1059
 4486SOL    HW124917   0.568   0.568   4.106  1.0520  0.1115  0.2579
 4486SOL    HW224918   0.521   0.433   4.121  1.3168 -1.5720  2.1849
 4487SOL     OW24919   2.104   0.425  16.330  0.0498  0.0330 -0.0505
 4487SOL    HW124920   2.092   0.476  16.250 -1.3561 -1.8443 -1.0317
 4487SOL    HW224921   2.025   0.370  16.336  0.9152 -1.0110  1.7745
 4488SOL     OW24922   3.113   2.559   3.776 -0.3567 -0.0384  0.4496
 4488SOL    HW124923   3.061   2.491   3.733  0.9058 -1.5333  1.2559
 4488SOL    HW224924   3.172   2.518   3.840  1.6763  0.3719 -1.1583
 4489SOL     OW24925   0.413   4.640  14.702 -0.1904 -0.0115  0.7709
 4489SOL    HW124926   0.475   4.710  14.684 -0.7328  0.5169  0.9773
 4489SOL    HW224927   0.477   4.569  14.709  0.1179  0.2223  0.3582
 4490SOL     OW24928   0.652   1.145   8.957  0.2354  0.0097  0.7046
 4490SOL    HW124929   0.670   1.177   9.045 -3.0169 -1.3414  1.8629
 4490SOL    HW224930   0.720   1.195   8.912  0.6519 -1.3824 -0.2283
 4491SOL     OW24931   2.305   0.715   5.044 -0.1529  0.3124  0.3690
 4491SOL    HW124932   2.335   0.655   4.976  0.2604 -0.1787  0.9788
 4491SOL    HW224933   2.289   0.786   4.981 -0.8786 -1.2601 -1.2209
 4492SOL     OW24934   3.056   3.523   6.354 -0.0784  0.2197  0.1312
 4492SOL    HW124935   3.012   3.512   6.270  0.4062  0.5585 -0.1680
 4492SOL    HW224936   3.123   3.585   6.325  0.4409 -1.7658 -2.9401
 4493SOL     OW24937   1.389   1.353   9.514 -0.0467  0.4032  0.2120
 4493SOL    HW124938   1.376   1.334   9.422  0.0810 -1.3967  0.5668
 4493SOL    HW224939   1.325   1.424   9.514  1.8412  2.0996 -1.6865
 4494SOL     OW24940   2.211   1.013   1.885 -0.5315  1.0082 -0.3003
 4494SOL    HW124941   2.192   1.012   1.791 -1.8494 -1.1048 -0.0085
 4494SOL    HW224942   2.195   0.923   1.914 -1.3962  1.4154  0.5081
 4495SOL     OW24943   0.773   3.466   1.427  0.4342  0.3079  0.2385
 4495SOL    HW124944   0.732   3.403   1.368 -0.5908  0.7787  0.4473
 4495SOL    HW224945   0.838   3.414   1.474 -0.9484 -0.9702  0.7078
 4496SOL     OW24946   4.330   3.501   6.735 -0.0546 -0.4371  0.3741
 4496SOL    HW124947   4.392   3.534   6.669  0.0517 -0.4223  0.4822
 4496SOL    HW224948   4.273   3.451   6.677  1.6713 -2.7518  0.6641
 4497SOL     OW24949   2.222   2.510  15.570  0.3332  0.0294 -0.2325
 4497SOL    HW124950   2.176   2.550  15.496 -1.5822  2.9116  2.4828
 4497SOL    HW224951   2.312   2.509  15.538  0.7091 -0.6587  0.8647
 4498SOL     OW24952   2.215   1.859   4.862 -0.0377  0.1772 -0.0822
 4498SOL    HW124953   2.213   1.784   4.802 -0.1032  0.3383 -0.2841
 4498SOL    HW224954   2.134   1.905   4.843  0.0038  0.4799  0.4806
 4499SOL     OW24955   0.096   0.372  11.236 -0.8994 -0.0443 -0.1427
 4499SOL    HW124956   0.035   0.388  11.308  1.1245  0.9003  1.3606
 4499SOL    HW224957   0.070   0.430  11.164  0.1712 -2.7312 -2.6910
 4500SOL     OW24958   0.834   3.412  15.386  0.2773  0.5891  0.2643
 4500SOL    HW124959   0.790   3.479  15.334  1.0872  0.0345 -1.1340
 4500SOL    HW224960   0.898   3.391  15.317  0.3785  0.5800  0.3602
 4501SOL     OW24961   4.188   2.739  10.777  0.6746 -0.0068  0.6332
 4501SOL    HW124962   4.201   2.730  10.682 -2.2581  1.3001  0.0878
 4501SOL    HW224963   4.279   2.737  10.805  0.6234 -2.4590  0.6575
 4502SOL     OW24964   0.723   0.099  13.122  0.1758 -0.3245  0.6399
 4502SOL    HW124965   0.735   0.006  13.105  0.7517 -0.3771  1.3253
 4502SOL    HW224966   0.766   0.147  13.052 -1.1552 -3.3293 -2.2164
 4503SOL     OW24967   4.481   2.560   4.046  0.0725  0.2012 -0.4262
 4503SOL    HW124968   4.492   2.503   3.970 -1.1752  1.6321 -1.6988
 4503SOL    HW224969   4.520   2.641   4.012 -1.7539  1.0857 -0.4275
 4504SOL     OW24970   1.404   2.127   7.615 -0.6718  0.2299  0.4781
 4504SOL    HW124971   1.396   2.034   7.638 -2.2646  0.4330  0.7401
 4504SOL    HW224972   1.467   2.141   7.686 -0.5981 -1.8470  0.8304
 4505SOL     OW24973   2.233   4.470   9.891  0.2189  0.1612  0.1716
 4505SOL    HW124974   2.319   4.462   9.934  0.1382  0.2807  0.3544
 4505SOL    HW224975   2.248   4.551   9.842 -0.0605  0.8753  1.2823
 4506SOL     OW24976   3.898   2.122   0.151  0.0144 -0.2020  0.1705
 4506SOL    HW124977   3.881   2.055   0.084  0.1103 -0.2726  0.2171
 4506SOL    HW224978   3.933   2.055   0.209  0.4534 -0.9966 -1.0213
 4507SOL     OW24979   3.171   0.752   5.353 -0.4490 -0.3036  0.0781
 4507SOL    HW124980   3.103   0.685   5.364 -0.1786 -0.5202  0.4510
 4507SOL    HW224981   3.197   0.763   5.444  2.2699 -2.6109 -0.4406
 4508SOL     OW24982   0.842   2.593  14.913  0.0654 -0.3930 -0.4439
 4508SOL    HW124983   0.785   2.662  14.879  1.5618  0.2717 -1.5889
 4508SOL    HW224984   0.927   2.630  14.890 -1.1493  1.7182 -1.5216
 4509SOL     OW24985   3.323   0.716   6.054  1.0528  0.1574  0.2809
 4509SOL    HW124986   3.338   0.789   5.993  0.4809  0.8485  0.9729
 4509SOL    HW224987   3.241   0.683   6.018  0.4122  2.7576 -0.6749
 4510SOL     OW24988   3.796   2.975   6.038  0.2852  0.0169 -0.1777
 4510SOL    HW124989   3.802   3.070   6.029  1.3612 -0.2202 -2.1037
 4510SOL    HW224990   3.705   2.983   6.065  0.8043 -0.2502  1.6200
 4511SOL     OW24991   1.052   3.213   6.465  0.0437 -0.0680  0.2331
 4511SOL    HW124992   0.967   3.170   6.476 -0.6297  0.6054 -2.2393
 4511SOL    HW224993   1.099   3.195   6.546 -1.3079 -0.3179  0.9591
 4512SOL     OW24994   0.626   2.918   6.553 -0.3863  0.1900  0.4041
 4512SOL    HW124995   0.560   2.918   6.622 -0.5445 -1.3452  0.2481
 4512SOL    HW224996   0.633   2.822   6.548 -0.5035  0.2469 -0.8857
 4513SOL     OW24997   1.907   1.034   4.669 -0.1307  0.5072  0.1272
 4513SOL    HW124998   1.998   1.046   4.643  0.1239  0.3200  0.9098
 4513SOL    HW224999   1.911   0.958   4.728  0.8937 -0.2055 -0.8576
 4514SOL     OW25000   1.340   2.890   1.641 -0.1566  0.1829  0.7300
 4514SOL    HW125001   1.367   2.800   1.658 -0.3389  0.2126  1.1756
 4514SOL    HW225002   1.401   2.910   1.569 -0.7313  0.2001  0.2480
 4515SOL     OW25003   2.434   0.138   7.460 -0.3941  0.3919  0.7781
 4515SOL    HW125004   2.409   0.080   7.388 -0.0877  0.7675  0.3611
 4515SOL    HW225005   2.523   0.107   7.480  0.1929  0.8503 -1.0523
 4516SOL     OW25006   0.639   2.119   9.876 -0.3483  0.7093  0.3422
 4516SOL    HW125007   0.726   2.080   9.879  0.3025  2.0081 -2.4315
 4516SOL    HW225008   0.616   2.141   9.786  2.7811 -0.2343 -0.6861
 4517SOL     OW25009   3.210   4.355   3.334 -0.0790  0.4406  0.1776
 4517SOL    HW125010   3.174   4.281   3.284  0.0859 -0.7737  1.8490
 4517SOL    HW225011   3.180   4.331   3.422 -0.2129  1.9574  0.5370
 4518SOL     OW25012   1.612   0.189   6.422 -0.2832  0.3988 -0.0573
 4518SOL    HW125013   1.520   0.187   6.397 -0.1234  0.9102 -0.6899
 4518SOL    HW225014   1.625   0.095   6.434  2.9174  0.7485 -0.8850
 4519SOL     OW25015   2.035   0.192   6.714 -0.2568 -0.3566  0.3144
 4519SOL    HW125016   2.057   0.148   6.632 -0.3095  0.1311  0.0389
 4519SOL    HW225017   2.032   0.285   6.692 -1.5475 -0.9825 -2.2466
 4520SOL     OW25018   3.557   3.490   6.725  0.0198 -0.6431  0.5577
 4520SOL    HW125019   3.500   3.465   6.797  0.6330  1.1117  1.6874
 4520SOL    HW225020   3.493   3.544   6.679 -1.5601 -2.2813  0.8766
 4521SOL     OW25021   0.576   0.637   9.594 -0.0405 -0.1003  0.6464
 4521SOL    HW125022   0.605   0.547   9.575 -1.3351 -0.1195 -1.2292
 4521SOL    HW225023   0.499   0.630   9.650  1.5772 -0.1211  2.8661
 4522SOL     OW25024   0.531   3.976  17.264  0.2375 -0.2141 -0.1794
 4522SOL    HW125025   0.554   3.897  17.215 -0.5325 -1.1157  0.8915
 4522SOL    HW225026   0.483   3.942  17.340 -1.3653 -1.3796 -1.7049
 4523SOL     OW25027   4.309   1.903   3.950 -0.4138 -0.6463  0.2927
 4523SOL    HW125028   4.305   1.972   4.016  0.0244 -1.1734  0.8699
 4523SOL    HW225029   4.217   1.878   3.938 -1.7626  5.0445 -1.1004
 4524SOL     OW25030   4.457   4.422   3.368 -0.5439  0.1061  0.7286
 4524SOL    HW125031   4.456   4.338   3.322 -0.2885  1.2139 -1.2899
 4524SOL    HW225032   4.365   4.432   3.394 -0.7807 -0.8740  0.2448
 4525SOL     OW25033   4.253   4.652   5.660  0.1753 -0.3004 -0.4384
 4525SOL    HW125034   4.240   4.644   5.755  0.0841 -2.2483 -0.6140
 4525SOL    HW225035   4.295   4.569   5.639  2.5668  1.1735 -1.4963
 4526SOL     OW25036   2.112   2.808  16.667  0.1149 -0.2267  0.5809
 4526SOL    HW125037   2.149   2.802  16.579  0.0317  2.4876  0.3790
 4526SOL    HW225038   2.094   2.714  16.667  0.2723 -0.2595  1.6232
 4527SOL     OW25039   0.763   4.669   8.513  0.1392 -0.7444 -0.2299
 4527SOL    HW125040   0.843   4.684   8.462 -1.4166 -0.1663 -2.4607
 4527SOL    HW225041   0.788   4.595   8.568 -1.7276 -0.8478  0.4827
 4528SOL     OW25042   3.753   3.238  14.959 -0.4375  0.1574  0.1852
 4528SOL    HW125043   3.735   3.153  14.997 -0.8680 -0.4823 -1.4206
 4528SOL    HW225044   3.749   3.297  15.034 -1.1137  1.3033 -0.7414
 4529SOL     OW25045   1.459   3.800   7.429 -0.1034 -0.4156  0.0600
 4529SOL    HW125046   1.427   3.713   7.404 -0.9979  0.8443 -3.0626
 4529SOL    HW225047   1.543   3.781   7.471 -1.3377 -0.3784  2.5261
 4530SOL     OW25048   4.120   3.813  13.447 -0.4069 -0.4300 -0.1725
 4530SOL    HW125049   4.094   3.765  13.369 -1.4952 -2.2202  1.2941
 4530SOL    HW225050   4.211   3.837  13.429 -0.9448  1.0087 -0.9104
 4531SOL     OW25051   1.057   1.111   2.492 -0.0416  0.2701 -0.7004
 4531SOL    HW125052   1.064   1.122   2.397  1.8976  1.6659 -0.3843
 4531SOL    HW225053   0.983   1.051   2.502  0.3753 -0.1006  0.1691
 4532SOL     OW25054   0.306   3.654   8.284  0.4814 -0.0234  0.4734
 4532SOL    HW125055   0.237   3.717   8.303  0.4869  0.4352 -1.0566
 4532SOL    HW225056   0.383   3.711   8.289  1.1006 -0.7839 -0.3235
 4533SOL     OW25057   3.940   1.250   9.185 -0.0090 -0.1257 -0.2135
 4533SOL    HW125058   4.005   1.186   9.213 -0.1239 -0.8285 -1.5468
 4533SOL    HW225059   3.869   1.187   9.187 -0.8518  0.7684 -1.6546
 4534SOL     OW25060   4.186   1.725  15.790  0.0741  0.1420  0.4671
 4534SOL    HW125061   4.258   1.730  15.853  0.7781  0.5315 -0.3798
 4534SOL    HW225062   4.102   1.736  15.835 -0.8863 -0.5793 -1.1323
 4535SOL     OW25063   3.223   2.288  11.066 -0.3234  0.2959 -0.6812
 4535SOL    HW125064   3.219   2.363  11.125 -0.5912 -0.1034 -0.1969
 4535SOL    HW225065   3.139   2.250  11.092 -1.0431  3.2033  1.2562
 4536SOL     OW25066   3.986   3.500   2.396  0.0326 -0.0453 -0.1923
 4536SOL    HW125067   4.029   3.585   2.396  0.2165 -0.1401  1.4471
 4536SOL    HW225068   3.896   3.528   2.384  0.1583  0.7166  0.6836
 4537SOL     OW25069   1.282   1.026  17.410  0.2994 -0.4791 -0.6025
 4537SOL    HW125070   1.244   1.051  17.495 -0.1483 -3.0276 -0.0603
 4537SOL    HW225071   1.288   1.114  17.373  1.8871 -0.1721  0.3769
 4538SOL     OW25072   0.581   3.419   2.020 -0.1543  0.2494 -0.0084
 4538SOL    HW125073   0.584   3.439   2.113  0.6449 -2.3420  0.5312
 4538SOL    HW225074   0.634   3.488   1.980 -0.7243 -0.4804 -2.0598
 4539SOL     OW25075   1.590   3.855   7.691 -0.1379 -0.2370 -0.1830
 4539SOL    HW125076   1.512   3.854   7.746  0.4003  0.1507  0.5997
 4539SOL    HW225077   1.665   3.838   7.748  0.0401  1.0587 -0.0225
 4540SOL     OW25078   3.560   1.988   2.189 -0.2858 -0.3145  0.3038
 4540SOL    HW125079   3.570   1.907   2.239  0.3505 -0.5919 -0.2695
 4540SOL    HW225080   3.622   2.041   2.240 -0.3574  1.8702 -1.8462
 4541SOL     OW25081   3.903   1.322  13.197 -0.1588  0.5875  0.6997
 4541SOL    HW125082   3.942   1.341  13.283 -1.1365 -0.9515  1.4884
 4541SOL    HW225083   3.962   1.257  13.158 -0.7647 -0.2617  1.1958
 4542SOL     OW25084   0.946   0.090   9.081 -0.2429 -0.3648 -0.5006
 4542SOL    HW125085   1.033   0.070   9.047 -0.1957  1.0711 -1.2315
 4542SOL    HW225086   0.951   0.061   9.172 -0.0189 -1.5116 -0.8762
 4543SOL     OW25087   1.238   1.440   7.905  0.9910 -0.7922  0.4653
 4543SOL    HW125088   1.260   1.426   7.997 -0.5746  1.2912  1.1783
 4543SOL    HW225089   1.143   1.454   7.903  1.2141  0.7576  0.5415
 4544SOL     OW25090   0.063   3.716   7.994 -0.2988  0.5180 -0.2568
 4544SOL    HW125091   0.152   3.723   7.960  0.3926  0.5855  1.5903
 4544SOL    HW225092   0.035   3.632   7.956 -0.7517  0.8052 -0.5603
 4545SOL     OW25093   2.404   2.413   5.131  0.6248 -0.0264  0.1261
 4545SOL    HW125094   2.455   2.374   5.060 -1.1695  1.7186 -2.1328
 4545SOL    HW225095   2.478   2.405   5.192  0.8750 -0.8250 -0.2807
 4546SOL     OW25096   1.589   2.545  12.388 -0.0439 -0.0819 -0.3711
 4546SOL    HW125097   1.629   2.632  12.384 -0.4835  0.2046  1.6283
 4546SOL    HW225098   1.666   2.489  12.376 -0.3602 -1.0790  2.2241
 4547SOL     OW25099   1.310   4.268   2.287 -0.2192 -0.5060  0.2149
 4547SOL    HW125100   1.263   4.318   2.354  1.9332 -0.8941  2.0087
 4547SOL    HW225101   1.386   4.242   2.339  1.9216  0.2202 -2.5972
 4548SOL     OW25102   1.334   4.111   5.013  0.4546  0.4154  0.4297
 4548SOL    HW125103   1.252   4.071   5.040 -0.9359  2.7586 -0.2751
 4548SOL    HW225104   1.389   4.054   5.067 -3.0030 -2.5610  0.7461
 4549SOL     OW25105   3.588   2.724  13.877  0.2580  0.6029 -0.8019
 4549SOL    HW125106   3.519   2.724  13.944  1.9901  0.7960  0.9832
 4549SOL    HW225107   3.645   2.792  13.912 -1.2268  0.4774  1.8529
 4550SOL     OW25108   3.855   1.425   1.644 -0.2784  0.0300  0.0543
 4550SOL    HW125109   3.927   1.372   1.679 -1.3751 -0.7322  1.1457
 4550SOL    HW225110   3.870   1.506   1.693 -0.7587  0.3350 -0.3087
 4551SOL     OW25111   1.898   2.417  14.562  0.1044  0.3330  0.4382
 4551SOL    HW125112   1.894   2.403  14.468  0.2354  0.1733  0.4559
 4551SOL    HW225113   1.974   2.360  14.576  0.4410  0.7072  0.1317
 4552SOL     OW25114   4.416   2.858   6.363 -0.4129  0.7773 -0.0870
 4552SOL    HW125115   4.424   2.937   6.417 -0.3229  0.1794  0.7755
 4552SOL    HW225116   4.348   2.816   6.416  0.2198  1.1620  1.0199
 4553SOL     OW25117   2.463   0.151  10.462 -0.2303  0.4463  0.3157
 4553SOL    HW125118   2.537   0.112  10.508 -0.7518 -0.1282  0.6769
 4553SOL    HW225119   2.498   0.234  10.432  1.0368  0.0102  0.5845
 4554SOL     OW25120   3.874   4.282  10.204  0.4020  0.0355 -0.2588
 4554SOL    HW125121   3.900   4.190  10.205 -0.3559 -0.1433  3.4941
 4554SOL    HW225122   3.949   4.323  10.161  0.8093 -1.4044 -0.9101
 4555SOL     OW25123   3.812   4.280   1.978  0.4577 -0.1810  0.0147
 4555SOL    HW125124   3.779   4.326   2.055  2.2712  0.2497  0.5345
 4555SOL    HW225125   3.734   4.242   1.939 -1.8910  3.1505  1.5136
 4556SOL     OW25126   3.743   3.600   0.964 -0.2612  0.1630 -0.6162
 4556SOL    HW125127   3.715   3.579   1.053 -0.5476  1.4671 -0.3923
 4556SOL    HW225128   3.755   3.508   0.943 -0.4547  0.0118 -0.0512
 4557SOL     OW25129   1.684   0.882   8.050 -0.4312  0.2863  0.2795
 4557SOL    HW125130   1.690   0.787   8.055  1.0555  0.4529  1.7154
 4557SOL    HW225131   1.688   0.909   7.958  0.9516  1.1618  0.5828
 4558SOL     OW25132   1.561   2.831   2.806  0.0222 -0.0263 -0.4009
 4558SOL    HW125133   1.638   2.850   2.860  0.1013 -0.3396 -0.3988
 4558SOL    HW225134   1.498   2.782   2.859  0.1327  1.1689  0.8080
 4559SOL     OW25135   0.776   0.239   0.860  0.0090  0.4371  0.0623
 4559SOL    HW125136   0.833   0.248   0.784 -0.3410 -0.3299 -0.2933
 4559SOL    HW225137   0.722   0.317   0.845 -1.3233 -0.1618  1.7320
 4560SOL     OW25138   1.515   0.751   6.318  0.2041 -0.7337 -1.0066
 4560SOL    HW125139   1.549   0.748   6.229 -1.4797 -0.8876 -1.6489
 4560SOL    HW225140   1.533   0.661   6.346 -0.9492 -0.8352 -0.5968
 4561SOL     OW25141   3.425   1.535   5.554  0.0067  0.5205 -0.1510
 4561SOL    HW125142   3.473   1.594   5.612  0.2639 -0.7651  0.9236
 4561SOL    HW225143   3.348   1.582   5.520  0.5786  0.3253 -1.7294
 4562SOL     OW25144   1.370   2.205   4.623  0.4856  0.2794  0.0442
 4562SOL    HW125145   1.337   2.130   4.573  1.5723  0.6999 -1.3177
 4562SOL    HW225146   1.294   2.262   4.622  0.8520  0.7356 -2.1677
 4563SOL     OW25147   2.791   2.414   7.520  0.3821  0.3475  0.6731
 4563SOL    HW125148   2.747   2.381   7.599  0.3451 -2.0382 -0.3515
 4563SOL    HW225149   2.872   2.363   7.519 -0.0454 -0.3283  0.4545
 4564SOL     OW25150   2.568   4.247   7.822 -0.4046  0.4837 -0.1387
 4564SOL    HW125151   2.634   4.177   7.817  1.4099  2.1452  0.5871
 4564SOL    HW225152   2.617   4.326   7.799 -1.2002  0.7259 -0.9901
 4565SOL     OW25153   2.192   3.568   6.698  0.7402  0.2541  0.0431
 4565SOL    HW125154   2.207   3.564   6.792 -1.9718  1.3515  0.5230
 4565SOL    HW225155   2.111   3.619   6.705  1.1728  0.8566  0.5682
 4566SOL     OW25156   1.804   4.237   7.638  0.3504 -0.4972 -0.0479
 4566SOL    HW125157   1.744   4.293   7.589 -0.1029 -0.7917  0.1710
 4566SOL    HW225158   1.867   4.307   7.655  3.2088 -3.1595  0.3135
 4567SOL     OW25159   1.282   4.159   8.362 -0.4112 -0.2381 -0.6012
 4567SOL    HW125160   1.277   4.194   8.451 -1.9987 -0.8416 -0.4597
 4567SOL    HW225161   1.357   4.213   8.335  0.5916  0.0526  2.7476
 4568SOL     OW25162   0.202   4.033   6.757  0.4133 -0.1294  0.2113
 4568SOL    HW125163   0.173   3.945   6.734  2.4140  0.3117 -4.0973
 4568SOL    HW225164   0.246   4.037   6.842  2.5622  1.0331 -0.9374
 4569SOL     OW25165   4.138   1.861  15.564 -0.0760  0.0230 -0.1712
 4569SOL    HW125166   4.181   1.849  15.648  0.7792 -0.1514 -0.6437
 4569SOL    HW225167   4.175   1.801  15.499 -1.7066 -1.7462  0.5414
 4570SOL     OW25168   3.991   1.326   3.254 -0.0111 -0.6603  0.7061
 4570SOL    HW125169   4.081   1.353   3.273 -0.4820  1.7512 -0.5536
 4570SOL    HW225170   3.964   1.314   3.345  1.9080 -2.3394  1.0683
 4571SOL     OW25171   0.542   3.808   8.455 -0.5178  0.0635  0.0931
 4571SOL    HW125172   0.476   3.797   8.524  0.8362 -2.2602  0.9858
 4571SOL    HW225173   0.505   3.881   8.405 -2.4694 -1.4851 -0.7032
 4572SOL     OW25174   1.020   0.805  13.781 -0.1710 -0.4736  0.6292
 4572SOL    HW125175   0.986   0.860  13.710  0.4725  0.9885  1.4510
 4572SOL    HW225176   0.965   0.726  13.779  1.4838 -1.6155 -0.0748
 4573SOL     OW25177   1.923   1.245  14.649 -0.4358  0.4523  0.5417
 4573SOL    HW125178   2.011   1.272  14.677 -0.5530  0.9000  0.4737
 4573SOL    HW225179   1.936   1.264  14.556 -1.2977  0.4387  0.4224
 4574SOL     OW25180   1.393   3.401   6.667 -0.1880  0.2776  0.0481
 4574SOL    HW125181   1.339   3.333   6.708 -0.1721 -0.1946 -0.7256
 4574SOL    HW225182   1.361   3.400   6.578  1.1827 -0.9185 -0.4371
 4575SOL     OW25183   4.541   1.701   3.621  0.3289  0.4251  0.1511
 4575SOL    HW125184   4.577   1.752   3.694 -0.2096  1.0557 -0.0220
 4575SOL    HW225185   4.472   1.675   3.683  1.5786 -0.8492  0.9946
 4576SOL     OW25186   0.261   2.411   8.413 -0.1533 -0.0640  0.1430
 4576SOL    HW125187   0.204   2.340   8.383  0.2752  0.0775 -1.0058
 4576SOL    HW225188   0.259   2.468   8.336  2.2046 -1.4847 -0.9797
 4577SOL     OW25189   4.708   3.240  13.293  0.0403 -0.1023  0.5016
 4577SOL    HW125190   4.667   3.155  13.275 -0.4053 -0.0687  1.3443
 4577SOL    HW225191   4.661   3.266  13.372 -1.8184  0.9389 -0.9303
 4578SOL     OW25192   3.751   4.583   6.236  0.0389  0.1273 -0.1430
 4578SOL    HW125193   3.777   4.499   6.198  0.1402 -0.5772  1.5091
 4578SOL    HW225194   3.767   4.574   6.330 -3.3313  3.1372  0.7270
 4579SOL     OW25195   2.814   3.679   5.038  0.0110 -0.2451  0.0268
 4579SOL    HW125196   2.802   3.638   4.952  0.6412  0.0260 -0.1904
 4579SOL    HW225197   2.903   3.712   5.043  0.8292 -1.8130 -4.2029
 4580SOL     OW25198   1.628   1.489   3.057 -0.0710  0.1497  0.6640
 4580SOL    HW125199   1.618   1.436   3.136 -0.4908 -1.2135 -0.3183
 4580SOL    HW225200   1.544   1.479   3.012  1.4198  1.3835 -2.3695
 4581SOL     OW25201   1.990   3.893  10.927  0.0430 -0.1911 -0.0033
 4581SOL    HW125202   2.075   3.931  10.908 -2.1393  3.7133 -2.0173
 4581SOL    HW225203   1.941   3.900  10.845  0.8227 -0.0587 -0.4580
 4582SOL     OW25204   1.360   1.601   0.307  0.4623 -0.3434 -0.3508
 4582SOL    HW125205   1.288   1.662   0.286 -0.5678 -1.7346 -0.8585
 4582SOL    HW225206   1.424   1.661   0.345 -0.5030  0.5213 -0.0810
 4583SOL     OW25207   3.633   0.259   0.399  0.0096  0.1504  0.4351
 4583SOL    HW125208   3.713   0.214   0.372 -0.5681 -0.5073 -0.1532
 4583SOL    HW225209   3.577   0.189   0.432  0.0516 -0.3591 -0.5774
 4584SOL     OW25210   2.774   2.618  15.113  0.0569  0.0664  0.1768
 4584SOL    HW125211   2.821   2.554  15.059  0.7851 -0.2774  1.2119
 4584SOL    HW225212   2.732   2.672  15.047  1.3260  1.5215  0.5745
 4585SOL     OW25213   0.448   0.359   7.936  0.7151 -0.2211  0.2988
 4585SOL    HW125214   0.433   0.415   7.860 -1.1062 -0.2718  0.6204
 4585SOL    HW225215   0.500   0.288   7.897 -1.6005 -1.8385  0.1085
 4586SOL     OW25216   0.368   1.356   8.577 -0.0847  0.1708  0.2851
 4586SOL    HW125217   0.408   1.334   8.493 -3.2537 -0.1225 -1.1269
 4586SOL    HW225218   0.331   1.438   8.544  1.0912  0.6137  0.0332
 4587SOL     OW25219   2.716   4.030   2.496  0.4690 -0.4165  0.3391
 4587SOL    HW125220   2.744   3.952   2.544 -0.3407  0.3244  2.0059
 4587SOL    HW225221   2.686   4.088   2.566 -0.1663 -0.7986  0.3876
 4588SOL     OW25222   2.966   1.178  12.852 -0.1206  0.5127 -0.4956
 4588SOL    HW125223   2.938   1.087  12.867 -1.7657  0.5203 -3.5647
 4588SOL    HW225224   2.950   1.189  12.758  1.5656  0.6822 -0.7708
 4589SOL     OW25225   0.256   2.161   1.653  0.1858  0.2956 -0.0016
 4589SOL    HW125226   0.284   2.217   1.726 -0.7777  1.7230 -0.7416
 4589SOL    HW225227   0.196   2.098   1.694 -0.1255 -0.3307 -1.4272
 4590SOL     OW25228   1.200   1.831   9.577  0.1964 -0.1132  0.1862
 4590SOL    HW125229   1.141   1.900   9.608  1.5502 -0.0530  2.5857
 4590SOL    HW225230   1.275   1.876   9.537  1.2168 -1.8491  0.1646
 4591SOL     OW25231   2.017   3.062   8.181  0.1193 -0.2117  0.1449
 4591SOL    HW125232   1.980   3.122   8.117 -1.8579 -0.7640  0.7898
 4591SOL    HW225233   2.003   2.979   8.135  2.5083  0.0915 -1.1558
 4592SOL     OW25234   1.384   0.008   1.617 -0.1542 -0.1804  0.2132
 4592SOL    HW125235   1.472   4.713   1.582 -0.6376 -2.1538 -0.1922
 4592SOL    HW225236   1.409   0.059   1.694 -0.0312  0.4297 -0.2276
 4593SOL     OW25237   3.942   0.819   4.096 -0.3121 -0.6831  0.2426
 4593SOL    HW125238   3.958   0.869   4.015 -0.1639  0.4204  0.9599
 4593SOL    HW225239   3.854   0.847   4.121 -0.1045  1.9198 -1.8573
 4594SOL     OW25240   0.721   2.440  15.216 -0.1815  0.5335  0.1283
 4594SOL    HW125241   0.791   2.497  15.245  0.6953  0.4173 -1.7625
 4594SOL    HW225242   0.707   2.393  15.299  1.0110  0.5186  0.3225
 4595SOL     OW25243   0.971   2.031  10.489 -0.0418  0.0476 -0.5255
 4595SOL    HW125244   1.020   1.992  10.561  1.2260  1.7925 -0.4504
 4595SOL    HW225245   1.048   2.048  10.434 -0.0436 -0.1114 -0.5769
 4596SOL     OW25246   0.553   3.284   6.854 -0.3719 -0.3869 -0.4984
 4596SOL    HW125247   0.493   3.339   6.803 -1.2242  0.1413  1.0724
 4596SOL    HW225248   0.629   3.282   6.795 -1.0830  0.1018 -1.4189
 4597SOL     OW25249   2.588   2.127   2.867 -0.0713  0.0506 -0.0050
 4597SOL    HW125250   2.681   2.141   2.883  0.0265 -0.3671 -0.2329
 4597SOL    HW225251   2.589   2.060   2.799  0.3599  1.0361 -0.9610
 4598SOL     OW25252   0.414   2.366   5.671 -0.5033  0.4396  0.0963
 4598SOL    HW125253   0.397   2.448   5.625  1.2852  0.0601 -1.2800
 4598SOL    HW225254   0.370   2.300   5.617 -1.7283  2.2518 -1.1411
 4599SOL     OW25255   3.302   4.636  10.570 -0.3355  0.1000  0.6973
 4599SOL    HW125256   3.299   4.593  10.656 -1.2093 -1.7285 -0.2445
 4599SOL    HW225257   3.217   4.608  10.536 -0.2194  1.1932 -0.4983
 4600SOL     OW25258   1.625   1.112  13.598 -0.1079 -0.0761 -0.1985
 4600SOL    HW125259   1.565   1.173  13.643  1.1982  1.9990 -1.2737
 4600SOL    HW225260   1.657   1.062  13.673 -0.1927  0.9258  0.5089
 4601SOL     OW25261   0.103   0.488   3.209 -0.4539  0.0210 -0.8665
 4601SOL    HW125262   0.112   0.490   3.114 -1.6022  0.6302 -0.9502
 4601SOL    HW225263   0.029   0.545   3.230  0.3842  1.1898 -1.0659
 4602SOL     OW25264   4.305   3.318   3.891 -0.1590  0.0157  0.0306
 4602SOL    HW125265   4.342   3.238   3.930  0.0013 -0.7135 -1.6202
 4602SOL    HW225266   4.376   3.346   3.833  1.5943 -0.9688  1.6932
 4603SOL     OW25267   3.476   1.876   5.496  0.0986 -0.0592  0.0133
 4603SOL    HW125268   3.570   1.888   5.485  0.1041  1.7770  1.9650
 4603SOL    HW225269   3.470   1.836   5.583 -2.1342 -1.3912 -0.7638
 4604SOL     OW25270   2.960   0.869   5.691 -0.5101  0.5572  0.1169
 4604SOL    HW125271   2.899   0.817   5.744 -1.1784  1.6705  0.4412
 4604SOL    HW225272   2.931   0.958   5.712 -0.2577  0.4959  0.7162
 4605SOL     OW25273   3.317   4.465   9.429 -0.4951  0.2345 -0.7846
 4605SOL    HW125274   3.270   4.382   9.420  0.2824 -0.1527 -1.3722
 4605SOL    HW225275   3.387   4.430   9.484 -1.8032  0.0509  0.7611
 4606SOL     OW25276   1.896   3.225   5.966 -0.3851 -0.2819  0.5759
 4606SOL    HW125277   1.823   3.191   5.915  0.9393 -3.4069  0.7400
 4606SOL    HW225278   1.918   3.154   6.027  0.3949  0.7062  1.4464
 4607SOL     OW25279   3.488   3.271  13.715  0.8147  1.0335  0.4170
 4607SOL    HW125280   3.477   3.363  13.741 -0.8303  1.3615 -1.3911
 4607SOL    HW225281   3.474   3.226  13.799  0.8146  0.9694  0.3828
 4608SOL     OW25282   1.891   0.936   3.217 -0.3825  0.0091 -0.5286
 4608SOL    HW125283   1.903   0.876   3.143 -0.6398 -0.2719 -0.3424
 4608SOL    HW225284   1.953   1.007   3.202  1.3706 -0.9504  2.2356
 4609SOL     OW25285   3.200   2.546  13.818 -0.3634 -0.0685 -0.1770
 4609SOL    HW125286   3.176   2.518  13.731  2.4672 -2.2954 -0.2467
 4609SOL    HW225287   3.119   2.528  13.866 -0.1914 -1.8598 -0.5879
 4610SOL     OW25288   3.916   1.728   5.982 -0.5812  0.4077 -0.1582
 4610SOL    HW125289   3.941   1.642   5.946 -0.1729  0.7178 -0.6118
 4610SOL    HW225290   3.876   1.694   6.062 -0.1788  0.1375 -0.0675
 4611SOL     OW25291   1.810   0.706   5.135 -0.2650 -0.2161 -0.5143
 4611SOL    HW125292   1.727   0.683   5.093 -0.7143  1.2255 -0.4197
 4611SOL    HW225293   1.790   0.728   5.226  2.4556 -0.6800  0.2065
 4612SOL     OW25294   2.774   0.591  15.897 -0.5679 -0.1499 -0.2456
 4612SOL    HW125295   2.686   0.618  15.870 -0.2471  2.1389  0.9677
 4612SOL    HW225296   2.817   0.615  15.815  0.2397  0.9372  0.4973
 4613SOL     OW25297   3.803   2.161  13.746  0.3324  0.7092 -0.2455
 4613SOL    HW125298   3.849   2.224  13.802 -1.4592 -1.3739  3.5447
 4613SOL    HW225299   3.721   2.149  13.794 -0.2036 -0.7114 -1.5132
 4614SOL     OW25300   4.464   3.774   2.155 -0.1772  0.1664  0.0787
 4614SOL    HW125301   4.515   3.721   2.094 -1.8432 -0.6034 -0.6599
 4614SOL    HW225302   4.445   3.850   2.100  2.1394  1.0523  0.5035
 4615SOL     OW25303   3.896   0.316   8.509 -0.1361 -0.1785 -0.0664
 4615SOL    HW125304   3.803   0.338   8.497 -0.7030 -1.1525  2.5080
 4615SOL    HW225305   3.897   0.221   8.514  0.4527 -0.1607  0.0849
 4616SOL     OW25306   0.672   1.304   6.544 -0.1352 -0.1716 -0.0492
 4616SOL    HW125307   0.717   1.288   6.626  0.9225 -1.4330 -0.8876
 4616SOL    HW225308   0.583   1.310   6.579 -0.6767 -0.9907 -1.2622
 4617SOL     OW25309   2.268   2.942   5.440  0.2785  0.3777  0.8487
 4617SOL    HW125310   2.264   2.847   5.428 -0.7556  0.2104  2.5365
 4617SOL    HW225311   2.283   2.979   5.352 -0.3219 -1.2107  0.0794
 4618SOL     OW25312   2.086   0.698   0.126  0.6978 -0.1064  0.5464
 4618SOL    HW125313   2.038   0.661   0.200  0.0518 -1.8022 -0.7463
 4618SOL    HW225314   2.066   0.792   0.130  0.3284 -0.1264 -0.7249
 4619SOL     OW25315   0.357   4.717   2.350 -0.6532  0.5642  0.1907
 4619SOL    HW125316   0.306   4.691   2.273 -0.2341 -0.7881  0.3698
 4619SOL    HW225317   0.437   0.032   2.312 -0.4978 -1.5280 -1.4287
 4620SOL     OW25318   0.668   4.657   6.444 -0.3611  0.0114  0.2250
 4620SOL    HW125319   0.696   4.600   6.516 -1.6642 -3.4813 -2.0218
 4620SOL    HW225320   0.734   4.636   6.378  1.7661  0.5114  2.1767
 4621SOL     OW25321   3.821   2.478   2.115 -0.0910  0.5078 -0.4660
 4621SOL    HW125322   3.914   2.454   2.108  0.0170  0.3891  1.2427
 4621SOL    HW225323   3.779   2.396   2.088  0.0170  1.0678 -2.3088
 4622SOL     OW25324   2.994   2.134   7.770 -0.3695  0.0710  0.0708
 4622SOL    HW125325   3.050   2.131   7.847  0.7851  2.6883 -0.6704
 4622SOL    HW225326   2.909   2.135   7.813 -0.2349  0.1145  0.3311
 4623SOL     OW25327   0.331   0.295  16.210  0.0015 -0.6321  0.1234
 4623SOL    HW125328   0.420   0.327  16.199 -0.5354  0.9178  0.2443
 4623SOL    HW225329   0.336   0.206  16.176  0.8433  0.5552 -2.9007
 4624SOL     OW25330   4.541   0.310   6.598 -0.2843  0.2387 -0.4418
 4624SOL    HW125331   4.476   0.282   6.662 -0.4251  1.3814 -0.0828
 4624SOL    HW225332   4.512   0.270   6.517  0.4462 -1.1680 -0.0092
 4625SOL     OW25333   0.039   3.197  12.273 -0.7227  0.5858  0.2552
 4625SOL    HW125334   4.696   3.133  12.307  0.1695  0.1042  0.9878
 4625SOL    HW225335   0.028   3.195  12.178  0.1979  1.9191  0.1036
 4626SOL     OW25336   4.149   0.261  16.676  0.0371  0.0276 -0.3520
 4626SOL    HW125337   4.189   0.174  16.684 -1.1723 -0.6737 -1.9500
 4626SOL    HW225338   4.109   0.271  16.762  0.8480 -0.0046  0.0339
 4627SOL     OW25339   4.310   0.241   2.515  0.3563  0.0281 -0.2364
 4627SOL    HW125340   4.319   0.258   2.422 -1.6331  0.6502 -0.3135
 4627SOL    HW225341   4.402   0.244   2.542  0.1376  0.0966  0.5152
 4628SOL     OW25342   1.074   1.995   7.645 -0.2849 -0.7472  0.2022
 4628SOL    HW125343   0.980   2.009   7.646 -0.1909 -0.0754 -0.3172
 4628SOL    HW225344   1.084   1.961   7.734 -1.1685 -0.5731  0.3691
 4629SOL     OW25345   1.613   2.021   7.785  0.0684 -0.2474 -0.5245
 4629SOL    HW125346   1.691   2.059   7.824 -1.4096  3.3869 -1.1121
 4629SOL    HW225347   1.606   1.938   7.833 -0.6686 -1.3981 -2.6345
 4630SOL     OW25348   0.684   2.031  11.351 -0.0890 -0.2024 -0.7702
 4630SOL    HW125349   0.649   2.109  11.307  0.4222  1.2129  1.3398
 4630SOL    HW225350   0.747   2.064  11.415 -1.0007  1.1071 -0.5497
 4631SOL     OW25351   3.595   0.593   3.912  0.1108  0.2282 -0.4686
 4631SOL    HW125352   3.676   0.607   3.863  0.2195  2.3892  0.3419
 4631SOL    HW225353   3.593   0.501   3.939 -1.8218 -0.2047 -2.1412
 4632SOL     OW25354   4.160   4.572   7.246 -0.4040 -0.2161  0.9633
 4632SOL    HW125355   4.097   4.569   7.318  1.4881 -1.3343  2.5794
 4632SOL    HW225356   4.240   4.595   7.293  0.4486 -0.4429 -0.3670
 4633SOL     OW25357   1.289   3.314   3.950 -0.5620 -0.3437  0.2918
 4633SOL    HW125358   1.376   3.278   3.930 -0.2303  1.0789 -0.8312
 4633SOL    HW225359   1.307   3.406   3.970  1.0655 -0.8888  1.3923
 4634SOL     OW25360   2.120   0.955   0.848 -0.2583 -0.0643  0.3049
 4634SOL    HW125361   2.181   0.887   0.877  1.4829  1.1306 -0.5515
 4634SOL    HW225362   2.047   0.934   0.906 -1.4200  0.2672 -1.0352
 4635SOL     OW25363   0.190   2.658  15.958  0.1687 -0.5818  0.1822
 4635SOL    HW125364   0.223   2.635  16.045 -2.4821 -0.1737  1.2957
 4635SOL    HW225365   0.120   2.597  15.935 -0.1998 -0.3392  0.6743
 4636SOL     OW25366   2.541   3.493   0.353 -0.0383  0.0335  0.1616
 4636SOL    HW125367   2.499   3.565   0.399 -0.4248 -0.4842  0.6089
 4636SOL    HW225368   2.579   3.539   0.278  1.0171 -1.8121 -0.4511
 4637SOL     OW25369   2.924   1.645   4.927 -0.3484 -0.1773  0.7294
 4637SOL    HW125370   2.962   1.674   4.844 -1.1622  1.2625  0.8628
 4637SOL    HW225371   2.988   1.578   4.953 -1.4377 -2.4802 -2.4227
 4638SOL     OW25372   0.304   3.516   6.216  0.0329 -0.1060  0.2173
 4638SOL    HW125373   0.333   3.593   6.168  2.1238 -2.0120 -1.5766
 4638SOL    HW225374   0.327   3.547   6.303 -0.9194 -1.3232  0.9043
 4639SOL     OW25375   4.082   3.752   2.393 -0.2008  0.4371  0.0404
 4639SOL    HW125376   4.153   3.796   2.440 -1.5276  1.3169  1.2179
 4639SOL    HW225377   4.034   3.831   2.369 -2.1347 -1.1243 -1.2447
 4640SOL     OW25378   0.754   2.587  10.905  0.1720  0.0230  0.2467
 4640SOL    HW125379   0.847   2.583  10.882 -0.6539 -1.6845 -2.7003
 4640SOL    HW225380   0.769   2.591  11.000  1.2138 -1.2662  0.1328
 4641SOL     OW25381   2.402   0.920  15.480 -0.1339  0.3868  0.7018
 4641SOL    HW125382   2.422   0.831  15.451 -0.0978  1.2357 -1.8526
 4641SOL    HW225383   2.310   0.902  15.501  0.1278 -1.7080 -0.0047
 4642SOL     OW25384   0.303   3.659  10.719  0.2797  0.4498  0.0892
 4642SOL    HW125385   0.282   3.720  10.649  1.5576 -0.0634 -0.7315
 4642SOL    HW225386   0.340   3.581  10.677 -1.6043 -0.8677  0.8173
 4643SOL     OW25387   0.295   3.037  15.522 -0.6324 -0.0045  0.5982
 4643SOL    HW125388   0.236   2.967  15.551  0.6353 -0.8031  1.2260
 4643SOL    HW225389   0.258   3.066  15.438  2.1195  0.9381 -0.2875
 4644SOL     OW25390   3.904   3.995   6.732  0.2637  0.6743  0.2841
 4644SOL    HW125391   3.847   3.932   6.689  0.5955  0.9339 -0.5405
 4644SOL    HW225392   3.873   4.083   6.708  0.1907  0.2218 -1.2698
 4645SOL     OW25393   2.943   0.842  14.184 -0.0172 -0.2316  0.1806
 4645SOL    HW125394   2.925   0.906  14.115 -1.5684 -1.8602 -0.9153
 4645SOL    HW225395   2.872   0.782  14.161 -0.5102  0.4649 -0.1254
 4646SOL     OW25396   2.498   1.974   6.593  0.4159  0.1219 -0.0856
 4646SOL    HW125397   2.519   2.014   6.509  1.7819 -1.6671 -0.5946
 4646SOL    HW225398   2.477   2.052   6.646 -1.7864 -1.4241  1.2914
 4647SOL     OW25399   2.668   4.403   5.393 -0.3798 -0.1260  0.2634
 4647SOL    HW125400   2.729   4.329   5.391 -1.0130 -0.5985 -1.5576
 4647SOL    HW225401   2.612   4.399   5.315  2.4934 -0.5670 -1.8272
 4648SOL     OW25402   1.541   0.469   6.346  0.2640  0.1019 -0.1745
 4648SOL    HW125403   1.453   0.443   6.319 -0.6037  0.6256  2.2517
 4648SOL    HW225404   1.551   0.422   6.429 -1.0929  1.2340  0.6120
 4649SOL     OW25405   4.178   2.212   3.839 -0.1015 -0.5151 -0.3079
 4649SOL    HW125406   4.198   2.258   3.920 -1.7479  0.2344 -0.3406
 4649SOL    HW225407   4.252   2.245   3.788  2.2041 -2.7585  1.5851
 4650SOL     OW25408   0.098   0.653   8.711  0.0427 -0.0307  0.2049
 4650SOL    HW125409   0.064   0.741   8.726  1.1027  0.6305 -1.2377
 4650SOL    HW225410   0.173   0.677   8.656 -0.7626  0.2724 -0.7596
 4651SOL     OW25411   3.988   2.191   8.023 -0.4345  0.3919 -0.3657
 4651SOL    HW125412   3.970   2.169   8.114 -1.8362  0.3457 -0.6411
 4651SOL    HW225413   4.034   2.274   8.032 -0.9049  0.6920 -0.6696
 4652SOL     OW25414   4.329   2.519   4.638 -0.3277 -0.5662  0.5246
 4652SOL    HW125415   4.402   2.457   4.632 -0.4412 -0.8063  1.5659
 4652SOL    HW225416   4.266   2.484   4.574 -1.1151 -0.0966  1.0359
 4653SOL     OW25417   0.418   4.655   0.538 -0.3042 -0.2966 -0.6634
 4653SOL    HW125418   0.458   0.007   0.588 -0.6796 -0.1551 -0.5629
 4653SOL    HW225419   0.409   4.581   0.597  0.5525  1.0976  1.1933
 4654SOL     OW25420   2.197   0.205  10.470  0.1238  0.1330  0.3635
 4654SOL    HW125421   2.157   0.233  10.552  1.0831 -0.8232  1.1653
 4654SOL    HW225422   2.284   0.175  10.496 -0.6890 -0.0798  2.8781
 4655SOL     OW25423   2.151   0.419   0.711 -0.1799 -0.1115  0.6680
 4655SOL    HW125424   2.085   0.433   0.779 -0.9290  0.4935 -0.1837
 4655SOL    HW225425   2.211   0.358   0.753 -3.1507 -2.6632  1.1687
 4656SOL     OW25426   1.112   1.104   5.893  0.1366 -0.6517  0.2348
 4656SOL    HW125427   1.047   1.173   5.885  0.4509 -0.3456  0.3311
 4656SOL    HW225428   1.097   1.045   5.819 -0.3013  0.5714 -0.6515
 4657SOL     OW25429   2.138   3.537   5.606 -0.2932 -0.5175  0.1132
 4657SOL    HW125430   2.064   3.509   5.659 -0.2602  1.1778  1.0470
 4657SOL    HW225431   2.092   3.607   5.560 -0.3605  0.6385  1.9647
 4658SOL     OW25432   2.944   4.680   7.848 -0.6756 -0.4701  0.2280
 4658SOL    HW125433   2.985   4.686   7.762 -0.9399  2.3408  0.2782
 4658SOL    HW225434   2.966   4.587   7.858  0.8584 -0.2005 -0.7072
 4659SOL     OW25435   3.606   1.539   7.280 -0.1842 -0.5282 -0.0189
 4659SOL    HW125436   3.630   1.588   7.202 -1.9752  1.9722  0.9894
 4659SOL    HW225437   3.617   1.606   7.348 -1.7244 -0.6125  0.3332
 4660SOL     OW25438   1.697   1.003   2.065 -0.0540 -0.1725  0.0430
 4660SOL    HW125439   1.625   0.987   2.126 -1.8127 -1.5479 -2.3676
 4660SOL    HW225440   1.684   1.089   2.024  2.7351 -0.6062 -1.7217
 4661SOL     OW25441   2.204   4.657   3.707 -0.6385  0.0715  0.2997
 4661SOL    HW125442   2.232   0.011   3.653  0.4891 -0.7609 -0.2493
 4661SOL    HW225443   2.125   4.702   3.738 -0.2329 -0.7117  2.4695
 4662SOL     OW25444   1.691   3.966  12.709  0.2862  0.1251  0.0873
 4662SOL    HW125445   1.603   3.988  12.676 -0.2322 -0.3087  1.1821
 4662SOL    HW225446   1.678   3.996  12.799  2.8646  1.5748 -0.0297
 4663SOL     OW25447   2.752   1.131   0.352 -0.0154  0.2952  0.5168
 4663SOL    HW125448   2.815   1.166   0.416  0.7840  0.8066 -0.5389
 4663SOL    HW225449   2.742   1.040   0.379  1.4805 -0.2252 -0.6238
 4664SOL     OW25450   2.140   2.235   3.441  0.1209 -0.1023  0.8526
 4664SOL    HW125451   2.072   2.302   3.449  0.4689  0.3061  0.3499
 4664SOL    HW225452   2.124   2.194   3.357  0.4988 -1.4653  1.4556
 4665SOL     OW25453   1.173   3.529   4.514 -0.1535 -0.0383 -0.0953
 4665SOL    HW125454   1.265   3.542   4.537  0.1055 -1.5977 -0.2745
 4665SOL    HW225455   1.172   3.527   4.418  0.9207 -0.3025 -0.0990
 4666SOL     OW25456   0.140   3.025   4.462 -0.2876 -0.6605  1.0013
 4666SOL    HW125457   0.187   3.036   4.379 -1.0195  0.6882  0.7656
 4666SOL    HW225458   0.089   3.106   4.465  1.9263  0.8363 -2.0813
 4667SOL     OW25459   4.115   1.536  17.212 -0.3862 -0.0482 -0.2274
 4667SOL    HW125460   4.036   1.571  17.170 -0.5780 -1.4314 -1.0291
 4667SOL    HW225461   4.153   1.610  17.260  0.2608 -0.9576  0.6491
 4668SOL     OW25462   4.132   0.950  13.353  0.1308  0.0721 -0.2518
 4668SOL    HW125463   4.189   1.005  13.407 -0.4794  1.1722 -0.7070
 4668SOL    HW225464   4.164   0.968  13.265  1.5954 -2.1216 -0.1685
 4669SOL     OW25465   0.105   1.350  14.675 -0.2041 -0.0524  0.3793
 4669SOL    HW125466   0.139   1.353  14.586 -0.3269 -1.9333  0.2564
 4669SOL    HW225467   0.127   1.263  14.708 -1.6906 -1.4226 -2.2007
 4670SOL     OW25468   2.925   0.040  10.614 -0.1786  0.0360  0.5425
 4670SOL    HW125469   2.946   4.700  10.542 -0.2571 -1.9268  2.1270
 4670SOL    HW225470   2.997   0.007  10.669  0.3687 -1.5159 -1.0863
 4671SOL     OW25471   3.198   0.406  15.903  0.2265  0.3799  0.1635
 4671SOL    HW125472   3.196   0.381  15.995 -0.9345 -1.2608 -0.3078
 4671SOL    HW225473   3.172   0.498  15.907 -2.0154 -0.2481 -0.1908
 4672SOL     OW25474   0.828   2.123   4.746 -0.4474  0.4290  0.4429
 4672SOL    HW125475   0.792   2.046   4.704 -1.8534  1.1872  0.2756
 4672SOL    HW225476   0.914   2.085   4.766 -1.3986  0.1791  4.0381
 4673SOL     OW25477   2.075   1.038   0.581 -0.1616 -0.0612 -0.2189
 4673SOL    HW125478   2.019   1.111   0.607 -1.0433  0.3481 -3.2214
 4673SOL    HW225479   2.072   0.988   0.662 -0.4493 -2.1523 -1.5100
 4674SOL     OW25480   1.953   2.818   7.212  0.4296  0.1044 -1.0765
 4674SOL    HW125481   1.923   2.757   7.279  1.2968  1.4639  0.5481
 4674SOL    HW225482   1.872   2.827   7.162 -0.0233  0.4248 -0.2742
 4675SOL     OW25483   3.836   0.286   0.801 -0.0901  0.5994 -0.6283
 4675SOL    HW125484   3.753   0.298   0.754 -1.2350 -0.7455  1.0515
 4675SOL    HW225485   3.879   0.367   0.776  1.5375  0.4829  1.7263
 4676SOL     OW25486   4.388   3.931   5.374 -0.1067 -0.0274  0.0070
 4676SOL    HW125487   4.436   3.936   5.456 -1.6714  2.3683  0.7509
 4676SOL    HW225488   4.440   3.866   5.327  0.3859 -0.6229  1.4051
 4677SOL     OW25489   3.204   0.771   5.631 -0.1517  0.0838  0.4561
 4677SOL    HW125490   3.220   0.800   5.721 -2.0596  2.0214  0.1524
 4677SOL    HW225491   3.110   0.784   5.637  0.0539  2.4495 -1.3865
 4678SOL     OW25492   2.807   0.817  11.818 -0.1276  0.1322 -0.1301
 4678SOL    HW125493   2.727   0.865  11.797  0.4143  1.2829  0.4565
 4678SOL    HW225494   2.813   0.820  11.913  0.6655  1.3671 -0.2108
 4679SOL     OW25495   3.134   1.699   7.990 -0.1387 -0.1247  0.1845
 4679SOL    HW125496   3.127   1.615   7.945 -1.6124 -1.1026  2.2336
 4679SOL    HW225497   3.042   1.723   8.001  0.0302  0.3156  0.6295
 4680SOL     OW25498   1.902   4.144   9.490 -0.2571 -0.1393 -0.2344
 4680SOL    HW125499   1.965   4.081   9.525  1.4677  1.7632  0.0652
 4680SOL    HW225500   1.832   4.094   9.448  1.1496 -1.3152 -1.1655
 4681SOL     OW25501   3.067   0.972  13.160 -0.1084  0.4478 -0.6731
 4681SOL    HW125502   3.014   0.939  13.087  1.0961 -1.5266 -0.6673
 4681SOL    HW225503   3.005   0.968  13.233 -0.6332  0.1412 -1.1392
 4682SOL     OW25504   0.586   0.105   2.216  0.1802  0.6045  0.6175
 4682SOL    HW125505   0.648   0.172   2.246  0.9173 -1.1328  2.9883
 4682SOL    HW225506   0.570   0.121   2.123  2.5814  3.1148  0.6213
 4683SOL     OW25507   1.136   1.348   8.320 -0.0742  0.0721  0.4801
 4683SOL    HW125508   1.202   1.413   8.297  1.5305 -2.1906 -1.3684
 4683SOL    HW225509   1.067   1.358   8.254 -2.0398  0.3760  2.5889
 4684SOL     OW25510   0.399   4.348   6.988  0.5547 -0.2862  0.1697
 4684SOL    HW125511   0.411   4.413   6.919 -0.6035 -2.0089 -1.6272
 4684SOL    HW225512   0.402   4.404   7.066 -3.4380 -2.8438  2.1408
 4685SOL     OW25513   2.085   1.267   8.254 -0.1769  0.2060  0.4619
 4685SOL    HW125514   2.096   1.343   8.196 -1.5734 -1.4342 -1.9791
 4685SOL    HW225515   2.144   1.288   8.326  2.2548 -1.2387 -1.1305
 4686SOL     OW25516   3.284   3.608   2.376  1.2627  0.0773  0.5652
 4686SOL    HW125517   3.223   3.573   2.311  0.1959 -1.4528  2.3860
 4686SOL    HW225518   3.299   3.536   2.438 -0.7589  0.0583  1.0552
 4687SOL     OW25519   4.676   0.057   2.546  0.1156 -0.6147 -0.5727
 4687SOL    HW125520   4.633   0.019   2.471 -1.2146 -2.0064  0.9157
 4687SOL    HW225521   4.606   0.040   2.608 -0.0936  0.8326 -0.4058
 4688SOL     OW25522   4.358   4.701   8.690 -0.3016  0.5365 -0.4298
 4688SOL    HW125523   4.435   0.028   8.721  1.2187 -0.5585 -2.6171
 4688SOL    HW225524   4.375   4.610   8.713  1.3347 -0.0520 -3.9487
 4689SOL     OW25525   4.550   2.702   7.764  0.3342  0.0807  0.1133
 4689SOL    HW125526   4.524   2.701   7.857  0.0729  0.0630  0.0394
 4689SOL    HW225527   4.641   2.674   7.769 -0.1897 -1.4590  1.1500
 4690SOL     OW25528   0.476   1.346  17.301  0.7332  0.3505 -0.5174
 4690SOL    HW125529   0.534   1.276  17.333  1.6556 -0.2160 -3.3336
 4690SOL    HW225530   0.432   1.303  17.227 -0.7569 -2.4531  1.9840
 4691SOL     OW25531   0.398   1.679   3.526  0.3229 -0.4050 -0.0945
 4691SOL    HW125532   0.371   1.748   3.466  0.6714 -0.3948 -0.2439
 4691SOL    HW225533   0.375   1.603   3.472  1.5475  1.4686 -3.2412
 4692SOL     OW25534   3.803   2.138   8.270 -0.9060 -0.4524 -1.0244
 4692SOL    HW125535   3.785   2.229   8.295 -1.2126 -0.3592 -1.5850
 4692SOL    HW225536   3.750   2.092   8.335 -0.0662  3.4223  2.4133
 4693SOL     OW25537   3.295   2.379   5.603  0.1998 -0.4212  0.2559
 4693SOL    HW125538   3.305   2.284   5.611 -0.3163 -0.5872 -1.0388
 4693SOL    HW225539   3.373   2.408   5.650 -0.3697  0.8254  0.4469
 4694SOL     OW25540   3.587   4.691   1.812  0.0799 -0.3008 -0.1704
 4694SOL    HW125541   3.532   4.685   1.891 -1.3321  1.4363 -1.0070
 4694SOL    HW225542   3.545   4.624   1.759 -1.0989 -1.1424  1.8408
 4695SOL     OW25543   3.012   4.358  14.318 -0.6809 -0.3299 -0.1333
 4695SOL    HW125544   3.000   4.340  14.412 -2.1017 -0.4857 -0.3410
 4695SOL    HW225545   3.083   4.298  14.296 -0.5531  0.2499 -1.2744
 4696SOL     OW25546   1.851   3.435   9.316  0.1654 -0.0038  0.0742
 4696SOL    HW125547   1.943   3.433   9.288  0.3524  1.5455  0.6140
 4696SOL    HW225548   1.810   3.461   9.234  1.9453 -2.6880 -1.6749
 4697SOL     OW25549   3.586   1.267  10.118  0.0993 -1.0245  0.3732
 4697SOL    HW125550   3.563   1.243  10.207 -0.9063 -1.7087 -0.0785
 4697SOL    HW225551   3.591   1.181  10.075  0.6452  0.4009 -2.4041
 4698SOL     OW25552   3.834   4.042   4.138  0.8437  0.4737  0.3270
 4698SOL    HW125553   3.927   4.042   4.158  0.6820  1.9236  1.1341
 4698SOL    HW225554   3.825   4.126   4.091  3.8605  0.5999 -0.0072
 4699SOL     OW25555   0.680   2.283   2.205 -0.0067  0.0071  0.8706
 4699SOL    HW125556   0.769   2.311   2.186  1.3923 -3.9347  1.4593
 4699SOL    HW225557   0.703   2.199   2.245  0.5453 -0.0729  0.3773
 4700SOL     OW25558   0.431   2.952  14.432  0.4295  0.0079 -0.1695
 4700SOL    HW125559   0.517   2.988  14.454 -0.4207  2.2534 -0.5278
 4700SOL    HW225560   0.391   2.947  14.519  0.0642  0.0104 -0.3353
 4701SOL     OW25561   0.043   4.457   5.933 -0.2570 -0.2974  0.6066
 4701SOL    HW125562   4.716   4.460   6.017 -0.9117  0.8558  0.2010
 4701SOL    HW225563   0.002   4.383   5.887 -1.9747  0.6133  0.6496
 4702SOL     OW25564   1.167   2.116   4.059 -0.6933 -0.3591 -0.5270
 4702SOL    HW125565   1.204   2.042   4.011 -0.7049 -1.0757  0.5680
 4702SOL    HW225566   1.162   2.175   3.984 -0.5234 -0.1525 -0.3759
 4703SOL     OW25567   3.925   4.393   4.773 -0.4735 -0.1462  0.0880
 4703SOL    HW125568   3.856   4.326   4.776 -0.9305  0.2736 -1.0672
 4703SOL    HW225569   3.953   4.397   4.682 -0.1234  2.0006  0.3017
 4704SOL     OW25570   3.208   0.665   3.299 -0.1257  0.3245 -0.4127
 4704SOL    HW125571   3.138   0.686   3.362  1.3466 -0.3953  1.4834
 4704SOL    HW225572   3.201   0.569   3.300  0.1688  0.3083  0.3357
 4705SOL     OW25573   2.046   0.285   6.269 -0.5998  0.1819 -0.3546
 4705SOL    HW125574   2.135   0.250   6.273 -0.7611  0.0482  2.0254
 4705SOL    HW225575   2.002   0.212   6.312  1.4288 -1.3038 -0.7764
 4706SOL     OW25576   4.502   3.977   0.846  0.0061 -0.0834  0.3350
 4706SOL    HW125577   4.512   4.028   0.926 -0.2437  0.1691  0.2049
 4706SOL    HW225578   4.442   4.044   0.813 -1.0811 -1.1650  0.0798
 4707SOL     OW25579   4.398   2.800   7.335  0.7083  0.0809  0.3795
 4707SOL    HW125580   4.305   2.799   7.357  0.5024  0.1625 -0.4832
 4707SOL    HW225581   4.419   2.881   7.288  1.0155  0.2755  0.8527
 4708SOL     OW25582   0.776   2.573   4.350 -0.0699  0.3599 -0.1137
 4708SOL    HW125583   0.808   2.565   4.260  0.9862 -0.6564  0.3433
 4708SOL    HW225584   0.725   2.492   4.346 -1.7478  1.3778  0.8287
 4709SOL     OW25585   4.600   2.457   1.589 -0.1663 -0.3387  0.0852
 4709SOL    HW125586   4.601   2.411   1.673 -2.4658 -1.2628 -0.3901
 4709SOL    HW225587   4.507   2.458   1.567 -0.2844 -2.3420  0.4808
 4710SOL     OW25588   4.343   2.156   6.890 -0.2570 -0.2185 -0.5676
 4710SOL    HW125589   4.290   2.235   6.902  0.9064  0.4621  0.0428
 4710SOL    HW225590   4.316   2.119   6.806 -0.5202  0.2685 -0.7009
 4711SOL     OW25591   2.493   2.968  10.837 -1.0491 -0.3407  0.0672
 4711SOL    HW125592   2.433   2.937  10.905 -0.2950  1.4181  1.5402
 4711SOL    HW225593   2.431   2.971  10.764 -0.4311  0.4463 -0.4222
 4712SOL     OW25594   4.532   2.822  15.054 -0.0812  0.5276  0.2667
 4712SOL    HW125595   4.578   2.745  15.022 -1.3692 -0.1678  0.0916
 4712SOL    HW225596   4.594   2.856  15.118  3.1227  1.5383 -3.4170
 4713SOL     OW25597   2.658   3.247   3.971  0.0370  0.1366 -0.3382
 4713SOL    HW125598   2.704   3.322   4.008  1.2085 -0.3672 -0.7581
 4713SOL    HW225599   2.613   3.211   4.047  0.3299  1.6200  0.5385
 4714SOL     OW25600   2.803   3.537  10.805  0.0640  0.3803 -0.4162
 4714SOL    HW125601   2.758   3.483  10.740 -0.9061  1.4956 -0.6686
 4714SOL    HW225602   2.730   3.586  10.843  0.2748 -0.2741  0.8311
 4715SOL     OW25603   2.315   3.343   5.226  0.1153  0.4068  0.2249
 4715SOL    HW125604   2.308   3.247   5.228  0.2262  0.3829 -0.8660
 4715SOL    HW225605   2.316   3.346   5.131 -1.3265  0.0969  0.1900
 4716SOL     OW25606   3.577   2.288   5.439  0.3964 -0.7971  0.3367
 4716SOL    HW125607   3.535   2.224   5.495 -3.1783  0.9649 -0.3008
 4716SOL    HW225608   3.551   2.375   5.470  2.2685  0.0499 -0.4701
 4717SOL     OW25609   0.934   1.874   6.721  0.8578  0.6562 -0.0366
 4717SOL    HW125610   0.900   1.933   6.654  1.9720  2.6623  1.1841
 4717SOL    HW225611   0.911   1.927   6.797 -2.2554 -2.6290  1.3063
 4718SOL     OW25612   1.111   1.733   3.590 -0.1093 -0.1835  0.7225
 4718SOL    HW125613   1.097   1.663   3.654  2.0432  0.4866  1.9128
 4718SOL    HW225614   1.026   1.751   3.549  0.4495  0.5160 -0.1322
 4719SOL     OW25615   0.238   2.880  15.279  0.7005  0.1140 -0.3670
 4719SOL    HW125616   0.252   2.903  15.187  1.7076  1.7408  0.1930
 4719SOL    HW225617   0.181   2.953  15.304  0.2048  0.3118 -2.0475
 4720SOL     OW25618   3.535   0.297   5.352 -0.0430  0.2820  0.4138
 4720SOL    HW125619   3.534   0.391   5.338  1.2150  0.3765  0.9216
 4720SOL    HW225620   3.555   0.286   5.445  1.2636  2.7815  0.4201
 4721SOL     OW25621   0.409   3.277   7.376  0.2048  0.6988  0.4344
 4721SOL    HW125622   0.396   3.311   7.288 -0.0554  1.7314  0.8641
 4721SOL    HW225623   0.504   3.268   7.382  0.0116 -0.9373  1.2046
 4722SOL     OW25624   1.179   4.090   4.154 -0.1426  0.3038  0.3421
 4722SOL    HW125625   1.159   4.133   4.070  2.6096  0.9854  0.0417
 4722SOL    HW225626   1.104   4.033   4.169 -0.3461  1.3122  3.0798
 4723SOL     OW25627   4.557   2.814   9.803 -0.4604 -0.1739 -0.1671
 4723SOL    HW125628   4.636   2.779   9.844 -0.2893  0.4854  0.0623
 4723SOL    HW225629   4.500   2.738   9.813  1.9074 -1.6889  1.9752
 4724SOL     OW25630   0.626   1.105   4.363 -0.4966 -0.6548  0.0208
 4724SOL    HW125631   0.565   1.170   4.398  0.5097  0.7425 -0.7858
 4724SOL    HW225632   0.565   1.048   4.316 -0.9142 -0.7535  0.6862
 4725SOL     OW25633   1.973   2.378   5.612  0.8420  0.0481  0.1835
 4725SOL    HW125634   1.921   2.322   5.554  3.3203 -1.2379 -0.8252
 4725SOL    HW225635   1.906   2.429   5.657  0.4247  0.1856 -0.5940
 4726SOL     OW25636   3.201   2.794   7.209  0.0114  0.2029 -0.0676
 4726SOL    HW125637   3.178   2.881   7.177  1.1789  0.9746  1.2193
 4726SOL    HW225638   3.118   2.779   7.255 -0.5517  0.7359 -0.9108
 4727SOL     OW25639   2.431   1.184   6.112  0.1151  0.2012 -0.0945
 4727SOL    HW125640   2.420   1.213   6.022  1.6147 -1.5112 -0.8137
 4727SOL    HW225641   2.343   1.206   6.144 -0.0104  0.9598 -0.9942
 4728SOL     OW25642   3.870   0.673  15.703  0.1061 -0.1951  0.0128
 4728SOL    HW125643   3.805   0.613  15.739 -0.1612  0.0624 -0.0459
 4728SOL    HW225644   3.955   0.637  15.729  0.0284 -0.7062 -0.4447
 4729SOL     OW25645   2.280   2.439   7.277 -0.4455 -0.6383  0.4348
 4729SOL    HW125646   2.299   2.481   7.361 -0.6231 -0.3091  0.3115
 4729SOL    HW225647   2.251   2.514   7.226 -0.3097 -1.1699 -0.4139
 4730SOL     OW25648   3.831   3.282   9.424  0.0790 -0.2462 -0.0763
 4730SOL    HW125649   3.856   3.335   9.499 -0.2133 -1.6620  1.0233
 4730SOL    HW225650   3.908   3.291   9.368  1.7258 -2.9333  1.7744
 4731SOL     OW25651   3.306   4.685  12.772 -0.5857 -0.1124 -0.0154
 4731SOL    HW125652   3.247   0.038  12.791 -0.2438 -0.1430  1.1983
 4731SOL    HW225653   3.310   4.636  12.855  0.2932 -1.8814 -1.0933
 4732SOL     OW25654   0.116   1.190   8.346  0.0584  0.0856 -0.4781
 4732SOL    HW125655   0.026   1.183   8.313 -0.7966 -3.1213  2.4973
 4732SOL    HW225656   0.158   1.236   8.273  0.8818 -0.2649 -0.2268
 4733SOL     OW25657   4.222   4.369   3.502 -0.1783  0.4258  0.0239
 4733SOL    HW125658   4.260   4.284   3.525 -1.7277 -0.4826 -0.7607
 4733SOL    HW225659   4.254   4.420   3.576  0.1293  1.6390 -0.9526
 4734SOL     OW25660   0.977   0.211   8.017  0.0917 -0.3567  0.1775
 4734SOL    HW125661   1.008   0.120   8.021 -0.9143 -0.6953  0.4805
 4734SOL    HW225662   0.965   0.225   7.924  0.7279  0.1848  0.1822
 4735SOL     OW25663   1.653   0.501   8.017  0.3285  0.2028 -0.3521
 4735SOL    HW125664   1.718   0.477   8.084 -1.9731 -3.2436  0.6203
 4735SOL    HW225665   1.594   0.426   8.021  2.1131 -0.9302  4.7898
 4736SOL     OW25666   0.060   1.797   6.499  0.0003 -0.2325 -0.1025
 4736SOL    HW125667   0.120   1.729   6.466 -0.9926 -2.1611  2.0329
 4736SOL    HW225668   0.012   1.743   6.562  0.9475  2.0896  2.6070
 4737SOL     OW25669   1.144   2.429  11.193  0.5205 -0.7367 -0.1218
 4737SOL    HW125670   1.102   2.464  11.115 -0.0012  1.8967  1.3295
 4737SOL    HW225671   1.080   2.371  11.234 -2.8771  1.6671 -2.0373
 4738SOL     OW25672   3.307   4.546   9.745  0.0065  0.1115 -0.3995
 4738SOL    HW125673   3.388   4.534   9.695 -1.0662  2.2240 -2.6908
 4738SOL    HW225674   3.246   4.546   9.671 -0.0193 -2.6891 -0.3606
 4739SOL     OW25675   0.869   1.619  13.839 -0.3049  0.2067 -0.1209
 4739SOL    HW125676   0.781   1.584  13.849 -0.2524  0.5783  1.7183
 4739SOL    HW225677   0.915   1.537  13.856 -0.8168  0.4179  2.3511
 4740SOL     OW25678   2.904   2.871   4.945  0.0974  0.5059  0.0212
 4740SOL    HW125679   2.972   2.919   4.992  0.0432 -0.9704  1.5759
 4740SOL    HW225680   2.950   2.812   4.886 -0.1855  1.1347 -0.8364
 4741SOL     OW25681   1.783   4.293   1.342 -0.0134 -0.7145  0.1851
 4741SOL    HW125682   1.767   4.317   1.433 -0.1300  1.3340 -0.3908
 4741SOL    HW225683   1.721   4.222   1.327 -2.1742  1.1451  0.2896
 4742SOL     OW25684   0.868   0.409   9.279  0.0372  0.1797  0.2075
 4742SOL    HW125685   0.909   0.495   9.282  1.1025 -0.3199 -0.0291
 4742SOL    HW225686   0.815   0.431   9.202  1.5835 -0.2409 -0.9804
 4743SOL     OW25687   2.302   3.319   1.799  0.4510 -0.2692  0.0153
 4743SOL    HW125688   2.213   3.333   1.764  1.2106 -2.1690 -2.7148
 4743SOL    HW225689   2.345   3.393   1.757 -1.6568  2.5614  2.8475
 4744SOL     OW25690   1.608   1.325   3.721 -0.1709 -0.1826 -0.3642
 4744SOL    HW125691   1.640   1.410   3.691  2.0840 -0.5767  0.9916
 4744SOL    HW225692   1.590   1.288   3.634  0.1433  0.1561 -0.5718
 4745SOL     OW25693   2.328   4.191   4.530 -0.2528 -0.5470  0.1207
 4745SOL    HW125694   2.235   4.190   4.554  0.2977 -1.1343  2.1739
 4745SOL    HW225695   2.343   4.277   4.490  1.2806 -2.2069 -2.8754
 4746SOL     OW25696   3.973   1.086   0.498 -0.2072 -0.4362 -0.2364
 4746SOL    HW125697   3.921   1.081   0.417 -0.8675 -0.8960  0.2066
 4746SOL    HW225698   3.910   1.062   0.567 -0.2351  1.4646  0.3856
 4747SOL     OW25699   1.887   4.033   4.872  0.0825 -0.4338 -0.2261
 4747SOL    HW125700   1.910   3.940   4.868 -3.4500 -1.4097  1.5023
 4747SOL    HW225701   1.828   4.041   4.948  0.7506 -1.5568  0.4136
 4748SOL     OW25702   2.265   0.653   4.447  0.4432 -0.2126  0.1700
 4748SOL    HW125703   2.304   0.737   4.469 -0.2324  0.2998 -0.5872
 4748SOL    HW225704   2.171   0.671   4.457  0.3858 -0.8367  0.7743
 4749SOL     OW25705   0.112   4.317  15.437 -0.3928 -0.1130  0.3263
 4749SOL    HW125706   0.044   4.361  15.488  2.8223  2.8768  1.9614
 4749SOL    HW225707   0.170   4.285  15.505  0.4433  2.1619  0.6788
 4750SOL     OW25708   3.258   4.434   6.714 -0.0723  0.0453 -0.3212
 4750SOL    HW125709   3.233   4.440   6.621 -0.0899  1.8988 -0.1881
 4750SOL    HW225710   3.327   4.499   6.706  1.0151 -1.4083 -2.6933
 4751SOL     OW25711   4.089   0.339   2.642 -0.2211  0.2429 -0.6710
 4751SOL    HW125712   4.048   0.299   2.565 -0.3759 -0.6724 -0.1191
 4751SOL    HW225713   4.172   0.301   2.614 -1.3437 -1.0580 -2.1959
 4752SOL     OW25714   2.875   3.316   2.263  0.1279  0.6254 -0.0445
 4752SOL    HW125715   2.881   3.321   2.168  2.4734  2.1387  0.1807
 4752SOL    HW225716   2.858   3.408   2.285  0.7482  0.3833  1.4208
 4753SOL     OW25717   1.634   4.447   7.515 -0.3472  0.2500 -0.5335
 4753SOL    HW125718   1.566   4.385   7.541  0.1947 -0.1789 -0.1517
 4753SOL    HW225719   1.639   4.515   7.582  1.7150 -1.6064  1.1829
 4754SOL     OW25720   2.086   4.422   5.152 -0.4222 -0.2929 -0.1939
 4754SOL    HW125721   2.127   4.509   5.149  0.3998 -0.6869 -0.3301
 4754SOL    HW225722   2.108   4.380   5.069  1.9431  2.6148 -1.0354
 4755SOL     OW25723   1.753   0.494  12.409  0.1406 -0.0894  0.0079
 4755SOL    HW125724   1.810   0.417  12.417 -1.5547 -1.3562 -0.0455
 4755SOL    HW225725   1.672   0.445  12.393  0.7593 -1.3537  0.7206
 4756SOL     OW25726   4.052   3.271   9.259  0.1201 -0.1825 -0.1290
 4756SOL    HW125727   4.063   3.259   9.165 -1.7472  1.6904 -0.5627
 4756SOL    HW225728   4.136   3.298   9.298 -0.1841 -2.4760  2.1460
 4757SOL     OW25729   4.293   4.044   6.015 -0.4794  0.2618 -0.2035
 4757SOL    HW125730   4.232   4.082   5.951 -1.2461 -0.6493  0.0027
 4757SOL    HW225731   4.362   4.110   6.016 -2.5090  2.3847  0.3762
 4758SOL     OW25732   2.566   0.125   5.747  0.0654  0.5754 -0.9402
 4758SOL    HW125733   2.504   0.172   5.691  0.6170  0.8060 -1.3503
 4758SOL    HW225734   2.622   0.081   5.683 -0.5920 -1.9703  0.2148
 4759SOL     OW25735   2.281   1.942   3.810 -0.3305 -0.0274  0.2545
 4759SOL    HW125736   2.266   2.011   3.875 -3.2392  0.0333 -0.4926
 4759SOL    HW225737   2.377   1.946   3.813 -0.2768 -0.2749 -1.0866
 4760SOL     OW25738   0.633   3.177   2.808 -0.3345 -0.3954  0.4890
 4760SOL    HW125739   0.611   3.154   2.898  3.1605 -0.3301  1.3660
 4760SOL    HW225740   0.571   3.136   2.747  0.6277 -1.1319  0.0102
 4761SOL     OW25741   2.521   3.612   3.463  0.2333 -0.3345  0.0112
 4761SOL    HW125742   2.577   3.557   3.518  0.9927  1.4458  1.0057
 4761SOL    HW225743   2.484   3.666   3.533  1.6659 -0.1347  0.6111
 4762SOL     OW25744   3.472   2.553  16.872  0.1279  0.4416  0.3918
 4762SOL    HW125745   3.558   2.515  16.853  0.2352  1.7753 -1.7530
 4762SOL    HW225746   3.406   2.492  16.841 -1.2420  1.9315  0.3738
 4763SOL     OW25747   0.131   0.725   3.965 -0.0943 -0.0582  0.0129
 4763SOL    HW125748   0.203   0.674   4.004  4.0996  4.6490 -1.5136
 4763SOL    HW225749   0.072   0.653   3.941 -1.9490  1.7665 -0.8484
 4764SOL     OW25750   4.350   1.866   6.956 -0.0210  0.7408 -0.2899
 4764SOL    HW125751   4.273   1.906   6.997 -1.5789 -0.4911 -2.0379
 4764SOL    HW225752   4.328   1.774   6.974  0.1993  0.2380 -2.5937
 4765SOL     OW25753   3.316   1.380  16.045  0.5390 -0.2593  0.3898
 4765SOL    HW125754   3.290   1.465  16.008  0.7304 -0.0384  0.7635
 4765SOL    HW225755   3.240   1.363  16.101 -0.9232  0.9611 -1.2426
 4766SOL     OW25756   1.529   3.281   7.214 -0.1830 -0.2638  0.1925
 4766SOL    HW125757   1.450   3.296   7.161 -0.7042 -1.3177  0.6634
 4766SOL    HW225758   1.510   3.187   7.218 -0.9268 -0.1437 -0.5671
 4767SOL     OW25759   2.583   0.664   5.112 -0.1218  0.4092 -0.1850
 4767SOL    HW125760   2.515   0.699   5.055  0.8999  0.4389 -1.3874
 4767SOL    HW225761   2.587   0.576   5.074  1.1274  0.5167 -0.3191
 4768SOL     OW25762   3.325   3.111   6.936  0.2835  0.6905 -0.0655
 4768SOL    HW125763   3.321   3.019   6.908 -0.0085  0.1587  1.7510
 4768SOL    HW225764   3.356   3.106   7.026  0.8274 -3.5062 -0.4749
 4769SOL     OW25765   0.127   2.834   6.677  0.4095 -0.1305 -0.0719
 4769SOL    HW125766   0.032   2.842   6.683  0.3343 -0.9207 -0.2580
 4769SOL    HW225767   0.139   2.740   6.660  0.9767 -0.1281  0.3010
 4770SOL     OW25768   2.146   2.280  14.590 -0.2650  0.1397 -0.0470
 4770SOL    HW125769   2.228   2.237  14.566 -0.5796 -0.7458  0.4445
 4770SOL    HW225770   2.139   2.263  14.684  2.6249 -2.6942 -0.3638
 4771SOL     OW25771   2.096   2.554   8.382 -0.0481  0.1928  0.6614
 4771SOL    HW125772   2.075   2.614   8.454  1.2473 -0.0089  1.2094
 4771SOL    HW225773   2.191   2.548   8.386 -0.0032 -1.3672 -2.9699
 4772SOL     OW25774   0.221   0.341   9.048 -0.2780 -0.1747  0.3757
 4772SOL    HW125775   0.182   0.428   9.053  0.1568  0.0953 -0.9077
 4772SOL    HW225776   0.203   0.318   8.957  1.0722 -1.9994  0.5731
 4773SOL     OW25777   1.217   2.065   3.501  0.2493  0.3295  0.0721
 4773SOL    HW125778   1.212   1.976   3.465 -0.3172  0.8361 -1.1031
 4773SOL    HW225779   1.167   2.121   3.441 -0.7330 -1.4582 -0.7795
 4774SOL     OW25780   3.780   2.662   5.730  0.0021  0.3962  0.1726
 4774SOL    HW125781   3.696   2.706   5.714  0.8263  1.5648 -0.9652
 4774SOL    HW225782   3.787   2.607   5.653  0.9470 -0.2370  0.7152
 4775SOL     OW25783   2.579   0.928  11.735 -0.1793  0.4182 -0.1254
 4775SOL    HW125784   2.617   1.015  11.722  1.1160 -0.3151 -1.2483
 4775SOL    HW225785   2.485   0.946  11.732 -0.2353  0.0534 -0.5217
 4776SOL     OW25786   0.800   2.738  12.814  0.0508  0.1502 -0.7951
 4776SOL    HW125787   0.727   2.756  12.755 -2.1193  2.4686  2.5892
 4776SOL    HW225788   0.813   2.825  12.851 -4.2416  0.1656  0.7035
 4777SOL     OW25789   3.517   2.754  12.629  0.5617 -0.6035  0.4747
 4777SOL    HW125790   3.443   2.715  12.675  0.9017 -1.6308  0.1638
 4777SOL    HW225791   3.488   2.781  12.542  2.0401  2.0135  0.7969
 4778SOL     OW25792   3.902   3.904   8.420  0.0984  0.3426 -0.4057
 4778SOL    HW125793   3.853   3.842   8.367  2.2563 -1.2370 -0.5731
 4778SOL    HW225794   3.990   3.895   8.382  0.4204  2.3152 -0.1300
 4779SOL     OW25795   0.576   2.269   8.307  0.3030 -0.1408 -0.6616
 4779SOL    HW125796   0.495   2.278   8.256  0.4989 -1.7815 -1.2571
 4779SOL    HW225797   0.624   2.346   8.276  0.2747 -0.2897 -1.0649
 4780SOL     OW25798   0.456   2.595  11.210  0.8358 -1.3339  0.1660
 4780SOL    HW125799   0.473   2.628  11.121 -0.5967 -2.0089 -0.3429
 4780SOL    HW225800   0.535   2.548  11.238  1.8389  0.6998  0.7790
 4781SOL     OW25801   1.386   3.059   9.756  0.0786  0.2897 -0.1168
 4781SOL    HW125802   1.362   3.006   9.832  1.5252  0.5401  0.5147
 4781SOL    HW225803   1.304   3.107   9.746  1.0809  1.7874 -1.3247
 4782SOL     OW25804   3.452   4.231   4.596  0.1860  0.2283  0.1748
 4782SOL    HW125805   3.468   4.321   4.567  1.5912  0.4974  1.7904
 4782SOL    HW225806   3.358   4.234   4.615  0.2623 -0.2805  0.6122
 4783SOL     OW25807   1.834   1.463   7.706  0.7312 -0.5693 -0.4133
 4783SOL    HW125808   1.817   1.543   7.754  1.1704 -1.5850  1.4237
 4783SOL    HW225809   1.874   1.502   7.629  0.6297 -0.8022 -0.5875
 4784SOL     OW25810   4.595   3.680   6.785 -0.1375  0.2103  0.0073
 4784SOL    HW125811   4.536   3.715   6.718  0.1733  1.8129  0.5579
 4784SOL    HW225812   4.594   3.752   6.848  0.4563  0.4897 -0.2880
 4785SOL     OW25813   1.394   1.526   5.775 -0.0239  0.6363  0.1433
 4785SOL    HW125814   1.367   1.489   5.690 -0.4534  2.1314 -0.3780
 4785SOL    HW225815   1.448   1.459   5.817  1.7869 -0.0369 -3.2390
 4786SOL     OW25816   2.875   0.485   4.189  0.1870 -0.0450  0.1810
 4786SOL    HW125817   2.820   0.426   4.139  0.2065  1.1683 -1.2681
 4786SOL    HW225818   2.938   0.506   4.120  0.4492  0.1170  0.4653
 4787SOL     OW25819   1.415   4.254   5.699  0.1115  0.1554 -0.3058
 4787SOL    HW125820   1.384   4.341   5.676  0.9576  0.6815  0.5490
 4787SOL    HW225821   1.471   4.234   5.624  1.1545  0.4938  0.3884
 4788SOL     OW25822   0.777   4.335   3.849 -0.0019 -0.5827  0.1276
 4788SOL    HW125823   0.774   4.431   3.847  1.9993 -0.5605 -1.2418
 4788SOL    HW225824   0.690   4.303   3.875 -0.1739 -1.2234 -1.2550
 4789SOL     OW25825   1.845   2.885  14.663  0.6254 -0.6170  0.2079
 4789SOL    HW125826   1.883   2.824  14.600  1.2468 -0.4427  0.4128
 4789SOL    HW225827   1.775   2.832  14.701  0.8991 -0.6821  0.6180
 4790SOL     OW25828   4.234   3.928  10.381 -0.2755 -0.0352  0.8943
 4790SOL    HW125829   4.330   3.928  10.382 -0.2792 -1.6191  1.0571
 4790SOL    HW225830   4.210   4.021  10.381  2.4860  0.6834  2.6282
 4791SOL     OW25831   0.162   0.258   2.904  0.6323 -0.3899 -0.3342
 4791SOL    HW125832   0.212   0.216   2.834 -1.8812 -1.7857 -1.2867
 4791SOL    HW225833   0.214   0.246   2.983 -2.4485 -0.6390  1.6868
 4792SOL     OW25834   3.674   2.045   1.539 -0.0001 -0.3909 -0.7820
 4792SOL    HW125835   3.589   2.000   1.537  0.3532 -1.0532 -0.7523
 4792SOL    HW225836   3.722   1.999   1.608 -1.5506  1.7467  1.7168
 4793SOL     OW25837   3.104   0.354  14.733 -0.2663 -0.1729 -0.1576
 4793SOL    HW125838   3.163   0.283  14.705 -0.7122 -0.6467  0.1059
 4793SOL    HW225839   3.048   0.356  14.655  0.4732  0.5245 -0.6652
 4794SOL     OW25840   4.683   4.004   5.826 -0.1715 -0.1314  0.3247
 4794SOL    HW125841   4.684   4.015   5.921  1.3431  1.2349  0.1613
 4794SOL    HW225842   4.705   4.093   5.796  2.4353 -0.4698  1.2152
 4795SOL     OW25843   3.205   3.169   4.500 -0.0726  0.2634  0.3238
 4795SOL    HW125844   3.252   3.090   4.472 -0.1884  0.4877 -0.5228
 4795SOL    HW225845   3.222   3.232   4.430 -1.4407 -1.4173 -1.5319
 4796SOL     OW25846   2.898   2.394   8.576 -0.7626 -0.3793  0.3546
 4796SOL    HW125847   2.869   2.479   8.609 -1.1182 -0.6061  0.6257
 4796SOL    HW225848   2.991   2.415   8.581 -0.8625 -0.0277  0.8250
 4797SOL     OW25849   2.222   1.484  13.601  0.2492  0.2620 -0.0694
 4797SOL    HW125850   2.194   1.449  13.516  0.0591 -2.0075  0.9416
 4797SOL    HW225851   2.221   1.577  13.575 -0.2011  0.2449 -0.1076
 4798SOL     OW25852   4.333   1.916   4.286 -0.0734  0.4118 -0.0563
 4798SOL    HW125853   4.343   1.994   4.231  0.8810  1.7347  2.0052
 4798SOL    HW225854   4.253   1.875   4.252 -1.6020  2.6067  0.8579
 4799SOL     OW25855   0.221   1.163   3.628 -0.3275 -0.0535 -0.4674
 4799SOL    HW125856   0.166   1.111   3.569 -0.3232 -0.4568 -0.1214
 4799SOL    HW225857   0.207   1.114   3.709  0.6576  0.4056 -0.0205
 4800SOL     OW25858   2.211   3.048  16.476 -0.0170 -0.4962 -0.2998
 4800SOL    HW125859   2.221   2.955  16.460 -0.0075 -0.7847  1.3767
 4800SOL    HW225860   2.259   3.056  16.559  0.4911  0.0758 -0.6461
 4801SOL     OW25861   1.569   2.706   2.565 -0.1018 -0.3637  0.3511
 4801SOL    HW125862   1.651   2.740   2.529 -1.3250  1.5896 -0.5862
 4801SOL    HW225863   1.573   2.758   2.645 -0.1403 -1.9716  1.4048
 4802SOL     OW25864   4.492   3.832  15.933  0.1575 -0.8245 -0.2493
 4802SOL    HW125865   4.486   3.853  16.026 -0.7674 -2.6646  0.1118
 4802SOL    HW225866   4.453   3.903  15.883 -0.1934  0.7256  2.2589
 4803SOL     OW25867   2.845   2.512  15.445  0.1123 -0.5973  1.1905
 4803SOL    HW125868   2.843   2.438  15.506  0.7211 -1.3051  0.3407
 4803SOL    HW225869   2.935   2.504  15.414  0.5487  2.0576  1.7693
 4804SOL     OW25870   3.032   4.501   4.836 -0.0978  0.0388  0.0960
 4804SOL    HW125871   3.031   4.526   4.744  0.3244 -0.4111 -0.0330
 4804SOL    HW225872   3.026   4.588   4.875 -1.9826  0.5013 -1.2004
 4805SOL     OW25873   0.680   2.691  14.682  0.1836  0.2314  0.1584
 4805SOL    HW125874   0.674   2.607  14.728 -2.4077  0.1364 -0.3698
 4805SOL    HW225875   0.624   2.749  14.735 -1.1272 -2.1229  1.3659
 4806SOL     OW25876   3.183   1.742  10.520  0.1740 -0.0454 -0.3418
 4806SOL    HW125877   3.222   1.810  10.465  0.2135  0.7155  0.6427
 4806SOL    HW225878   3.267   1.727  10.565  0.8426 -2.6369 -2.4281
 4807SOL     OW25879   2.722   2.349  12.894 -0.5762  0.0063  0.0059
 4807SOL    HW125880   2.742   2.424  12.949 -0.1241 -0.6955  0.7895
 4807SOL    HW225881   2.644   2.386  12.851 -1.0284 -1.4969 -0.4670
 4808SOL     OW25882   4.115   0.771   9.279  0.7384 -0.1076 -0.1087
 4808SOL    HW125883   4.128   0.706   9.349  1.9220 -0.1345 -0.3535
 4808SOL    HW225884   4.151   0.731   9.200  1.7521 -0.7629  0.6727
 4809SOL     OW25885   2.248   4.392   7.718 -0.5488  0.4888 -0.6382
 4809SOL    HW125886   2.293   4.474   7.741 -0.1551 -0.0630  0.5729
 4809SOL    HW225887   2.245   4.400   7.623 -0.1852 -0.5647 -0.7318
 4810SOL     OW25888   1.244   3.549  15.850 -0.2320  1.0954  0.2967
 4810SOL    HW125889   1.272   3.467  15.891 -0.2879  0.1987 -1.4748
 4810SOL    HW225890   1.313   3.611  15.875 -0.0474  0.8033  0.5063
 4811SOL     OW25891   1.143   3.205  12.372  0.6105  0.1751  0.3711
 4811SOL    HW125892   1.165   3.141  12.304 -1.3671 -0.0556 -0.0446
 4811SOL    HW225893   1.048   3.196  12.371  0.6387 -0.2316  1.0225
 4812SOL     OW25894   2.482   4.453   2.578 -0.2144 -0.4208  0.1696
 4812SOL    HW125895   2.433   4.372   2.564  0.1922 -0.6619  0.1328
 4812SOL    HW225896   2.555   4.445   2.517 -0.4028 -0.9257  0.0165
 4813SOL     OW25897   3.043   1.532   6.046 -0.3379  0.1761  0.2478
 4813SOL    HW125898   3.092   1.478   5.984 -0.9898 -0.8234  0.5838
 4813SOL    HW225899   3.068   1.619   6.017 -2.8326 -0.2963 -3.3451
 4814SOL     OW25900   2.944   1.166   6.760 -0.2488 -1.1083  0.0018
 4814SOL    HW125901   3.011   1.104   6.788 -1.8148 -3.9807 -2.6228
 4814SOL    HW225902   2.991   1.241   6.722  0.5649 -1.8180 -0.3715
 4815SOL     OW25903   2.491   3.983   8.067 -0.1091  1.3585  0.2350
 4815SOL    HW125904   2.541   4.064   8.061  2.1718  0.0834  1.9867
 4815SOL    HW225905   2.456   3.990   8.155 -0.0795  0.6947  0.3005
 4816SOL     OW25906   0.842   1.314  14.009  0.2007 -0.0260 -0.2224
 4816SOL    HW125907   0.833   1.222  14.032  2.0586  0.0151  0.6339
 4816SOL    HW225908   0.908   1.307  13.940  1.4790  0.0622  1.0144
 4817SOL     OW25909   1.301   3.200   3.242  0.2655 -0.0519  0.1459
 4817SOL    HW125910   1.361   3.220   3.314  0.9656 -1.7977  0.0411
 4817SOL    HW225911   1.368   3.150   3.196  0.8088 -0.6563  1.6134
 4818SOL     OW25912   1.255   2.464   3.938  0.1073  0.1229 -0.4762
 4818SOL    HW125913   1.261   2.451   3.844  1.0523  2.3016 -0.7055
 4818SOL    HW225914   1.247   2.559   3.937  1.9639  0.3033  1.8981
 4819SOL     OW25915   2.766   0.440   8.022 -0.2671  0.3328 -0.6084
 4819SOL    HW125916   2.857   0.469   8.035 -0.7758  0.4066  2.7199
 4819SOL    HW225917   2.781   0.364   8.077 -0.9275 -0.1282 -1.0718
 4820SOL     OW25918   2.713   2.063   1.863  0.0018 -0.1531 -0.0339
 4820SOL    HW125919   2.804   2.092   1.857  1.0658 -2.5263  4.6335
 4820SOL    HW225920   2.706   1.971   1.839 -0.6617 -0.2803  0.6482
 4821SOL     OW25921   3.851   1.736   6.822 -0.0580 -0.5229 -0.4951
 4821SOL    HW125922   3.841   1.641   6.811  0.5678 -0.6493  0.0314
 4821SOL    HW225923   3.943   1.734   6.848 -0.8379 -2.5549  2.2092
 4822SOL     OW25924   2.561   4.199   2.019 -0.0619  0.2176 -0.0347
 4822SOL    HW125925   2.564   4.115   1.974 -0.2314  1.0136 -1.5556
 4822SOL    HW225926   2.614   4.181   2.096 -1.1686 -0.8633  0.4709
 4823SOL     OW25927   1.206   0.320   2.971  0.3679 -0.2362 -0.2214
 4823SOL    HW125928   1.138   0.309   3.036  0.4884 -1.5752 -0.3122
 4823SOL    HW225929   1.233   0.230   2.953  0.7163 -0.1011 -0.3799
 4824SOL     OW25930   1.835   4.371   2.121 -0.0201 -0.0572  0.2409
 4824SOL    HW125931   1.857   4.365   2.028 -1.6815  1.3132 -0.2348
 4824SOL    HW225932   1.744   4.395   2.104  0.0762  0.3104  0.2441
 4825SOL     OW25933   1.664   0.391   4.397 -0.0244  0.2519 -0.3429
 4825SOL    HW125934   1.673   0.382   4.302 -2.1165  0.1231 -0.5256
 4825SOL    HW225935   1.611   0.467   4.418 -0.2606  0.3792 -1.3947
 4826SOL     OW25936   0.695   4.574  13.043  0.5688 -0.2132  0.8673
 4826SOL    HW125937   0.725   4.504  13.101  0.4440 -0.4586  0.6376
 4826SOL    HW225938   0.761   4.562  12.974 -1.0160 -1.2670 -0.4641
 4827SOL     OW25939   0.984   2.261   8.170  0.5044 -0.7438  0.3550
 4827SOL    HW125940   1.047   2.268   8.241 -0.4388  0.5668  1.0589
 4827SOL    HW225941   0.906   2.210   8.193  0.0321 -0.7947 -1.3161
 4828SOL     OW25942   2.767   4.112   5.574  0.3833 -0.2584  0.4736
 4828SOL    HW125943   2.747   4.021   5.551  0.8603  0.2105 -1.8258
 4828SOL    HW225944   2.826   4.134   5.502 -2.7369  1.8065 -1.4679
 4829SOL     OW25945   4.697   3.242  17.632 -0.1872  0.0393  0.4312
 4829SOL    HW125946   4.702   3.197   0.035  3.2743 -1.1407 -0.3896
 4829SOL    HW225947   0.071   3.240  17.611 -0.2499 -1.2212  0.2605
 4830SOL     OW25948   3.879   3.624   7.638  0.2288  0.0272  0.1307
 4830SOL    HW125949   3.899   3.715   7.620  0.5615 -0.1904 -0.6112
 4830SOL    HW225950   3.887   3.576   7.556 -0.8000 -1.3931  0.8560
 4831SOL     OW25951   0.794   1.831   1.275 -0.1441  0.1207 -0.1250
 4831SOL    HW125952   0.846   1.754   1.298 -1.7940 -0.4670  1.5672
 4831SOL    HW225953   0.795   1.872   1.361  2.0866 -0.1078 -0.0426
 4832SOL     OW25954   2.398   4.401  15.991 -0.0482 -0.0092 -0.3825
 4832SOL    HW125955   2.486   4.403  16.027  0.4136  1.1909 -1.5354
 4832SOL    HW225956   2.414   4.417  15.898 -1.1563 -0.9845 -0.7402
 4833SOL     OW25957   1.844   3.278   9.561 -0.0381  0.0647  0.1500
 4833SOL    HW125958   1.832   3.343   9.492  0.8410 -0.7638 -0.7830
 4833SOL    HW225959   1.871   3.208   9.502 -2.0086 -0.0751 -0.6021
 4834SOL     OW25960   2.785   1.929   7.103 -0.3498 -0.1299  0.0078
 4834SOL    HW125961   2.746   1.843   7.096 -0.0249 -0.3311  0.6165
 4834SOL    HW225962   2.855   1.909   7.166 -1.8945 -1.2377  1.3501
 4835SOL     OW25963   4.172   4.073   2.020  0.4639  0.0213 -0.0608
 4835SOL    HW125964   4.203   4.014   1.951  0.2378  0.6952 -0.7373
 4835SOL    HW225965   4.086   4.032   2.029  1.2511 -0.9024  3.4743
 4836SOL     OW25966   1.143   2.862   2.890 -0.0968 -0.1248  0.1969
 4836SOL    HW125967   1.164   2.822   2.975  0.9435  0.4771  0.2231
 4836SOL    HW225968   1.106   2.944   2.921  1.3776  0.4357  0.4664
 4837SOL     OW25969   1.674   2.535   4.292  0.6536 -0.8074  0.1635
 4837SOL    HW125970   1.727   2.504   4.219  1.3829  0.4354  0.1691
 4837SOL    HW225971   1.602   2.472   4.278 -0.9585  0.0259  4.5493
 4838SOL     OW25972   1.952   0.393   0.528  0.2210  0.4203 -0.1335
 4838SOL    HW125973   1.911   0.312   0.559 -1.9086  2.0372  1.2155
 4838SOL    HW225974   2.041   0.382   0.563  0.4261 -1.2271 -1.1605
 4839SOL     OW25975   3.220   2.199   1.964 -0.4256 -0.2155  0.1336
 4839SOL    HW125976   3.141   2.184   1.912  0.5782 -1.6558 -0.9768
 4839SOL    HW225977   3.233   2.114   2.006 -0.6144  1.7799  4.1836
 4840SOL     OW25978   2.592   1.976  12.761  0.9594 -0.5117  0.4585
 4840SOL    HW125979   2.641   2.007  12.685 -0.6445 -0.3638 -0.5240
 4840SOL    HW225980   2.596   2.060  12.806 -1.4078  0.6816 -1.5532
 4841SOL     OW25981   1.824   2.538   9.876 -0.2163  0.0138 -0.3557
 4841SOL    HW125982   1.857   2.466   9.822 -1.9939 -0.1568 -1.2318
 4841SOL    HW225983   1.734   2.541   9.842  0.0899  0.3310 -1.1493
 4842SOL     OW25984   4.542   1.355  16.933 -0.7947  0.4534 -0.1085
 4842SOL    HW125985   4.450   1.341  16.912 -0.7667  0.1922 -0.0479
 4842SOL    HW225986   4.586   1.297  16.871 -0.7139  0.1593  0.2239
 4843SOL     OW25987   4.642   2.215   5.954  0.3357  0.8017  0.1353
 4843SOL    HW125988   0.004   2.229   6.002  0.5942 -0.8946  0.2179
 4843SOL    HW225989   4.586   2.275   6.002 -3.1172 -2.0209 -0.4048
 4844SOL     OW25990   0.184   2.925   8.934 -0.2379 -0.0413 -0.1250
 4844SOL    HW125991   0.254   2.901   8.995  3.0452  1.5083 -3.3084
 4844SOL    HW225992   0.227   2.899   8.853 -2.7259 -1.7904 -0.8839
 4845SOL     OW25993   1.029   2.284   3.848  0.1772  0.5165  1.0644
 4845SOL    HW125994   0.975   2.295   3.770  1.3259 -0.4584  0.1196
 4845SOL    HW225995   1.116   2.309   3.817  0.2647  0.3531  1.1768
 4846SOL     OW25996   4.547   1.738   3.211  0.5515 -0.2302 -0.2400
 4846SOL    HW125997   4.628   1.787   3.224  0.0351  0.3006  0.9410
 4846SOL    HW225998   4.537   1.753   3.117 -2.6952 -1.3710 -0.0824
 4847SOL     OW25999   2.052   2.154  13.227 -0.4189 -0.5928  0.5680
 4847SOL    HW126000   2.116   2.158  13.155 -0.2429  1.6626  0.8489
 4847SOL    HW226001   2.049   2.058  13.227  2.4728 -0.6862 -0.5452
 4848SOL     OW26002   2.352   4.228  10.536 -0.2919 -0.1228  0.1287
 4848SOL    HW126003   2.362   4.321  10.556 -0.3944 -0.2693  0.8735
 4848SOL    HW226004   2.442   4.211  10.508  0.2507  2.5873  0.2232
 4849SOL     OW26005   0.048   3.031   4.723  0.1284  0.0700 -0.6848
 4849SOL    HW126006   0.132   3.045   4.767 -0.4924  2.3827 -0.2583
 4849SOL    HW226007   0.072   3.024   4.631  1.3653 -0.1971 -0.3458
 4850SOL     OW26008   4.055   4.574   3.390 -0.1069 -0.4346 -0.0857
 4850SOL    HW126009   4.102   4.502   3.431 -0.3213 -0.0004  0.9174
 4850SOL    HW226010   3.995   4.601   3.460 -0.6440 -0.4212 -0.5477
 4851SOL     OW26011   3.027   1.224   3.443 -0.0906 -0.0321  0.4359
 4851SOL    HW126012   3.069   1.163   3.383 -0.8283  0.0890 -0.2012
 4851SOL    HW226013   3.106   1.236   3.496 -0.7517 -3.0141  2.1237
 4852SOL     OW26014   1.975   0.034   2.703  0.2855  0.1370  0.1277
 4852SOL    HW126015   1.948   0.024   2.794 -0.3648 -0.7930 -0.1684
 4852SOL    HW226016   2.069   0.047   2.717  0.7863 -1.2764 -1.8431
 4853SOL     OW26017   1.456   4.376   8.233 -0.6994 -0.0996  0.3353
 4853SOL    HW126018   1.493   4.440   8.173 -2.9646 -0.9823 -2.0110
 4853SOL    HW226019   1.539   4.344   8.268 -1.1372 -0.0017  1.4892
 4854SOL     OW26020   1.320   2.173  15.518 -0.1190 -0.2056  0.3482
 4854SOL    HW126021   1.347   2.160  15.609 -1.1916 -1.4897  0.4903
 4854SOL    HW226022   1.401   2.159  15.469  0.3375  0.1033  1.0061
 4855SOL     OW26023   4.344   1.585  10.440 -0.0215 -0.0714 -0.7815
 4855SOL    HW126024   4.346   1.658  10.378 -0.0797 -0.0425 -0.7500
 4855SOL    HW226025   4.286   1.524  10.394 -2.1419  2.3621 -1.3554
 4856SOL     OW26026   3.479   0.692  10.923  0.3299  0.0667 -0.5459
 4856SOL    HW126027   3.518   0.621  10.873 -0.8144  0.0803 -1.4466
 4856SOL    HW226028   3.425   0.645  10.987 -0.5328  0.9342 -0.6265
 4857SOL     OW26029   4.301   2.243   8.008  0.5951  0.3271 -0.1471
 4857SOL    HW126030   4.268   2.299   8.079 -1.1382 -0.7244 -0.1387
 4857SOL    HW226031   4.314   2.159   8.052  1.0085  1.5366  2.0582
 4858SOL     OW26032   1.997   3.294  15.018  0.4554 -0.0137  0.2718
 4858SOL    HW126033   2.034   3.324  15.101 -0.9341  1.3185  0.4099
 4858SOL    HW226034   1.976   3.205  15.046  1.3043 -0.7199 -1.3794
 4859SOL     OW26035   4.247   4.088  15.592  0.2571  0.3227  0.0731
 4859SOL    HW126036   4.189   4.163  15.583 -1.0642 -0.5747  1.1984
 4859SOL    HW226037   4.311   4.103  15.522  0.7318  1.0337  0.6588
 4860SOL     OW26038   2.198   0.492  11.731 -0.1372 -0.2209  0.2145
 4860SOL    HW126039   2.233   0.416  11.683 -0.5384 -1.9941  2.7228
 4860SOL    HW226040   2.173   0.551  11.660  0.7588 -0.3268 -0.1886
 4861SOL     OW26041   1.464   0.764   0.899  0.1298 -0.2693 -0.2410
 4861SOL    HW126042   1.515   0.842   0.880 -0.6241 -0.1538 -1.8635
 4861SOL    HW226043   1.381   0.793   0.936  1.0671  3.2197 -0.8723
 4862SOL     OW26044   2.318   2.717   5.838 -0.3652  0.0381  0.0986
 4862SOL    HW126045   2.245   2.696   5.780  0.7309 -0.5292 -1.0861
 4862SOL    HW226046   2.346   2.629   5.863  1.4488  0.8957  1.0770
 4863SOL     OW26047   3.798   2.874   3.449  0.4804 -0.2586 -0.3341
 4863SOL    HW126048   3.768   2.845   3.362  1.3295 -0.1534 -0.6688
 4863SOL    HW226049   3.796   2.969   3.449 -0.9389 -0.2936  0.8169
 4864SOL     OW26050   0.045   2.580   4.261 -0.4666 -0.3969 -0.2811
 4864SOL    HW126051   0.104   2.645   4.299 -2.3202  1.3252 -0.3959
 4864SOL    HW226052   4.685   2.590   4.312 -1.2841  1.5391 -1.9608
 4865SOL     OW26053   4.422   3.005  14.421  0.1130 -0.0259  0.5096
 4865SOL    HW126054   4.334   3.038  14.403  0.8196  1.2987 -0.4617
 4865SOL    HW226055   4.437   3.037  14.510  0.9422 -0.6252  0.5835
 4866SOL     OW26056   0.021   1.624   0.871  0.3391  0.6739  0.3722
 4866SOL    HW126057   4.718   1.717   0.867 -3.4694 -0.3274 -0.4371
 4866SOL    HW226058   4.673   1.578   0.823  2.4692 -1.4858 -0.5510
 4867SOL     OW26059   2.879   3.593   4.418  0.1961 -0.5561  0.3082
 4867SOL    HW126060   2.793   3.612   4.456  0.1471  0.3938 -0.2846
 4867SOL    HW226061   2.922   3.539   4.485  0.2779 -2.6547 -1.4521
 4868SOL     OW26062   0.999   0.237   3.161 -0.3093  0.1688 -0.3705
 4868SOL    HW126063   1.046   0.206   3.239 -1.8356 -3.4632 -0.8805
 4868SOL    HW226064   0.963   0.155   3.127  1.0566 -0.6011 -0.0080
 4869SOL     OW26065   0.661   3.583   6.751  0.5369 -0.4839 -0.2573
 4869SOL    HW126066   0.597   3.543   6.810  0.2201  1.6889  0.8943
 4869SOL    HW226067   0.747   3.543   6.765  1.3771  2.2640  2.3374
 4870SOL     OW26068   2.670   2.763  15.544  0.2267  0.4130  0.9463
 4870SOL    HW126069   2.712   2.751  15.629  0.9559  1.2947  0.7043
 4870SOL    HW226070   2.630   2.849  15.549 -1.1979 -0.2369  0.5555
 4871SOL     OW26071   4.026   2.591   6.514  0.5351  0.4265  0.1072
 4871SOL    HW126072   3.941   2.567   6.551  1.3066  1.2019  2.3323
 4871SOL    HW226073   3.991   2.626   6.431 -0.4525  0.7061  0.6360
 4872SOL     OW26074   0.334   1.567   0.003  0.0322 -0.1860 -0.3456
 4872SOL    HW126075   0.407   1.519  17.647 -0.1239 -0.7363  0.0543
 4872SOL    HW226076   0.357   1.656  17.657  0.0201 -0.2018 -0.4082
 4873SOL     OW26077   1.962   1.012   7.329 -0.6753  0.0492 -0.0610
 4873SOL    HW126078   2.009   0.984   7.250 -0.2972  0.8768 -0.1209
 4873SOL    HW226079   1.870   1.000   7.307 -0.1982 -0.8763 -1.5713
 4874SOL     OW26080   3.448   2.213   3.690 -0.2333 -0.2271  0.3204
 4874SOL    HW126081   3.541   2.216   3.716 -0.2802  2.4612  0.1704
 4874SOL    HW226082   3.423   2.298   3.654 -0.2720  0.1577  1.2314
 4875SOL     OW26083   4.513   4.146   1.060 -0.4766  0.0278 -0.1393
 4875SOL    HW126084   4.593   4.116   1.102  2.0087  2.5677 -3.1262
 4875SOL    HW226085   4.532   4.239   1.064  0.6632 -0.2651  1.1582
 4876SOL     OW26086   1.753   2.800  12.870  0.6353  0.5676  0.1310
 4876SOL    HW126087   1.843   2.834  12.871  0.1023  1.9841 -0.7030
 4876SOL    HW226088   1.727   2.851  12.947  0.7221  0.4157  0.2633
 4877SOL     OW26089   2.955   2.842  13.813 -0.0809  0.1231 -0.2393
 4877SOL    HW126090   2.967   2.756  13.854 -1.0053  0.0993 -0.0133
 4877SOL    HW226091   2.976   2.896  13.889  0.6929 -0.8439  0.2373
 4878SOL     OW26092   3.008   2.488   2.454  1.0002  0.4534  0.0907
 4878SOL    HW126093   2.920   2.452   2.465  0.8513  1.0173  0.7632
 4878SOL    HW226094   2.998   2.549   2.381 -0.3014  0.4942  0.3087
 4879SOL     OW26095   3.021   0.488   7.276 -0.1339 -0.6353 -0.1572
 4879SOL    HW126096   3.115   0.472   7.263  0.3263  0.7221  1.4183
 4879SOL    HW226097   2.998   0.420   7.340 -0.7619  1.0009  1.3422
 4880SOL     OW26098   0.349   2.010   4.927  0.1392  0.6933  0.2523
 4880SOL    HW126099   0.395   2.047   5.003  1.0961  1.0174 -0.4878
 4880SOL    HW226100   0.262   1.991   4.963  0.2566  0.4704  0.4286
 4881SOL     OW26101   4.608   0.018   6.797  0.3511  0.0510  0.0117
 4881SOL    HW126102   4.669   0.091   6.783 -0.3094  0.2620 -1.8241
 4881SOL    HW226103   4.656   4.662   6.764  1.3129  1.2233 -1.3014
 4882SOL     OW26104   0.098   2.634  12.123 -0.1867 -0.4000 -0.0162
 4882SOL    HW126105   0.097   2.724  12.157 -2.5876 -0.2231 -0.5953
 4882SOL    HW226106   0.007   2.606  12.131  0.1087 -1.2414  0.3884
 4883SOL     OW26107   3.720   4.302   3.915  0.0974  0.2894 -0.2498
 4883SOL    HW126108   3.781   4.326   3.985  0.3746  0.2845 -0.4873
 4883SOL    HW226109   3.795   4.278   3.860  2.0504  2.4199  1.4908
 4884SOL     OW26110   3.316   3.013   3.643  0.2206 -0.3640  0.0545
 4884SOL    HW126111   3.279   3.102   3.648 -0.7892 -0.7879  0.1404
 4884SOL    HW226112   3.408   3.037   3.656  0.7154 -2.0254 -0.4597
 4885SOL     OW26113   3.483   0.364  16.324  0.3137  0.3303 -0.5155
 4885SOL    HW126114   3.448   0.318  16.400 -1.2659  1.6333 -0.4547
 4885SOL    HW226115   3.522   0.439  16.368 -0.3352 -0.3109  1.1362
 4886SOL     OW26116   1.021   2.713  12.190 -0.4736 -0.0098  0.0296
 4886SOL    HW126117   0.987   2.677  12.272 -0.7166  0.1562  0.0004
 4886SOL    HW226118   1.013   2.808  12.200 -0.3218  0.1114 -1.0312
 4887SOL     OW26119   0.436   3.937   7.781  0.3384 -0.1455  0.1636
 4887SOL    HW126120   0.527   3.945   7.811  0.5862 -0.7623 -0.4175
 4887SOL    HW226121   0.448   3.879   7.706 -1.4961  1.3083 -1.2605
 4888SOL     OW26122   3.230   0.135  14.377  0.0089 -0.5119 -0.6846
 4888SOL    HW126123   3.149   0.103  14.416 -0.4373  2.1803  0.5849
 4888SOL    HW226124   3.287   0.059  14.372 -0.5569 -0.9965  0.2863
 4889SOL     OW26125   2.774   4.427   4.983  0.3344 -0.0552  0.1542
 4889SOL    HW126126   2.720   4.489   4.933  0.7698  2.0411  2.2652
 4889SOL    HW226127   2.862   4.432   4.945 -0.0683  0.8256 -0.6641
 4890SOL     OW26128   4.167   3.109   4.316 -0.2149  0.4444 -0.2012
 4890SOL    HW126129   4.259   3.089   4.335 -0.9609 -2.1278  0.6307
 4890SOL    HW226130   4.150   3.187   4.369 -0.6696  0.2579 -0.0746
 4891SOL     OW26131   0.495   1.022   7.997 -0.0515 -0.4453  0.0118
 4891SOL    HW126132   0.434   1.029   7.923  1.5333  0.5909 -1.1994
 4891SOL    HW226133   0.577   1.069   7.980 -1.0387  1.9702  1.9525
 4892SOL     OW26134   4.478   3.712   9.325 -0.2071 -0.2047  0.0703
 4892SOL    HW126135   4.498   3.620   9.345  1.1985  0.3856  1.3787
 4892SOL    HW226136   4.492   3.718   9.231 -0.7217 -1.8408 -0.1076
 4893SOL     OW26137   1.408   4.283  15.783 -0.0068  0.4933  0.2310
 4893SOL    HW126138   1.494   4.286  15.743  0.1734 -1.1655  0.4935
 4893SOL    HW226139   1.393   4.370  15.821  0.2235  0.4801  0.3473
 4894SOL     OW26140   2.387   3.963   8.316  0.7168  0.8697  0.8137
 4894SOL    HW126141   2.295   3.979   8.334  0.6738  1.1132  0.3958
 4894SOL    HW226142   2.398   3.901   8.388  1.3733 -0.1939 -0.1781
 4895SOL     OW26143   0.251   3.115   7.828  0.2735  0.3241 -0.3916
 4895SOL    HW126144   0.158   3.096   7.844  0.8448 -0.8036  1.5472
 4895SOL    HW226145   0.243   3.103   7.733 -1.1538  0.5510 -0.3129
 4896SOL     OW26146   1.099   0.794   9.062  0.7243 -0.7942 -0.1921
 4896SOL    HW126147   1.083   0.887   9.077 -0.5948 -1.0515  0.0234
 4896SOL    HW226148   1.044   0.776   8.986  1.4404 -2.2761 -0.3566
 4897SOL     OW26149   3.887   2.547   4.658 -0.3586 -0.0575 -0.6465
 4897SOL    HW126150   3.851   2.612   4.719 -0.9335 -1.4613  0.5265
 4897SOL    HW226151   3.962   2.524   4.713  0.7748  1.7564 -1.4565
 4898SOL     OW26152   0.733   0.595   0.538  0.1920 -0.0614  0.1727
 4898SOL    HW126153   0.748   0.684   0.506 -0.1902 -0.7708 -1.9746
 4898SOL    HW226154   0.793   0.546   0.481  2.7840  1.4688  1.5685
 4899SOL     OW26155   1.582   0.366   8.300  0.3351 -0.1111  0.1711
 4899SOL    HW126156   1.645   0.295   8.311 -1.0003 -1.3438 -0.1456
 4899SOL    HW226157   1.599   0.421   8.376  1.7589 -0.2975 -0.0209
 4900SOL     OW26158   3.820   4.432  17.664  0.2421  0.3589  0.1326
 4900SOL    HW126159   3.819   4.426   0.078 -1.6460  3.1504  0.3052
 4900SOL    HW226160   3.818   4.528  17.657 -2.1627  0.2817 -0.2413
 4901SOL     OW26161   2.381   0.500   3.484 -0.0957 -0.3325  0.1116
 4901SOL    HW126162   2.411   0.448   3.410 -2.9225 -1.5135 -0.2194
 4901SOL    HW226163   2.286   0.509   3.474 -0.3393 -0.2603  2.4172
 4902SOL     OW26164   4.339   2.626   7.965 -0.2318 -0.5980 -0.1705
 4902SOL    HW126165   4.371   2.604   8.053 -0.4958  0.0054  0.0802
 4902SOL    HW226166   4.352   2.553   7.905  0.8368 -0.3313 -0.2597
 4903SOL     OW26167   3.472   3.625  16.793 -0.1202  0.3090  0.2341
 4903SOL    HW126168   3.555   3.667  16.771  0.5367 -0.6297  0.9342
 4903SOL    HW226169   3.411   3.664  16.730 -0.6983 -1.2376 -0.1671
 4904SOL     OW26170   4.590   4.613   9.507 -0.1087 -0.4569  0.3179
 4904SOL    HW126171   4.549   4.609   9.421 -0.0447  4.7378  0.0324
 4904SOL    HW226172   4.675   4.578   9.479  0.0308 -0.5480  0.8511
 4905SOL     OW26173   1.764   3.456   1.938  0.2122 -0.1892 -0.2561
 4905SOL    HW126174   1.686   3.435   1.990  0.0064 -0.0498 -0.5080
 4905SOL    HW226175   1.782   3.373   1.894  3.0885  0.8521 -1.0110
 4906SOL     OW26176   1.384   1.701   9.701  0.0748  0.6922  0.3682
 4906SOL    HW126177   1.369   1.616   9.659 -1.9477 -0.5546  3.6722
 4906SOL    HW226178   1.319   1.755   9.655 -0.5962  0.5666  1.1830
 4907SOL     OW26179   0.307   0.366  12.825  0.0574  0.0684 -0.7815
 4907SOL    HW126180   0.226   0.387  12.871 -0.2879 -0.2022 -1.2609
 4907SOL    HW226181   0.336   0.449  12.787 -0.0342 -0.2620 -1.5659
 4908SOL     OW26182   4.574   2.991   2.959 -0.2825 -0.6562 -0.5545
 4908SOL    HW126183   4.640   3.010   3.025  1.0449 -0.7500 -1.8506
 4908SOL    HW226184   4.623   2.988   2.877  0.5916  2.0816 -0.1118
 4909SOL     OW26185   0.002   0.099  16.510  0.4989  0.5781 -0.6269
 4909SOL    HW126186   0.078   0.129  16.559  0.4629 -1.9162  0.9573
 4909SOL    HW226187   4.655   0.077  16.575  1.0449  2.3109  0.5095
 4910SOL     OW26188   1.404   1.038   3.070 -0.3538 -0.2262 -0.1743
 4910SOL    HW126189   1.478   1.056   3.012 -1.7469  2.3546 -1.1404
 4910SOL    HW226190   1.457   1.020   3.148 -0.7842 -0.7037  0.0113
 4911SOL     OW26191   4.118   2.032   3.330 -0.2853 -0.3597 -0.1916
 4911SOL    HW126192   4.142   2.099   3.394 -0.9998  0.6636 -1.0015
 4911SOL    HW226193   4.188   1.967   3.339 -0.7794 -1.0177 -1.0865
 4912SOL     OW26194   0.847   1.859  13.657  0.4466 -0.5189 -0.9676
 4912SOL    HW126195   0.852   1.771  13.695 -0.6415 -0.3563 -0.4397
 4912SOL    HW226196   0.935   1.894  13.669  0.4877 -1.4476  1.6292
 4913SOL     OW26197   0.357   2.199  10.936 -0.3632  0.6308 -0.4349
 4913SOL    HW126198   0.442   2.160  10.916 -0.6946 -0.5884  0.4965
 4913SOL    HW226199   0.367   2.191  11.031  1.5230  2.9655 -0.4351
 4914SOL     OW26200   1.300   0.412   4.507 -0.1870 -0.0618 -0.6461
 4914SOL    HW126201   1.335   0.422   4.418  0.1131 -2.5567 -0.8068
 4914SOL    HW226202   1.326   0.323   4.532 -2.5606  0.2803  3.0276
 4915SOL     OW26203   1.172   0.816   2.711 -0.1231 -0.7584 -0.1774
 4915SOL    HW126204   1.103   0.876   2.737  0.9282  0.1180  0.5538
 4915SOL    HW226205   1.143   0.732   2.748 -0.0432 -1.9083 -2.6916
 4916SOL     OW26206   0.412   2.954   8.297 -0.0118 -0.4544 -0.1108
 4916SOL    HW126207   0.477   3.024   8.306  0.8465 -1.0132 -1.9583
 4916SOL    HW226208   0.417   2.935   8.203  2.1403 -3.0241  0.5390
 4917SOL     OW26209   1.691   2.820   5.343 -0.1246  0.2367  0.6083
 4917SOL    HW126210   1.733   2.907   5.340  1.1210 -0.3601  0.8026
 4917SOL    HW226211   1.767   2.762   5.353 -0.4843 -0.2949  0.2287
 4918SOL     OW26212   0.056   4.564   7.905  0.4103 -0.3313  0.3108
 4918SOL    HW126213   0.064   4.657   7.927 -0.9279 -0.1824  0.2110
 4918SOL    HW226214   0.049   4.519   7.989  2.3992  0.4627  0.9004
 4919SOL     OW26215   0.952   0.102   9.372  0.2457  0.4504 -0.2332
 4919SOL    HW126216   0.858   0.094   9.384  0.5217  1.0715  2.2917
 4919SOL    HW226217   0.983   0.017   9.403 -2.2304 -0.5307 -0.4897
 4920SOL     OW26218   0.049   2.415   3.022 -0.8053 -0.8047 -0.1780
 4920SOL    HW126219   0.141   2.387   3.022 -0.1847  1.2702  0.6667
 4920SOL    HW226220   0.009   2.346   3.075 -1.7039 -1.0082 -1.1246
 4921SOL     OW26221   4.571   2.191   6.736  0.4624 -0.3515  0.2495
 4921SOL    HW126222   4.555   2.238   6.654 -2.9530  1.1368  1.7800
 4921SOL    HW226223   4.493   2.203   6.791 -1.5681  0.9001 -2.8490
 4922SOL     OW26224   3.008   1.590  12.859  0.6219  0.4451 -0.1556
 4922SOL    HW126225   3.049   1.554  12.938  1.7527  1.7860 -0.1395
 4922SOL    HW226226   2.949   1.654  12.900 -0.3646  0.0210 -0.9223
 4923SOL     OW26227   3.795   3.857   0.896  0.0145  0.4881 -0.3948
 4923SOL    HW126228   3.890   3.854   0.884  0.1246 -0.1108  0.6278
 4923SOL    HW226229   3.784   3.765   0.920  1.5387  0.1087 -1.0877
 4924SOL     OW26230   2.961   2.713   1.676 -1.1847 -0.2307 -0.4423
 4924SOL    HW126231   2.873   2.741   1.651 -1.1548  2.1282  2.0072
 4924SOL    HW226232   2.954   2.618   1.679 -0.7051 -0.1735  2.4833
 4925SOL     OW26233   2.850   3.959  17.321 -0.5692 -0.3910 -0.2819
 4925SOL    HW126234   2.892   3.993  17.400 -0.1801  2.4347 -1.6857
 4925SOL    HW226235   2.781   3.901  17.354  1.5818 -2.5253  0.4587
 4926SOL     OW26236   4.195   3.777  15.698  0.0149  0.5386  0.3207
 4926SOL    HW126237   4.160   3.860  15.666 -1.6160 -0.1498  0.3366
 4926SOL    HW226238   4.183   3.785  15.792  0.4228 -0.0331  0.4188
 4927SOL     OW26239   1.566   0.244   2.232  0.1646 -0.3264 -0.1454
 4927SOL    HW126240   1.567   0.281   2.144 -1.5635 -1.5081 -0.6477
 4927SOL    HW226241   1.489   0.291   2.264  1.0706  1.5727 -0.7235
 4928SOL     OW26242   1.144   1.111   4.469  0.1176  0.3662 -0.2585
 4928SOL    HW126243   1.126   1.151   4.554 -3.3019 -0.4656 -0.5683
 4928SOL    HW226244   1.232   1.076   4.484 -0.7038 -1.4067  0.5134
 4929SOL     OW26245   1.280   0.770  13.654 -0.2445 -0.3184  0.1836
 4929SOL    HW126246   1.186   0.775  13.673 -0.1329 -2.8300  1.4084
 4929SOL    HW226247   1.285   0.675  13.642  2.4329 -0.1406 -0.1528
 4930SOL     OW26248   0.207   1.626   7.906 -0.6697  0.3451  0.0465
 4930SOL    HW126249   0.282   1.617   7.847  0.3602 -2.1787  1.7400
 4930SOL    HW226250   0.246   1.667   7.983  1.7372 -0.1989 -0.8871
 4931SOL     OW26251   4.369   1.122   8.769 -0.6135 -0.0228  0.3477
 4931SOL    HW126252   4.334   1.089   8.852 -1.7487  0.9059  0.2393
 4931SOL    HW226253   4.422   1.047   8.742 -0.1359  0.0173  1.1607
 4932SOL     OW26254   3.428   0.301   4.537  0.1661  0.4504 -0.4993
 4932SOL    HW126255   3.469   0.327   4.454  0.1388 -3.0486 -1.6050
 4932SOL    HW226256   3.466   0.370   4.592  0.0720 -1.0273  1.4101
 4933SOL     OW26257   4.441   0.606   5.024 -0.0311  0.4849 -0.3455
 4933SOL    HW126258   4.457   0.558   5.106  1.3630 -0.5344 -1.2174
 4933SOL    HW226259   4.520   0.661   5.021  0.4299 -0.1829 -0.3173
 4934SOL     OW26260   3.746   2.294  11.417 -0.0948 -0.1697  0.7386
 4934SOL    HW126261   3.730   2.292  11.322  2.8785  1.2063  0.1886
 4934SOL    HW226262   3.829   2.342  11.424  0.3383 -0.7858 -0.0792
 4935SOL     OW26263   2.719   4.575   5.999  0.2700  0.1145 -0.1708
 4935SOL    HW126264   2.687   4.665   5.987 -4.1283 -1.6528 -1.5404
 4935SOL    HW226265   2.676   4.533   5.925  0.7811 -0.6799 -0.0154
 4936SOL     OW26266   2.897   3.662   3.800 -0.0297 -0.0300  0.0501
 4936SOL    HW126267   2.970   3.715   3.831 -0.1633  0.0538  0.2178
 4936SOL    HW226268   2.925   3.665   3.708 -0.4026  0.4277 -0.0508
 4937SOL     OW26269   4.546   3.830   3.258  0.0242  0.8966  0.2603
 4937SOL    HW126270   4.506   3.840   3.172 -1.5203  1.0175  0.9780
 4937SOL    HW226271   4.624   3.790   3.220 -1.0913 -0.1816 -0.9131
 4938SOL     OW26272   0.259   2.774   6.345 -0.2106  0.2895 -0.4694
 4938SOL    HW126273   0.204   2.847   6.372 -0.5555  0.1325 -0.7489
 4938SOL    HW226274   0.197   2.702   6.332 -0.7591  0.6564  0.1922
 4939SOL     OW26275   1.922   3.992   2.011 -0.3457 -0.0765  0.3829
 4939SOL    HW126276   2.008   3.983   2.054 -0.2369 -1.4621 -0.1253
 4939SOL    HW226277   1.870   3.953   2.081 -0.1152  0.8731  1.0961
 4940SOL     OW26278   1.510   0.575   6.092 -0.6296 -0.2799 -0.1675
 4940SOL    HW126279   1.573   0.549   6.159  1.3039  3.2457 -0.5929
 4940SOL    HW226280   1.559   0.553   6.013  1.2006  2.2309  0.2657
 4941SOL     OW26281   1.883   4.411   5.334  0.1850  0.5735 -0.7969
 4941SOL    HW126282   1.833   4.340   5.293 -0.4796  0.0381  0.9393
 4941SOL    HW226283   1.948   4.426   5.265 -0.5962 -1.1609 -1.9217
 4942SOL     OW26284   2.377   2.853   3.155  0.3731  0.1135 -0.1522
 4942SOL    HW126285   2.366   2.818   3.067  1.0138 -0.7238  0.0984
 4942SOL    HW226286   2.360   2.946   3.137 -0.2007 -0.4586 -2.5799
 4943SOL     OW26287   2.003   4.462   9.713 -0.2435  0.6841  0.2859
 4943SOL    HW126288   2.085   4.451   9.762 -0.8200  0.0187  1.1054
 4943SOL    HW226289   2.032   4.536   9.659  0.1758  0.7057  0.5365
 4944SOL     OW26290   1.105   0.785   3.739 -0.3367  0.6484  0.0580
 4944SOL    HW126291   1.083   0.805   3.830 -2.0718  1.4675 -0.5560
 4944SOL    HW226292   1.089   0.690   3.743 -1.8933  0.9846  1.9434
 4945SOL     OW26293   3.696   4.628   4.703 -0.1421  0.2224  0.2110
 4945SOL    HW126294   3.664   4.585   4.782  0.7421 -1.3111 -0.2718
 4945SOL    HW226295   3.618   4.681   4.686 -0.0044 -0.3352 -2.1639
 4946SOL     OW26296   1.927   2.723  13.769 -0.2295  0.8597 -0.0796
 4946SOL    HW126297   1.900   2.641  13.809 -0.6552  0.3778 -1.3322
 4946SOL    HW226298   2.023   2.715  13.765 -0.3475 -1.4126  2.5464
 4947SOL     OW26299   4.709   0.861   7.562 -1.0501 -0.1491  0.6133
 4947SOL    HW126300   4.639   0.879   7.624 -0.6510 -0.2466  1.0947
 4947SOL    HW226301   4.658   0.817   7.494 -1.9392  0.5915  0.8009
 4948SOL     OW26302   0.338   1.090   7.783 -0.2563 -0.0152 -0.3276
 4948SOL    HW126303   0.309   1.008   7.742  0.4409 -0.9845  1.1022
 4948SOL    HW226304   0.385   1.119   7.705 -1.1449 -0.7324 -1.1347
 4949SOL     OW26305   1.110   0.318   2.443  0.3985  0.1596  0.0362
 4949SOL    HW126306   1.026   0.361   2.431  1.5626  2.2933 -0.4249
 4949SOL    HW226307   1.101   0.279   2.530 -2.1540  2.8828  0.9645
 4950SOL     OW26308   3.996   3.181   9.813  0.3803  0.0603 -0.4522
 4950SOL    HW126309   3.939   3.121   9.764  1.3793  0.3250 -1.9284
 4950SOL    HW226310   3.987   3.262   9.762  0.3281  1.1809  1.3504
 4951SOL     OW26311   2.026   1.107  11.902 -0.7489  0.3204  0.3889
 4951SOL    HW126312   2.017   1.043  11.832  3.3971  2.8160 -2.4028
 4951SOL    HW226313   2.084   1.170  11.859 -0.2683 -0.3984 -0.0224
 4952SOL     OW26314   0.881   2.045   2.525 -0.3474  0.5949  0.2299
 4952SOL    HW126315   0.812   2.055   2.461  0.1896 -1.6280 -0.6828
 4952SOL    HW226316   0.953   2.089   2.479  0.1379 -2.0307 -1.5187
 4953SOL     OW26317   0.779   2.625   3.314  0.4659 -0.6359 -0.9495
 4953SOL    HW126318   0.759   2.685   3.386 -0.4879 -0.8817 -1.0140
 4953SOL    HW226319   0.792   2.684   3.240  0.5161  0.9535  0.3370
 4954SOL     OW26320   4.637   2.737  17.470 -0.6081  0.6913  0.4872
 4954SOL    HW126321   4.543   2.742  17.491 -0.8934 -0.7391 -0.4953
 4954SOL    HW226322   4.647   2.666  17.407 -2.5484  0.7488  0.1053
 4955SOL     OW26323   0.508   2.590  12.996 -0.1964 -0.4831 -0.0412
 4955SOL    HW126324   0.459   2.594  13.078  1.2003 -0.6638  0.8162
 4955SOL    HW226325   0.515   2.682  12.971 -0.9584 -0.1071  1.1336
 4956SOL     OW26326   4.381   3.783   6.302 -0.0857 -0.0206  0.2248
 4956SOL    HW126327   4.442   3.776   6.229 -0.2910 -1.0408  0.1422
 4956SOL    HW226328   4.298   3.776   6.255 -0.5980 -2.0826  1.3941
 4957SOL     OW26329   3.328   3.795   1.998  0.1187  0.2762  0.1320
 4957SOL    HW126330   3.241   3.817   2.033  0.9670 -3.9592  4.7849
 4957SOL    HW226331   3.365   3.731   2.058 -0.4711  0.6517  0.8943
 4958SOL     OW26332   1.350   3.028   4.860 -0.3444 -0.9287  0.0124
 4958SOL    HW126333   1.369   2.961   4.925  0.1774 -0.5900  0.2080
 4958SOL    HW226334   1.437   3.058   4.833  0.1320 -3.6421 -1.5028
 4959SOL     OW26335   2.890   4.693   6.373  0.1445  0.2983  0.5816
 4959SOL    HW126336   2.916   4.647   6.293  0.7494  0.9527  0.3959
 4959SOL    HW226337   2.796   4.678   6.376  0.1611  0.3344  1.3173
 4960SOL     OW26338   3.693   3.760  16.604 -0.5323 -0.1585 -0.1625
 4960SOL    HW126339   3.766   3.818  16.581 -0.9373 -0.3444 -1.8734
 4960SOL    HW226340   3.749   3.686  16.580  1.6314  1.7616 -1.0286
 4961SOL     OW26341   0.312   4.589  11.621 -0.3274  0.4371 -0.0213
 4961SOL    HW126342   0.335   4.498  11.603  1.5429  1.3839 -2.3786
 4961SOL    HW226343   0.221   4.587  11.592 -1.1858  0.4151  2.6413
 4962SOL     OW26344   1.519   2.582   5.054  0.3918 -0.0327  0.3565
 4962SOL    HW126345   1.596   2.638   5.065  0.6700 -0.2072 -0.7197
 4962SOL    HW226346   1.521   2.569   4.959 -0.3245  1.2829  0.1664
 4963SOL     OW26347   4.319   1.647   4.844  0.2447 -0.0168  0.4387
 4963SOL    HW126348   4.245   1.627   4.787  1.0810  1.7869 -1.2769
 4963SOL    HW226349   4.387   1.611   4.788  0.6447  1.6691 -0.1693
 4964SOL     OW26350   1.697   1.133   2.997  0.0303  0.4374  0.0732
 4964SOL    HW126351   1.790   1.132   2.974 -0.5316 -0.3645 -2.1854
 4964SOL    HW226352   1.698   1.095   3.085  2.2662 -4.3885 -2.0154
 4965SOL     OW26353   2.761   0.923   4.697  0.3115  0.0470 -0.0394
 4965SOL    HW126354   2.712   0.853   4.741 -0.0146 -0.6594 -1.5359
 4965SOL    HW226355   2.802   0.961   4.775  1.6206  3.1822 -2.2720
 4966SOL     OW26356   2.498   2.520   3.922 -0.3338 -0.4493  0.0778
 4966SOL    HW126357   2.535   2.491   4.005  3.0462 -0.7984 -1.5258
 4966SOL    HW226358   2.487   2.442   3.867  1.8250 -2.7555  2.9626
 4967SOL     OW26359   3.244   2.379  14.580 -0.1936  0.3110  0.3222
 4967SOL    HW126360   3.277   2.466  14.604 -2.6675  0.7539  2.1101
 4967SOL    HW226361   3.323   2.326  14.566 -1.7288 -1.4512 -1.7186
 4968SOL     OW26362   0.817   3.935   6.737  0.0940 -0.6917 -0.3066
 4968SOL    HW126363   0.830   3.840   6.747 -1.4123 -1.0389 -1.6168
 4968SOL    HW226364   0.908   3.946   6.709  0.6334  0.4145  1.9493
 4969SOL     OW26365   4.425   2.425   2.717  0.0669 -0.2810  0.1204
 4969SOL    HW126366   4.365   2.361   2.756 -0.1025 -1.2001 -1.6191
 4969SOL    HW226367   4.494   2.365   2.689  1.3694  1.8417 -1.2032
 4970SOL     OW26368   1.733   1.827   2.253 -0.2536 -0.1374 -0.4017
 4970SOL    HW126369   1.737   1.879   2.172  0.8719 -0.3781 -0.5123
 4970SOL    HW226370   1.758   1.738   2.229  0.6860 -0.0890  0.3581
 4971SOL     OW26371   2.215   2.659   4.699  0.1038 -0.1083 -0.1181
 4971SOL    HW126372   2.287   2.719   4.718  0.1902  0.5482 -2.5233
 4971SOL    HW226373   2.257   2.573   4.697  2.3757  0.9976 -0.3068
 4972SOL     OW26374   3.876   3.045   8.174  0.2473  0.2114  0.3358
 4972SOL    HW126375   3.853   3.103   8.101 -0.8640 -2.6172 -1.5657
 4972SOL    HW226376   3.843   3.093   8.250  0.4908 -2.3539  2.0630
 4973SOL     OW26377   1.864   2.413  10.686 -0.2251  0.6642  0.1936
 4973SOL    HW126378   1.807   2.354  10.735  0.4533  1.1417  1.5706
 4973SOL    HW226379   1.950   2.388  10.719  1.0060  0.7394 -2.9381
 4974SOL     OW26380   0.082   1.679   3.862 -0.6085 -0.1609 -0.2045
 4974SOL    HW126381   0.065   1.611   3.798 -3.9553  1.1549 -0.7103
 4974SOL    HW226382   0.040   1.636   3.936  2.0016 -3.4623 -0.6284
 4975SOL     OW26383   1.335   2.726   8.465  0.4678  0.4655  0.2926
 4975SOL    HW126384   1.278   2.697   8.394  0.6142  0.5797  0.1256
 4975SOL    HW226385   1.372   2.651   8.511 -0.7011  0.8908  1.9013
 4976SOL     OW26386   4.392   3.714   4.551  0.4796  0.3962  0.1921
 4976SOL    HW126387   4.480   3.726   4.515  0.1177  1.6076 -0.2911
 4976SOL    HW226388   4.398   3.759   4.636 -2.1496  2.4226 -0.6945
 4977SOL     OW26389   4.349   0.749   5.448 -0.0746  0.2000  0.1967
 4977SOL    HW126390   4.385   0.820   5.395 -1.3593 -0.6092 -1.7990
 4977SOL    HW226391   4.405   0.675   5.427 -0.0360  0.3388 -0.1917
 4978SOL     OW26392   3.682   0.141  11.096 -0.2907  0.0738  0.0527
 4978SOL    HW126393   3.693   0.074  11.164  0.4665  2.2521  2.0770
 4978SOL    HW226394   3.747   0.206  11.121  3.3554 -2.3179 -3.1645
 4979SOL     OW26395   2.378   3.230   1.538 -0.3595 -0.3495 -0.0185
 4979SOL    HW126396   2.458   3.179   1.545 -1.1021 -1.6579 -1.0685
 4979SOL    HW226397   2.381   3.287   1.615 -1.9025 -1.6366  0.9946
 4980SOL     OW26398   2.909   4.080  17.623 -0.3377  0.2611  0.1448
 4980SOL    HW126399   2.892   4.061   0.033  1.0884  6.9137  1.7646
 4980SOL    HW226400   2.848   4.154  17.620 -0.3235  0.2232 -1.0687
 4981SOL     OW26401   2.120   4.666   7.084 -0.4820  0.2272  0.1775
 4981SOL    HW126402   2.076   4.610   7.020  1.6131 -0.8423 -0.3481
 4981SOL    HW226403   2.113   0.033   7.043  1.5054  0.0635 -0.5335
 4982SOL     OW26404   2.935   2.711  13.320 -0.3140 -0.4328 -0.4399
 4982SOL    HW126405   3.012   2.751  13.359 -0.5500 -1.0532  0.6426
 4982SOL    HW226406   2.971   2.623  13.317 -1.2641 -0.8599  0.7521
 4983SOL     OW26407   1.983   1.653  17.640 -0.1197  0.3116 -0.3015
 4983SOL    HW126408   2.071   1.617  17.630 -0.2063  0.8259 -2.7223
 4983SOL    HW226409   2.004   1.744  17.621 -0.4922 -0.0017 -2.1680
 4984SOL     OW26410   1.810   2.250   3.597 -0.3840 -0.1541  0.1563
 4984SOL    HW126411   1.803   2.193   3.520 -1.3264  2.1826 -1.4701
 4984SOL    HW226412   1.826   2.334   3.556  0.9134  0.5634  2.1450
 4985SOL     OW26413   0.804   2.407   1.443  0.3496  0.3286  0.0046
 4985SOL    HW126414   0.769   2.393   1.531 -1.4579  2.0624 -0.4355
 4985SOL    HW226415   0.896   2.396   1.463  0.7279  1.9969 -0.8211
 4986SOL     OW26416   1.501   0.544   5.068  0.5674  0.0753  0.1301
 4986SOL    HW126417   1.481   0.502   4.984 -0.0385 -0.4457  0.5402
 4986SOL    HW226418   1.435   0.612   5.083  0.1370 -0.3412  0.1015
 4987SOL     OW26419   0.281   1.803   0.327  0.5293  0.0511 -0.5247
 4987SOL    HW126420   0.281   1.841   0.240 -0.9648  0.4993 -0.3217
 4987SOL    HW226421   0.235   1.721   0.308 -2.1194  1.1123  1.2682
 4988SOL     OW26422   4.065   3.956  17.432  0.4584 -0.1444  0.1528
 4988SOL    HW126423   3.980   3.991  17.408 -0.9928 -1.7354  2.9640
 4988SOL    HW226424   4.120   4.018  17.384 -0.8635 -0.2935 -1.5535
 4989SOL     OW26425   4.568   4.589   4.310 -0.2029 -0.4599 -0.0478
 4989SOL    HW126426   4.517   4.508   4.321 -0.4551 -0.7233 -3.3542
 4989SOL    HW226427   4.545   4.606   4.219  0.9975 -0.8464 -0.4281
 4990SOL     OW26428   3.372   1.586  11.230  0.0644 -0.1185 -0.2138
 4990SOL    HW126429   3.289   1.585  11.183 -0.5635  0.9957  0.8524
 4990SOL    HW226430   3.340   1.610  11.317  2.2642  2.6314 -0.1610
 4991SOL     OW26431   0.530   1.016   8.539 -0.0368 -0.7749  0.1535
 4991SOL    HW126432   0.604   0.958   8.523  0.7172 -0.7185  3.2877
 4991SOL    HW226433   0.521   1.066   8.458 -0.3907 -2.8265 -1.0767
 4992SOL     OW26434   3.861   3.081   4.940 -0.1490  0.1600 -0.3010
 4992SOL    HW126435   3.884   3.015   4.875 -1.1869 -0.9291  0.4321
 4992SOL    HW226436   3.936   3.140   4.937 -0.0504  0.0678  0.2506
 4993SOL     OW26437   2.283   1.811   6.606 -0.7950 -0.4651 -0.1754
 4993SOL    HW126438   2.213   1.868   6.636  1.0039  1.4474  0.4272
 4993SOL    HW226439   2.348   1.881   6.611  2.0406 -3.2440  1.9161
 4994SOL     OW26440   0.667   3.977   3.390  0.0128  0.1146 -0.2655
 4994SOL    HW126441   0.716   3.958   3.310 -1.9349 -1.0516 -1.1695
 4994SOL    HW226442   0.665   3.895   3.439  0.2303 -0.1596 -0.7132
 4995SOL     OW26443   2.609   0.562   5.891 -0.0161 -0.1948  0.1912
 4995SOL    HW126444   2.588   0.523   5.975  0.7709  1.3193  1.0924
 4995SOL    HW226445   2.521   0.589   5.866 -0.1273 -0.1397  0.6592
 4996SOL     OW26446   0.843   0.788  15.009 -0.2659 -0.3294  0.2509
 4996SOL    HW126447   0.937   0.806  15.009 -0.5579  1.1022  2.4172
 4996SOL    HW226448   0.836   0.778  15.104  0.4809  1.6030  0.5181
 4997SOL     OW26449   2.888   1.037  15.611 -0.4460  0.0971 -0.0106
 4997SOL    HW126450   2.831   1.021  15.536 -1.3356  2.5780  0.1437
 4997SOL    HW226451   2.890   1.132  15.621 -0.4107  0.3135 -2.1666
 4998SOL     OW26452   3.436   3.500   9.086  0.3393  0.3707 -0.3756
 4998SOL    HW126453   3.409   3.560   9.017  1.2820  0.5818 -0.5564
 4998SOL    HW226454   3.352   3.496   9.132  0.4259  1.0231 -0.1560
 4999SOL     OW26455   4.172   1.964   2.015  0.3631 -0.5544 -0.0980
 4999SOL    HW126456   4.245   1.909   1.988  2.3020  0.9846  1.9229
 4999SOL    HW226457   4.224   2.023   2.070  1.0615 -0.9761 -0.3095
 5000SOL     OW26458   0.748   0.495   9.031 -0.0133  0.0346 -0.3518
 5000SOL    HW126459   0.654   0.483   9.046  0.4257  0.5769  2.7599
 5000SOL    HW226460   0.752   0.587   9.005 -1.2124  0.2714  0.3173
 5001SOL     OW26461   3.190   2.270  16.113  0.1167  0.6138  0.1099
 5001SOL    HW126462   3.259   2.225  16.161 -1.1848 -0.3918  1.0174
 5001SOL    HW226463   3.128   2.200  16.093  0.7390  0.3998 -1.0625
 5002SOL     OW26464   3.438   0.400   0.263  0.4028 -0.3360 -0.3852
 5002SOL    HW126465   3.517   0.371   0.309 -0.3172  0.1822  1.1798
 5002SOL    HW226466   3.461   0.492   0.249  2.9751 -0.9526 -0.2873
 5003SOL     OW26467   1.139   4.369   5.349 -0.1387 -0.4900  0.0765
 5003SOL    HW126468   1.054   4.325   5.342  0.0234 -1.1995  2.5919
 5003SOL    HW226469   1.201   4.296   5.346 -0.9151 -1.1009 -0.9554
 5004SOL     OW26470   3.008   3.755   3.193 -0.1925 -0.2911 -0.3186
 5004SOL    HW126471   3.027   3.836   3.241  1.4142 -0.5504 -0.5140
 5004SOL    HW226472   3.069   3.692   3.231 -0.2422 -0.4822 -0.5616
 5005SOL     OW26473   2.041   2.869   6.307  0.1488 -0.5753 -0.0372
 5005SOL    HW126474   2.103   2.798   6.290  1.5536  0.4463  0.8677
 5005SOL    HW226475   1.997   2.870   6.222 -1.9598 -0.2367  1.0590
 5006SOL     OW26476   3.312   3.269   1.942  0.1806 -0.4431 -0.0874
 5006SOL    HW126477   3.286   3.357   1.968  0.1880 -0.2151 -0.8433
 5006SOL    HW226478   3.240   3.219   1.979  0.0842  0.1266  0.5042
 5007SOL     OW26479   4.440   1.981   8.010  0.2246 -0.0542  0.2284
 5007SOL    HW126480   4.476   1.901   8.048 -2.4373 -1.5019 -0.2500
 5007SOL    HW226481   4.364   1.945   7.964  1.8082 -0.3175 -2.1738
 5008SOL     OW26482   2.826   0.820   6.475  0.1140 -0.5244 -0.2195
 5008SOL    HW126483   2.873   0.773   6.544 -0.3028 -0.2049  0.2756
 5008SOL    HW226484   2.902   0.838   6.419  0.0382 -2.0230 -0.7909
 5009SOL     OW26485   2.248   4.566  13.482 -0.1386 -0.2981 -0.3546
 5009SOL    HW126486   2.273   4.635  13.543 -0.6345 -0.3828 -0.0556
 5009SOL    HW226487   2.226   4.620  13.405 -0.3307 -1.2863 -0.9967
 5010SOL     OW26488   0.186   3.890   2.251 -0.3516  0.2176 -0.1696
 5010SOL    HW126489   0.274   3.851   2.248 -0.8443 -1.3088  4.3733
 5010SOL    HW226490   0.137   3.811   2.273  2.5269 -1.1832  1.2214
 5011SOL     OW26491   3.942   1.641   7.347  0.4920 -0.1532  0.0200
 5011SOL    HW126492   4.020   1.679   7.389 -0.7238  0.6278  1.5668
 5011SOL    HW226493   3.906   1.721   7.310 -1.4425 -1.5518 -1.1165
 5012SOL     OW26494   1.923   0.749   3.000 -0.0524 -0.0397  0.2119
 5012SOL    HW126495   1.842   0.744   2.948 -0.9613  0.5316  1.5569
 5012SOL    HW226496   1.979   0.785   2.932 -0.3925  1.7332  0.8611
 5013SOL     OW26497   0.687   2.599   3.998  0.2204  0.5854  0.0020
 5013SOL    HW126498   0.769   2.576   4.043  1.7000 -0.5345 -3.2445
 5013SOL    HW226499   0.619   2.544   4.037  0.2896 -0.9630 -2.0226
 5014SOL     OW26500   1.064   3.785   3.932  0.0603  0.3904  0.3477
 5014SOL    HW126501   1.047   3.849   3.863 -0.0552 -1.2131 -1.0980
 5014SOL    HW226502   1.004   3.811   4.002 -0.4880  1.0521 -0.3710
 5015SOL     OW26503   3.926   2.185   7.416 -0.1763  0.4489  0.7499
 5015SOL    HW126504   3.996   2.225   7.465 -0.1756  1.1889  0.1485
 5015SOL    HW226505   3.851   2.214   7.468 -1.1578  1.3359 -1.1561
 5016SOL     OW26506   1.089   1.398   6.155  0.1228  0.3490  0.2253
 5016SOL    HW126507   1.134   1.440   6.082 -0.6261 -0.6299 -0.8038
 5016SOL    HW226508   1.053   1.467   6.210 -0.0542 -1.9054  2.9369
 5017SOL     OW26509   0.711   1.242   2.560  0.2715 -0.2514  0.8628
 5017SOL    HW126510   0.801   1.262   2.535 -0.1743 -0.5945 -1.0364
 5017SOL    HW226511   0.669   1.293   2.490  0.5761  1.5923  2.0091
 5018SOL     OW26512   4.050   2.793  10.994  0.7051 -0.5401  0.1776
 5018SOL    HW126513   4.115   2.859  11.020 -0.7089  0.1205  2.0646
 5018SOL    HW226514   4.099   2.761  10.918  0.4171 -1.6149  0.4446
 5019SOL     OW26515   2.899   3.048   1.881  0.1397 -0.0353  0.0620
 5019SOL    HW126516   2.941   3.069   1.798  0.6594  0.4819  0.4510
 5019SOL    HW226517   2.825   2.996   1.851  1.2156 -1.3738 -0.2568
 5020SOL     OW26518   2.334   0.634  10.456 -0.4538  0.3318 -0.3074
 5020SOL    HW126519   2.277   0.710  10.466  2.4000  2.0759  2.7217
 5020SOL    HW226520   2.415   0.683  10.473  0.9498 -2.0075 -0.1516
 5021SOL     OW26521   2.182   3.509  17.585  0.1411 -0.0827  0.0207
 5021SOL    HW126522   2.263   3.552  17.613  0.9370 -0.9590 -0.9431
 5021SOL    HW226523   2.120   3.582  17.585  1.0834  0.7289  2.0074
 5022SOL     OW26524   2.108   1.245   4.166  0.3017 -0.2933  0.0084
 5022SOL    HW126525   2.158   1.299   4.227 -0.0219  0.3743 -0.3254
 5022SOL    HW226526   2.153   1.162   4.183  1.9882  0.5422 -0.4358
 5023SOL     OW26527   2.948   3.963   6.836 -0.5195  0.4138 -0.0323
 5023SOL    HW126528   2.973   3.943   6.746  2.1419 -3.4064  1.5476
 5023SOL    HW226529   2.874   3.902   6.839  0.9060 -1.2867  0.6910
 5024SOL     OW26530   2.240   4.425   2.979 -0.5702 -0.1883 -0.8742
 5024SOL    HW126531   2.242   4.408   2.885 -0.8473  0.7345 -1.0543
 5024SOL    HW226532   2.243   4.336   3.014  1.4322  0.3820  0.3789
 5025SOL     OW26533   2.346   0.587   3.180  0.5103 -0.5315 -0.0301
 5025SOL    HW126534   2.296   0.545   3.110 -0.8339 -0.8374  1.0909
 5025SOL    HW226535   2.410   0.518   3.198 -0.0986 -1.1239 -0.0820
 5026SOL     OW26536   4.646   1.796  11.352  0.3138  0.2390  0.0431
 5026SOL    HW126537   4.683   1.717  11.391 -0.7581  0.9528  2.4936
 5026SOL    HW226538   4.554   1.792  11.379 -0.4925  0.3801 -2.6813
 5027SOL     OW26539   0.783   4.465   0.351 -0.4074  0.0469 -0.3868
 5027SOL    HW126540   0.803   4.457   0.258  1.7569  0.8005  0.0255
 5027SOL    HW226541   0.872   4.491   0.375 -0.6734  0.4941  0.1174
 5028SOL     OW26542   3.804   3.500   8.194  0.4473  0.4008  0.0556
 5028SOL    HW126543   3.800   3.449   8.274 -0.4288 -0.1023 -0.3134
 5028SOL    HW226544   3.899   3.507   8.182  0.3955  0.6454 -0.2233
 5029SOL     OW26545   4.692   1.232   1.647 -0.0596 -0.0139  0.2630
 5029SOL    HW126546   4.699   1.292   1.573  0.6214 -0.9694 -0.4378
 5029SOL    HW226547   4.600   1.207   1.650 -0.3113  0.8849  0.0606
 5030SOL     OW26548   2.608   3.164   6.927  0.2115  0.0938 -0.6856
 5030SOL    HW126549   2.620   3.077   6.888 -0.4974 -0.1778 -0.2924
 5030SOL    HW226550   2.542   3.136   6.990 -1.3605 -1.5145 -3.0722
 5031SOL     OW26551   4.713   0.582   5.199 -0.0821 -0.3833 -0.5769
 5031SOL    HW126552   0.062   0.552   5.139  2.8534  0.7557  2.1709
 5031SOL    HW226553   4.709   0.501   5.249  1.9496 -0.1302  0.0393
 5032SOL     OW26554   3.656   1.064   3.221 -0.4111 -0.1857  0.1383
 5032SOL    HW126555   3.671   1.014   3.301  1.6610 -0.9878 -0.7680
 5032SOL    HW226556   3.635   1.006   3.148 -1.2611  0.4931 -0.1648
 5033SOL     OW26557   4.516   1.194   4.643 -0.2346  0.7177 -0.8411
 5033SOL    HW126558   4.560   1.112   4.619 -2.1783 -0.4851 -0.2146
 5033SOL    HW226559   4.479   1.180   4.730  0.1448 -1.5449 -1.0264
 5034SOL     OW26560   0.186   0.103   6.553 -1.0497 -0.1235 -0.6371
 5034SOL    HW126561   0.271   0.139   6.526 -1.4696  1.5663  0.2944
 5034SOL    HW226562   0.142   0.102   6.468 -1.1457  0.5994 -0.5980
 5035SOL     OW26563   3.802   0.923   6.533  0.0249  0.3214 -0.5134
 5035SOL    HW126564   3.821   0.851   6.473 -0.7339  1.6056 -2.3216
 5035SOL    HW226565   3.719   0.887   6.564 -0.7063  0.8095 -1.8814
 5036SOL     OW26566   0.987   2.212   1.791  0.2820  0.8122 -0.4696
 5036SOL    HW126567   0.986   2.259   1.874  0.0584 -0.6160  0.3427
 5036SOL    HW226568   1.080   2.200   1.772  0.2664 -0.6942  0.3911
 5037SOL     OW26569   1.656   0.268   1.956 -0.4058 -0.5985 -0.4701
 5037SOL    HW126570   1.667   0.200   1.890 -1.2001 -1.4142  0.2290
 5037SOL    HW226571   1.733   0.320   1.933 -0.2944 -0.6351 -0.1774
 5038SOL     OW26572   4.109   0.482   5.261  0.5262  0.2218  0.5320
 5038SOL    HW126573   4.020   0.506   5.233 -0.4865 -1.3151  2.3931
 5038SOL    HW226574   4.090   0.455   5.351  0.5273 -0.7086  0.2519
 5039SOL     OW26575   2.966   0.170   7.110 -0.3416  0.2237  0.2378
 5039SOL    HW126576   3.046   0.206   7.072  0.2255  0.4163  1.6220
 5039SOL    HW226577   3.004   0.109   7.172  0.4392  0.1420 -0.3245
 5040SOL     OW26578   3.000   3.012   0.105 -0.0973 -0.0068  0.8163
 5040SOL    HW126579   3.070   2.947   0.096  0.8550  0.9433  1.3945
 5040SOL    HW226580   2.935   2.990   0.038 -0.3926 -0.7556  1.3539
 5041SOL     OW26581   3.253   2.801   6.238 -0.0182 -0.1432  0.3203
 5041SOL    HW126582   3.235   2.832   6.327  0.1221 -1.1017  0.6841
 5041SOL    HW226583   3.228   2.877   6.185  0.4762 -0.9526 -1.0507
 5042SOL     OW26584   0.160   3.266  15.649 -0.4776 -0.2320 -0.7535
 5042SOL    HW126585   0.235   3.321  15.670  0.5666 -2.0622  0.3644
 5042SOL    HW226586   0.199   3.191  15.603  3.5578  1.0418  0.6157
 5043SOL     OW26587   1.973   3.873  11.199  0.2856  0.2882 -0.2968
 5043SOL    HW126588   1.941   3.783  11.206  1.0470  0.0501  0.1725
 5043SOL    HW226589   1.969   3.900  11.107  0.6732 -0.4797 -0.5344
 5044SOL     OW26590   3.247   0.525  13.523  0.1062 -0.2671 -0.0187
 5044SOL    HW126591   3.314   0.457  13.516 -0.1869 -0.4572 -0.8700
 5044SOL    HW226592   3.258   0.538  13.618  0.3983  0.3895 -0.1429
 5045SOL     OW26593   0.543   1.516  17.515  0.8121 -0.0139 -0.3731
 5045SOL    HW126594   0.532   1.436  17.465 -0.9606 -0.4258  0.6659
 5045SOL    HW226595   0.619   1.553  17.472 -1.0557  3.9826 -0.2543
 5046SOL     OW26596   2.179   3.968   9.112  0.8197  0.0956  0.4287
 5046SOL    HW126597   2.118   4.036   9.085  0.8107  0.4844  1.4592
 5046SOL    HW226598   2.203   3.935   9.025 -0.7561  0.7756 -0.2476
 5047SOL     OW26599   0.357   4.675   4.194  0.7125  0.8655  0.4222
 5047SOL    HW126600   0.286   4.674   4.258  0.9308  3.7641  0.6879
 5047SOL    HW226601   0.339   0.038   4.150  0.7124  1.0614  0.7875
 5048SOL     OW26602   2.365   4.425   4.366  0.2707 -0.1301  0.4799
 5048SOL    HW126603   2.386   4.518   4.373 -1.2125  0.2561 -0.2819
 5048SOL    HW226604   2.325   4.404   4.282 -0.8584  0.6803  0.8172
 5049SOL     OW26605   1.985   2.414   4.915  0.2794  0.1918 -0.0251
 5049SOL    HW126606   1.932   2.336   4.905  2.4239 -1.6569  3.0665
 5049SOL    HW226607   2.002   2.433   4.823 -1.5209 -0.0480 -0.3981
 5050SOL     OW26608   2.314   4.216   1.566 -0.0958 -0.1436  0.9128
 5050SOL    HW126609   2.234   4.214   1.514  0.2155 -0.9383  0.4699
 5050SOL    HW226610   2.374   4.162   1.515 -1.5272 -0.2079 -0.6877
 5051SOL     OW26611   0.583   3.424   9.226  1.0414  0.8213  0.2207
 5051SOL    HW126612   0.669   3.452   9.195 -0.6646  3.4485 -2.1759
 5051SOL    HW226613   0.539   3.392   9.147 -2.2676 -0.5677  2.6177
 5052SOL     OW26614   1.220   3.780   3.314  0.3909  0.4138  0.1785
 5052SOL    HW126615   1.203   3.789   3.221 -1.5928  1.6014  0.6462
 5052SOL    HW226616   1.312   3.806   3.319  0.2668  0.7231  0.8829
 5053SOL     OW26617   4.691   4.542   8.203 -0.3515  0.2045 -0.0075
 5053SOL    HW126618   4.605   4.513   8.230 -0.1565  0.7151  1.1337
 5053SOL    HW226619   4.667   4.632   8.182 -0.6192  0.3680  1.0482
 5054SOL     OW26620   0.661   2.652  16.425 -0.0515 -0.2385  0.3552
 5054SOL    HW126621   0.751   2.685  16.423  0.4162 -1.5519 -0.0050
 5054SOL    HW226622   0.671   2.583  16.490  0.3584 -0.8944 -0.3936
 5055SOL     OW26623   1.827   2.266   5.886 -0.1145  0.3550 -0.4169
 5055SOL    HW126624   1.797   2.177   5.904 -1.7976  1.3058  1.5299
 5055SOL    HW226625   1.913   2.249   5.848 -0.2531  0.1649 -0.6480
 5056SOL     OW26626   2.356   0.187   2.072  0.0557  0.0913 -0.0160
 5056SOL    HW126627   2.451   0.197   2.063 -0.0400  3.2361  2.6643
 5056SOL    HW226628   2.326   0.241   1.999  1.9042  1.3282  0.1492
 5057SOL     OW26629   3.361   1.398   3.534 -0.2269  0.2740  0.1662
 5057SOL    HW126630   3.440   1.356   3.500 -1.3616 -1.5600 -0.2500
 5057SOL    HW226631   3.330   1.323   3.586 -0.2674 -0.4458 -0.8886
 5058SOL     OW26632   4.020   0.085  14.426 -0.4379 -0.0492 -0.1962
 5058SOL    HW126633   4.056   0.159  14.378  1.4286 -1.2058 -0.5862
 5058SOL    HW226634   4.047   0.007  14.377 -0.3387  0.4204 -0.8738
 5059SOL     OW26635   4.156   2.954   0.337  0.3273 -0.7239  0.2745
 5059SOL    HW126636   4.106   2.879   0.302  0.1858 -0.7063  0.4356
 5059SOL    HW226637   4.123   2.949   0.427  1.2957 -0.7644  0.6220
 5060SOL     OW26638   3.445   0.022  13.161  0.5835 -0.8030  0.5759
 5060SOL    HW126639   3.379   0.089  13.178 -2.7582 -3.2198 -3.0407
 5060SOL    HW226640   3.507   0.069  13.105 -1.3158 -0.3202 -1.1355
 5061SOL     OW26641   3.111   1.796   6.031 -0.6227 -0.1884 -0.0302
 5061SOL    HW126642   3.033   1.852   6.028 -1.5691 -1.4380  1.3999
 5061SOL    HW226643   3.087   1.750   6.112  2.9724 -2.1846 -0.1340
 5062SOL     OW26644   2.024   2.456  11.516 -0.2623  0.2432  0.0417
 5062SOL    HW126645   1.994   2.473  11.605  0.1467  4.0020 -0.5382
 5062SOL    HW226646   1.948   2.414  11.475 -0.7499  1.8295 -0.6907
 5063SOL     OW26647   2.051   2.717  16.105  0.1688 -0.0974 -0.1718
 5063SOL    HW126648   2.002   2.636  16.124  1.6708 -0.6790  1.2042
 5063SOL    HW226649   2.095   2.694  16.024  0.4389  2.4107 -0.7200
 5064SOL     OW26650   4.056   2.959   5.926  0.0593  0.1524 -0.4157
 5064SOL    HW126651   3.970   2.935   5.961 -0.1239  1.8261  0.2921
 5064SOL    HW226652   4.043   3.029   5.861  0.2631 -0.2196 -0.8538
 5065SOL     OW26653   1.103   4.424   2.353  0.0615  0.2805 -0.3054
 5065SOL    HW126654   1.153   4.488   2.304  0.3796 -0.6310 -1.1804
 5065SOL    HW226655   1.059   4.374   2.284  1.3963 -1.3324 -0.0139
 5066SOL     OW26656   3.162   2.545   2.914 -0.1331  0.0894  0.0024
 5066SOL    HW126657   3.095   2.581   2.972  1.3666 -0.7909  2.2443
 5066SOL    HW226658   3.179   2.622   2.860 -2.1137  1.1633  0.8937
 5067SOL     OW26659   3.198   0.429   3.097 -0.0202  1.0767 -0.4646
 5067SOL    HW126660   3.131   0.372   3.135  2.3692 -0.0580  1.9966
 5067SOL    HW226661   3.280   0.381   3.109 -1.1048 -0.9757 -1.1866
 5068SOL     OW26662   0.186   1.905   9.181  0.2942 -0.1086 -0.2157
 5068SOL    HW126663   0.144   1.937   9.260  0.7573  0.2155 -0.1000
 5068SOL    HW226664   0.123   1.839   9.151  1.9114 -0.9654 -1.7351
 5069SOL     OW26665   1.276   0.253   6.093 -0.0241  0.1249 -0.0898
 5069SOL    HW126666   1.302   0.191   6.162 -2.4002 -1.1511 -0.3607
 5069SOL    HW226667   1.360   0.251   6.046  0.5051  1.9135  0.7701
 5070SOL     OW26668   1.211   1.471   6.869 -0.4468  0.5138  0.7449
 5070SOL    HW126669   1.245   1.463   6.958  2.4636 -3.9399 -0.7790
 5070SOL    HW226670   1.220   1.564   6.847  3.6112 -0.6139 -2.2695
 5071SOL     OW26671   3.791   1.311   6.982  0.3354 -0.3136  0.6285
 5071SOL    HW126672   3.785   1.392   6.932  1.1457 -0.2466  0.6426
 5071SOL    HW226673   3.709   1.310   7.032 -0.2349  0.4332 -0.2934
 5072SOL     OW26674   2.803   1.234   6.405  0.7392  0.6155  0.5901
 5072SOL    HW126675   2.748   1.156   6.401 -0.2725  1.3298  0.5794
 5072SOL    HW226676   2.885   1.210   6.449  1.7250 -1.1243 -2.1916
 5073SOL     OW26677   3.821   4.405   0.504 -0.4337 -0.0897  0.7141
 5073SOL    HW126678   3.734   4.428   0.537 -0.2354 -0.1503  1.2718
 5073SOL    HW226679   3.876   4.468   0.550  1.6520 -2.2267  1.1886
 5074SOL     OW26680   2.367   0.397   5.241 -0.6673  0.2199  0.2164
 5074SOL    HW126681   2.461   0.379   5.254 -0.8910  0.4338  2.1421
 5074SOL    HW226682   2.355   0.491   5.252  1.0641  0.2020  2.4193
 5075SOL     OW26683   0.017   0.797   0.489 -0.1372 -0.2419  0.0647
 5075SOL    HW126684   4.644   0.817   0.482  0.1002  0.7277 -0.3366
 5075SOL    HW226685   0.046   0.843   0.568 -0.4586  2.1876 -1.2371
 5076SOL     OW26686   3.920   1.064   6.946  0.6126 -0.4580  0.1593
 5076SOL    HW126687   3.981   1.086   6.875  2.6756  0.0122  2.0894
 5076SOL    HW226688   3.875   1.147   6.963  0.1016 -0.0358 -3.1452
 5077SOL     OW26689   4.577   3.501   8.955 -0.2991  0.4189 -0.2045
 5077SOL    HW126690   4.562   3.588   8.991 -2.3138 -0.5170  1.2164
 5077SOL    HW226691   4.542   3.448   9.027 -2.7835 -0.0897 -1.7840
 5078SOL     OW26692   4.621   2.109  14.329 -0.0302 -0.6705 -0.3161
 5078SOL    HW126693   4.648   2.197  14.303 -0.7641 -0.2139  0.4570
 5078SOL    HW226694   4.663   2.106  14.414 -2.8638  0.4691  1.1370
 5079SOL     OW26695   1.989   1.456   4.542  0.0084  0.1769 -0.6680
 5079SOL    HW126696   1.993   1.519   4.615  1.0107 -0.4010 -0.2250
 5079SOL    HW226697   1.918   1.392   4.555  0.2655  0.3611  1.6129
 5080SOL     OW26698   2.454   0.787   6.489  0.1878 -0.3555  0.8672
 5080SOL    HW126699   2.482   0.780   6.580  0.7045  1.2231  0.8230
 5080SOL    HW226700   2.417   0.700   6.470 -1.4671 -0.1157  2.9419
 5081SOL     OW26701   1.304   2.538   7.399 -0.1125  0.2277  0.0039
 5081SOL    HW126702   1.271   2.502   7.482  1.3380  0.4200  0.6554
 5081SOL    HW226703   1.220   2.556   7.356  0.1674  1.8696  0.1396
 5082SOL     OW26704   2.383   3.395   2.791  0.3408 -0.1080 -0.0195
 5082SOL    HW126705   2.349   3.444   2.865  1.1497 -0.4019  0.5567
 5082SOL    HW226706   2.453   3.344   2.833  1.1215  1.0986  0.1256
 5083SOL     OW26707   4.093   4.645  10.827 -0.3746  0.1178  0.3159
 5083SOL    HW126708   4.068   4.597  10.748  0.3983 -2.4739  1.6310
 5083SOL    HW226709   4.084   0.017  10.803  2.4333  0.4645  0.5939
 5084SOL     OW26710   0.346   3.272  16.761  0.5130 -0.2065  0.2998
 5084SOL    HW126711   0.353   3.193  16.709 -0.8860  0.1487 -0.4169
 5084SOL    HW226712   0.317   3.231  16.843  0.5540 -0.9560 -0.0617
 5085SOL     OW26713   2.620   2.235   5.812  0.3919 -0.4558 -0.4021
 5085SOL    HW126714   2.610   2.243   5.907 -1.0211 -1.5674 -0.4462
 5085SOL    HW226715   2.659   2.320   5.793  0.3196 -0.6948 -1.5817
 5086SOL     OW26716   0.729   1.885  16.497  0.3233  0.6708 -0.2592
 5086SOL    HW126717   0.654   1.833  16.525  1.6512 -0.7279  0.7007
 5086SOL    HW226718   0.798   1.819  16.501  0.6749  1.1537  1.9293
 5087SOL     OW26719   0.001   3.719  15.826 -0.0648  0.2306 -0.5484
 5087SOL    HW126720   4.694   3.634  15.791 -1.7390  0.3307  0.4984
 5087SOL    HW226721   4.641   3.749  15.868  0.0359  0.8585 -0.7919
 5088SOL     OW26722   3.908   0.090   6.188  0.1887  0.1712  0.2355
 5088SOL    HW126723   3.862   0.011   6.160 -2.8178  1.2811  2.1231
 5088SOL    HW226724   3.846   0.160   6.165  2.6006  1.6054 -1.9870
 5089SOL     OW26725   2.893   3.201   4.275  0.6523 -0.2572 -0.3940
 5089SOL    HW126726   2.928   3.286   4.247 -0.4094  0.2748 -0.0884
 5089SOL    HW226727   2.959   3.141   4.240  0.4510 -0.6793 -0.0476
 5090SOL     OW26728   2.700   1.016   9.906 -0.0654  0.0866  0.2127
 5090SOL    HW126729   2.679   0.985   9.994  0.2843  2.4215  1.0988
 5090SOL    HW226730   2.658   1.101   9.897 -2.8943 -1.4038 -0.7443
 5091SOL     OW26731   4.075   2.822   7.298 -1.1616  0.5594  0.1990
 5091SOL    HW126732   3.985   2.791   7.305 -0.1805 -2.5390 -0.9394
 5091SOL    HW226733   4.118   2.768   7.365 -0.1863  0.5283 -0.4579
 5092SOL     OW26734   4.521   1.549   5.749  0.4323 -0.1247 -0.2308
 5092SOL    HW126735   4.570   1.630   5.736 -0.5465  0.5201  0.1666
 5092SOL    HW226736   4.447   1.548   5.688  0.1797 -0.6285  0.0799
 5093SOL     OW26737   3.981   0.526   2.383  0.4130 -0.3136 -0.3114
 5093SOL    HW126738   3.979   0.592   2.453 -0.8636 -0.1620 -0.4894
 5093SOL    HW226739   4.067   0.535   2.342  0.3508  4.2952  0.5298
 5094SOL     OW26740   0.405   3.509   5.454  0.4234 -0.7982 -0.6443
 5094SOL    HW126741   0.317   3.514   5.416 -0.4862 -1.5788  1.3242
 5094SOL    HW226742   0.386   3.523   5.547  0.3975 -0.1072 -0.7581
 5095SOL     OW26743   1.897   2.216   5.235  0.3285  0.2859  0.6838
 5095SOL    HW126744   1.984   2.244   5.208  0.1835  0.1090  0.0446
 5095SOL    HW226745   1.904   2.123   5.212  1.6578  0.6420 -0.3388
 5096SOL     OW26746   3.754   4.502  12.629 -0.5136  0.2133 -0.4800
 5096SOL    HW126747   3.777   4.472  12.542  2.0150 -0.7416  0.5132
 5096SOL    HW226748   3.665   4.531  12.610 -1.0668 -1.7042 -0.7649
 5097SOL     OW26749   3.635   2.552   6.092  0.1200 -0.6910  0.0349
 5097SOL    HW126750   3.644   2.625   6.031  0.3507 -2.2112 -1.7259
 5097SOL    HW226751   3.728   2.530   6.087  0.1062 -0.8245  0.3394
 5098SOL     OW26752   3.905   2.580   8.547  0.0841 -0.0332 -0.3172
 5098SOL    HW126753   3.956   2.560   8.626 -0.7551  2.1737  0.7737
 5098SOL    HW226754   3.924   2.512   8.482 -0.0100  0.6355 -1.0483
 5099SOL     OW26755   1.222   3.757   0.655 -0.6493  0.1204 -0.3998
 5099SOL    HW126756   1.196   3.692   0.589 -2.7198  0.4760  0.0648
 5099SOL    HW226757   1.263   3.690   0.709  0.0089 -0.1147 -1.1853
 5100SOL     OW26758   2.092   0.540   6.223  0.3907 -0.3087 -0.1476
 5100SOL    HW126759   2.111   0.587   6.304  0.6926 -2.3148  0.9674
 5100SOL    HW226760   2.077   0.450   6.255  1.0392 -0.5081 -0.3988
 5101SOL     OW26761   4.647   0.404  11.466 -0.5835  0.3238 -0.3913
 5101SOL    HW126762   4.603   0.486  11.442  1.7193  1.1976 -1.5501
 5101SOL    HW226763   4.692   0.432  11.546  1.7015 -0.2619 -1.4894
 5102SOL     OW26764   1.400   0.978   4.442 -0.3103 -0.1184  0.1236
 5102SOL    HW126765   1.478   1.020   4.405 -1.0368 -0.2685 -1.5856
 5102SOL    HW226766   1.381   0.926   4.364 -0.0286  1.2069 -0.8439
 5103SOL     OW26767   0.471   1.017   5.266  0.3735 -0.5501  0.3060
 5103SOL    HW126768   0.402   1.065   5.311  2.3787  0.4633  2.3164
 5103SOL    HW226769   0.539   1.011   5.333  1.7738  0.5618 -1.0228
 5104SOL     OW26770   2.511   4.624   9.344 -0.3394 -0.3319  0.1873
 5104SOL    HW126771   2.442   4.591   9.401  1.1959 -1.1458  1.5749
 5104SOL    HW226772   2.468   4.695   9.296 -0.0359 -2.3093 -2.9583
 5105SOL     OW26773   1.354   2.552   6.668 -0.1260 -0.6195  0.4154
 5105SOL    HW126774   1.335   2.610   6.594  1.1110  1.2579  1.5479
 5105SOL    HW226775   1.449   2.544   6.675 -0.2278 -0.9579  1.4398
 5106SOL     OW26776   0.681   2.477  16.625  0.0565 -0.2049  0.1117
 5106SOL    HW126777   0.717   2.394  16.594  0.0452  0.2369 -1.0691
 5106SOL    HW226778   0.606   2.455  16.681  0.1120  0.0928  0.3062
 5107SOL     OW26779   3.168   1.991   8.498  0.0349  0.0530 -0.1249
 5107SOL    HW126780   3.122   2.070   8.527 -0.6668  0.1714 -1.5826
 5107SOL    HW226781   3.096   1.931   8.520 -1.4903  1.8713 -0.1580
 5108SOL     OW26782   1.253   1.384   1.623 -0.5764 -0.0218 -0.0594
 5108SOL    HW126783   1.176   1.402   1.569 -1.7595 -0.6544  1.4376
 5108SOL    HW226784   1.267   1.290   1.611 -0.1680 -0.1636  1.5786
 5109SOL     OW26785   2.868   3.422  17.053 -0.1455 -0.2355  0.5533
 5109SOL    HW126786   2.793   3.364  17.038  0.3616 -1.6312  3.4182
 5109SOL    HW226787   2.916   3.426  16.970  0.1041 -1.1533  0.6579
 5110SOL     OW26788   2.986   1.584   7.686 -0.4036  0.8435  0.1957
 5110SOL    HW126789   2.991   1.557   7.594  0.5184  1.1634  0.1578
 5110SOL    HW226790   2.964   1.676   7.673 -1.9040  0.3557 -0.7389
 5111SOL     OW26791   4.321   1.757   0.675 -0.1423  0.1200  0.0233
 5111SOL    HW126792   4.388   1.761   0.606 -3.2030  1.4680 -2.8217
 5111SOL    HW226793   4.336   1.666   0.703  2.0977  0.5974  0.4102
 5112SOL     OW26794   4.691   2.869   8.792  0.2775  0.5415 -0.2798
 5112SOL    HW126795   0.046   2.876   8.852 -0.8891  0.1079  1.2203
 5112SOL    HW226796   0.003   2.901   8.707  0.4700 -2.3896 -1.3221
 5113SOL     OW26797   2.721   1.151   3.340 -0.4908 -0.2274  0.2367
 5113SOL    HW126798   2.763   1.224   3.295 -1.9379  0.1184 -0.5686
 5113SOL    HW226799   2.760   1.073   3.302 -0.6253 -0.2969  0.2420
 5114SOL     OW26800   1.187   2.004   8.841 -0.0923  0.4376 -0.8463
 5114SOL    HW126801   1.094   1.984   8.848 -0.0616  0.6296  0.1133
 5114SOL    HW226802   1.230   1.929   8.801 -1.8187 -1.1836  0.3050
 5115SOL     OW26803   3.135   1.087   3.251  0.3617  0.3096  0.5213
 5115SOL    HW126804   3.205   1.031   3.283  0.3952 -1.3339 -2.3406
 5115SOL    HW226805   3.095   1.031   3.184 -1.1559  3.9760 -1.7035
 5116SOL     OW26806   0.056   1.928  17.168 -0.3599 -0.5197  0.2540
 5116SOL    HW126807   0.106   1.897  17.093 -2.0756 -0.0721 -1.0731
 5116SOL    HW226808   0.111   1.917  17.246 -0.6481  0.3256  0.5780
 5117SOL     OW26809   0.894   2.514  10.355 -0.1607  0.5700  0.7668
 5117SOL    HW126810   0.932   2.497  10.441 -0.1118  1.0974  0.8541
 5117SOL    HW226811   0.813   2.464  10.353 -1.2743  2.3286  1.3612
 5118SOL     OW26812   3.362   3.772   7.392 -0.3145  0.8065  0.2741
 5118SOL    HW126813   3.419   3.757   7.317  0.5874 -1.2788  1.3614
 5118SOL    HW226814   3.432   3.806   7.449 -1.0799 -0.1062  1.7853
 5119SOL     OW26815   1.693   3.732   4.674  0.0020 -0.0242  0.2838
 5119SOL    HW126816   1.775   3.715   4.720 -0.1945 -2.8696 -0.4361
 5119SOL    HW226817   1.719   3.811   4.626 -0.6106 -0.2302 -0.3885
 5120SOL     OW26818   0.287   4.615  13.675  0.7550  0.4437 -0.0226
 5120SOL    HW126819   0.289   4.680  13.604  0.6716  0.7210  0.2310
 5120SOL    HW226820   0.380   4.601  13.691  0.7229  1.1850  0.7634
 5121SOL     OW26821   0.547   0.079   4.895  0.2659 -0.4348 -0.0928
 5121SOL    HW126822   0.458   0.101   4.867  1.0996 -1.7108 -3.6125
 5121SOL    HW226823   0.539   0.093   4.990 -0.3286 -0.4187 -0.1438
 5122SOL     OW26824   4.591   3.380   8.123  0.2559 -0.3219  0.5470
 5122SOL    HW126825   4.612   3.312   8.187 -0.8949  0.8096  2.1130
 5122SOL    HW226826   4.509   3.420   8.152  1.4665  1.5052  1.4335
 5123SOL     OW26827   3.756   0.805   5.977  0.0697  0.3661 -0.9623
 5123SOL    HW126828   3.793   0.856   5.905 -0.4316  0.5549 -1.0899
 5123SOL    HW226829   3.823   0.737   5.987 -0.2275  0.2467  0.2222
 5124SOL     OW26830   3.361   3.319   8.226 -0.3464  0.1036 -0.5306
 5124SOL    HW126831   3.318   3.314   8.311  0.5059 -0.3175 -0.1241
 5124SOL    HW226832   3.453   3.324   8.251 -1.0856  2.0555  1.8017
 5125SOL     OW26833   0.875   4.677   0.715  0.1788  0.1096 -0.2436
 5125SOL    HW126834   0.886   0.050   0.736 -0.3153  0.2256 -0.5111
 5125SOL    HW226835   0.955   4.639   0.752  0.5641  1.1930  0.0373
 5126SOL     OW26836   4.287   1.244  16.903  0.0691  0.1987  0.4285
 5126SOL    HW126837   4.318   1.156  16.881 -0.1954  1.0877 -3.4086
 5126SOL    HW226838   4.209   1.250  16.847  1.1068 -0.3288 -1.0654
 5127SOL     OW26839   0.537   0.048   5.171 -0.1408 -0.5968  0.1983
 5127SOL    HW126840   0.493   0.115   5.223 -1.2354 -1.4956  0.4165
 5127SOL    HW226841   0.619   0.062   5.218 -0.6044 -0.1550  0.8826
 5128SOL     OW26842   0.420   0.026   6.848 -0.0330  0.1197 -0.8991
 5128SOL    HW126843   0.506   4.706   6.831 -0.4047 -1.2198  0.3561
 5128SOL    HW226844   0.404   4.717   6.938  2.0451  0.4858 -0.4135
 5129SOL     OW26845   2.756   0.628   5.372  0.5487 -0.1879 -0.1783
 5129SOL    HW126846   2.699   0.599   5.443 -1.4605 -0.3534 -1.8542
 5129SOL    HW226847   2.693   0.651   5.304 -1.0261 -1.7417  0.7688
 5130SOL     OW26848   1.662   2.275   1.965 -0.4354 -0.2647  0.1100
 5130SOL    HW126849   1.620   2.360   1.979 -0.5004 -0.2485 -0.1964
 5130SOL    HW226850   1.719   2.271   2.042 -1.6122 -0.3610  0.9899
 5131SOL     OW26851   3.122   1.078   4.311 -0.0520  0.3568  0.5381
 5131SOL    HW126852   3.091   1.070   4.401  0.0838 -0.7460  0.4802
 5131SOL    HW226853   3.062   1.149   4.286  0.3907 -0.0582 -1.6762
 5132SOL     OW26854   0.816   0.308   7.377  0.2721  0.5307 -0.2352
 5132SOL    HW126855   0.758   0.364   7.325 -1.2755  0.4955  1.4144
 5132SOL    HW226856   0.764   0.293   7.456  1.3510 -0.7240  0.2277
 5133SOL     OW26857   0.434   4.664  12.830  0.1451 -0.0017  0.0225
 5133SOL    HW126858   0.412   4.571  12.824 -1.7443  0.3892  0.8628
 5133SOL    HW226859   0.529   4.660  12.846  0.3808 -0.3056 -1.4760
 5134SOL     OW26860   0.199   2.069   5.488 -0.4831 -0.0785 -0.7098
 5134SOL    HW126861   0.149   2.027   5.558  0.4430 -0.9362 -0.5602
 5134SOL    HW226862   0.144   2.142   5.459 -0.7448 -0.7422 -1.8576
 5135SOL     OW26863   1.328   0.774   4.930  0.1399 -0.9935  0.3665
 5135SOL    HW126864   1.270   0.718   4.983 -1.1044  0.9759  1.0950
 5135SOL    HW226865   1.282   0.781   4.847 -0.6741  2.0775  1.1001
 5136SOL     OW26866   1.215   0.064   0.208 -0.5021  0.2321 -0.7107
 5136SOL    HW126867   1.199   0.154   0.181  0.2410 -0.0985 -2.2636
 5136SOL    HW226868   1.156   0.051   0.282  1.7602 -0.0187  1.0819
 5137SOL     OW26869   0.147   1.322  11.490  0.5464 -0.2800  0.1454
 5137SOL    HW126870   0.168   1.329  11.583  0.2492  2.9610 -0.0169
 5137SOL    HW226871   0.118   1.411  11.471 -1.4730 -1.4102 -1.9322
 5138SOL     OW26872   3.002   4.334   8.645 -0.3446  0.2852  0.1721
 5138SOL    HW126873   3.073   4.299   8.591 -1.0068 -0.4969 -0.1800
 5138SOL    HW226874   2.921   4.309   8.601  0.6557  0.4319 -1.7526
 5139SOL     OW26875   4.657   1.425   1.439  0.4994  0.4955  0.1474
 5139SOL    HW126876   4.654   1.517   1.465  0.2533 -0.1041  2.1814
 5139SOL    HW226877   0.028   1.416   1.410  0.3355 -0.2673 -0.1207
 5140SOL     OW26878   3.769   2.254  11.148  0.6339  0.0420  0.0464
 5140SOL    HW126879   3.793   2.326  11.091 -1.1812  0.7941  0.2376
 5140SOL    HW226880   3.817   2.182  11.107 -0.4679  0.6006 -2.2401
 5141SOL     OW26881   3.196   0.079   0.607 -0.5492 -0.5308  0.0679
 5141SOL    HW126882   3.225   0.147   0.546  0.4964 -0.1046  1.0512
 5141SOL    HW226883   3.138   0.034   0.545 -1.3013 -0.1795  0.5191
 5142SOL     OW26884   4.568   0.862   8.359 -0.3877 -0.1649 -0.1824
 5142SOL    HW126885   4.517   0.826   8.287  0.2666 -0.8412 -0.3110
 5142SOL    HW226886   4.657   0.861   8.323 -0.3227 -1.4619 -0.0015
 5143SOL     OW26887   4.378   1.580   7.063 -0.3632  0.3820  0.1898
 5143SOL    HW126888   4.440   1.586   7.135  1.2523  1.3454 -1.2889
 5143SOL    HW226889   4.306   1.539   7.111  3.0075 -4.2707  1.1974
 5144SOL     OW26890   3.800   3.596   6.759 -0.7030  0.4338  0.6012
 5144SOL    HW126891   3.719   3.546   6.750 -0.2746 -0.1563 -0.0595
 5144SOL    HW226892   3.770   3.678   6.721 -2.0251  0.9026  2.7098
 5145SOL     OW26893   4.376   0.452   5.242  0.3527  0.2412 -0.6771
 5145SOL    HW126894   4.406   0.470   5.332  0.8517  3.4251 -1.4751
 5145SOL    HW226895   4.286   0.486   5.242 -0.0385 -0.7907 -0.1848
 5146SOL     OW26896   0.683   3.778   2.280  0.2473  0.3089 -0.4618
 5146SOL    HW126897   0.715   3.830   2.354 -2.6630  0.4123  0.7428
 5146SOL    HW226898   0.627   3.842   2.237  2.0381  1.9947 -0.2502
 5147SOL     OW26899   1.625   1.962  13.022  0.7090  0.7630 -0.5694
 5147SOL    HW126900   1.584   1.947  13.107 -0.3519  3.3847 -0.6268
 5147SOL    HW226901   1.555   2.011  12.979 -0.4547  0.3836  0.8924
 5148SOL     OW26902   2.820   4.235   6.373 -0.0033  0.2623 -0.2232
 5148SOL    HW126903   2.822   4.160   6.432 -2.5448 -0.0649 -0.5398
 5148SOL    HW226904   2.758   4.289   6.423 -0.2920  1.5377 -1.9364
 5149SOL     OW26905   0.956   0.325   9.582  0.3782 -0.1598  0.1873
 5149SOL    HW126906   0.902   0.267   9.636  1.4015 -0.6642  0.6549
 5149SOL    HW226907   1.011   0.375   9.642 -0.1938  1.0299 -0.2640
 5150SOL     OW26908   3.207   3.286  11.026  0.2113 -0.0536 -0.0258
 5150SOL    HW126909   3.224   3.346  10.954 -1.3605 -2.5515 -2.4714
 5150SOL    HW226910   3.157   3.351  11.075 -1.4675 -0.5833 -1.0267
 5151SOL     OW26911   4.307   4.694   3.344  0.1359  0.5063  0.6166
 5151SOL    HW126912   4.317   4.679   3.250 -1.7669 -2.4002  0.8994
 5151SOL    HW226913   4.222   4.651   3.356 -0.1168  0.7765 -0.2334
 5152SOL     OW26914   1.696   4.191   7.286 -0.5130  0.0020  0.6876
 5152SOL    HW126915   1.693   4.116   7.347 -1.3094 -1.5021 -1.2190
 5152SOL    HW226916   1.609   4.192   7.248 -1.6008 -0.5049  3.1565
 5153SOL     OW26917   1.315   3.236   2.202  0.0193 -0.0638  0.1944
 5153SOL    HW126918   1.373   3.215   2.275 -2.3821 -0.2181  2.0671
 5153SOL    HW226919   1.271   3.151   2.196 -1.0273  0.3022  2.5517
 5154SOL     OW26920   3.477   2.450   2.721  0.4580  0.1621 -0.4345
 5154SOL    HW126921   3.425   2.529   2.706 -2.2779 -1.8069 -1.2846
 5154SOL    HW226922   3.418   2.376   2.737  1.1442 -0.5389 -1.1769
 5155SOL     OW26923   1.705   3.248  11.841 -0.0337 -0.4514  0.4100
 5155SOL    HW126924   1.652   3.322  11.811  1.2377  0.6312  0.8393
 5155SOL    HW226925   1.789   3.294  11.838 -0.4023  0.2091  0.0940
 5156SOL     OW26926   0.446   4.432   1.794 -0.0671 -0.4267 -0.0576
 5156SOL    HW126927   0.454   4.382   1.713  2.9178  0.4950 -0.3236
 5156SOL    HW226928   0.415   4.358   1.847 -1.0610  0.4036  0.5361
 5157SOL     OW26929   3.064   2.730  14.125  0.2068 -0.3276 -0.1183
 5157SOL    HW126930   3.033   2.812  14.086  1.9067  1.0156  1.3468
 5157SOL    HW226931   2.983   2.700  14.167  0.0913  0.3547  0.1551
 5158SOL     OW26932   2.756   3.161  10.693  0.1461  0.1694  0.0512
 5158SOL    HW126933   2.666   3.156  10.661  0.6251 -3.8083 -0.5730
 5158SOL    HW226934   2.811   3.189  10.620  0.2066 -1.1791 -0.4060
 5159SOL     OW26935   0.995   1.723   8.294  0.6295  0.0997  0.6201
 5159SOL    HW126936   0.997   1.742   8.200 -1.0919 -4.1694 -0.3195
 5159SOL    HW226937   1.083   1.734   8.329  0.1303  2.0668  1.2565
 5160SOL     OW26938   1.274   4.392   3.659 -0.4718  0.3515 -0.5026
 5160SOL    HW126939   1.364   4.423   3.666 -0.2966  0.1126 -1.6643
 5160SOL    HW226940   1.268   4.335   3.736 -0.6490  0.2243 -0.6074
 5161SOL     OW26941   0.040   4.270   0.246 -0.1430  0.6447  0.4226
 5161SOL    HW126942   0.095   4.192   0.242 -2.3214 -0.8409 -0.7825
 5161SOL    HW226943   0.076   4.319   0.319  0.4454  1.3229 -0.3215
 5162SOL     OW26944   4.410   2.594   7.052 -0.3112 -0.5693 -0.2729
 5162SOL    HW126945   4.419   2.656   7.125  1.8202 -2.0065  0.6904
 5162SOL    HW226946   4.355   2.521   7.083 -0.0505 -1.3063 -1.5603
 5163SOL     OW26947   0.499   0.368   5.293 -0.0335 -0.4197 -0.3815
 5163SOL    HW126948   0.432   0.382   5.360  0.7911 -1.2113  0.6012
 5163SOL    HW226949   0.445   0.345   5.217 -1.5975  1.7526  0.0634
 5164SOL     OW26950   0.694   2.992  12.533 -0.4938 -0.1230  0.0426
 5164SOL    HW126951   0.713   3.034  12.617  0.7336  0.7379 -0.6831
 5164SOL    HW226952   0.644   2.916  12.562 -1.3594  0.1442 -0.7162
 5165SOL     OW26953   1.385   4.324   4.163 -0.2666  0.3309  0.3644
 5165SOL    HW126954   1.333   4.377   4.224 -0.1280  0.9588 -0.0632
 5165SOL    HW226955   1.350   4.239   4.190 -0.1796 -0.1955 -1.2090
 5166SOL     OW26956   3.107   3.132   7.456  0.5697  0.2632  0.1676
 5166SOL    HW126957   3.037   3.112   7.394  0.4203  2.8453 -0.5022
 5166SOL    HW226958   3.071   3.088   7.533  0.0966  0.2535 -0.0609
 5167SOL     OW26959   3.124   3.820   6.321  0.3542  0.3748  0.2026
 5167SOL    HW126960   3.061   3.822   6.248  0.7780 -0.4600 -0.1868
 5167SOL    HW226961   3.073   3.780   6.392 -0.8628  0.9553 -0.3401
 5168SOL     OW26962   3.848   2.557   1.590 -0.4757  0.0945 -0.1013
 5168SOL    HW126963   3.843   2.520   1.502 -2.0894  1.6688 -0.6603
 5168SOL    HW226964   3.914   2.495   1.622 -2.4119 -1.3824  1.0272
 5169SOL     OW26965   3.969   0.065   3.197  0.3377  0.0151  0.0376
 5169SOL    HW126966   3.894   0.015   3.166 -0.7611  1.5571  0.1867
 5169SOL    HW226967   4.003   4.712   3.248  0.3304  0.6862  1.0053
 5170SOL     OW26968   0.728   2.150   7.536 -0.6199 -0.0318 -0.0629
 5170SOL    HW126969   0.774   2.163   7.619  1.3817  1.2214 -1.3602
 5170SOL    HW226970   0.670   2.078   7.558 -1.1645 -0.1589 -1.9032
 5171SOL     OW26971   3.083   3.980   7.088 -0.5422 -0.3026  0.0761
 5171SOL    HW126972   3.170   3.960   7.053 -0.2038  1.2228  0.0554
 5171SOL    HW226973   3.039   4.000   7.005  1.0519 -0.7896 -0.8919
 5172SOL     OW26974   0.915   3.373  11.007 -0.1654 -0.0212  0.0012
 5172SOL    HW126975   0.949   3.395  11.094  0.1861  0.1439 -0.1797
 5172SOL    HW226976   0.871   3.289  11.019 -1.1850  0.9195  2.8827
 5173SOL     OW26977   0.956   0.409   2.759  0.0795  0.4912  0.6861
 5173SOL    HW126978   0.885   0.414   2.822 -0.6193 -0.3711 -0.0235
 5173SOL    HW226979   0.930   0.330   2.709  0.7111  1.3455 -1.0026
 5174SOL     OW26980   1.761   0.223   7.281 -0.2325  0.3550 -0.3733
 5174SOL    HW126981   1.781   0.299   7.227  0.7031  0.9522  0.8381
 5174SOL    HW226982   1.834   0.229   7.343 -0.3143  1.7894 -0.4194
 5175SOL     OW26983   0.778   1.792   4.050  0.3075 -0.2491 -0.3866
 5175SOL    HW126984   0.850   1.730   4.060  0.5910 -0.0104 -0.9307
 5175SOL    HW226985   0.707   1.741   4.087  0.1844  0.3969  0.2547
 5176SOL     OW26986   0.153   1.533   5.627 -0.1089  0.1190 -0.1031
 5176SOL    HW126987   0.217   1.507   5.694 -0.3374  0.9423  0.4407
 5176SOL    HW226988   0.093   1.592   5.673 -1.3944 -1.5867  0.4118
 5177SOL     OW26989   1.786   3.228   3.507 -0.4586  0.1300  0.7407
 5177SOL    HW126990   1.749   3.251   3.422 -1.9531  0.9765  1.6175
 5177SOL    HW226991   1.876   3.253   3.492 -0.3981 -2.2205 -2.7165
 5178SOL     OW26992   1.595   3.622   1.590  0.2529  0.0456 -0.1549
 5178SOL    HW126993   1.540   3.549   1.617 -0.0065 -0.6150 -2.4881
 5178SOL    HW226994   1.676   3.607   1.640 -1.8555 -0.7047  3.0423
 5179SOL     OW26995   1.597   3.984   8.227 -0.0204  0.0968  0.8303
 5179SOL    HW126996   1.548   4.009   8.149  0.0705 -1.9881  0.0962
 5179SOL    HW226997   1.567   3.893   8.232  1.2861 -0.5283 -2.8282
 5180SOL     OW26998   4.057   4.647   4.378 -0.0883 -0.3380 -0.1577
 5180SOL    HW126999   4.138   4.622   4.422 -0.3751 -1.9156 -0.5218
 5180SOL    HW227000   4.018   4.693   4.453 -2.0061 -1.9800 -0.1300
 5181SOL     OW27001   2.740   0.965   7.463 -0.4939  0.2866 -0.0088
 5181SOL    HW127002   2.817   0.908   7.458  0.5366  1.7413 -0.4062
 5181SOL    HW227003   2.702   0.951   7.376  0.8047 -1.1914 -0.3459
 5182SOL     OW27004   4.361   2.806   3.807  0.2459 -0.2472  0.2597
 5182SOL    HW127005   4.395   2.759   3.731  0.6681 -0.2370  0.4445
 5182SOL    HW227006   4.433   2.818   3.868 -1.9772 -2.3977  3.2707
 5183SOL     OW27007   4.119   1.362   2.218  0.3290 -0.1440 -0.0848
 5183SOL    HW127008   4.047   1.316   2.174 -0.0394 -0.4595  0.8438
 5183SOL    HW227009   4.076   1.358   2.304 -1.8279  4.8169 -0.9422
 5184SOL     OW27010   3.660   0.836  12.679 -0.2102 -0.5565 -0.6151
 5184SOL    HW127011   3.582   0.786  12.655  0.8840 -1.4940 -2.2083
 5184SOL    HW227012   3.724   0.764  12.683 -0.9466 -1.2002 -0.1985
 5185SOL     OW27013   3.289   0.180  14.660  0.0849  0.5052 -0.2954
 5185SOL    HW127014   3.368   0.143  14.700  0.3262  2.8387  1.3757
 5185SOL    HW227015   3.312   0.167  14.568 -2.6380  0.3537 -0.9547
 5186SOL     OW27016   3.702   1.934   3.287  0.1686  0.1901 -1.1017
 5186SOL    HW127017   3.788   1.974   3.299 -0.0922 -0.1689  1.8285
 5186SOL    HW227018   3.671   1.931   3.377  0.5578 -0.8307 -1.0011
 5187SOL     OW27019   3.560   4.048   6.168  0.1172  0.1998 -0.1523
 5187SOL    HW127020   3.481   4.035   6.116  0.4507 -2.6704  0.0682
 5187SOL    HW227021   3.540   4.114   6.234  2.0246  0.6602 -0.0289
 5188SOL     OW27022   3.947   3.774   1.194 -0.0009 -0.0123  0.0493
 5188SOL    HW127023   4.012   3.764   1.125 -2.4641 -3.8131 -1.7608
 5188SOL    HW227024   3.976   3.712   1.260  1.4553 -0.3958 -0.9603
 5189SOL     OW27025   0.915   2.490  17.061 -0.3038 -0.1595  0.4078
 5189SOL    HW127026   0.912   2.490  17.157  2.2001 -0.2358  0.5032
 5189SOL    HW227027   1.010   2.498  17.051 -0.2946 -1.7345 -0.7200
 5190SOL     OW27028   4.411   2.930   8.835  0.1214  0.1128  0.1268
 5190SOL    HW127029   4.502   2.904   8.823 -0.4776 -1.5011 -0.9920
 5190SOL    HW227030   4.396   2.912   8.928  0.5732  3.6442  0.8760
 5191SOL     OW27031   0.009   1.746   1.632 -0.2314 -0.6557  0.3751
 5191SOL    HW127032   4.645   1.701   1.627 -0.6495 -0.0159  1.6868
 5191SOL    HW227033   0.076   1.689   1.593 -0.6452 -1.6363  1.0915
 5192SOL     OW27034   0.514   2.699   7.649 -0.1747  0.4612 -0.5315
 5192SOL    HW127035   0.491   2.781   7.605  1.8064  0.0848 -2.2331
 5192SOL    HW227036   0.479   2.636   7.586  0.0263  0.3345 -0.5165
 5193SOL     OW27037   0.357   2.161   6.985 -0.2259  0.5309  0.4937
 5193SOL    HW127038   0.447   2.128   6.980 -0.3786 -0.2465  2.7634
 5193SOL    HW227039   0.356   2.203   7.071 -0.5801 -0.3278  0.9046
 5194SOL     OW27040   2.599   3.927   6.274  0.2260  0.2896  1.1941
 5194SOL    HW127041   2.636   3.937   6.186 -0.3597  0.9737  1.0225
 5194SOL    HW227042   2.600   3.831   6.276  1.8674  0.2735 -1.0592
 5195SOL     OW27043   4.711   1.241   6.221 -0.5885  0.2900 -0.1738
 5195SOL    HW127044   4.665   1.251   6.138 -0.6670 -1.5233 -0.3574
 5195SOL    HW227045   0.010   1.147   6.217 -0.3239  0.2165  2.8370
 5196SOL     OW27046   1.135   1.107   7.339 -0.5305 -0.1288  0.6568
 5196SOL    HW127047   1.225   1.095   7.309 -0.6897 -3.1769  1.4045
 5196SOL    HW227048   1.147   1.145   7.426  0.2254 -0.1248  0.5455
 5197SOL     OW27049   0.574   3.791  17.028  0.2866 -0.4459 -0.2088
 5197SOL    HW127050   0.494   3.813  16.980  1.2799  0.1329 -1.6203
 5197SOL    HW227051   0.569   3.699  17.054  1.6362  0.1842  2.2706
 5198SOL     OW27052   4.509   2.001   8.649 -0.5457  0.2570  0.0763
 5198SOL    HW127053   4.502   1.916   8.691  0.9533  0.8721  1.5866
 5198SOL    HW227054   4.492   1.975   8.558 -0.4698  2.8470 -0.7028
 5199SOL     OW27055   4.233   3.228  12.668 -0.0523  0.3650  0.0529
 5199SOL    HW127056   4.218   3.198  12.757  0.8551  0.2373  0.1616
 5199SOL    HW227057   4.328   3.243  12.677  0.1244 -1.0884  0.5779
 5200SOL     OW27058   4.712   3.165  16.355 -0.4464  0.9067  0.1853
 5200SOL    HW127059   4.620   3.183  16.339 -0.0035  4.3324  1.7191
 5200SOL    HW227060   0.011   3.092  16.295 -0.5161  1.7524 -0.8597
 5201SOL     OW27061   1.081   0.694   3.138 -0.1854  0.1889  0.0090
 5201SOL    HW127062   1.010   0.639   3.105  0.3448 -0.0895 -0.6756
 5201SOL    HW227063   1.153   0.659   3.086 -1.3881 -1.4301 -0.5597
 5202SOL     OW27064   1.411   0.859   4.211 -1.2026 -0.4572  0.2299
 5202SOL    HW127065   1.413   0.905   4.127 -0.5087  0.4281  0.7229
 5202SOL    HW227066   1.353   0.785   4.198 -2.3200  0.3750  0.4591
 5203SOL     OW27067   0.924   3.499   6.715 -0.1704 -0.4883  0.6099
 5203SOL    HW127068   0.850   3.454   6.673  0.2694  1.0831 -1.8163
 5203SOL    HW227069   0.975   3.426   6.749  1.5150 -0.6774 -2.3005
 5204SOL     OW27070   0.186   3.811   7.386 -0.4774 -0.2273  0.3511
 5204SOL    HW127071   0.180   3.773   7.474 -0.9577  1.0083  0.8553
 5204SOL    HW227072   0.202   3.728   7.341  2.5078 -0.9059  2.6505
 5205SOL     OW27073   4.110   2.452  10.193 -0.2003  0.6524  0.1912
 5205SOL    HW127074   4.026   2.492  10.218 -0.1724  1.1010 -0.4147
 5205SOL    HW227075   4.085   2.419  10.106 -1.4096  0.7606  0.4980
 5206SOL     OW27076   3.235   0.379   3.814 -0.0526  0.1766 -0.0543
 5206SOL    HW127077   3.229   0.474   3.820  0.0330  0.2667 -1.3055
 5206SOL    HW227078   3.217   0.346   3.902  0.8735 -2.2738 -0.7838
 5207SOL     OW27079   2.754   2.190   4.554  0.0694  0.0903 -0.2214
 5207SOL    HW127080   2.719   2.196   4.465  1.4176  0.2821 -0.7539
 5207SOL    HW227081   2.674   2.168   4.601  0.7193 -0.1947  0.7512
 5208SOL     OW27082   4.532   3.066  16.578 -0.2835 -0.6568 -0.1932
 5208SOL    HW127083   4.499   3.118  16.504 -3.1957 -0.8771  0.9578
 5208SOL    HW227084   4.449   3.077  16.624  0.3676 -1.1700  1.0783
 5209SOL     OW27085   0.205   1.106  15.287 -0.0459 -0.1460 -0.4818
 5209SOL    HW127086   0.114   1.085  15.308 -0.1335  0.2219 -0.4887
 5209SOL    HW227087   0.214   1.194  15.325  1.2766 -0.6767  0.3935
 5210SOL     OW27088   3.526   4.295  12.671  0.0538 -0.3632  0.0442
 5210SOL    HW127089   3.574   4.266  12.593 -0.7973 -1.9653  0.1322
 5210SOL    HW227090   3.530   4.391  12.664  0.4232 -0.4537 -0.9412
 5211SOL     OW27091   2.230   1.084   6.602  0.1423 -0.7358 -0.3475
 5211SOL    HW127092   2.160   1.138   6.640  0.9693 -0.5296  0.9062
 5211SOL    HW227093   2.226   1.012   6.665 -2.9761 -0.3258 -0.0670
 5212SOL     OW27094   2.026   4.530   6.637 -0.2694 -0.5943  0.1391
 5212SOL    HW127095   1.975   4.546   6.717 -1.6765  0.0863 -0.8966
 5212SOL    HW227096   1.953   4.544   6.577  2.3972  0.6875 -2.8173
 5213SOL     OW27097   2.968   1.563   4.093  0.6840 -0.1106  0.2216
 5213SOL    HW127098   3.044   1.602   4.136 -1.1851  2.7176  1.0072
 5213SOL    HW227099   2.987   1.469   4.096 -0.3458 -0.3960 -2.4721
 5214SOL     OW27100   1.819   0.351   2.257 -0.0559  0.2255 -0.7397
 5214SOL    HW127101   1.725   0.354   2.277 -0.1465 -0.1945 -1.0841
 5214SOL    HW227102   1.820   0.268   2.209  1.8655 -0.5340  0.6166
 5215SOL     OW27103   0.855   0.655   8.193 -0.6402  0.0149 -0.7206
 5215SOL    HW127104   0.943   0.681   8.222 -0.3863 -1.5079 -0.1163
 5215SOL    HW227105   0.815   0.742   8.186  0.6937  0.7466  0.7074
 5216SOL     OW27106   0.314   2.677   5.014 -0.1467 -0.4215 -0.1755
 5216SOL    HW127107   0.379   2.607   5.016 -0.1901 -0.4650 -0.2695
 5216SOL    HW227108   0.366   2.746   5.055 -0.0075 -0.1579 -0.7956
 5217SOL     OW27109   1.591   1.771   7.311 -0.1368  0.5226 -0.3157
 5217SOL    HW127110   1.610   1.844   7.369 -0.0476 -0.1397  0.4768
 5217SOL    HW227111   1.499   1.753   7.328 -0.1160 -0.0930 -0.8336
 5218SOL     OW27112   0.698   0.859   8.116  0.1760 -0.3597 -0.2871
 5218SOL    HW127113   0.622   0.892   8.067 -0.8737 -1.7873  0.3924
 5218SOL    HW227114   0.734   0.928   8.172  0.4817 -0.2737 -0.5889
 5219SOL     OW27115   3.309   3.256   6.054 -0.4648  0.0423 -0.2114
 5219SOL    HW127116   3.343   3.330   6.104 -0.8039  1.4061 -2.0113
 5219SOL    HW227117   3.276   3.195   6.120  0.9248 -1.2768 -0.7592
 5220SOL     OW27118   1.702   2.311   0.758 -0.2694  0.4199  0.0987
 5220SOL    HW127119   1.689   2.339   0.849  2.5983 -2.2893  1.3734
 5220SOL    HW227120   1.794   2.292   0.774 -0.2492  0.7620  0.3853
 5221SOL     OW27121   4.429   2.485   6.400 -0.2789 -0.2029 -0.3518
 5221SOL    HW127122   4.356   2.453   6.347  0.0048  0.0204 -0.8774
 5221SOL    HW227123   4.379   2.539   6.461  0.4685  1.2122 -0.9803
 5222SOL     OW27124   1.944   3.281   3.795  0.2073 -0.1699 -0.0122
 5222SOL    HW127125   1.867   3.332   3.767  1.3316  1.0842 -0.8037
 5222SOL    HW227126   1.916   3.196   3.763 -0.0004  0.2125 -0.8461
 5223SOL     OW27127   4.358   3.716   3.563  0.6326  0.2158 -0.0061
 5223SOL    HW127128   4.277   3.767   3.556  0.2776 -0.5891 -1.8909
 5223SOL    HW227129   4.338   3.653   3.494 -1.2831 -0.8133  1.4869
 5224SOL     OW27130   4.067   0.052   6.378 -0.1445 -0.0659  0.1723
 5224SOL    HW127131   4.145   0.092   6.339 -0.4697 -0.2415 -0.6627
 5224SOL    HW227132   4.008   0.079   6.308  0.4591 -1.1047 -0.7250
 5225SOL     OW27133   3.404   2.709   3.860 -0.1775 -0.7815  0.0927
 5225SOL    HW127134   3.473   2.775   3.871  0.8389 -1.9588  0.7872
 5225SOL    HW227135   3.336   2.746   3.916 -0.7677  1.4308 -2.1035
 5226SOL     OW27136   2.371   1.304   8.270 -0.2515  0.2823 -0.4395
 5226SOL    HW127137   2.432   1.377   8.256 -0.0471  0.3228  0.6454
 5226SOL    HW227138   2.336   1.325   8.357  0.5346 -0.1942 -0.0072
 5227SOL     OW27139   2.125   1.321   2.749 -0.0908  0.3154 -0.2915
 5227SOL    HW127140   2.201   1.266   2.731  0.6256  0.3057  2.7378
 5227SOL    HW227141   2.079   1.310   2.665  0.1801 -3.2278  0.0331
 5228SOL     OW27142   1.423   3.807   3.752  0.5537 -0.3748  0.2712
 5228SOL    HW127143   1.372   3.883   3.722  1.9826  0.5260  0.1626
 5228SOL    HW227144   1.411   3.818   3.847 -2.4751 -2.3508  0.1413
 5229SOL     OW27145   4.270   4.094  11.618  0.2960  0.4332  0.3073
 5229SOL    HW127146   4.208   4.123  11.552  2.3140  0.8431 -1.4161
 5229SOL    HW227147   4.354   4.096  11.572  0.9353  1.5082  1.5112
 5230SOL     OW27148   0.519   0.357  13.581  0.0487  0.2822 -0.5445
 5230SOL    HW127149   0.564   0.329  13.500  3.1054 -1.8029  1.8775
 5230SOL    HW227150   0.427   0.352  13.555  0.4848 -1.0622 -1.8483
 5231SOL     OW27151   3.834   4.095   0.645 -0.1689  0.4689  0.2260
 5231SOL    HW127152   3.906   4.032   0.647 -0.8338 -0.3642 -1.7244
 5231SOL    HW227153   3.876   4.157   0.585 -0.1087 -0.3424 -0.5709
 5232SOL     OW27154   4.596   3.314   2.592  0.1621 -0.5911 -0.1622
 5232SOL    HW127155   4.622   3.403   2.618  2.0309 -0.8983 -1.0190
 5232SOL    HW227156   4.534   3.303   2.663 -0.0151  2.4942  0.1897
 5233SOL     OW27157   1.130   0.101   5.468 -0.0854  0.1486  0.3584
 5233SOL    HW127158   1.113   0.020   5.516 -1.7117 -0.5932 -1.4862
 5233SOL    HW227159   1.061   0.157   5.503  0.8268  0.8823  0.9907
 5234SOL     OW27160   1.022   1.627   1.039  0.6961  0.0515 -0.3528
 5234SOL    HW127161   1.048   1.612   1.130  1.8435 -1.5461 -0.9322
 5234SOL    HW227162   0.934   1.589   1.047 -0.0565  0.9522 -4.1084
 5235SOL     OW27163   1.369   0.679   2.583 -0.0965  0.2150 -0.1118
 5235SOL    HW127164   1.451   0.715   2.615 -0.1304 -0.5367  0.8274
 5235SOL    HW227165   1.299   0.733   2.620 -1.5388 -1.7530  0.0615
 5236SOL     OW27166   4.504   1.732   2.652 -0.1380 -0.6859 -0.0875
 5236SOL    HW127167   4.414   1.741   2.622 -0.0747  0.0898 -0.0513
 5236SOL    HW227168   4.534   1.670   2.586 -0.0582 -1.3459  0.5568
 5237SOL     OW27169   0.021   2.325  17.221 -0.0131  0.0093  0.1000
 5237SOL    HW127170   4.717   2.300  17.132 -1.0440  1.1796  0.0413
 5237SOL    HW227171   4.709   2.247  17.267 -0.7099 -0.1933 -0.7125
 5238SOL     OW27172   3.501   2.329   5.178 -0.6102  0.3506 -0.1119
 5238SOL    HW127173   3.416   2.365   5.203  0.3499  1.7951  1.0998
 5238SOL    HW227174   3.528   2.293   5.262 -2.3952 -1.0283 -0.1298
 5239SOL     OW27175   0.049   2.994  16.141 -0.0314  0.0149  0.1490
 5239SOL    HW127176   4.700   3.026  16.082 -0.5710 -1.6531 -0.1141
 5239SOL    HW227177   0.115   3.010  16.074 -2.7123  2.3592 -1.9300
 5240SOL     OW27178   3.043   2.353   3.993 -0.1054  0.1709  0.4813
 5240SOL    HW127179   2.998   2.291   3.936 -0.5386  1.1711 -0.2599
 5240SOL    HW227180   3.135   2.348   3.966 -0.6786  0.6803 -1.5507
 5241SOL     OW27181   4.513   4.150   2.200 -0.2070 -0.2156 -0.1549
 5241SOL    HW127182   4.446   4.108   2.254  0.7411 -0.9985  0.4058
 5241SOL    HW227183   4.567   4.183   2.272 -0.0935  0.5033 -0.5623
 5242SOL     OW27184   2.590   3.051   1.504  0.0006  0.1723  0.5081
 5242SOL    HW127185   2.556   2.962   1.515 -0.2012  0.2586  0.5656
 5242SOL    HW227186   2.627   3.041   1.416  0.2524 -0.9907  0.7432
 5243SOL     OW27187   4.385   3.522   4.320  0.2854 -0.2318 -1.1364
 5243SOL    HW127188   4.315   3.516   4.255 -2.2150 -1.9034  1.7057
 5243SOL    HW227189   4.444   3.472   4.264 -0.4932 -1.1296 -1.1591
 5244SOL     OW27190   1.471   2.442  15.416  0.2694 -0.3231  0.2705
 5244SOL    HW127191   1.522   2.378  15.366  0.7932 -1.2469  1.9653
 5244SOL    HW227192   1.504   2.421  15.504 -0.5103 -0.0481  0.6255
 5245SOL     OW27193   1.875   0.124   0.569  0.5389  0.0059 -0.9095
 5245SOL    HW127194   1.807   0.088   0.511  0.0570 -1.8561  0.8117
 5245SOL    HW227195   1.939   0.052   0.567 -1.9961 -2.3124  1.4145
 5246SOL     OW27196   1.689   4.016   9.330 -1.0576 -0.3172  0.2297
 5246SOL    HW127197   1.648   4.077   9.391  0.5442 -0.7274  1.6856
 5246SOL    HW227198   1.620   3.991   9.268 -0.3432 -3.9477  0.9255
 5247SOL     OW27199   4.499   2.123  16.766 -0.7619 -0.0575  0.1650
 5247SOL    HW127200   4.422   2.171  16.797  0.1624  0.1956  2.1274
 5247SOL    HW227201   4.529   2.199  16.715  0.7076 -1.2129 -0.6745
 5248SOL     OW27202   3.601   2.007   7.492  0.5756 -0.0203 -0.6846
 5248SOL    HW127203   3.656   1.994   7.569  2.7319 -0.7198 -2.3389
 5248SOL    HW227204   3.622   2.100   7.479  0.3278  0.0612 -0.4958
 5249SOL     OW27205   1.498   0.648   3.409 -0.5009  0.8785 -0.9542
 5249SOL    HW127206   1.409   0.635   3.442  0.2894  2.4256  1.8578
 5249SOL    HW227207   1.475   0.642   3.317 -2.3119 -1.2987 -0.3456
 5250SOL     OW27208   3.636   3.377  14.548 -0.1288 -0.3829  0.6962
 5250SOL    HW127209   3.611   3.308  14.609 -1.4389  2.4898  3.4309
 5250SOL    HW227210   3.600   3.456  14.589  1.3420  0.7908 -0.2300
 5251SOL     OW27211   4.155   0.659   9.026 -0.4250  0.6737  0.3879
 5251SOL    HW127212   4.201   0.589   9.071  0.3545  1.8842  1.4811
 5251SOL    HW227213   4.102   0.606   8.967  0.1058  2.4679 -1.7166
 5252SOL     OW27214   1.098   0.997  10.463 -0.2131  0.2699  0.5583
 5252SOL    HW127215   1.097   1.025  10.372 -0.5545  0.0951  0.5083
 5252SOL    HW227216   1.186   1.029  10.486  0.7988 -1.8280 -0.3460
 5253SOL     OW27217   2.362   0.807   7.270  0.7275  0.3001  0.7341
 5253SOL    HW127218   2.435   0.750   7.293 -0.1164 -0.2353  2.0494
 5253SOL    HW227219   2.350   0.859   7.349 -0.2185  0.0484  0.7535
 5254SOL     OW27220   3.709   2.003  12.352 -0.2492  0.6236  0.1889
 5254SOL    HW127221   3.756   2.050  12.283  1.7978 -1.1558  0.3572
 5254SOL    HW227222   3.763   1.924  12.367 -2.0096 -0.5822  0.1486
 5255SOL     OW27223   2.770   1.468  10.625 -0.6151  0.8184  0.6087
 5255SOL    HW127224   2.716   1.492  10.700  1.0121  1.0539  1.6804
 5255SOL    HW227225   2.842   1.529  10.640 -0.3334  0.2916  1.3716
 5256SOL     OW27226   2.304   2.272   0.503 -0.2958  0.1181 -0.4114
 5256SOL    HW127227   2.373   2.321   0.548 -0.8377  0.8734 -0.4020
 5256SOL    HW227228   2.278   2.205   0.567  2.5337  0.0837  0.6960
 5257SOL     OW27229   2.612   4.106   3.996  0.7072 -0.3896  0.0356
 5257SOL    HW127230   2.630   4.174   3.932  0.3071 -1.8918 -1.6746
 5257SOL    HW227231   2.528   4.072   3.965  1.0151  0.8693 -2.1492
 5258SOL     OW27232   3.548   2.675   7.763  0.3782 -0.6193  0.5945
 5258SOL    HW127233   3.593   2.644   7.841  0.4416 -0.1859  0.7283
 5258SOL    HW227234   3.473   2.725   7.798 -1.2752 -3.9678  1.8640
 5259SOL     OW27235   3.134   4.462   8.033  0.1228  0.2649  0.5920
 5259SOL    HW127236   3.059   4.485   8.087 -0.5818 -0.1218 -0.2144
 5259SOL    HW227237   3.186   4.411   8.095 -2.0676 -1.6458  0.8592
 5260SOL     OW27238   0.794   0.143   9.728  0.2487  0.0027  0.0170
 5260SOL    HW127239   0.847   0.089   9.787  0.4999 -1.5363 -1.6053
 5260SOL    HW227240   0.718   0.088   9.709  0.5612 -0.9705  1.5999
 5261SOL     OW27241   0.355   3.706   6.424  0.5478  0.3108  0.6567
 5261SOL    HW127242   0.428   3.725   6.483  0.5047 -0.9199  1.1054
 5261SOL    HW227243   0.347   3.797   6.395 -3.4046 -0.0653  0.5111
 5262SOL     OW27244   3.299   1.002  13.464 -0.6234  0.1597  1.0378
 5262SOL    HW127245   3.251   1.045  13.393 -1.0545 -1.1927  0.5058
 5262SOL    HW227246   3.278   0.911  13.443  2.6750  0.1408 -2.2159
 5263SOL     OW27247   3.726   3.248   6.106  0.1034  0.3161 -0.0938
 5263SOL    HW127248   3.693   3.216   6.190  0.8057 -2.0856 -0.7121
 5263SOL    HW227249   3.752   3.334   6.137 -1.6741  0.5762  0.6820
 5264SOL     OW27250   3.934   2.117   6.943  0.3875  0.0652 -0.2564
 5264SOL    HW127251   3.975   2.062   6.876  1.6288  0.9472 -0.2211
 5264SOL    HW227252   3.842   2.101   6.920 -0.0595  1.3100  0.6694
 5265SOL     OW27253   3.865   0.897   2.055 -0.0653  0.0811  0.0007
 5265SOL    HW127254   3.861   0.931   1.966  1.6373  0.7495  0.1766
 5265SOL    HW227255   3.940   0.837   2.049 -0.8682 -0.9031 -0.1485
 5266SOL     OW27256   1.120   4.676   8.073 -0.0247  0.0130  0.2532
 5266SOL    HW127257   1.137   4.584   8.053 -0.1767  0.6614 -2.9405
 5266SOL    HW227258   1.158   4.685   8.160  0.8130 -1.4401  0.0391
 5267SOL     OW27259   0.299   1.973   4.234  0.3877 -0.6109  0.3433
 5267SOL    HW127260   0.282   1.891   4.187  1.1960 -1.9133  2.3295
 5267SOL    HW227261   0.392   1.980   4.212  0.3740  1.0918  0.8829
 5268SOL     OW27262   0.222   2.926  15.923 -0.3129 -0.5407 -0.0599
 5268SOL    HW127263   0.312   2.904  15.897  0.1856  1.5636 -0.0483
 5268SOL    HW227264   0.198   2.838  15.953 -0.6693 -0.2007  0.6706
 5269SOL     OW27265   4.046   4.384  17.337 -0.0773 -0.1333  0.1229
 5269SOL    HW127266   4.089   4.370  17.252  1.9148  4.7449  0.3433
 5269SOL    HW227267   3.977   4.438  17.296 -0.1101 -0.3374 -0.0912
 5270SOL     OW27268   0.510   2.902  10.698 -0.3215 -0.1783  0.5698
 5270SOL    HW127269   0.552   2.825  10.660  1.1797  1.2661 -0.7001
 5270SOL    HW227270   0.416   2.884  10.693 -0.1902 -0.3881 -1.4071
 5271SOL     OW27271   1.994   0.559  12.709  0.1722 -0.3913 -0.2566
 5271SOL    HW127272   1.983   0.473  12.751 -0.9427 -0.0433  0.1534
 5271SOL    HW227273   1.902   0.584  12.719 -0.4028 -2.1344 -1.1980
 5272SOL     OW27274   1.802   1.883   4.872  0.2480  0.5282 -0.6139
 5272SOL    HW127275   1.815   1.803   4.923 -0.1205 -0.6159 -2.2780
 5272SOL    HW227276   1.707   1.880   4.875  0.2144 -0.0844 -1.9332
 5273SOL     OW27277   0.702   4.040  14.693 -0.1285  0.2686  0.1671
 5273SOL    HW127278   0.636   4.010  14.756  0.0811 -1.7911 -0.5828
 5273SOL    HW227279   0.763   4.086  14.751 -1.1084  1.0448  0.5886
 5274SOL     OW27280   2.549   2.159  12.987  0.0106  0.0791  0.4329
 5274SOL    HW127281   2.613   2.230  12.985 -2.1988  2.1095  1.6779
 5274SOL    HW227282   2.475   2.197  12.940 -0.3014 -1.3580 -0.2445
 5275SOL     OW27283   0.951   0.467   0.379 -0.0124  0.1725 -0.0341
 5275SOL    HW127284   1.013   0.540   0.372  0.3925 -0.4641 -3.0651
 5275SOL    HW227285   0.969   0.445   0.471  1.4703  1.7241  0.0480
 5276SOL     OW27286   4.187   4.240   4.869  0.8072  0.0730 -0.2749
 5276SOL    HW127287   4.252   4.289   4.818  1.2434 -0.1908  0.0265
 5276SOL    HW227288   4.106   4.273   4.830  0.3413 -2.1226 -1.1771
 5277SOL     OW27289   0.987   3.445   5.838  0.1661 -0.0818  0.0589
 5277SOL    HW127290   0.983   3.441   5.742  0.1155  2.8747 -0.0916
 5277SOL    HW227291   1.074   3.482   5.852 -1.1175  1.8351  2.9657
 5278SOL     OW27292   4.021   1.465   0.539 -0.3105  0.1876 -0.3490
 5278SOL    HW127293   3.969   1.407   0.595  0.9031 -2.3844 -1.8676
 5278SOL    HW227294   3.955   1.496   0.477 -1.6376  4.2448  3.0760
 5279SOL     OW27295   1.454   0.118   6.847 -0.0010  0.5473  0.0173
 5279SOL    HW127296   1.469   0.148   6.937 -2.7711 -1.9003  1.3104
 5279SOL    HW227297   1.545   0.113   6.819 -0.0026 -1.3496  0.3772
 5280SOL     OW27298   1.969   4.006   2.731 -0.4214 -0.3459 -0.4104
 5280SOL    HW127299   1.937   3.922   2.765 -0.2104 -0.6721 -1.0241
 5280SOL    HW227300   1.912   4.069   2.775  0.1251 -0.5409  0.5750
 5281SOL     OW27301   0.724   3.279   3.155 -0.4370  0.3978 -0.5119
 5281SOL    HW127302   0.726   3.190   3.118 -0.5868 -0.3037  1.1879
 5281SOL    HW227303   0.735   3.267   3.249  2.1952  0.5283 -0.7913
 5282SOL     OW27304   2.844   4.426  11.461  0.0347 -0.0711 -0.3699
 5282SOL    HW127305   2.752   4.436  11.439  0.9036  0.5917 -3.6832
 5282SOL    HW227306   2.853   4.481  11.539 -1.6532 -0.8877  0.3851
 5283SOL     OW27307   2.894   2.014   9.250 -0.0569 -0.7210 -0.1663
 5283SOL    HW127308   2.970   1.975   9.207  0.8660 -1.0971  1.7955
 5283SOL    HW227309   2.936   2.067   9.317  2.6748 -2.4426 -0.5155
 5284SOL     OW27310   2.407   1.259   7.434  0.0930 -0.3187  0.0470
 5284SOL    HW127311   2.469   1.317   7.478 -0.3642  1.1199 -1.2007
 5284SOL    HW227312   2.322   1.297   7.456  0.5310  0.5027  0.2977
 5285SOL     OW27313   4.430   1.689   0.450  0.3721  0.7220 -0.2511
 5285SOL    HW127314   4.513   1.644   0.439  0.8105  1.4428  0.1018
 5285SOL    HW227315   4.372   1.618   0.423  0.0441  0.4886  1.1104
 5286SOL     OW27316   3.145   3.241   3.278  0.1266  0.3767 -0.6256
 5286SOL    HW127317   3.096   3.173   3.324  0.4621  0.1756 -0.5654
 5286SOL    HW227318   3.102   3.232   3.193 -1.1218  1.6268 -0.1409
 5287SOL     OW27319   0.332   1.483   6.150 -0.5929 -0.0796  0.3794
 5287SOL    HW127320   0.276   1.449   6.220 -1.7973  1.4738  0.1846
 5287SOL    HW227321   0.398   1.529   6.203 -0.6961  0.3158  0.1651
 5288SOL     OW27322   4.212   3.284   9.040  0.3455  0.0263 -0.1611
 5288SOL    HW127323   4.251   3.198   9.027  1.3647  0.3299  0.8830
 5288SOL    HW227324   4.141   3.281   8.975 -2.2048 -0.8260  2.6783
 5289SOL     OW27325   1.282   0.913   0.351 -0.8298  0.3828 -0.0426
 5289SOL    HW127326   1.354   0.957   0.306 -0.8708  1.7823  1.2719
 5289SOL    HW227327   1.208   0.956   0.307 -0.2600  0.8819 -0.5188
 5290SOL     OW27328   1.502   0.223   8.741 -0.1418 -0.0669 -0.7138
 5290SOL    HW127329   1.422   0.246   8.693  0.0849 -1.1294 -1.6038
 5290SOL    HW227330   1.551   0.304   8.755 -1.5504  0.5388  0.6854
 5291SOL     OW27331   4.016   1.059   8.939 -0.3398  0.6436  0.1346
 5291SOL    HW127332   3.982   0.994   8.877  0.9065 -1.0808  1.2943
 5291SOL    HW227333   4.108   1.036   8.935  0.1857  2.6883  0.4492
 5292SOL     OW27334   4.544   3.864   7.992 -0.0089  0.2855  0.4198
 5292SOL    HW127335   4.630   3.826   8.009 -0.3353 -0.4599  0.3988
 5292SOL    HW227336   4.547   3.886   7.899 -0.1802  0.8060  0.5372
 5293SOL     OW27337   4.221   1.567   5.109  0.1341 -0.6335  0.4174
 5293SOL    HW127338   4.258   1.598   5.026  0.6629  0.4360  1.0492
 5293SOL    HW227339   4.234   1.650   5.156  2.3038  0.6011 -2.2973
 5294SOL     OW27340   0.886   0.577   1.817  0.8700  0.1414  0.0254
 5294SOL    HW127341   0.871   0.535   1.902  0.6640 -2.4725 -1.3100
 5294SOL    HW227342   0.931   0.502   1.780  1.5750  0.3746  0.4128
 5295SOL     OW27343   2.556   3.226   5.464 -0.8982  0.9425 -0.7428
 5295SOL    HW127344   2.576   3.139   5.430  2.4150  0.9567  1.1936
 5295SOL    HW227345   2.555   3.204   5.557  1.6462  2.2129 -0.4095
 5296SOL     OW27346   3.345   3.934   5.145 -0.5129 -0.0593 -0.0854
 5296SOL    HW127347   3.321   3.953   5.054 -0.6933  2.3387  0.4565
 5296SOL    HW227348   3.274   3.877   5.171  0.3122 -0.6443  0.8856
 5297SOL     OW27349   2.499   4.366   0.319  0.6391  0.2014 -0.4090
 5297SOL    HW127350   2.487   4.284   0.272 -0.4493  0.1952 -0.1248
 5297SOL    HW227351   2.579   4.398   0.278  0.3110 -0.4041 -1.5309
 5298SOL     OW27352   1.538   1.751  15.630 -0.0430 -0.0663  0.3574
 5298SOL    HW127353   1.474   1.732  15.561  0.7869  1.2994 -0.7851
 5298SOL    HW227354   1.578   1.833  15.603 -1.3395  0.9244  1.4746
 5299SOL     OW27355   4.043   1.553  13.966 -0.4066 -0.3512 -0.3697
 5299SOL    HW127356   4.042   1.510  13.880  0.4181  0.8662 -0.9869
 5299SOL    HW227357   4.133   1.582  13.977 -0.5902  0.2175 -0.3569
 5300SOL     OW27358   1.970   2.822   4.693 -0.1702 -0.0615 -0.4132
 5300SOL    HW127359   1.929   2.786   4.614 -0.3872  1.0165 -0.7921
 5300SOL    HW227360   2.044   2.761   4.696 -0.6885 -0.7821 -2.5701
 5301SOL     OW27361   1.135   1.148  14.126 -0.7193 -0.2041 -0.0389
 5301SOL    HW127362   1.068   1.112  14.184 -0.0410  0.2407  1.0308
 5301SOL    HW227363   1.182   1.073  14.091 -2.3192  1.1439 -5.0486
 5302SOL     OW27364   0.294   0.722   3.364 -0.4646 -0.2060 -0.3431
 5302SOL    HW127365   0.219   0.763   3.320  0.3013  0.0821 -1.3827
 5302SOL    HW227366   0.245   0.687   3.438 -2.6231 -1.3768 -2.3152
 5303SOL     OW27367   2.413   3.386   2.516  0.0465 -0.8863 -0.4024
 5303SOL    HW127368   2.405   3.369   2.610  1.0378  3.3966  0.4720
 5303SOL    HW227369   2.458   3.306   2.491  0.6681 -1.0686  1.3224
 5304SOL     OW27370   3.836   2.722   5.963 -0.2499  0.3988 -0.6675
 5304SOL    HW127371   3.810   2.702   5.873  1.2514 -1.4308 -0.6955
 5304SOL    HW227372   3.815   2.815   5.971  0.2374  0.4253  0.2897
 5305SOL     OW27373   2.415   3.168   8.356 -0.0359  0.0257 -0.0025
 5305SOL    HW127374   2.457   3.103   8.298 -0.7404 -1.0308  0.6804
 5305SOL    HW227375   2.419   3.252   8.310 -0.4239 -0.0857 -0.2355
 5306SOL     OW27376   2.134   0.459   1.170 -0.2700  0.0330 -0.1003
 5306SOL    HW127377   2.040   0.462   1.156 -0.1100 -1.8415 -1.6650
 5306SOL    HW227378   2.160   0.532   1.114 -1.5169  0.6669  0.1605
 5307SOL     OW27379   1.702   0.241  14.445  0.8975 -0.3204  0.5332
 5307SOL    HW127380   1.670   0.330  14.429  0.4194 -0.4688  0.6629
 5307SOL    HW227381   1.789   0.250  14.406  0.7778  1.0778  0.5830
 5308SOL     OW27382   0.906   1.493   3.720 -0.6093  0.3861  0.1093
 5308SOL    HW127383   0.813   1.510   3.710 -0.7091  1.1293  2.2530
 5308SOL    HW227384   0.936   1.571   3.768 -1.0593  0.0673  0.9107
 5309SOL     OW27385   1.825   0.623  12.963  0.0357  0.3857 -0.3689
 5309SOL    HW127386   1.769   0.562  12.915  0.4966  0.2627 -0.7597
 5309SOL    HW227387   1.811   0.700  12.908 -1.0796  0.5100  0.1024
 5310SOL     OW27388   1.444   4.647   0.184 -0.6477 -0.4754  0.1264
 5310SOL    HW127389   1.365   4.701   0.190  0.8646  1.6142  1.2837
 5310SOL    HW227390   1.501   4.687   0.250  0.1415 -1.1853 -0.1240
 5311SOL     OW27391   1.936   1.137   3.940  0.1827  0.4103  0.3899
 5311SOL    HW127392   1.858   1.176   3.980  0.6142  2.4910 -0.8284
 5311SOL    HW227393   1.996   1.145   4.014 -1.6362  0.6050  1.8526
 5312SOL     OW27394   1.169   1.501   4.969  0.4461 -0.1044 -0.0827
 5312SOL    HW127395   1.155   1.569   5.035 -0.8198 -1.9258  1.5397
 5312SOL    HW227396   1.101   1.527   4.907  1.2206 -0.1978 -0.9610
 5313SOL     OW27397   4.370   4.013  16.758 -0.1374  0.0933  0.0642
 5313SOL    HW127398   4.446   4.063  16.726 -0.2704  0.0307 -0.3448
 5313SOL    HW227399   4.367   4.052  16.845 -0.4122 -2.3448  1.1693
 5314SOL     OW27400   2.938   4.167  17.168 -0.5617 -0.5140 -0.5173
 5314SOL    HW127401   2.903   4.083  17.197 -0.1774  0.5496  3.0905
 5314SOL    HW227402   2.856   4.207  17.140 -0.1922  0.8166  0.2917
 5315SOL     OW27403   2.955   2.594   7.104 -0.0233 -0.0686  0.2722
 5315SOL    HW127404   2.945   2.657   7.174 -1.7782 -1.7719  1.5582
 5315SOL    HW227405   2.995   2.530   7.163 -1.6345 -0.0862  1.3488
 5316SOL     OW27406   0.354   3.280   8.774 -0.3067  0.1815  0.0717
 5316SOL    HW127407   0.285   3.326   8.726 -1.5531 -2.0763 -0.3352
 5316SOL    HW227408   0.431   3.284   8.718  0.1121 -0.9281  0.5614
 5317SOL     OW27409   4.570   2.878   7.970  0.2734 -0.5758 -0.1489
 5317SOL    HW127410   4.543   2.946   8.032 -0.0581  0.0118 -0.9438
 5317SOL    HW227411   4.554   2.806   8.032 -2.1764  0.7830  0.8286
 5318SOL     OW27412   1.800   1.337   7.935 -0.1460 -0.0733  0.7412
 5318SOL    HW127413   1.724   1.284   7.911 -0.8498  0.4021  1.9466
 5318SOL    HW227414   1.824   1.384   7.855 -1.5351  1.5823  1.3205
 5319SOL     OW27415   3.132   0.374   2.818  0.2024 -0.0380 -0.1130
 5319SOL    HW127416   3.170   0.450   2.774 -0.4130  1.6402  2.2720
 5319SOL    HW227417   3.149   0.394   2.910  1.4169  1.2250 -0.6295
 5320SOL     OW27418   3.949   1.786   3.648 -0.1778  0.1666  0.0816
 5320SOL    HW127419   3.871   1.823   3.689 -0.4523 -1.0830  0.6679
 5320SOL    HW227420   4.016   1.851   3.670  0.4136 -0.1034 -0.9081
 5321SOL     OW27421   3.130   1.945   9.436  0.7100 -0.0219  0.5135
 5321SOL    HW127422   3.168   1.858   9.419  2.3617  0.9074 -0.5876
 5321SOL    HW227423   3.180   1.990   9.367  0.7850  2.1149  1.9811
 5322SOL     OW27424   2.610   1.366   8.433 -0.2078 -0.1619  0.5349
 5322SOL    HW127425   2.588   1.376   8.526 -2.1808 -1.2084  0.1760
 5322SOL    HW227426   2.653   1.281   8.444  0.6703  0.3876  1.3250
 5323SOL     OW27427   2.527   0.593   8.274  0.0356  0.0514 -0.1288
 5323SOL    HW127428   2.486   0.679   8.284  1.4734  0.7525 -0.3030
 5323SOL    HW227429   2.566   0.594   8.187  0.5249  1.0119  0.1051
 5324SOL     OW27430   2.425   0.156   8.803  0.0588  0.6153 -0.3046
 5324SOL    HW127431   2.387   0.124   8.721 -1.0795 -1.2355  0.9573
 5324SOL    HW227432   2.433   0.246   8.771 -0.6922  0.4239 -1.0378
 5325SOL     OW27433   2.267   1.159   4.746 -0.3697  0.3977 -0.0813
 5325SOL    HW127434   2.278   1.215   4.669 -1.1104 -0.9836 -1.1751
 5325SOL    HW227435   2.335   1.198   4.801  1.4994  0.1774 -2.2234
 5326SOL     OW27436   0.376   4.204   8.411  0.3793 -0.0873  0.0304
 5326SOL    HW127437   0.377   4.277   8.349 -1.8701  0.6039  0.7983
 5326SOL    HW227438   0.306   4.231   8.472 -0.9195 -0.6394 -1.2277
 5327SOL     OW27439   0.115   2.897   5.133  0.4333 -0.1261  0.1585
 5327SOL    HW127440   0.029   2.935   5.113  0.7183  0.6297  0.3606
 5327SOL    HW227441   0.113   2.812   5.089 -2.1887 -0.0957  0.2396
 5328SOL     OW27442   2.711   1.409   0.847  0.0367 -0.2854  0.1585
 5328SOL    HW127443   2.688   1.495   0.883 -0.0127 -0.3416  0.2601
 5328SOL    HW227444   2.709   1.428   0.753 -2.8489 -2.1834 -0.1538
 5329SOL     OW27445   4.371   4.082  13.702 -0.0840 -0.1148  0.4446
 5329SOL    HW127446   4.453   4.065  13.655 -1.2730  0.9806 -1.9842
 5329SOL    HW227447   4.408   4.068  13.789 -2.1606  1.2500  1.5369
 5330SOL     OW27448   0.193   3.038  14.162 -0.6110 -0.2067 -0.0179
 5330SOL    HW127449   0.199   3.127  14.129  0.8456 -0.9679 -1.7817
 5330SOL    HW227450   0.177   3.003  14.074  1.6121 -3.1599  0.7436
 5331SOL     OW27451   1.464   0.515  11.043 -0.1959 -0.1274  0.1102
 5331SOL    HW127452   1.400   0.586  11.038  1.6274  1.4976  0.2202
 5331SOL    HW227453   1.448   0.488  11.133 -2.4489 -1.0150 -0.5352
 5332SOL     OW27454   2.253   0.937   4.907  0.2548  0.4199  0.2535
 5332SOL    HW127455   2.159   0.922   4.899  0.8672 -2.7830 -0.8787
 5332SOL    HW227456   2.260   1.021   4.863 -0.6617  0.1992 -0.3127
 5333SOL     OW27457   4.443   1.284  10.386 -0.0601 -0.4999  0.2030
 5333SOL    HW127458   4.434   1.266  10.479  2.3467  2.7204  1.0474
 5333SOL    HW227459   4.398   1.368  10.378 -1.8331 -1.4602  0.1928
 5334SOL     OW27460   0.941   4.139   4.415 -0.7467  0.0693 -0.2400
 5334SOL    HW127461   0.871   4.076   4.430  0.1580 -0.6629  0.9815
 5334SOL    HW227462   0.964   4.165   4.505 -4.1553  1.0735  0.3452
 5335SOL     OW27463   4.337   2.589   5.553 -0.1684  1.0474  0.2225
 5335SOL    HW127464   4.352   2.569   5.461 -0.2513  0.7003  0.2854
 5335SOL    HW227465   4.407   2.653   5.568  0.1872  0.7673 -0.2759
 5336SOL     OW27466   4.194   2.500  16.428 -0.0497  0.5698  0.0012
 5336SOL    HW127467   4.217   2.462  16.344  1.1087  0.1760  0.5069
 5336SOL    HW227468   4.123   2.561  16.408 -0.7979 -0.7995 -1.4873
 5337SOL     OW27469   2.485   1.726  14.122  0.9591 -0.0280  0.3729
 5337SOL    HW127470   2.570   1.767  14.107  1.0623  0.4337  2.3207
 5337SOL    HW227471   2.430   1.800  14.147 -2.4209 -1.6229 -2.3095
 5338SOL     OW27472   0.366   0.633  12.226  0.1915  0.2094  0.5771
 5338SOL    HW127473   0.407   0.547  12.231  0.4724  0.2855 -0.3186
 5338SOL    HW227474   0.271   0.627  12.229  0.0176  3.3212  0.8003
 5339SOL     OW27475   3.796   3.729   4.154 -0.3215  0.2228  0.1611
 5339SOL    HW127476   3.796   3.820   4.124 -0.9206  0.1050 -0.1968
 5339SOL    HW227477   3.761   3.736   4.243  1.6031 -0.4252  0.9702
 5340SOL     OW27478   0.805   3.190   1.033 -0.4781  0.0938  0.0043
 5340SOL    HW127479   0.817   3.228   1.120 -1.5228  0.4506 -0.0076
 5340SOL    HW227480   0.846   3.103   1.034  1.4611  1.0125 -0.9564
 5341SOL     OW27481   3.083   2.175   8.025 -0.8351  0.0644 -0.0081
 5341SOL    HW127482   3.148   2.127   8.077  0.1701  2.7304  1.2055
 5341SOL    HW227483   3.006   2.161   8.080 -1.7267  0.0590 -1.2710
 5342SOL     OW27484   3.461   2.814  16.768  0.3141 -0.9028  0.3339
 5342SOL    HW127485   3.497   2.862  16.842  2.3515 -0.8631 -0.6622
 5342SOL    HW227486   3.481   2.721  16.784 -0.5249 -1.5008 -2.0736
 5343SOL     OW27487   0.864   1.978   9.855  0.3044 -0.6655 -1.1532
 5343SOL    HW127488   0.887   1.893   9.892  2.4604  0.6098  0.4664
 5343SOL    HW227489   0.916   1.984   9.775 -0.5074  0.3764 -1.5983
 5344SOL     OW27490   3.648   0.954   8.195 -0.2674 -0.1291  0.1118
 5344SOL    HW127491   3.578   0.888   8.202  0.4890 -1.0293 -0.8027
 5344SOL    HW227492   3.674   0.949   8.287  1.7986 -0.7127 -0.5063
 5345SOL     OW27493   3.232   1.400   3.263  0.0042 -0.2501  0.4012
 5345SOL    HW127494   3.270   1.375   3.346  1.1190 -2.7293 -0.8628
 5345SOL    HW227495   3.178   1.323   3.241  0.7986 -0.0738 -2.2354
 5346SOL     OW27496   1.860   3.520   7.609  0.0674 -0.0662 -0.0111
 5346SOL    HW127497   1.939   3.491   7.565 -0.8490 -3.0675  0.3186
 5346SOL    HW227498   1.878   3.611   7.634  1.1091 -0.3312  0.1814
 5347SOL     OW27499   2.882   1.451   8.693  0.2653 -0.0972 -0.5345
 5347SOL    HW127500   2.795   1.411   8.683  0.8442 -1.6394  0.5446
 5347SOL    HW227501   2.883   1.502   8.774 -3.5319  2.5197 -2.1334
 5348SOL     OW27502   4.069   1.129   3.044 -0.2178  0.3198  0.3513
 5348SOL    HW127503   4.002   1.195   3.061  0.0241  0.6642 -0.0309
 5348SOL    HW227504   4.115   1.172   2.971 -1.1274 -1.8030 -1.4572
 5349SOL     OW27505   3.654   4.293   3.588 -0.0942  0.6176  0.2815
 5349SOL    HW127506   3.692   4.380   3.600  1.4523  0.2388 -1.8377
 5349SOL    HW227507   3.592   4.311   3.517 -0.6703 -1.4300  0.2643
 5350SOL     OW27508   3.347   3.643   6.270 -0.3638 -0.5482 -0.2508
 5350SOL    HW127509   3.357   3.606   6.358 -0.9883 -0.7239 -0.2493
 5350SOL    HW227510   3.305   3.727   6.293  2.6577  0.3064  2.1234
 5351SOL     OW27511   0.232   0.567   1.571 -0.0503 -0.4761 -0.0374
 5351SOL    HW127512   0.153   0.608   1.607  0.6439 -0.5017  1.4889
 5351SOL    HW227513   0.270   0.540   1.654  2.5380  1.4993 -0.5820
 5352SOL     OW27514   0.372   0.281   6.027  0.7977 -0.6171  0.3556
 5352SOL    HW127515   0.299   0.268   5.967 -1.0533  1.8003  2.0519
 5352SOL    HW227516   0.441   0.242   5.974 -0.2332 -0.4380 -1.1099
 5353SOL     OW27517   0.397   4.645   0.272  0.3694  0.0337 -0.4168
 5353SOL    HW127518   0.384   4.655   0.366 -1.7713 -2.1100 -0.4923
 5353SOL    HW227519   0.364   4.556   0.263 -0.0036  0.0027  1.1956
 5354SOL     OW27520   0.858   1.035   8.248  0.3799 -0.5160 -0.2837
 5354SOL    HW127521   0.824   1.112   8.295  0.9633 -0.0559 -0.6186
 5354SOL    HW227522   0.924   1.079   8.195  0.6033  1.1501  1.3607
 5355SOL     OW27523   2.926   0.914   8.299  0.2300 -0.3346 -0.5864
 5355SOL    HW127524   2.968   1.000   8.296  0.2082 -0.3680 -2.1098
 5355SOL    HW227525   2.870   0.911   8.222 -0.3771 -1.9448 -0.0829
 5356SOL     OW27526   1.942   3.576  12.066  0.3008 -0.2412  0.0277
 5356SOL    HW127527   2.019   3.587  12.011  0.8110  0.1634  0.8348
 5356SOL    HW227528   1.869   3.579  12.003  0.9408 -0.8328 -0.7470
 5357SOL     OW27529   3.861   0.197   7.547  0.4906  0.1253 -0.0425
 5357SOL    HW127530   3.827   0.268   7.601 -0.7060 -1.0301  0.7489
 5357SOL    HW227531   3.804   0.120   7.552 -1.0812  1.4608  2.4963
 5358SOL     OW27532   1.303   0.906  14.277 -0.1832  0.0733 -0.0655
 5358SOL    HW127533   1.280   0.892  14.186 -0.5544 -2.2733  0.3755
 5358SOL    HW227534   1.226   0.865  14.316 -0.0196  1.0563  1.2992
 5359SOL     OW27535   3.962   4.026  10.266  0.1670 -0.3782  0.4123
 5359SOL    HW127536   3.927   4.007  10.353  1.8983 -0.0338  1.1807
 5359SOL    HW227537   4.052   4.041  10.293  0.1074 -0.8151  0.8344
 5360SOL     OW27538   1.999   0.493   5.962 -0.2263 -0.1978 -0.5559
 5360SOL    HW127539   1.988   0.490   6.057  0.1104 -0.3792 -0.5215
 5360SOL    HW227540   2.034   0.408   5.937  1.2560  1.1489 -3.0909
 5361SOL     OW27541   1.964   0.203   3.206  0.0368 -0.1132 -0.1052
 5361SOL    HW127542   1.993   0.287   3.170 -1.5084  0.3121 -0.3357
 5361SOL    HW227543   2.044   0.172   3.249  1.7451  2.5929 -1.3185
 5362SOL     OW27544   3.518   1.972   1.937 -0.0710  0.4454 -0.1579
 5362SOL    HW127545   3.447   1.914   1.907 -1.0162  1.8288 -0.5823
 5362SOL    HW227546   3.528   1.967   2.032  0.8669  0.1658 -0.2690
 5363SOL     OW27547   4.361   4.341  16.149  0.2226 -0.1076  0.3036
 5363SOL    HW127548   4.385   4.432  16.165 -0.6960  0.2659 -0.4525
 5363SOL    HW227549   4.380   4.333  16.056  0.1207 -0.4846  0.3119
 5364SOL     OW27550   2.908   0.941  12.467  0.0725  0.0466  0.3862
 5364SOL    HW127551   2.882   0.861  12.512  1.3240 -0.7844 -0.3686
 5364SOL    HW227552   2.885   1.017  12.521  0.5690  0.6224 -0.2048
 5365SOL     OW27553   3.295   3.995   0.628 -0.4387 -0.4789 -1.1556
 5365SOL    HW127554   3.389   4.001   0.646 -0.8384  0.6677  0.5315
 5365SOL    HW227555   3.293   3.907   0.591  0.5440 -0.5380 -1.0645
 5366SOL     OW27556   3.059   4.131   6.606 -0.7612 -0.3431  0.2466
 5366SOL    HW127557   3.069   4.194   6.534  1.4286 -2.6273 -1.4594
 5366SOL    HW227558   2.968   4.109   6.588 -1.8786  3.9189  0.6578
 5367SOL     OW27559   2.643   0.194   6.246  0.2320  0.1101 -0.1858
 5367SOL    HW127560   2.595   0.223   6.168  0.0086 -0.3320 -0.2146
 5367SOL    HW227561   2.683   0.274   6.279 -0.7749  0.9201 -0.9544
 5368SOL     OW27562   0.672   4.003  16.363  0.2040 -0.2741  0.4874
 5368SOL    HW127563   0.648   3.944  16.435 -0.3682 -0.6131  0.0160
 5368SOL    HW227564   0.749   4.047  16.398  2.0343 -1.2504 -2.3738
 5369SOL     OW27565   4.370   0.640   6.774  0.4937 -0.5995 -0.0139
 5369SOL    HW127566   4.293   0.623   6.720 -1.2161  3.9674  0.9976
 5369SOL    HW227567   4.437   0.586   6.732  0.6470  1.1125 -2.0357
 5370SOL     OW27568   3.944   3.513  14.262 -0.2051  0.3477  0.0435
 5370SOL    HW127569   3.979   3.582  14.205 -1.5249  1.5768  0.7037
 5370SOL    HW227570   3.930   3.443  14.198  1.2757  1.1748 -1.1885
 5371SOL     OW27571   2.272   0.137   9.025 -0.0971  0.2834 -0.3475
 5371SOL    HW127572   2.246   0.229   9.025  0.3215  0.4093  0.9735
 5371SOL    HW227573   2.324   0.123   8.946 -1.9157  1.1675 -1.6760
 5372SOL     OW27574   0.709   1.916   8.579  0.1009 -0.2085 -0.3593
 5372SOL    HW127575   0.644   1.968   8.532 -0.2749 -1.2369 -0.9720
 5372SOL    HW227576   0.788   1.970   8.577  1.1588 -1.7528  0.2639
 5373SOL     OW27577   4.519   4.603   3.551  0.1577 -0.2936  0.8427
 5373SOL    HW127578   4.436   4.618   3.505  0.6087  0.1953  0.1802
 5373SOL    HW227579   4.533   4.516   3.514  0.8340  0.8594 -1.6016
 5374SOL     OW27580   3.677   4.059   5.437  0.0192 -0.2967  0.3905
 5374SOL    HW127581   3.609   4.013   5.485  3.3793 -3.3876  2.1449
 5374SOL    HW227582   3.757   4.049   5.488 -0.2690  1.6081  1.2019
 5375SOL     OW27583   4.307   3.328  11.530 -0.2849  0.0777  0.0996
 5375SOL    HW127584   4.275   3.281  11.607  1.2900  0.9361  1.2900
 5375SOL    HW227585   4.328   3.414  11.567 -0.7964  0.1169  0.2988
 5376SOL     OW27586   3.792   2.404   6.882  0.3341  0.1204  0.1229
 5376SOL    HW127587   3.742   2.328   6.912 -1.1419  0.9787 -0.1943
 5376SOL    HW227588   3.813   2.457   6.959  1.6520 -4.2289  2.7859
 5377SOL     OW27589   0.538   2.761  11.393 -0.2481  0.1774 -0.2529
 5377SOL    HW127590   0.483   2.718  11.328  0.0183 -0.4496 -0.0579
 5377SOL    HW227591   0.496   2.846  11.378  0.4285  0.9101  2.0277
 5378SOL     OW27592   0.757   4.474   0.624  0.1817  0.2177 -0.3009
 5378SOL    HW127593   0.748   4.501   0.533 -2.1720 -0.9485 -0.4309
 5378SOL    HW227594   0.787   4.550   0.673 -0.4677  0.1586  0.2026
 5379SOL     OW27595   4.575   4.389   3.846 -0.2983 -0.3489  0.5783
 5379SOL    HW127596   4.589   4.295   3.850 -0.4635 -0.2705  2.7433
 5379SOL    HW227597   4.512   4.396   3.917 -0.8240  1.1911 -0.0217
 5380SOL     OW27598   2.428   1.162  14.343 -0.0918  0.0576  0.4043
 5380SOL    HW127599   2.425   1.182  14.249 -1.2371 -1.0694  0.2090
 5380SOL    HW227600   2.379   1.238  14.375 -0.3140 -1.1144  2.7971
 5381SOL     OW27601   3.508   2.190  11.720 -0.0472 -0.1523 -0.3058
 5381SOL    HW127602   3.447   2.149  11.781 -0.6727  0.0987 -0.7657
 5381SOL    HW227603   3.557   2.115  11.685  1.0190  0.4264 -0.0368
 5382SOL     OW27604   4.270   4.437   0.668 -0.2818  0.8670 -0.8167
 5382SOL    HW127605   4.242   4.501   0.603  2.4153  2.9395  0.0462
 5382SOL    HW227606   4.219   4.457   0.745  2.1677  0.6148  0.8705
 5383SOL     OW27607   0.696   3.052  16.634  0.0364  0.0050  0.4737
 5383SOL    HW127608   0.729   3.130  16.678  1.8897  0.4629 -1.8018
 5383SOL    HW227609   0.746   2.981  16.673  1.0280  0.1872 -0.4998
 5384SOL     OW27610   2.953   0.540   3.784  0.3725  0.6499  0.5278
 5384SOL    HW127611   2.943   0.473   3.717 -0.7755  0.6005  0.7428
 5384SOL    HW227612   3.029   0.590   3.754  0.4523  0.9702  1.2525
 5385SOL     OW27613   4.615   3.382   3.228 -0.2305  0.4218  0.1593
 5385SOL    HW127614   4.554   3.308   3.224 -0.6166  0.6696  1.2551
 5385SOL    HW227615   4.643   3.400   3.139 -2.0593  0.7538 -0.3543
 5386SOL     OW27616   2.800   0.108   9.963 -0.0126 -0.1713 -0.3557
 5386SOL    HW127617   2.733   0.040   9.969  1.6459 -1.9891 -2.1581
 5386SOL    HW227618   2.757   0.163  10.028  1.4009 -0.3564  0.7490
 5387SOL     OW27619   0.089   1.697   1.921  0.5777  0.1486  0.0258
 5387SOL    HW127620   0.157   1.630   1.921  0.2084 -0.2239 -0.3194
 5387SOL    HW227621   0.065   1.693   1.829 -1.1400  1.1345  0.4166
 5388SOL     OW27622   0.307   3.426   7.128 -0.4762 -0.1347 -0.5880
 5388SOL    HW127623   0.356   3.445   7.048  0.2332 -1.9855 -0.5781
 5388SOL    HW227624   0.230   3.385   7.088  1.4144 -2.6748 -1.6472
 5389SOL     OW27625   3.474   4.183   3.853 -0.0018  0.5767 -0.1262
 5389SOL    HW127626   3.562   4.220   3.856 -0.2120  1.2930 -3.9085
 5389SOL    HW227627   3.493   4.089   3.845 -1.4142  0.2024  0.8379
 5390SOL     OW27628   1.856   3.604  11.257  0.2924  0.2003 -0.2703
 5390SOL    HW127629   1.884   3.565  11.174  0.8011 -2.4629  1.1612
 5390SOL    HW227630   1.864   3.532  11.319 -0.6927 -1.0894 -1.6386
 5391SOL     OW27631   2.933   4.218   5.388 -0.3855 -0.6558  0.5143
 5391SOL    HW127632   2.873   4.162   5.338 -1.2827  0.9578 -0.2240
 5391SOL    HW227633   3.002   4.232   5.323 -0.8412 -2.3653 -0.3364
 5392SOL     OW27634   1.375   4.710   7.591 -0.5274 -0.0448  0.6030
 5392SOL    HW127635   1.451   0.035   7.552 -0.0220 -2.0003 -0.6218
 5392SOL    HW227636   1.318   0.065   7.573 -0.0117 -0.7060 -3.6713
 5393SOL     OW27637   1.931   2.259   4.269  0.2050  0.4896 -0.2357
 5393SOL    HW127638   1.906   2.326   4.206 -1.9760  0.0695  0.2118
 5393SOL    HW227639   1.853   2.211   4.243  0.5207  0.5702 -1.3388
 5394SOL     OW27640   0.702   2.718   6.773 -0.1874  0.7395 -0.0640
 5394SOL    HW127641   0.708   2.688   6.682 -1.8173 -0.3856  0.2040
 5394SOL    HW227642   0.774   2.781   6.778  0.3711  0.1232 -0.3621
 5395SOL     OW27643   2.958   0.160   3.889 -0.5165  0.0127 -0.1226
 5395SOL    HW127644   3.020   0.217   3.844  0.1334 -0.4583  0.1756
 5395SOL    HW227645   2.969   0.180   3.982 -1.4759 -0.9209  0.1948
 5396SOL     OW27646   4.311   0.167   2.963  0.5373  1.1099  0.1213
 5396SOL    HW127647   4.286   0.084   3.005  0.7765  1.6441  1.3043
 5396SOL    HW227648   4.229   0.215   2.952 -0.6433 -1.2206 -1.2953
 5397SOL     OW27649   4.223   2.415   6.210 -0.1488 -1.0331  0.3774
 5397SOL    HW127650   4.194   2.448   6.125  1.4339  0.1127  0.2806
 5397SOL    HW227651   4.145   2.364   6.230 -1.3891  0.9217  0.5859
 5398SOL     OW27652   2.869   2.898  13.138 -0.4871 -0.3937  0.1075
 5398SOL    HW127653   2.852   2.959  13.210 -1.2648  1.8071 -1.9767
 5398SOL    HW227654   2.893   2.816  13.182 -1.8491 -1.3721 -0.9543
 5399SOL     OW27655   0.947   3.740   4.540  0.6252 -0.4533 -0.4783
 5399SOL    HW127656   0.921   3.746   4.448 -0.8003 -3.4171 -0.2611
 5399SOL    HW227657   1.006   3.664   4.542  0.2324 -0.7613 -0.6245
 5400SOL     OW27658   1.942   2.650   7.465 -0.3586  0.4346  0.1442
 5400SOL    HW127659   1.964   2.602   7.545 -0.1694  1.4945  0.7326
 5400SOL    HW227660   1.960   2.577   7.406 -1.2357  0.2159  0.1566
 5401SOL     OW27661   0.317   3.093   7.543  0.6178 -0.4224 -0.1670
 5401SOL    HW127662   0.352   3.158   7.481 -0.7323  0.1728 -0.2928
 5401SOL    HW227663   0.237   3.057   7.507  2.5832 -0.7151 -4.2699
 5402SOL     OW27664   3.376   4.586  11.163 -0.5910  0.0113 -0.5145
 5402SOL    HW127665   3.286   4.603  11.192  0.3782  0.9168  1.9366
 5402SOL    HW227666   3.424   4.580  11.245 -2.1498  0.4191  0.4222
 5403SOL     OW27667   3.523   1.009   1.293  0.8827 -0.2408 -0.3875
 5403SOL    HW127668   3.614   1.007   1.263  1.1035 -0.9376  0.3425
 5403SOL    HW227669   3.479   1.046   1.216 -0.6446  1.4338  1.2819
 5404SOL     OW27670   3.733   0.130   9.044  0.2855  0.0380 -0.4909
 5404SOL    HW127671   3.672   0.158   8.976 -0.0284  2.4795  0.8171
 5404SOL    HW227672   3.705   0.167   9.128 -0.9258  1.1893 -1.4027
 5405SOL     OW27673   4.031   3.431  15.870  0.6771  0.1869  0.0946
 5405SOL    HW127674   3.937   3.418  15.855  0.4283  0.1528  1.6853
 5405SOL    HW227675   4.059   3.481  15.794  0.2447 -0.4210 -0.4623
 5406SOL     OW27676   4.120   0.056   7.606 -0.0539 -0.0337  1.0459
 5406SOL    HW127677   4.048   0.114   7.582 -1.0938 -1.4179  0.7852
 5406SOL    HW227678   4.115   0.052   7.701 -2.9345  1.8002  0.9795
 5407SOL     OW27679   3.613   0.003   3.408  0.0896 -0.5398  0.1063
 5407SOL    HW127680   3.627   4.629   3.396  1.4956  0.3215 -4.8008
 5407SOL    HW227681   3.534   0.012   3.355  0.3531  1.1802  0.0053
 5408SOL     OW27682   1.367   2.469   1.808 -1.1182 -0.0811 -0.1853
 5408SOL    HW127683   1.398   2.511   1.728  0.6666  0.5774  0.8398
 5408SOL    HW227684   1.431   2.510   1.867 -1.2073 -1.0784  0.6078
 5409SOL     OW27685   0.410   1.139   2.604  0.1086  0.1562  0.1205
 5409SOL    HW127686   0.405   1.235   2.608 -3.1106  0.0122 -0.1281
 5409SOL    HW227687   0.318   1.113   2.608 -0.4480  2.2919  1.6338
 5410SOL     OW27688   1.131   2.843   7.426 -0.1459  0.4127  0.4902
 5410SOL    HW127689   1.196   2.813   7.489  0.6014 -0.4777 -0.7064
 5410SOL    HW227690   1.063   2.873   7.486 -1.5285  0.9033 -1.3148
 5411SOL     OW27691   4.574   2.964   6.122  0.1419 -0.3693  0.0546
 5411SOL    HW127692   4.531   3.014   6.192  0.7611  1.3108 -0.7685
 5411SOL    HW227693   4.508   2.972   6.053 -0.1628 -0.1712  0.3717
 5412SOL     OW27694   2.704   2.092   7.874 -0.5828  0.9670 -0.1896
 5412SOL    HW127695   2.728   2.010   7.830 -0.0286  1.3913 -0.6895
 5412SOL    HW227696   2.717   2.065   7.965 -1.9266  2.3528  0.4190
 5413SOL     OW27697   2.947   0.891   1.995  0.3514 -0.0575 -0.5981
 5413SOL    HW127698   2.993   0.895   1.911  1.5107  0.4354  0.0594
 5413SOL    HW227699   3.019   0.915   2.054 -0.7111  2.0758 -0.1547
 5414SOL     OW27700   1.324   4.186   6.780 -0.3474  0.4840  0.1639
 5414SOL    HW127701   1.337   4.142   6.696  2.7243 -0.9467  1.3753
 5414SOL    HW227702   1.401   4.241   6.794 -0.7823  0.3319  3.1063
 5415SOL     OW27703   4.715   1.904   0.038 -0.1667 -0.0122  0.1105
 5415SOL    HW127704   0.089   1.905   0.056  0.0111 -2.5917 -0.6606
 5415SOL    HW227705   4.678   1.911   0.126  1.3819  0.1767  0.7563
 5416SOL     OW27706   3.483   0.837   0.889 -0.1895  0.1432  0.1920
 5416SOL    HW127707   3.438   0.808   0.968  0.6559  2.3909  1.4930
 5416SOL    HW227708   3.515   0.753   0.856 -0.6626 -0.8350  2.1950
 5417SOL     OW27709   1.491   2.517   4.047  0.3275  0.3395  0.7615
 5417SOL    HW127710   1.402   2.505   4.013 -0.4436  0.8667  2.5633
 5417SOL    HW227711   1.496   2.430   4.088 -0.7760  0.3677  0.9665
 5418SOL     OW27712   1.169   3.716   7.625  0.3294  0.3093  0.2594
 5418SOL    HW127713   1.159   3.637   7.678  0.4146 -1.6115 -2.5929
 5418SOL    HW227714   1.130   3.693   7.541 -0.8349 -1.7187  1.3330
 5419SOL     OW27715   3.826   2.436   4.230 -0.4944 -0.2399 -0.5720
 5419SOL    HW127716   3.745   2.451   4.182  0.2271 -0.1472 -1.7400
 5419SOL    HW227717   3.792   2.464   4.315  0.5869  0.3157 -0.3266
 5420SOL     OW27718   3.095   0.113   1.707  0.1047  0.2935 -0.3779
 5420SOL    HW127719   3.131   0.059   1.636  0.0617  3.2431 -2.6610
 5420SOL    HW227720   3.163   0.103   1.774  0.6766  0.6959 -0.8912
 5421SOL     OW27721   2.983   3.774   8.469  0.3463 -0.1245  0.3709
 5421SOL    HW127722   3.058   3.768   8.529 -0.1135 -1.3900  0.8345
 5421SOL    HW227723   3.030   3.785   8.386  1.2127 -0.3238  0.8297
 5422SOL     OW27724   3.125   4.282   4.992  0.0048  0.0689 -0.3506
 5422SOL    HW127725   3.142   4.322   5.078 -0.6346 -0.7820  0.1678
 5422SOL    HW227726   3.109   4.357   4.935 -0.5004 -0.4038 -0.8244
 5423SOL     OW27727   3.710   0.898   4.261 -0.2689 -0.0558  0.3441
 5423SOL    HW127728   3.724   0.990   4.283 -1.0082  0.3317 -0.7602
 5423SOL    HW227729   3.748   0.858   4.339  0.8461  1.9224  0.8372
 5424SOL     OW27730   0.009   1.127  12.506  0.0941 -0.1000 -0.6666
 5424SOL    HW127731   0.064   1.175  12.445  1.2431  2.0927  2.0875
 5424SOL    HW227732   0.066   1.054  12.530 -0.1206  1.2602  3.9910
 5425SOL     OW27733   0.784   1.466   4.395  0.2559 -0.0451  0.5877
 5425SOL    HW127734   0.869   1.430   4.368 -0.6340 -1.8500  0.1699
 5425SOL    HW227735   0.778   1.425   4.481  0.7588  1.3369  1.2647
 5426SOL     OW27736   2.020   3.585   2.392  0.4438 -0.0618  0.6215
 5426SOL    HW127737   1.930   3.558   2.376  0.2597  1.0770 -0.2875
 5426SOL    HW227738   2.041   3.653   2.328  0.9200 -2.1170 -1.4141
 5427SOL     OW27739   2.793   1.882   7.739  0.4438 -0.8604  0.2443
 5427SOL    HW127740   2.882   1.849   7.725  0.9177  0.9097 -0.8306
 5427SOL    HW227741   2.766   1.839   7.820 -0.7592  2.1210  1.3964
 5428SOL     OW27742   1.407   4.367   8.710  0.1384  0.8406  0.5745
 5428SOL    HW127743   1.435   4.433   8.774 -0.2510  1.4553  0.1126
 5428SOL    HW227744   1.477   4.301   8.718 -0.9262 -0.1868  1.3414
 5429SOL     OW27745   1.702   2.010  15.128  0.1082  0.0313  0.1735
 5429SOL    HW127746   1.691   2.069  15.054 -0.8756  1.0410  1.1329
 5429SOL    HW227747   1.736   2.072  15.192  1.3964 -0.9590  0.4464
 5430SOL     OW27748   3.059   0.660   7.842 -0.4213 -0.4700 -0.3462
 5430SOL    HW127749   3.153   0.652   7.859 -0.4386 -1.6918 -0.8418
 5430SOL    HW227750   3.034   0.619   7.925 -1.7140 -0.6553 -0.8226
 5431SOL     OW27751   2.402   3.951   2.968  0.3027 -0.0802  0.3503
 5431SOL    HW127752   2.493   3.980   2.975  0.6984 -1.7055  2.0648
 5431SOL    HW227753   2.411   3.871   2.916 -2.0105  0.0488 -0.2512
 5432SOL     OW27754   4.466   2.162   2.906 -0.5758  0.3985  0.1466
 5432SOL    HW127755   4.526   2.103   2.861 -0.4742  0.7468 -0.1804
 5432SOL    HW227756   4.511   2.181   2.988  1.4180  0.1724 -0.8814
 5433SOL     OW27757   0.469   0.251   3.898  0.3297  0.7213 -0.6801
 5433SOL    HW127758   0.562   0.236   3.882  0.4115 -1.5597  1.9742
 5433SOL    HW227759   0.452   0.267   3.991  1.6255 -0.6363 -0.2127
 5434SOL     OW27760   2.821   1.772   9.051 -0.1886  0.2006 -0.2017
 5434SOL    HW127761   2.804   1.866   9.061 -2.9022 -0.1135 -1.9360
 5434SOL    HW227762   2.886   1.768   9.121 -0.7060 -0.8229  0.2156
 5435SOL     OW27763   2.573   3.326   1.013  0.0433  0.4103 -0.6880
 5435SOL    HW127764   2.580   3.317   1.108 -0.5785  0.7347 -0.6056
 5435SOL    HW227765   2.486   3.289   0.995 -0.1259  0.1994  0.6043
 5436SOL     OW27766   2.346   3.492   1.284  0.2938  0.2715  0.5066
 5436SOL    HW127767   2.427   3.506   1.334  0.2624  0.4619  0.5054
 5436SOL    HW227768   2.361   3.399   1.272 -2.0357 -0.0471  0.0674
 5437SOL     OW27769   4.272   1.422  13.838  0.1224 -0.0429  0.0652
 5437SOL    HW127770   4.267   1.326  13.830 -0.1024  0.3768 -4.7381
 5437SOL    HW227771   4.203   1.453  13.780 -0.0978  0.0043  0.3576
 5438SOL     OW27772   2.780   3.284   8.262  0.2552 -0.0012 -0.0738
 5438SOL    HW127773   2.732   3.259   8.183  3.5235 -1.1158 -1.7048
 5438SOL    HW227774   2.841   3.211   8.274 -0.2097 -0.8175 -2.5894
 5439SOL     OW27775   0.316   0.448  15.975 -0.2928  0.2283  0.5753
 5439SOL    HW127776   0.314   0.388  16.049  1.2619 -0.3861  0.1114
 5439SOL    HW227777   0.283   0.392  15.904 -1.8993  0.2241  1.3056
 5440SOL     OW27778   4.293   1.260  15.568 -0.0373  0.7163  0.2091
 5440SOL    HW127779   4.334   1.225  15.489 -0.4314 -0.7403  0.6489
 5440SOL    HW227780   4.309   1.353  15.553 -1.7235  1.0445  0.5076
 5441SOL     OW27781   2.896   3.340   9.353 -0.2500 -0.0545  0.1152
 5441SOL    HW127782   2.809   3.366   9.323  0.2629  0.4136 -0.9787
 5441SOL    HW227783   2.936   3.299   9.276 -0.0721 -0.1882  0.2777
 5442SOL     OW27784   3.008   2.457   0.892  0.0728  0.0306  0.5141
 5442SOL    HW127785   3.027   2.465   0.986 -0.4526  0.4394  0.5836
 5442SOL    HW227786   3.094   2.449   0.852  0.4053  3.4626  0.5957
 5443SOL     OW27787   1.831   0.574   1.427 -0.1342  0.1014  0.3017
 5443SOL    HW127788   1.863   0.485   1.409 -1.1467  0.0857 -1.3502
 5443SOL    HW227789   1.761   0.553   1.489 -0.5088  0.0065 -0.1542
 5444SOL     OW27790   1.083   2.763   9.864  0.6468  0.0130 -0.0722
 5444SOL    HW127791   1.088   2.800   9.952  0.7950 -0.1037 -0.0302
 5444SOL    HW227792   1.013   2.698   9.868  0.7155  0.0127  1.4056
 5445SOL     OW27793   0.769   0.427  15.000 -0.2183  0.0179 -0.3155
 5445SOL    HW127794   0.681   0.428  14.963  0.1371 -2.0985 -1.1786
 5445SOL    HW227795   0.817   0.476  14.933 -0.3008  0.2554 -0.2013
 5446SOL     OW27796   2.172   3.306  14.074  0.3730 -0.1621 -0.3618
 5446SOL    HW127797   2.144   3.228  14.027 -0.8422  0.6050 -0.9383
 5446SOL    HW227798   2.094   3.362  14.080  0.2311 -0.1239 -2.6393
 5447SOL     OW27799   2.644   2.250  14.111  0.1967 -0.6697  0.2697
 5447SOL    HW127800   2.727   2.294  14.130  0.4937 -1.9288  1.9166
 5447SOL    HW227801   2.574   2.287  14.165  0.7430  1.3245 -0.3893
 5448SOL     OW27802   0.865   4.107  16.520 -0.1473 -0.6992 -0.6806
 5448SOL    HW127803   0.897   4.044  16.584  0.4914 -0.0395 -0.3520
 5448SOL    HW227804   0.881   4.191  16.563  0.7566 -0.7942 -0.8237
 5449SOL     OW27805   1.702   0.195   3.943 -0.2572 -0.2167 -0.7818
 5449SOL    HW127806   1.741   0.272   3.902  0.4126  0.6477  1.4658
 5449SOL    HW227807   1.747   0.199   4.027 -0.6792 -2.3800 -0.4663
 5450SOL     OW27808   0.725   0.751  12.985 -0.0369  0.0102  0.1920
 5450SOL    HW127809   0.735   0.835  12.940 -0.0559  1.5224  3.0205
 5450SOL    HW227810   0.654   0.781  13.042  0.8190 -1.3861  1.9786
 5451SOL     OW27811   1.372   0.374   7.943  0.2875  0.2203 -0.3618
 5451SOL    HW127812   1.371   0.355   8.037 -0.0987  0.8042 -0.2461
 5451SOL    HW227813   1.278   0.376   7.925  0.1313 -2.9340  0.0956
 5452SOL     OW27814   4.450   3.138  15.313  0.0767 -0.0715  0.3011
 5452SOL    HW127815   4.512   3.195  15.358 -0.1912  0.2711  0.2305
 5452SOL    HW227816   4.379   3.139  15.377 -0.5008 -0.4750 -0.3326
 5453SOL     OW27817   2.488   1.069  13.375 -0.0086  0.0336  0.0453
 5453SOL    HW127818   2.420   1.002  13.386 -0.3763  0.2524 -0.8670
 5453SOL    HW227819   2.430   1.146  13.370 -2.1127 -1.5813 -0.3718
 5454SOL     OW27820   4.033   1.297  17.040 -0.2389  0.5418 -0.0894
 5454SOL    HW127821   4.015   1.241  16.964  0.1067  1.8566 -1.1465
 5454SOL    HW227822   3.979   1.263  17.111  0.5001 -1.7832 -0.6398
 5455SOL     OW27823   3.743   3.448   4.529  0.4129 -0.5760  0.2795
 5455SOL    HW127824   3.784   3.368   4.562  1.6824  0.4719  1.2487
 5455SOL    HW227825   3.810   3.498   4.482  0.6095  1.6332  2.9195
 5456SOL     OW27826   3.897   2.245   3.363 -0.1373  0.2578 -0.6700
 5456SOL    HW127827   3.855   2.318   3.318  2.4318  1.3174 -1.3755
 5456SOL    HW227828   3.981   2.246   3.317  0.7728  0.4917  0.9771
 5457SOL     OW27829   0.977   0.548   7.949 -0.4578  0.5658  0.3460
 5457SOL    HW127830   0.932   0.491   7.886  1.1636  0.5223 -0.7680
 5457SOL    HW227831   0.933   0.528   8.032  1.1036 -1.7404  0.6139
 5458SOL     OW27832   0.323   3.341   4.865 -0.0998  0.0133  0.7934
 5458SOL    HW127833   0.381   3.300   4.929  2.2443 -0.5018 -1.6935
 5458SOL    HW227834   0.322   3.430   4.900 -1.3789 -0.0699  0.9922
 5459SOL     OW27835   3.938   2.581   3.375  0.2126 -0.0626  0.0695
 5459SOL    HW127836   3.916   2.515   3.309 -1.6237 -0.2067  0.8199
 5459SOL    HW227837   3.951   2.661   3.325 -0.9962 -1.9633 -3.2788
 5460SOL     OW27838   3.134   2.659  14.411  0.4786 -0.2743 -0.0655
 5460SOL    HW127839   3.158   2.661  14.318 -2.0524 -2.3683 -0.7560
 5460SOL    HW227840   3.040   2.644  14.409  0.2253  1.1605  0.8506
 5461SOL     OW27841   4.623   4.590   5.737 -0.0663 -0.4845 -0.5152
 5461SOL    HW127842   4.588   4.532   5.805 -0.8300  0.5609 -0.0125
 5461SOL    HW227843   4.708   4.590   5.781 -0.4984  0.7656  0.3303
 5462SOL     OW27844   0.520   1.352   8.087  0.3940  0.0280  0.1864
 5462SOL    HW127845   0.450   1.332   8.025  0.1984 -0.7756  0.6753
 5462SOL    HW227846   0.587   1.299   8.044 -0.4581 -0.6328 -0.3201
 5463SOL     OW27847   4.458   3.008   0.000 -0.1199  0.4000  0.4503
 5463SOL    HW127848   4.537   3.000   0.052 -0.1660 -2.8386 -0.0177
 5463SOL    HW227849   4.405   3.054   0.066  0.8160  1.1464  0.6763
 5464SOL     OW27850   2.239   0.226   4.158 -0.0349  0.1806 -0.1465
 5464SOL    HW127851   2.215   0.249   4.068 -0.3950  1.6394  0.3289
 5464SOL    HW227852   2.237   0.318   4.184 -0.6117  0.5723 -1.5247
 5465SOL     OW27853   1.998   4.284   5.547  0.4998 -0.3939  0.6131
 5465SOL    HW127854   2.083   4.272   5.505  0.1450 -0.2131 -0.1509
 5465SOL    HW227855   1.953   4.343   5.487  0.5057 -0.7154  0.2949
 5466SOL     OW27856   2.675   2.414  15.887  0.4403  0.3053  0.3467
 5466SOL    HW127857   2.664   2.500  15.847 -1.5430 -0.4531 -0.6777
 5466SOL    HW227858   2.605   2.416  15.952 -0.2400 -1.8443 -0.3279
 5467SOL     OW27859   3.055   3.780   5.059  0.0614  0.1992  0.4281
 5467SOL    HW127860   3.065   3.798   5.152  1.2691  1.4778  0.0553
 5467SOL    HW227861   3.058   3.863   5.012 -0.9266  1.1298  2.0283
 5468SOL     OW27862   1.595   3.908  17.094  0.1267 -0.4266 -0.2388
 5468SOL    HW127863   1.651   3.879  17.166  0.4308  0.6551 -0.0315
 5468SOL    HW227864   1.599   4.001  17.119  1.2334 -0.6967  0.6097
 5469SOL     OW27865   3.398   4.646   8.198 -0.0610  0.5810 -0.1776
 5469SOL    HW127866   3.343   4.631   8.275  3.7365  0.3385  2.4705
 5469SOL    HW227867   3.481   4.626   8.241 -2.1281 -1.9498  2.6215
 5470SOL     OW27868   3.064   0.840   0.572 -0.8063 -0.4502 -0.1550
 5470SOL    HW127869   3.126   0.827   0.500 -0.8233  1.6618 -0.5778
 5470SOL    HW227870   3.128   0.872   0.636  0.3076 -1.2073 -0.8908
 5471SOL     OW27871   3.586   4.589  13.335  0.4422  0.5854 -0.1310
 5471SOL    HW127872   3.525   4.655  13.301 -3.6698 -3.5486 -0.7969
 5471SOL    HW227873   3.603   4.538  13.256  2.2068  0.4195  0.3519
 5472SOL     OW27874   0.727   2.125   1.803  0.2413  0.0349 -0.2319
 5472SOL    HW127875   0.745   2.054   1.865  1.3542  0.9892  0.5628
 5472SOL    HW227876   0.814   2.145   1.769 -0.1219  0.8966 -0.6542
 5473SOL     OW27877   1.740   2.399   7.781  0.4812 -0.7293  0.4503
 5473SOL    HW127878   1.702   2.431   7.863  0.5908 -1.6273  0.8475
 5473SOL    HW227879   1.693   2.444   7.710  1.0991 -3.5955 -1.7801
 5474SOL     OW27880   3.120   2.085   7.336 -0.0727 -0.4181 -0.4257
 5474SOL    HW127881   3.028   2.062   7.324 -0.4910  0.2075  1.6489
 5474SOL    HW227882   3.123   2.153   7.403 -0.4901 -0.0765 -0.7480
 5475SOL     OW27883   2.800   3.712   9.636  0.3740 -0.2044 -0.1347
 5475SOL    HW127884   2.823   3.675   9.550 -0.8016 -0.1393 -0.4801
 5475SOL    HW227885   2.836   3.637   9.683  0.4554  1.6676  2.7599
 5476SOL     OW27886   1.898   2.672   0.063  0.1126 -0.2356  0.3265
 5476SOL    HW127887   1.926   2.648   0.151  1.4398  1.4242  0.3560
 5476SOL    HW227888   1.847   2.753   0.069 -1.2325 -1.0937  0.5900
 5477SOL     OW27889   3.418   0.265  11.040 -0.2583 -0.5500 -0.7233
 5477SOL    HW127890   3.505   0.255  11.079 -0.2472  1.7166 -0.1694
 5477SOL    HW227891   3.368   0.256  11.121  2.2576 -2.1842  0.6488
 5478SOL     OW27892   0.681   1.877   7.415  0.5760  0.0166  0.0641
 5478SOL    HW127893   0.768   1.843   7.434 -0.0126 -1.5540 -0.0153
 5478SOL    HW227894   0.623   1.835   7.478 -1.7053  0.2269 -1.9023
 5479SOL     OW27895   0.252   3.244  10.618  0.6068 -0.0441 -0.0725
 5479SOL    HW127896   0.230   3.169  10.673 -1.5827 -1.2692 -2.6089
 5479SOL    HW227897   0.303   3.298  10.678 -0.2833  1.9325 -1.0844
 5480SOL     OW27898   2.152   2.126   0.268  0.2452 -0.3832  0.2888
 5480SOL    HW127899   2.150   2.030   0.266  0.5328 -0.3887  0.3158
 5480SOL    HW227900   2.219   2.148   0.332  0.3569  0.1372 -0.0115
 5481SOL     OW27901   3.459   4.491  12.952  0.5573  0.1047  0.1192
 5481SOL    HW127902   3.454   4.582  12.982 -0.3202 -0.2161  0.9078
 5481SOL    HW227903   3.524   4.445  13.005  0.6923 -0.2393 -0.3425
 5482SOL     OW27904   2.861   3.256   6.258 -0.0046  0.7392 -1.0296
 5482SOL    HW127905   2.781   3.234   6.306  1.3206 -1.2322  0.3165
 5482SOL    HW227906   2.920   3.204   6.313  0.1025  1.9309 -0.0245
 5483SOL     OW27907   1.685   2.788  12.433  0.1417  0.0599  0.2933
 5483SOL    HW127908   1.778   2.792  12.457  0.1657 -2.4669  0.6013
 5483SOL    HW227909   1.658   2.877  12.457 -1.8628 -0.7492  0.9485
 5484SOL     OW27910   1.722   1.714   3.567 -0.0773 -0.1319 -0.2193
 5484SOL    HW127911   1.637   1.672   3.554 -0.7070  0.8850  0.5991
 5484SOL    HW227912   1.752   1.689   3.480  1.5869  1.0471  0.0230
 5485SOL     OW27913   0.910   0.874   9.580 -0.2600  0.0564 -0.3951
 5485SOL    HW127914   0.982   0.914   9.629 -0.3327 -0.4442  0.1113
 5485SOL    HW227915   0.879   0.821   9.652 -1.7416  1.0184 -0.3397
 5486SOL     OW27916   4.414   4.681   6.059  0.3939 -0.4485 -0.1320
 5486SOL    HW127917   4.449   4.620   5.994 -1.4818 -2.0879  0.3904
 5486SOL    HW227918   4.326   4.694   6.021  0.7981  2.2022 -0.2017
 5487SOL     OW27919   0.280   0.265  12.060  0.3462 -0.5553  0.3936
 5487SOL    HW127920   0.274   0.170  12.071  0.5129 -0.5918  0.1647
 5487SOL    HW227921   0.327   0.277  11.978 -0.0368 -5.0046 -0.4554
 5488SOL     OW27922   3.928   4.708   4.623 -0.4818  0.0800 -1.2311
 5488SOL    HW127923   3.841   4.676   4.649 -0.5583  0.5177 -0.9533
 5488SOL    HW227924   3.972   4.678   4.702 -1.1964  1.2272 -0.4088
 5489SOL     OW27925   1.996   2.270   8.366 -0.4223  0.1314 -0.2748
 5489SOL    HW127926   2.091   2.265   8.375 -0.3413 -1.1286 -1.9851
 5489SOL    HW227927   1.989   2.365   8.381  0.4319 -0.0492  1.2621
 5490SOL     OW27928   2.590   4.245   4.215 -0.2664 -0.0954  0.3953
 5490SOL    HW127929   2.602   4.174   4.152  2.5637 -1.4846  2.5089
 5490SOL    HW227930   2.502   4.271   4.189  0.0639  0.9631  0.2948
 5491SOL     OW27931   0.374   1.966   5.338 -0.3730  0.1063 -0.0973
 5491SOL    HW127932   0.339   1.878   5.351 -1.0285  0.3194 -0.4216
 5491SOL    HW227933   0.324   2.015   5.403 -0.4878 -1.9316  1.3626
 5492SOL     OW27934   2.629   4.624   7.774  0.5847  0.1361 -0.0354
 5492SOL    HW127935   2.689   4.580   7.834  2.6550  3.0383  0.0441
 5492SOL    HW227936   2.592   4.697   7.823  1.7528  1.2988 -0.8605
 5493SOL     OW27937   0.529   4.364   4.606 -0.1372 -0.0223 -0.2438
 5493SOL    HW127938   0.561   4.283   4.646  1.1325 -0.1946 -1.6060
 5493SOL    HW227939   0.545   4.337   4.515 -1.0664  0.5099 -0.5710
 5494SOL     OW27940   4.429   3.539   7.880 -0.5279  0.1758  0.0155
 5494SOL    HW127941   4.349   3.489   7.894 -0.1358 -0.8663 -1.4188
 5494SOL    HW227942   4.497   3.486   7.922 -0.6428  1.0917  1.3531
 5495SOL     OW27943   2.575   3.573  14.429  0.1321  0.2062 -0.0070
 5495SOL    HW127944   2.538   3.653  14.465  2.7072  0.6141  1.7358
 5495SOL    HW227945   2.631   3.560  14.506 -1.1120  0.4627  0.9423
 5496SOL     OW27946   2.861   2.051   4.211  0.5382  0.6399  0.1291
 5496SOL    HW127947   2.813   1.972   4.235 -0.1688  0.6750 -1.1981
 5496SOL    HW227948   2.949   2.034   4.245  0.7681 -1.0438 -1.3036
 5497SOL     OW27949   1.420   0.613   7.232  0.1447 -0.3342  0.2816
 5497SOL    HW127950   1.459   0.562   7.303  3.2028  2.4174  0.5807
 5497SOL    HW227951   1.378   0.683   7.281  0.3473  1.6584 -2.4133
 5498SOL     OW27952   4.622   3.772   3.556  0.3644 -0.4855  0.4377
 5498SOL    HW127953   4.615   3.794   3.463 -1.6337  0.3057  0.7774
 5498SOL    HW227954   4.533   3.739   3.565 -0.8347  1.8352 -2.9327
 5499SOL     OW27955   0.099   4.675   7.168  0.4071 -0.7074  0.0745
 5499SOL    HW127956   0.010   4.642   7.152 -0.1343  0.7338  0.0789
 5499SOL    HW227957   0.088   0.045   7.137 -1.8269 -0.8367  0.4903
 5500SOL     OW27958   4.200   3.544  16.023  0.6787 -0.2145 -0.1288
 5500SOL    HW127959   4.166   3.561  16.111 -1.3212 -0.0221 -0.9284
 5500SOL    HW227960   4.120   3.509  15.983 -0.6011  1.7202  0.7462
 5501SOL     OW27961   3.086   2.662   6.879  0.6613  0.3163  0.1221
 5501SOL    HW127962   3.029   2.652   6.955 -0.3052 -0.0075 -0.6546
 5501SOL    HW227963   3.074   2.585   6.823 -2.1107 -0.7937  2.2513
 5502SOL     OW27964   1.661   2.670  17.532 -0.3966 -1.1508 -0.5214
 5502SOL    HW127965   1.738   2.659  17.587 -0.0314  1.4695 -0.4962
 5502SOL    HW227966   1.590   2.623  17.576 -0.7857  2.1227  2.3329
 5503SOL     OW27967   1.595   2.634  16.205  0.1371 -0.0181 -0.2156
 5503SOL    HW127968   1.591   2.727  16.229  0.4185 -0.4366  1.4835
 5503SOL    HW227969   1.629   2.590  16.283  0.0816 -0.7507 -0.6048
 5504SOL     OW27970   4.389   2.488   7.602 -0.3620  0.2048  0.2594
 5504SOL    HW127971   4.430   2.569   7.632 -0.7807  0.8176 -0.7913
 5504SOL    HW227972   4.450   2.463   7.532  0.7637 -2.2546  2.1544
 5505SOL     OW27973   1.799   4.136  12.323 -0.1134  0.5216 -0.2520
 5505SOL    HW127974   1.763   4.048  12.312  0.6477 -0.0121  1.4879
 5505SOL    HW227975   1.838   4.142  12.236 -1.0730 -1.6304 -0.8347
 5506SOL     OW27976   0.022   2.467   9.087  0.0346 -0.0948 -0.3287
 5506SOL    HW127977   0.027   2.374   9.065 -0.6231 -0.4956  1.1921
 5506SOL    HW227978   4.688   2.500   9.016  0.3982 -2.8915 -1.8980
 5507SOL     OW27979   3.476   4.109   7.637 -0.0171  0.1734 -0.0245
 5507SOL    HW127980   3.453   4.104   7.544 -0.3475  3.8553 -0.1406
 5507SOL    HW227981   3.394   4.076   7.675 -0.0456  1.0338  0.6679
 5508SOL     OW27982   2.517   1.820   2.918  0.0467  0.2171 -0.3824
 5508SOL    HW127983   2.543   1.745   2.866 -0.0783  0.6712 -1.0899
 5508SOL    HW227984   2.422   1.830   2.910 -0.2264 -0.9357  1.2515
 5509SOL     OW27985   3.499   4.454  12.221 -0.1183  0.3934 -0.3675
 5509SOL    HW127986   3.544   4.370  12.219  0.0822  0.4824  0.3254
 5509SOL    HW227987   3.464   4.461  12.133 -2.6004  0.6261  0.6445
 5510SOL     OW27988   4.245   3.759  16.696  0.2050 -0.2951 -0.3008
 5510SOL    HW127989   4.295   3.832  16.733 -0.3241 -1.6963  3.1712
 5510SOL    HW227990   4.297   3.686  16.729  0.7869  0.8036  1.2503
 5511SOL     OW27991   3.564   2.990   5.274  0.4105  0.2842 -0.0914
 5511SOL    HW127992   3.527   3.077   5.266  0.4455  0.3648  0.6616
 5511SOL    HW227993   3.652   2.999   5.236 -0.6481  1.6665 -2.2648
 5512SOL     OW27994   1.658   3.459   4.362 -0.5223 -0.2365 -0.4456
 5512SOL    HW127995   1.621   3.467   4.274 -0.2086  1.7096 -0.3929
 5512SOL    HW227996   1.743   3.418   4.349  0.0925  1.2873 -1.2326
 5513SOL     OW27997   1.814   4.323  12.789  0.0132 -0.1181 -0.5358
 5513SOL    HW127998   1.845   4.314  12.699  0.0232 -1.7960 -0.3528
 5513SOL    HW227999   1.726   4.354  12.768 -0.2681  0.2701  1.1768
 5514SOL     OW28000   2.694   0.829  16.060 -0.2102 -0.5893  0.2976
 5514SOL    HW128001   2.718   0.907  16.009  1.4253 -0.4236  1.2950
 5514SOL    HW228002   2.632   0.786  16.001 -0.5007 -0.0875  0.2378
 5515SOL     OW28003   1.539   2.658  10.132 -0.3802  0.4392 -0.1029
 5515SOL    HW128004   1.548   2.714  10.209  0.5627  1.0716 -0.6688
 5515SOL    HW228005   1.541   2.569  10.167 -0.4515  0.3784 -0.2552
 5516SOL     OW28006   1.574   2.744   9.730  0.7979  0.9279 -0.4277
 5516SOL    HW128007   1.560   2.654   9.759 -1.4470  1.2824 -0.3440
 5516SOL    HW228008   1.549   2.747   9.638  0.3070  1.1060 -0.2932
 5517SOL     OW28009   2.651   2.712   3.647 -0.0987  0.6317  0.2729
 5517SOL    HW128010   2.566   2.751   3.626 -2.6974 -4.7829  0.8173
 5517SOL    HW228011   2.643   2.693   3.740  0.1738 -0.7160  0.0219
 5518SOL     OW28012   4.494   3.446   9.341  0.0778  0.2523  0.0171
 5518SOL    HW128013   4.410   3.400   9.344 -0.4297  1.1280 -0.6992
 5518SOL    HW228014   4.552   3.371   9.353  1.2814  1.1436 -0.3349
 5519SOL     OW28015   2.010   3.418   6.559 -0.4987 -0.4413  0.2516
 5519SOL    HW128016   2.082   3.453   6.612 -1.6310  1.5637  0.4580
 5519SOL    HW228017   1.947   3.391   6.625 -0.1420 -2.3416 -0.1915
 5520SOL     OW28018   3.010   1.420   1.611 -0.0777 -0.0771 -0.1545
 5520SOL    HW128019   2.951   1.394   1.682 -0.7845 -0.6485 -0.9635
 5520SOL    HW228020   3.026   1.514   1.624  0.0090 -0.1168  0.0270
 5521SOL     OW28021   3.494   1.871   6.957 -0.5232  1.2390 -0.3467
 5521SOL    HW128022   3.419   1.829   6.916  0.7280  1.9678 -3.4060
 5521SOL    HW228023   3.447   1.943   6.999 -1.3899 -0.0430  0.8671
 5522SOL     OW28024   2.636   2.777   7.960  0.4069  0.3726  0.6199
 5522SOL    HW128025   2.571   2.748   8.023 -0.4956 -2.6805 -1.7218
 5522SOL    HW228026   2.701   2.707   7.951  1.6546  1.4104  1.4691
 5523SOL     OW28027   0.313   4.711  12.115 -0.1683  0.4285  0.5072
 5523SOL    HW128028   0.346   4.700  12.026 -0.2244  0.3279  0.4981
 5523SOL    HW228029   0.351   4.641  12.167 -1.8197 -0.2445  0.8172
 5524SOL     OW28030   3.841   2.640   2.543  0.2220 -0.1363 -0.0869
 5524SOL    HW128031   3.766   2.697   2.557  1.4791  1.0709  1.6012
 5524SOL    HW228032   3.874   2.662   2.456  1.1214 -1.2133 -0.0255
 5525SOL     OW28033   4.500   3.319   2.846 -0.3122  0.0413 -0.3709
 5525SOL    HW128034   4.438   3.377   2.890  1.1518  1.7341 -0.5757
 5525SOL    HW228035   4.582   3.340   2.890  0.6959 -3.6258 -0.5227
 5526SOL     OW28036   2.014   1.351   0.627 -0.4773  0.0888  0.0175
 5526SOL    HW128037   1.973   1.351   0.540  0.1560  2.7557 -0.2955
 5526SOL    HW228038   1.999   1.438   0.664  0.9463 -0.3822  1.6805
 5527SOL     OW28039   0.002   0.627  14.991  0.0061 -0.0020  0.2313
 5527SOL    HW128040   4.636   0.595  15.020 -0.8773  2.2644  0.1120
 5527SOL    HW228041   4.690   0.680  14.918 -1.1859 -2.2288 -0.8574
 5528SOL     OW28042   2.378   2.437   6.286 -0.2373  0.0950  0.0198
 5528SOL    HW128043   2.368   2.353   6.241 -0.0909  0.2914 -0.3820
 5528SOL    HW228044   2.470   2.442   6.309 -0.8280 -1.2020  2.6838
 5529SOL     OW28045   1.027   1.226  16.598  0.1823 -0.0543 -0.3861
 5529SOL    HW128046   1.069   1.141  16.581 -1.9169 -1.1527 -0.1131
 5529SOL    HW228047   0.938   1.193  16.608 -0.6329  2.7645  1.3814
 5530SOL     OW28048   1.576   1.377   4.198 -0.3908 -0.2481  0.3462
 5530SOL    HW128049   1.667   1.401   4.178 -0.4595 -1.7281 -1.6627
 5530SOL    HW228050   1.592   1.284   4.214 -1.2249 -0.6429 -1.1680
 5531SOL     OW28051   0.986   2.847   4.884  0.7476 -0.3714  0.2279
 5531SOL    HW128052   1.054   2.792   4.845  0.0973 -1.2845  0.3934
 5531SOL    HW228053   0.957   2.786   4.952  0.4078 -0.8826 -0.3841
 5532SOL     OW28054   1.345   4.526  15.885  0.0923  0.1701  0.1093
 5532SOL    HW128055   1.282   4.598  15.883 -0.5955 -0.3115  3.6016
 5532SOL    HW228056   1.321   4.499  15.974 -0.1027 -1.6844 -0.5011
 5533SOL     OW28057   3.894   0.555  10.392  0.0154  0.3412 -0.1725
 5533SOL    HW128058   3.938   0.568  10.308  1.3025 -0.0624  0.4375
 5533SOL    HW228059   3.952   0.489  10.429 -2.1429 -2.1573 -1.2743
 5534SOL     OW28060   3.137   0.699   1.476  0.1213  0.1350  0.4442
 5534SOL    HW128061   3.221   0.711   1.431 -0.0126 -1.7068 -0.2951
 5534SOL    HW228062   3.097   0.781   1.447 -0.5119 -0.7286 -1.1013
 5535SOL     OW28063   3.014   3.969  13.468 -0.0730 -0.7716  0.1749
 5535SOL    HW128064   3.000   3.959  13.374 -0.9887  1.7910  0.0238
 5535SOL    HW228065   2.927   3.976  13.506 -0.1495  1.7016 -0.4267
 5536SOL     OW28066   2.368   2.445   3.452  0.3981  0.3996 -0.1191
 5536SOL    HW128067   2.290   2.398   3.479  1.7011 -1.8769 -0.3261
 5536SOL    HW228068   2.329   2.518   3.405  1.6646 -0.5688 -2.6574
 5537SOL     OW28069   1.388   3.047   5.683 -0.5578  0.0427 -0.0205
 5537SOL    HW128070   1.350   3.093   5.608 -0.5101  0.1063 -0.0060
 5537SOL    HW228071   1.470   3.016   5.643 -0.7291 -2.0140  1.1965
 5538SOL     OW28072   2.119   1.863   7.415  0.4712  0.0519 -0.2184
 5538SOL    HW128073   2.190   1.873   7.352 -0.1586 -2.2689 -1.2597
 5538SOL    HW228074   2.064   1.814   7.355 -1.1716  0.3766  1.0210
 5539SOL     OW28075   4.177   2.797  12.787 -0.1529 -0.1212 -0.0406
 5539SOL    HW128076   4.124   2.865  12.746  1.4607  0.6868 -0.7818
 5539SOL    HW228077   4.266   2.831  12.773  0.8411 -2.9640 -0.7751
 5540SOL     OW28078   3.099   0.870   0.025 -0.7263 -0.3099  0.2694
 5540SOL    HW128079   3.172   0.919   0.064 -2.2396  0.4852  2.0720
 5540SOL    HW228080   3.052   0.935  17.654 -1.5659  0.0160  1.4345
 5541SOL     OW28081   3.564   3.520   1.797 -0.3535  0.1383 -0.1115
 5541SOL    HW128082   3.479   3.483   1.773  0.7669 -1.7865 -1.1056
 5541SOL    HW228083   3.618   3.446   1.770  0.2772  1.0646 -1.4449
 5542SOL     OW28084   1.857   2.205   6.575  0.1511 -0.0724 -0.3271
 5542SOL    HW128085   1.854   2.233   6.666 -1.7878 -0.2713 -0.3227
 5542SOL    HW228086   1.950   2.207   6.553  0.0567  3.5783 -0.4396
 5543SOL     OW28087   1.689   4.499   5.508  0.5387 -0.0764 -0.5791
 5543SOL    HW128088   1.758   4.478   5.445 -0.2660 -0.4849 -1.3324
 5543SOL    HW228089   1.644   4.414   5.504  0.7469 -0.2126 -0.0199
 5544SOL     OW28090   2.423   2.231   7.562 -0.3177 -0.0662 -0.2133
 5544SOL    HW128091   2.343   2.248   7.512 -0.0105 -1.0704 -1.0439
 5544SOL    HW228092   2.432   2.142   7.529 -0.6443 -0.1138 -0.1733
 5545SOL     OW28093   0.235   1.858   7.313  0.1195 -0.2567 -0.2641
 5545SOL    HW128094   0.154   1.863   7.262  0.9763  2.9359 -1.3607
 5545SOL    HW228095   0.224   1.941   7.360  0.0758 -0.3457 -0.1191
 5546SOL     OW28096   3.465   4.683   8.846 -0.2431 -0.5337 -0.0850
 5546SOL    HW128097   3.395   4.706   8.906 -0.1232 -0.6847  0.1130
 5546SOL    HW228098   3.535   0.005   8.896 -0.2384  2.0597 -2.2605
 5547SOL     OW28099   2.207   2.080   5.630  0.1798  0.2562  0.1713
 5547SOL    HW128100   2.255   2.091   5.548  0.6363 -0.5639  0.3338
 5547SOL    HW228101   2.278   2.046   5.685 -0.3389 -0.5172  0.3546
 5548SOL     OW28102   2.064   2.881  11.472  0.2235  0.0001  0.3256
 5548SOL    HW128103   2.131   2.859  11.536  0.6184  0.6489  0.1316
 5548SOL    HW228104   2.088   2.827  11.397 -2.1553 -0.5984 -0.0008
 5549SOL     OW28105   1.100   0.965  16.591 -0.5528 -0.1546  0.1133
 5549SOL    HW128106   1.059   0.880  16.605 -0.9501 -0.0917 -0.6649
 5549SOL    HW228107   1.174   0.951  16.650 -2.1331 -3.0740  1.4359
 5550SOL     OW28108   4.403   3.845  11.699  0.6747  0.0886 -0.6841
 5550SOL    HW128109   4.412   3.813  11.788  0.2116 -0.8942 -0.9921
 5550SOL    HW228110   4.356   3.928  11.705  2.5870  1.0841  0.5533
 5551SOL     OW28111   4.480   3.757   7.694 -0.2560  0.4639  0.1454
 5551SOL    HW128112   4.489   3.673   7.739 -0.2879  0.8950  0.9646
 5551SOL    HW228113   4.469   3.736   7.602 -3.1650  1.2503  0.3213
 5552SOL     OW28114   1.517   2.526   8.773 -0.4766 -0.1955  0.0143
 5552SOL    HW128115   1.604   2.526   8.735 -1.0788  2.5011 -1.3610
 5552SOL    HW228116   1.460   2.532   8.696  0.0445 -0.4565 -0.3871
 5553SOL     OW28117   1.774   4.401  15.902  0.7060  0.1983 -0.6186
 5553SOL    HW128118   1.809   4.395  15.991 -2.4021  2.5559  0.7823
 5553SOL    HW228119   1.829   4.343  15.850  1.1411 -1.9816  2.2653
 5554SOL     OW28120   0.990   2.516   2.762 -0.3616 -0.3082  0.3594
 5554SOL    HW128121   0.929   2.567   2.708  1.0296  0.3792 -0.5489
 5554SOL    HW228122   0.920   2.476   2.815 -2.6420  0.0861 -2.3172
 5555SOL     OW28123   3.656   3.429   8.401 -0.2249 -0.2876 -0.0112
 5555SOL    HW128124   3.683   3.478   8.479 -0.8597 -1.0389  0.6750
 5555SOL    HW228125   3.597   3.498   8.371  1.0458  0.3446 -1.0294
 5556SOL     OW28126   1.267   2.696   6.432  0.3513  0.3191  0.0619
 5556SOL    HW128127   1.252   2.752   6.356 -2.2290  1.2033  1.2596
 5556SOL    HW228128   1.338   2.640   6.398 -0.7824 -0.3128 -1.2669
 5557SOL     OW28129   3.417   0.009   9.125  0.1146  0.5941  0.3015
 5557SOL    HW128130   3.476   0.036   9.196 -0.3898 -0.8165  1.2547
 5557SOL    HW228131   3.381   0.097   9.113  0.9573  0.9094  0.0600
 5558SOL     OW28132   0.633   1.081   6.821  0.2134 -0.0424  0.0606
 5558SOL    HW128133   0.701   1.141   6.791 -0.6331  0.5663 -0.6627
 5558SOL    HW228134   0.623   1.027   6.743  1.6865  0.3234 -0.3819
 5559SOL     OW28135   1.898   1.129   1.535  0.1125 -0.0537 -0.2291
 5559SOL    HW128136   1.860   1.042   1.532 -0.5812  0.1991  1.2926
 5559SOL    HW228137   1.916   1.123   1.629  0.4245 -2.6922 -0.4673
 5560SOL     OW28138   0.138   1.113   1.053  0.5695  0.0551 -0.1118
 5560SOL    HW128139   0.150   1.194   1.103  0.6471  0.6081 -1.0168
 5560SOL    HW228140   0.045   1.131   1.041  0.4763  0.0733  0.6514
 5561SOL     OW28141   3.717   4.156   1.203 -0.4390  0.0633 -0.1663
 5561SOL    HW128142   3.813   4.155   1.199 -0.3512  1.7059  1.4934
 5561SOL    HW228143   3.707   4.144   1.109 -0.7841  2.8606 -0.4832
 5562SOL     OW28144   2.216   1.998  16.369 -0.4427 -0.7724  0.0459
 5562SOL    HW128145   2.301   2.042  16.367  1.2644 -4.3185 -3.4269
 5562SOL    HW228146   2.214   1.949  16.287 -1.2525  0.5063 -0.7083
 5563SOL     OW28147   0.989   1.006   5.308  0.1645 -0.3329  0.3525
 5563SOL    HW128148   1.041   1.053   5.373 -0.5321  1.8345 -0.6598
 5563SOL    HW228149   0.903   1.026   5.346 -0.3620  0.8617 -1.4803
 5564SOL     OW28150   4.025   4.314   5.545  0.1517 -0.5591 -0.3454
 5564SOL    HW128151   3.941   4.359   5.549  0.4110  0.1634 -2.8794
 5564SOL    HW228152   4.004   4.223   5.522  3.2687 -0.9167 -1.9670
 5565SOL     OW28153   2.471   4.604   3.780 -0.4329  1.0266 -0.2319
 5565SOL    HW128154   2.377   4.602   3.792 -0.5038  2.3555 -0.4918
 5565SOL    HW228155   2.500   4.635   3.866 -0.2389 -0.2904  0.1788
 5566SOL     OW28156   2.025   1.520   8.635  0.5668  0.4387  0.4046
 5566SOL    HW128157   1.954   1.474   8.589 -0.0026  0.3586  1.3608
 5566SOL    HW228158   1.978   1.559   8.708  0.7354 -0.7296  1.1396
 5567SOL     OW28159   1.164   2.222   5.187  0.5482  0.0345  0.1146
 5567SOL    HW128160   1.216   2.302   5.182 -2.3852  2.0256  1.3218
 5567SOL    HW228161   1.076   2.259   5.178  0.6126 -0.6050 -2.9355
 5568SOL     OW28162   4.690   1.080   8.957 -0.0814  0.5380 -0.9050
 5568SOL    HW128163   0.049   1.085   9.011 -0.3590  0.6531 -0.5029
 5568SOL    HW228164   4.685   1.175   8.941  0.2601  0.7819  0.4045
 5569SOL     OW28165   3.500   2.434   5.750  0.6913  0.1949  0.2095
 5569SOL    HW128166   3.586   2.410   5.784  0.5024 -0.2073  0.4019
 5569SOL    HW228167   3.517   2.528   5.748  0.9585  0.1512  0.5795
 5570SOL     OW28168   2.885   1.127   8.703 -0.2051 -0.0105 -0.1016
 5570SOL    HW128169   2.846   1.163   8.783  0.5176  2.1126 -0.7080
 5570SOL    HW228170   2.961   1.081   8.738  0.3282 -0.1169 -1.3926
 5571SOL     OW28171   1.746   0.344  15.596 -0.3145  0.1310 -0.4230
 5571SOL    HW128172   1.753   0.253  15.625 -0.9776 -0.0402 -0.7978
 5571SOL    HW228173   1.650   0.348  15.589 -0.2128  0.8817 -1.4223
 5572SOL     OW28174   2.741   1.247   2.167  0.1366  0.1146  0.2651
 5572SOL    HW128175   2.646   1.257   2.168  0.1814  0.8689 -3.0494
 5572SOL    HW228176   2.750   1.167   2.115 -2.7703  0.5249 -0.8933
 5573SOL     OW28177   0.446   3.294   4.565  0.3732  0.1381 -0.0042
 5573SOL    HW128178   0.449   3.204   4.533 -0.2317  0.0161  0.2822
 5573SOL    HW228179   0.490   3.286   4.650  0.9190 -0.6971 -0.3620
 5574SOL     OW28180   4.493   0.734   9.666 -0.1800 -0.0985 -0.4431
 5574SOL    HW128181   4.459   0.651   9.700  2.0680 -1.3669 -1.3015
 5574SOL    HW228182   4.582   0.721   9.634 -0.3839  2.0115 -1.7917
 5575SOL     OW28183   1.935   2.369   7.367  0.0937  0.2557 -0.1174
 5575SOL    HW128184   1.994   2.352   7.440  1.2391 -0.3341 -1.1710
 5575SOL    HW228185   1.892   2.283   7.365 -2.4027  1.4606  1.5973
 5576SOL     OW28186   1.045   2.439  10.941 -0.1501 -0.3120 -0.1302
 5576SOL    HW128187   1.114   2.438  10.875 -0.6815  1.3660 -0.7069
 5576SOL    HW228188   0.993   2.361  10.921 -0.1013 -0.5504  0.6755
 5577SOL     OW28189   0.456   3.616  10.094 -0.2654  0.0355  0.4371
 5577SOL    HW128190   0.483   3.660  10.175  0.1390 -0.9611  0.8337
 5577SOL    HW228191   0.534   3.617  10.039  0.1280  0.0549  1.0013
 5578SOL     OW28192   0.724   0.482   3.297 -0.0786  0.1495 -0.0148
 5578SOL    HW128193   0.658   0.547   3.319  0.8608  1.9918 -2.6501
 5578SOL    HW228194   0.687   0.401   3.331  0.2601 -0.0942 -0.2282
 5579SOL     OW28195   0.752   1.251   7.581 -0.8328 -0.0487 -0.1123
 5579SOL    HW128196   0.751   1.172   7.635  1.9162  2.1337  3.1502
 5579SOL    HW228197   0.735   1.211   7.496 -0.4109  0.2780 -0.3445
 5580SOL     OW28198   2.709   0.665   7.587 -0.4584 -0.1016 -0.3305
 5580SOL    HW128199   2.736   0.585   7.634  0.1697 -0.9641 -2.1372
 5580SOL    HW228200   2.733   0.733   7.650  1.0274 -1.6127  0.7437
 5581SOL     OW28201   1.607   2.819   7.527 -0.4242  0.0040  0.4651
 5581SOL    HW128202   1.681   2.877   7.541  0.0303 -0.5500  0.3584
 5581SOL    HW228203   1.613   2.801   7.433 -1.7281 -1.2043  0.6012
 5582SOL     OW28204   3.858   1.395   4.963  0.9598  0.6767  0.0391
 5582SOL    HW128205   3.889   1.482   4.938 -2.3853  1.8325 -0.0381
 5582SOL    HW228206   3.907   1.388   5.045 -1.0839 -1.4663  1.0839
 5583SOL     OW28207   3.266   1.769   4.948 -0.3319 -0.5147 -0.5527
 5583SOL    HW128208   3.212   1.752   5.025  2.4740  1.6479  1.8835
 5583SOL    HW228209   3.321   1.691   4.940  0.3161 -0.1718  0.4911
 5584SOL     OW28210   3.191   1.802   0.683  0.1255  0.3361 -0.4870
 5584SOL    HW128211   3.135   1.791   0.761  0.7559 -1.6505 -0.2920
 5584SOL    HW228212   3.141   1.858   0.625  0.3560  2.7404  1.6393
 5585SOL     OW28213   1.525   1.795   8.404 -0.3309 -0.2372  0.3632
 5585SOL    HW128214   1.484   1.867   8.452 -1.8977  0.7194 -2.4031
 5585SOL    HW228215   1.589   1.770   8.471 -1.3363  0.8525  1.7485
 5586SOL     OW28216   2.900   4.483  16.152 -0.0105  0.0100 -0.0420
 5586SOL    HW128217   2.944   4.433  16.220 -0.4902 -1.7366 -1.0211
 5586SOL    HW228218   2.950   4.448  16.078  0.2639  0.5774 -0.1252
 5587SOL     OW28219   4.209   2.631   1.574  0.7584  0.0020 -0.2839
 5587SOL    HW128220   4.179   2.599   1.659 -0.4965 -1.0009 -1.0939
 5587SOL    HW228221   4.269   2.561   1.546 -0.6408 -1.4010  0.2445
 5588SOL     OW28222   2.539   1.132  16.450  0.0832 -0.2184  0.1903
 5588SOL    HW128223   2.497   1.111  16.366  0.8943  1.5806 -0.6796
 5588SOL    HW228224   2.507   1.057  16.499 -1.2853 -0.6201 -1.2937
 5589SOL     OW28225   1.368   3.068  17.673  0.1034  0.8185 -0.6512
 5589SOL    HW128226   1.381   3.157  17.639 -1.1466  1.5922  0.9326
 5589SOL    HW228227   1.361   3.026  17.587  3.6636  0.8229 -0.9628
 5590SOL     OW28228   2.166   0.959   3.679  0.2168 -0.8087 -0.1421
 5590SOL    HW128229   2.162   0.920   3.767  2.9371 -2.0432 -0.5682
 5590SOL    HW228230   2.175   0.883   3.622  1.3133 -0.9406  0.2029
 5591SOL     OW28231   1.268   0.726   6.587  0.2637  0.6286  0.0490
 5591SOL    HW128232   1.178   0.724   6.620  0.1125  0.5544 -0.3731
 5591SOL    HW228233   1.240   0.761   6.502  0.9291  1.0273 -0.0055
 5592SOL     OW28234   4.644   1.547   4.055  0.7079  0.4580  0.4421
 5592SOL    HW128235   4.561   1.584   4.086  1.0246 -0.0356  1.8800
 5592SOL    HW228236   4.605   1.467   4.019  0.1778  1.3998 -1.0915
 5593SOL     OW28237   3.166   4.534   7.778 -0.1762 -0.1813  0.1629
 5593SOL    HW128238   3.145   4.504   7.866 -0.5893 -1.3403 -0.3340
 5593SOL    HW228239   3.254   4.571   7.788 -1.4314  2.7333  0.6583
 5594SOL     OW28240   0.229   2.956  16.823  0.7419  0.0855  0.3465
 5594SOL    HW128241   0.288   2.942  16.749  0.0748 -3.0897  0.4258
 5594SOL    HW228242   0.161   3.007  16.779  1.5606  0.4951 -0.4288
 5595SOL     OW28243   3.366   4.099   8.394  0.3018 -0.1325  0.2659
 5595SOL    HW128244   3.397   4.035   8.330 -0.1527 -1.6780  1.5989
 5595SOL    HW228245   3.432   4.168   8.387 -0.4312  0.5752  0.3342
 5596SOL     OW28246   1.121   2.925   5.546 -0.4399 -0.1905 -0.6435
 5596SOL    HW128247   1.080   2.988   5.605 -0.3853 -2.0438  1.3611
 5596SOL    HW228248   1.042   2.879   5.515 -1.4261  2.0148 -1.3598
 5597SOL     OW28249   4.035   1.890   0.232 -0.2606 -0.5980  0.5245
 5597SOL    HW128250   3.980   1.876   0.309 -1.2022 -1.6552 -0.3439
 5597SOL    HW228251   4.004   1.833   0.162 -0.1428 -0.2173  0.1598
 5598SOL     OW28252   3.365   0.505   8.167 -0.3497  0.5697  0.2816
 5598SOL    HW128253   3.339   0.463   8.249 -1.4890 -2.7021 -1.7244
 5598SOL    HW228254   3.437   0.443   8.153  2.0683  3.0251  1.7924
 5599SOL     OW28255   4.156   1.096   9.299  0.0607 -0.1776  0.1017
 5599SOL    HW128256   4.115   1.033   9.358  1.0642  0.2660  1.2756
 5599SOL    HW228257   4.200   1.040   9.235 -1.4770 -1.6342  0.3159
 5600SOL     OW28258   0.532   0.869   6.030 -0.2079 -0.4119 -0.2827
 5600SOL    HW128259   0.451   0.823   6.052  1.4703 -2.6419  1.2554
 5600SOL    HW228260   0.526   0.915   5.946  0.1106  0.3685  0.1192
 5601SOL     OW28261   2.775   3.593  17.249 -0.1439 -0.0297 -0.3565
 5601SOL    HW128262   2.833   3.549  17.186  0.4701  0.5061 -0.1668
 5601SOL    HW228263   2.738   3.667  17.200  0.0502  0.2103 -0.1389
 5602SOL     OW28264   2.534   2.252   6.655 -0.2092 -0.2043  0.0771
 5602SOL    HW128265   2.615   2.268   6.703  0.1201 -0.3535 -0.4269
 5602SOL    HW228266   2.569   2.288   6.573  2.7010  0.8455  1.7799
 5603SOL     OW28267   3.418   4.610   1.430  0.2972 -0.3526 -0.2251
 5603SOL    HW128268   3.360   4.572   1.364 -0.8284  0.1849  0.4516
 5603SOL    HW228269   3.507   4.593   1.399  0.1372 -2.9003  0.7216
 5604SOL     OW28270   2.643   4.304   3.746 -0.4909 -0.2069 -0.8301
 5604SOL    HW128271   2.665   4.221   3.704 -0.1512  0.4241 -1.9104
 5604SOL    HW228272   2.553   4.309   3.714 -1.3849  1.8438  2.0503
 5605SOL     OW28273   3.169   1.140   9.315  0.5609 -0.1101  0.2543
 5605SOL    HW128274   3.124   1.131   9.399 -1.1394  1.0661 -0.5435
 5605SOL    HW228275   3.245   1.087   9.339  2.8309  3.3309  0.6210
 5606SOL     OW28276   1.360   1.385   6.679  0.1812 -0.6535 -0.1521
 5606SOL    HW128277   1.309   1.415   6.754 -0.1278 -1.1444 -0.1563
 5606SOL    HW228278   1.288   1.349   6.626 -2.7245  3.3070  1.1315
 5607SOL     OW28279   1.517   2.424  10.772 -0.1931 -0.7298 -0.3783
 5607SOL    HW128280   1.599   2.384  10.801 -0.3538  0.3021  1.4841
 5607SOL    HW228281   1.552   2.510  10.746 -1.5907 -0.3241 -0.9331
 5608SOL     OW28282   3.135   4.660   5.466  0.2384 -0.0784  0.4564
 5608SOL    HW128283   3.188   0.006   5.511  0.3473 -1.5715  2.4718
 5608SOL    HW228284   3.070   4.622   5.525  1.3636 -0.1275  1.6518
 5609SOL     OW28285   2.495   3.149   2.370  0.4242 -0.5868 -0.5073
 5609SOL    HW128286   2.400   3.139   2.359  0.4143 -0.9805 -0.0681
 5609SOL    HW228287   2.518   3.148   2.277  1.7319 -0.7969 -0.1758
 5610SOL     OW28288   0.303   2.307   1.885 -0.2991 -0.0788 -0.3160
 5610SOL    HW128289   0.261   2.382   1.926 -1.2421 -0.3575 -0.7687
 5610SOL    HW228290   0.396   2.300   1.910 -1.2789  0.3564  3.4003
 5611SOL     OW28291   3.461   3.872   7.843  0.2396 -0.1846 -0.4231
 5611SOL    HW128292   3.532   3.808   7.839 -0.9558 -1.4859 -0.8921
 5611SOL    HW228293   3.502   3.950   7.880  2.3473 -0.6218 -1.8439
 5612SOL     OW28294   2.535   4.330  12.884 -0.2949 -0.7143 -0.0310
 5612SOL    HW128295   2.612   4.319  12.940 -0.7381 -0.3583  0.6502
 5612SOL    HW228296   2.542   4.253  12.827  1.2663 -0.4339 -0.2176
 5613SOL     OW28297   1.815   2.207   4.892 -0.4058 -0.4397 -0.3690
 5613SOL    HW128298   1.781   2.119   4.877  1.4843 -1.1822 -0.3060
 5613SOL    HW228299   1.809   2.253   4.808 -0.7886  0.2166  0.0158
 5614SOL     OW28300   3.109   2.476  13.327 -0.3675 -0.0455  0.2806
 5614SOL    HW128301   3.188   2.530  13.321  0.3800 -1.4598 -2.5205
 5614SOL    HW228302   3.106   2.427  13.245 -2.7089 -0.7611  0.7771
 5615SOL     OW28303   4.682   0.996   1.858 -0.6613  0.2223  0.1671
 5615SOL    HW128304   4.615   1.038   1.805 -0.0349 -0.1929 -0.9541
 5615SOL    HW228305   4.637   0.912   1.865 -1.1108  0.3782 -0.8744
 5616SOL     OW28306   3.840   4.122  10.670 -0.4180 -0.2043  0.7660
 5616SOL    HW128307   3.749   4.096  10.684 -0.1748 -2.4547 -1.9507
 5616SOL    HW228308   3.835   4.195  10.609  1.5610  0.4940  1.4089
 5617SOL     OW28309   2.414   4.263   3.630  0.2643 -0.9404 -0.7466
 5617SOL    HW128310   2.440   4.177   3.597  0.9742 -0.1818 -2.1596
 5617SOL    HW228311   2.371   4.296   3.552 -0.0872  0.3040 -0.0134
 5618SOL     OW28312   2.235   4.333   8.250 -0.0563  0.2837  0.0625
 5618SOL    HW128313   2.216   4.413   8.199  2.6717  0.8674 -0.0367
 5618SOL    HW228314   2.317   4.303   8.212 -0.8412  0.3836 -1.7305
 5619SOL     OW28315   0.945   0.216   0.662  0.9407 -0.5478 -0.6031
 5619SOL    HW128316   0.884   0.237   0.592  1.4669  1.0504 -0.5698
 5619SOL    HW228317   1.001   0.292   0.676 -2.4800  1.9235 -0.4464
 5620SOL     OW28318   4.390   2.309  14.058 -0.2718 -0.1832 -0.1262
 5620SOL    HW128319   4.459   2.265  14.009 -1.8356 -1.3250 -1.3192
 5620SOL    HW228320   4.435   2.375  14.110  2.2913 -0.6193 -1.8000
 5621SOL     OW28321   1.044   1.694  12.773 -0.0892 -0.2500 -0.3695
 5621SOL    HW128322   1.000   1.636  12.836 -0.2459 -0.8337 -1.0065
 5621SOL    HW228323   1.136   1.679  12.796  0.0368 -0.0314 -0.7329
 5622SOL     OW28324   0.703   1.033  15.841 -0.0056  0.9143  0.1016
 5622SOL    HW128325   0.773   0.996  15.788 -0.3913 -1.7555  1.4655
 5622SOL    HW228326   0.633   1.054  15.779 -1.2346  1.5541  1.7001
 5623SOL     OW28327   0.899   0.794  10.488  0.4472 -0.3978  0.4415
 5623SOL    HW128328   0.969   0.859  10.489 -1.2670  1.4166  1.4827
 5623SOL    HW228329   0.908   0.751  10.403  0.3514  1.0001 -0.2732
 5624SOL     OW28330   0.520   1.096  15.639  0.8939  0.1120  0.5643
 5624SOL    HW128331   0.452   1.162  15.649 -1.5463 -2.4410  0.5622
 5624SOL    HW228332   0.553   1.125  15.553  1.8855  1.1863  1.3090
 5625SOL     OW28333   2.793   4.289  13.035 -0.1377  0.0542 -0.0025
 5625SOL    HW128334   2.784   4.241  13.118 -0.4420  2.7933  1.5461
 5625SOL    HW228335   2.825   4.219  12.978  1.2285  0.1814  0.6070
 5626SOL     OW28336   1.278   0.686   9.242  0.4547  0.5819 -0.3296
 5626SOL    HW128337   1.354   0.743   9.234 -1.1915  2.4040 -3.4595
 5626SOL    HW228338   1.219   0.717   9.172 -0.4489  0.6518  0.4667
 5627SOL     OW28339   4.498   2.811   5.348  0.2758  0.0872 -0.8052
 5627SOL    HW128340   4.580   2.761   5.347  0.8705  1.0089  1.1176
 5627SOL    HW228341   4.495   2.843   5.258 -0.3494  1.7409 -0.1848
 5628SOL     OW28342   2.230   1.504   2.455 -0.4211 -0.0993 -0.1647
 5628SOL    HW128343   2.156   1.564   2.465  0.8992  1.6311 -0.8261
 5628SOL    HW228344   2.254   1.506   2.548  0.4165 -1.3465 -0.3693
 5629SOL     OW28345   0.356   3.543   9.838 -0.3439  0.1226 -0.0254
 5629SOL    HW128346   0.328   3.623   9.793  0.7039 -0.5691 -1.8657
 5629SOL    HW228347   0.378   3.566   9.929  1.8104  2.4991 -1.1489
 5630SOL     OW28348   2.790   0.654   6.221  0.2926 -0.1794  0.5719
 5630SOL    HW128349   2.776   0.727   6.281  0.3703  0.5336 -0.2803
 5630SOL    HW228350   2.789   0.690   6.133 -1.7002 -2.0131 -0.1633
 5631SOL     OW28351   3.815   3.174   3.377 -0.3210  0.0510  0.4007
 5631SOL    HW128352   3.892   3.169   3.433  1.0147  0.4619 -1.3985
 5631SOL    HW228353   3.847   3.145   3.291 -0.3028 -1.4352  0.9222
 5632SOL     OW28354   3.344   0.731   3.068 -0.4779 -0.0435 -0.0442
 5632SOL    HW128355   3.360   0.675   2.993  1.6310  0.4301  0.0629
 5632SOL    HW228356   3.318   0.667   3.134 -0.7836 -0.2239 -0.3411
 5633SOL     OW28357   2.793   0.230   3.084  0.1038  0.2207 -0.1231
 5633SOL    HW128358   2.805   0.253   2.992  0.3729 -0.2382 -0.2001
 5633SOL    HW228359   2.750   0.146   3.069 -1.5961  0.6344  2.4251
 5634SOL     OW28360   2.935   2.988   2.625  0.4400  0.7623 -0.2738
 5634SOL    HW128361   2.995   3.041   2.573  0.8203  1.0789  0.4956
 5634SOL    HW228362   2.862   2.983   2.562 -1.2219 -0.9768  1.7898
 5635SOL     OW28363   3.814   3.926  14.272 -0.0735 -0.4121  0.1650
 5635SOL    HW128364   3.904   3.903  14.250 -0.0105  0.7669 -0.8076
 5635SOL    HW228365   3.765   3.868  14.214  0.6428 -1.7971  0.9631
 5636SOL     OW28366   1.793   3.841   8.637 -0.2312 -0.2599 -0.3784
 5636SOL    HW128367   1.698   3.831   8.642 -0.3922  1.1313 -0.7239
 5636SOL    HW228368   1.821   3.865   8.725  1.7646  1.3285 -1.4510
 5637SOL     OW28369   4.441   2.204  13.649 -0.0464  0.3221 -0.1539
 5637SOL    HW128370   4.495   2.215  13.570 -0.2232  0.4394 -0.2571
 5637SOL    HW228371   4.357   2.194  13.606 -0.6605  0.8233  0.9376
 5638SOL     OW28372   3.702   1.072   5.456 -0.7304  0.4372  0.0790
 5638SOL    HW128373   3.784   1.113   5.481 -0.0771 -0.4140 -0.6605
 5638SOL    HW228374   3.646   1.145   5.431  0.4890  0.8413 -1.5180
 5639SOL     OW28375   1.320   4.005   6.214 -0.4562  0.3416  0.1591
 5639SOL    HW128376   1.290   3.923   6.253 -3.8001  0.9556 -1.1472
 5639SOL    HW228377   1.412   3.991   6.235 -0.8954 -2.2876  0.3214
 5640SOL     OW28378   2.739   3.649   2.838  0.2718  0.3011 -0.3930
 5640SOL    HW128379   2.782   3.605   2.911 -0.2413  0.8506  0.2453
 5640SOL    HW228380   2.675   3.699   2.888  0.6454  1.4522 -1.0766
 5641SOL     OW28381   1.667   3.887  12.283  0.6665 -0.1307 -0.5099
 5641SOL    HW128382   1.600   3.875  12.351  0.9229  2.8919  0.2955
 5641SOL    HW228383   1.639   3.835  12.208  1.2576 -0.3052 -0.6144
 5642SOL     OW28384   0.976   1.606   4.772 -0.1098 -0.2543  0.3299
 5642SOL    HW128385   0.904   1.544   4.761 -0.5085  0.1432  0.7045
 5642SOL    HW228386   0.931   1.688   4.793 -0.5001 -0.3068 -0.2874
 5643SOL     OW28387   4.534   3.731   1.512  0.1669  0.1048 -0.0481
 5643SOL    HW128388   4.567   3.767   1.595  0.4568  1.4461 -0.7453
 5643SOL    HW228389   4.463   3.792   1.495 -1.1810 -1.1863  0.9720
 5644SOL     OW28390   3.415   3.706  10.193  0.3371  0.4239  0.2430
 5644SOL    HW128391   3.362   3.773  10.151  0.8170  0.3739 -0.4517
 5644SOL    HW228392   3.361   3.666  10.262  0.4867  4.2413  2.5661
 5645SOL     OW28393   4.463   0.907   6.675  0.2641 -0.6669  0.9536
 5645SOL    HW128394   4.421   0.838   6.727 -0.1526 -1.2903 -0.1841
 5645SOL    HW228395   4.540   0.916   6.730  1.1042  1.3045 -0.5439
 5646SOL     OW28396   1.542   2.521   2.016  0.2129 -0.2405 -0.0139
 5646SOL    HW128397   1.483   2.528   2.091  0.5286  1.4797  0.0634
 5646SOL    HW228398   1.592   2.600   2.033 -0.9868  0.5945 -0.3963
 5647SOL     OW28399   4.267   3.072  15.570  0.5694 -0.0776 -0.9584
 5647SOL    HW128400   4.216   3.128  15.511  2.1698  2.6362  0.2367
 5647SOL    HW228401   4.270   2.998  15.509  1.5775 -1.3741  0.6699
 5648SOL     OW28402   4.067   0.745  16.346  0.2844  0.1213 -0.6105
 5648SOL    HW128403   4.089   0.817  16.286  1.5088 -1.5792 -2.2204
 5648SOL    HW228404   4.151   0.721  16.385 -1.4761 -2.6695  1.4300
 5649SOL     OW28405   3.667   2.256  10.775  0.1014  0.5163 -0.3898
 5649SOL    HW128406   3.648   2.272  10.683  2.1224  0.9005 -0.7184
 5649SOL    HW228407   3.576   2.258  10.807 -0.1879  0.3920 -1.2152
 5650SOL     OW28408   2.349   4.344   4.100  0.3438  0.2746 -0.2337
 5650SOL    HW128409   2.279   4.292   4.060  0.2327  0.2692 -0.0323
 5650SOL    HW228410   2.335   4.433   4.067  1.1753  0.3073 -0.4909
 5651SOL     OW28411   2.922   0.169   5.664 -0.4639 -0.4089 -0.0745
 5651SOL    HW128412   2.956   0.099   5.721  1.9742  0.4767 -0.4536
 5651SOL    HW228413   2.996   0.170   5.604 -0.2440  0.3161  0.2138
 5652SOL     OW28414   2.342   0.514   6.449 -0.1666  0.3351 -0.2322
 5652SOL    HW128415   2.390   0.464   6.515 -0.5448 -0.1669 -0.3391
 5652SOL    HW228416   2.257   0.516   6.493  0.5878  1.5401  1.1960
 5653SOL     OW28417   2.488   1.213  14.904  0.4965  1.0424  0.2631
 5653SOL    HW128418   2.483   1.259  14.820 -2.0643  1.6762  0.7749
 5653SOL    HW228419   2.570   1.165  14.892 -1.2184 -1.9949  0.7648
 5654SOL     OW28420   3.008   1.318   2.343  0.3585  0.2334  0.5209
 5654SOL    HW128421   2.975   1.229   2.353  1.1472 -0.0831  0.2613
 5654SOL    HW228422   2.922   1.360   2.348  0.6520  0.6789  1.6431
 5655SOL     OW28423   2.095   2.119  11.598  0.1998  0.4409 -0.5415
 5655SOL    HW128424   2.065   2.144  11.511 -1.8401 -2.0993 -0.5447
 5655SOL    HW228425   2.189   2.115  11.581 -0.0607 -2.8342 -1.1569
 5656SOL     OW28426   4.368   3.329  16.646 -0.1673 -0.3402  0.0422
 5656SOL    HW128427   4.328   3.243  16.638  1.7147 -1.1072 -1.2696
 5656SOL    HW228428   4.420   3.324  16.726  0.6869 -0.8116 -0.5376
 5657SOL     OW28429   0.996   1.458   1.520  0.2432 -0.2349  0.1568
 5657SOL    HW128430   0.919   1.507   1.492 -0.3873 -1.8671 -0.9494
 5657SOL    HW228431   0.954   1.376   1.496  1.3770 -0.4691 -0.9711
 5658SOL     OW28432   3.224   3.060  11.279 -0.8216 -0.3458  0.2364
 5658SOL    HW128433   3.190   3.061  11.189 -0.4088 -2.6991  0.0647
 5658SOL    HW228434   3.317   3.062  11.255 -1.4499 -1.8543 -2.3242
 5659SOL     OW28435   3.023   0.500   7.636  0.0984 -0.1965  0.1242
 5659SOL    HW128436   3.017   0.570   7.701  1.6812 -0.0482  0.1217
 5659SOL    HW228437   2.936   0.466   7.657  0.2633 -1.7737 -1.8122
 5660SOL     OW28438   2.328   1.909   7.233 -0.6174  0.3200  0.1573
 5660SOL    HW128439   2.420   1.932   7.217 -0.2976 -0.5919  0.6741
 5660SOL    HW228440   2.291   1.991   7.267 -1.1548 -1.1056  2.9890
 5661SOL     OW28441   3.464   4.125   2.755  0.4467 -0.4518  0.8273
 5661SOL    HW128442   3.419   4.192   2.704 -2.6995 -1.6090  2.0696
 5661SOL    HW228443   3.476   4.050   2.696 -0.6025 -0.1618  0.2477
 5662SOL     OW28444   4.303   0.090   6.264 -0.3707  0.2811  0.0356
 5662SOL    HW128445   4.361   0.167   6.269 -2.0014  1.4908  0.2173
 5662SOL    HW228446   4.345   0.037   6.196 -1.8137 -2.3086  1.1944
 5663SOL     OW28447   2.598   0.427   9.437  0.3445 -0.6263 -0.0803
 5663SOL    HW128448   2.658   0.352   9.440  0.9450 -0.1439  0.0620
 5663SOL    HW228449   2.636   0.482   9.506  1.0876 -1.5745  0.2568
 5664SOL     OW28450   2.628   0.772  14.971  0.2602 -0.2772 -0.0414
 5664SOL    HW128451   2.621   0.778  15.067  0.1630 -0.0728 -0.0620
 5664SOL    HW228452   2.611   0.680  14.952  0.6441 -0.6768  1.5502
 5665SOL     OW28453   3.711   4.117   7.306 -0.2993 -0.3454 -0.2547
 5665SOL    HW128454   3.639   4.180   7.313  0.5969  0.3618  2.6338
 5665SOL    HW228455   3.783   4.172   7.338 -0.1914 -1.6512  1.6915
 5666SOL     OW28456   2.390   2.483   6.743 -0.0718  0.0807 -0.1536
 5666SOL    HW128457   2.375   2.418   6.810  1.7033  1.2796  1.3993
 5666SOL    HW228458   2.442   2.436   6.678  2.4762 -0.1039  2.0002
 5667SOL     OW28459   3.494   4.246   5.262  0.2113  0.1968 -0.6566
 5667SOL    HW128460   3.519   4.195   5.340 -1.1490  0.8515  0.2087
 5667SOL    HW228461   3.403   4.264   5.287  0.6193 -0.6012  1.4125
 5668SOL     OW28462   2.615   4.488  11.362 -0.3718  0.3274 -0.8860
 5668SOL    HW128463   2.594   4.522  11.275 -3.3916  2.5750  0.7152
 5668SOL    HW228464   2.668   4.565  11.386 -2.1657  1.1932  0.2839
 5669SOL     OW28465   1.090   2.586   5.010  0.9287 -0.1202  0.2596
 5669SOL    HW128466   1.088   2.519   4.941 -2.3551  0.3750 -0.1249
 5669SOL    HW228467   1.170   2.633   4.991  0.4874  0.5777  0.1415
 5670SOL     OW28468   4.425   1.579   1.918 -0.6000 -0.2652  0.0864
 5670SOL    HW128469   4.460   1.596   1.831 -0.8756  2.6251  0.5477
 5670SOL    HW228470   4.357   1.513   1.904  0.4145 -0.7320 -2.6291
 5671SOL     OW28471   1.181   1.348  12.550 -0.6685 -0.1888 -0.0050
 5671SOL    HW128472   1.270   1.314  12.551  0.1987  2.1409  1.3850
 5671SOL    HW228473   1.191   1.443  12.552 -2.4120  0.0105 -0.4879
 5672SOL     OW28474   3.828   4.342   0.256  1.0142 -0.1875 -0.2793
 5672SOL    HW128475   3.821   4.365   0.348  3.7783  0.7594 -0.3057
 5672SOL    HW228476   3.822   4.247   0.266  0.9052 -0.0295  1.1919
 5673SOL     OW28477   3.095   2.414   9.191 -0.2677  0.1740  0.1275
 5673SOL    HW128478   3.175   2.463   9.170  0.4634 -1.1789 -0.3193
 5673SOL    HW228479   3.113   2.362   9.269  0.4241 -0.2080 -0.2774
 5674SOL     OW28480   2.229   3.458   7.972 -0.5867  0.2539  0.4301
 5674SOL    HW128481   2.251   3.541   7.930  0.9956  0.1920  1.1502
 5674SOL    HW228482   2.143   3.460   7.930 -0.6303  2.2167  0.6080
 5675SOL     OW28483   4.490   1.982  13.097  0.4164  0.3678  0.4777
 5675SOL    HW128484   4.464   1.953  13.010  0.9530 -0.2624  0.5316
 5675SOL    HW228485   4.552   1.913  13.121  2.5482  1.7101 -1.1406
 5676SOL     OW28486   4.278   3.136   0.202  0.4626 -0.6416  0.1781
 5676SOL    HW128487   4.241   3.217   0.238 -0.6341 -0.2000 -1.9651
 5676SOL    HW228488   4.234   3.068   0.254  0.2690  0.1000  0.9961
 5677SOL     OW28489   1.498   4.615   6.440 -0.4674 -0.2687 -0.7179
 5677SOL    HW128490   1.546   4.539   6.406 -0.1055 -0.5304  0.3954
 5677SOL    HW228491   1.417   4.615   6.388 -0.5486 -1.3069 -0.5855
 5678SOL     OW28492   3.653   2.104   7.942 -0.1685 -0.4062 -0.1798
 5678SOL    HW128493   3.678   2.081   8.032  1.4860  0.2678 -0.4761
 5678SOL    HW228494   3.565   2.139   7.953 -0.7420 -1.9921  0.2738
 5679SOL     OW28495   1.930   1.589   3.742 -0.4454 -0.1802  0.4666
 5679SOL    HW128496   1.870   1.607   3.669  1.1215 -0.3357 -0.8653
 5679SOL    HW228497   1.982   1.669   3.740 -1.0518  0.2080  0.1237
 5680SOL     OW28498   0.582   1.203   2.935  0.0127  0.2518 -0.3899
 5680SOL    HW128499   0.615   1.291   2.953  1.0066  0.0260 -1.0559
 5680SOL    HW228500   0.531   1.193   3.014 -0.3607 -1.9169 -0.9048
 5681SOL     OW28501   3.635   2.747  10.666 -0.1284  0.2458 -0.1120
 5681SOL    HW128502   3.554   2.709  10.700  0.1654 -0.6133 -0.3786
 5681SOL    HW228503   3.687   2.782  10.739  0.1561 -0.0252 -0.1844
 5682SOL     OW28504   3.042   0.786   6.725  0.3356  0.4830  0.3735
 5682SOL    HW128505   3.083   0.705   6.753 -0.0351 -0.7758 -2.7762
 5682SOL    HW228506   2.953   0.766   6.756  1.0831 -2.0085  0.9269
 5683SOL     OW28507   0.348   1.573  14.343 -0.4986  0.5249 -0.1951
 5683SOL    HW128508   0.378   1.663  14.359  0.3910  0.2386 -0.2706
 5683SOL    HW228509   0.434   1.536  14.328 -0.9517  0.4192 -2.5260
 5684SOL     OW28510   2.066   2.518  16.578  0.1188 -0.4190 -0.0548
 5684SOL    HW128511   1.976   2.490  16.595  0.3354 -0.0443  1.6703
 5684SOL    HW228512   2.085   2.473  16.496  1.0267  0.3209 -0.2507
 5685SOL     OW28513   1.656   3.167  16.279 -0.4849 -0.0400  0.0257
 5685SOL    HW128514   1.653   3.148  16.373  2.0901  1.2098  0.3809
 5685SOL    HW228515   1.590   3.235  16.267  0.2265  0.5341 -0.6757
 5686SOL     OW28516   3.172   2.828  10.976 -0.2669 -0.3753  0.6407
 5686SOL    HW128517   3.200   2.737  10.971  0.7861 -0.0889  1.3446
 5686SOL    HW228518   3.258   2.866  10.994  0.3965 -3.1281  3.1765
 5687SOL     OW28519   2.296   4.388   5.986 -0.2610 -0.3925  0.4270
 5687SOL    HW128520   2.228   4.368   5.921 -0.5293 -0.4873  0.7386
 5687SOL    HW228521   2.363   4.426   5.930 -0.8853  0.1737  0.0624
 5688SOL     OW28522   3.127   0.451   9.865  0.8383 -0.3548 -0.0456
 5688SOL    HW128523   3.210   0.483   9.828 -0.8136  1.6086 -2.0121
 5688SOL    HW228524   3.105   0.388   9.798  1.1119 -0.0279 -0.4473
 5689SOL     OW28525   3.658   0.191   1.291 -0.3967 -0.3200 -0.1764
 5689SOL    HW128526   3.588   0.134   1.258  0.8401 -0.4771 -2.5143
 5689SOL    HW228527   3.681   0.244   1.215  1.8431  0.6259  1.1473
 5690SOL     OW28528   4.603   0.691  11.410 -0.2644 -0.5164  0.7535
 5690SOL    HW128529   4.543   0.728  11.345  0.4976  1.6471  1.3111
 5690SOL    HW228530   4.687   0.714  11.371 -0.4353  1.0276  1.3075
 5691SOL     OW28531   4.500   2.534   0.036  0.5261  0.3888 -0.3398
 5691SOL    HW128532   4.581   2.586   0.044  0.1409  1.0030 -0.4160
 5691SOL    HW228533   4.437   2.597   0.001 -1.3642 -1.2392  0.1480
 5692SOL     OW28534   3.488   2.797   2.036  0.1898 -0.2003  0.4444
 5692SOL    HW128535   3.445   2.882   2.030  1.0621  0.2724  0.8994
 5692SOL    HW228536   3.423   2.734   2.003  0.0754  0.0335  0.2198
 5693SOL     OW28537   1.112   4.501  11.052  0.1142  0.2188  0.1377
 5693SOL    HW128538   1.160   4.419  11.057  1.5673  1.0745  0.1070
 5693SOL    HW228539   1.096   4.516  10.959 -0.2314 -0.4987  0.0795
 5694SOL     OW28540   4.292   1.271   4.140  0.0467  0.0415  0.3188
 5694SOL    HW128541   4.331   1.267   4.227 -1.2128 -0.4633  0.8654
 5694SOL    HW228542   4.211   1.223   4.156 -0.6739  2.3091  3.4737
 5695SOL     OW28543   2.713   1.129   5.851 -0.0356  0.0494  0.1768
 5695SOL    HW128544   2.664   1.050   5.828  0.3532 -0.2977  0.5458
 5695SOL    HW228545   2.678   1.183   5.780  1.9745 -0.9967 -1.6191
 5696SOL     OW28546   0.175   4.063   7.231  0.2645 -0.2353  0.2478
 5696SOL    HW128547   0.207   4.110   7.308 -1.3435 -0.8150  1.2807
 5696SOL    HW228548   0.186   3.975   7.267 -0.8735 -0.8405 -0.8831
 5697SOL     OW28549   2.107   0.366   3.046 -0.1672 -0.3753 -0.0239
 5697SOL    HW128550   2.040   0.366   2.977 -2.0764 -0.2516  1.8242
 5697SOL    HW228551   2.190   0.389   3.005 -0.7404 -0.1250 -1.0580
 5698SOL     OW28552   3.571   3.403   8.827  0.4409 -0.5710  0.0320
 5698SOL    HW128553   3.616   3.468   8.773  0.2073 -1.4646 -1.2350
 5698SOL    HW228554   3.496   3.451   8.861  2.0388  1.2348  0.9959
 5699SOL     OW28555   1.430   3.645   6.214  0.0466  0.2086 -0.8467
 5699SOL    HW128556   1.482   3.566   6.221  0.5214  0.6144  0.2086
 5699SOL    HW228557   1.506   3.702   6.207  0.6604 -0.7529 -2.0272
 5700SOL     OW28558   1.402   2.799   9.950  0.0447 -0.5753 -0.2045
 5700SOL    HW128559   1.468   2.762  10.009 -1.5878  0.4078  2.2321
 5700SOL    HW228560   1.453   2.796   9.869 -0.9899  0.1456 -0.8866
 5701SOL     OW28561   3.894   1.014  15.267  0.4367 -0.1386 -0.1454
 5701SOL    HW128562   3.810   1.059  15.272 -0.7880 -2.4165 -0.2402
 5701SOL    HW228563   3.877   0.931  15.312 -0.0930  0.0708  0.0369
 5702SOL     OW28564   2.906   4.310   9.431 -0.3666  0.5046  0.1595
 5702SOL    HW128565   2.987   4.359   9.412  0.6004 -0.3974  1.9086
 5702SOL    HW228566   2.899   4.332   9.524  0.3997  2.4775 -0.2517
 5703SOL     OW28567   2.299   1.697   8.847 -0.0966  0.1383 -0.6615
 5703SOL    HW128568   2.392   1.705   8.866 -0.4548 -0.4032  1.2595
 5703SOL    HW228569   2.267   1.767   8.789 -1.6158  1.3323  1.6105
 5704SOL     OW28570   3.052   3.772   7.279 -0.6022 -0.2038 -0.1031
 5704SOL    HW128571   3.063   3.853   7.229 -3.0242 -0.0733 -0.4439
 5704SOL    HW228572   2.986   3.731   7.222 -1.7310  1.9787 -0.3445
 5705SOL     OW28573   2.633   2.494   2.390 -0.0376  0.0602  0.2539
 5705SOL    HW128574   2.632   2.543   2.472 -1.4659 -0.5010  0.5766
 5705SOL    HW228575   2.625   2.403   2.418 -1.3489  0.2620  0.5221
 5706SOL     OW28576   4.586   4.065  17.141  0.0566  0.3958  0.6743
 5706SOL    HW128577   4.623   4.084  17.227  0.6482  2.2876 -0.0050
 5706SOL    HW228578   4.646   3.997  17.111 -0.6030 -0.3213  0.9573
 5707SOL     OW28579   3.562   0.689   8.273 -0.1681 -0.4147 -0.0728
 5707SOL    HW128580   3.499   0.644   8.216  0.4878  0.5367 -1.5266
 5707SOL    HW228581   3.517   0.662   8.354 -0.7804 -0.9726 -0.5958
 5708SOL     OW28582   3.633   1.092   6.286  0.1792 -0.5342 -0.3061
 5708SOL    HW128583   3.610   1.157   6.220  1.3359 -0.3714 -0.5460
 5708SOL    HW228584   3.664   1.143   6.360  1.0390 -2.4652  0.6770
 5709SOL     OW28585   3.191   2.813   4.524 -0.0972  0.1928 -0.2612
 5709SOL    HW128586   3.170   2.759   4.600  0.9076  2.0224  1.3061
 5709SOL    HW228587   3.264   2.870   4.550 -0.4050  1.0133 -1.1752
 5710SOL     OW28588   1.881   1.768   3.249 -0.0497  0.0277  0.5841
 5710SOL    HW128589   1.788   1.790   3.247 -0.1338 -0.4242 -0.3404
 5710SOL    HW228590   1.873   1.681   3.287 -4.0885  1.0100  1.9539
 5711SOL     OW28591   4.492   0.879   5.821  0.3734 -0.4904  0.4189
 5711SOL    HW128592   4.569   0.826   5.800  0.0435 -0.4858 -0.8265
 5711SOL    HW228593   4.525   0.948   5.878 -2.2690  0.1972  1.1020
 5712SOL     OW28594   3.437   0.580   7.103  0.5827  0.2711 -0.1505
 5712SOL    HW128595   3.446   0.569   7.198 -1.7796  0.3377  0.0754
 5712SOL    HW228596   3.433   0.674   7.083  2.1095  0.0844 -1.3502
 5713SOL     OW28597   3.475   4.471   2.350 -0.6361 -0.1029  0.0570
 5713SOL    HW128598   3.469   4.566   2.345  1.5174  0.1199  1.9525
 5713SOL    HW228599   3.384   4.451   2.371 -0.9563 -2.0226 -3.0220
 5714SOL     OW28600   4.305   4.260   1.616 -0.1490 -0.0618 -0.0714
 5714SOL    HW128601   4.264   4.175   1.629  1.5934 -1.0899 -1.1697
 5714SOL    HW228602   4.341   4.262   1.527  3.2680 -2.5303  1.2246
 5715SOL     OW28603   0.924   4.404   2.136 -0.2618  0.1626 -0.0566
 5715SOL    HW128604   0.957   4.343   2.070 -1.0095 -0.3668  0.0668
 5715SOL    HW228605   0.847   4.438   2.090  0.7844  2.0448 -0.4328
 5716SOL     OW28606   0.703   2.963  16.102  0.2406  0.1483 -0.3072
 5716SOL    HW128607   0.731   2.986  16.190  0.6558 -0.9679 -0.1471
 5716SOL    HW228608   0.617   2.922  16.116  0.8170 -1.9799 -2.9459
 5717SOL     OW28609   2.415   1.114   1.507  0.3160  0.1351 -0.0730
 5717SOL    HW128610   2.360   1.043   1.538  0.3728 -0.3474 -1.0780
 5717SOL    HW228611   2.418   1.093   1.414 -1.9605  2.1731 -0.6117
 5718SOL     OW28612   2.840   0.287  12.868  0.3429 -0.0815  0.2656
 5718SOL    HW128613   2.898   0.261  12.940 -0.0626 -1.8166 -0.0175
 5718SOL    HW228614   2.752   0.298  12.905  0.5656 -1.2225  1.1670
 5719SOL     OW28615   1.988   0.443  15.605 -0.1386 -0.1394 -0.0559
 5719SOL    HW128616   2.031   0.473  15.525  0.5557 -1.2039 -0.0779
 5719SOL    HW228617   1.911   0.405  15.562 -1.1591  3.6990 -1.6035
 5720SOL     OW28618   1.828   1.634   2.930 -0.4875  0.8541 -0.2025
 5720SOL    HW128619   1.786   1.614   2.846  0.6351 -0.6581 -0.4104
 5720SOL    HW228620   1.774   1.577   2.985  1.6423 -0.8120  0.1701
 5721SOL     OW28621   0.955   4.114   5.275  0.3429  0.1778 -0.4124
 5721SOL    HW128622   1.018   4.067   5.220 -0.5042 -0.6064 -0.7094
 5721SOL    HW228623   0.961   4.061   5.354  1.1582  1.2066  0.2218
 5722SOL     OW28624   3.483   2.794  12.076 -0.3649 -0.3078  0.2965
 5722SOL    HW128625   3.389   2.776  12.063 -0.4161  2.0846 -2.6196
 5722SOL    HW228626   3.497   2.889  12.083  0.5809 -0.3846 -0.7098
 5723SOL     OW28627   0.209   0.880  15.470  0.3248  0.9043  0.4876
 5723SOL    HW128628   0.125   0.875  15.516 -0.1535 -3.3960 -0.8370
 5723SOL    HW228629   0.185   0.917  15.385 -0.4845  0.1816  0.3936
 5724SOL     OW28630   1.056   2.409   2.093 -0.5626  0.4232 -0.0276
 5724SOL    HW128631   1.037   2.460   2.014 -0.4321  0.6799  0.1061
 5724SOL    HW228632   1.076   2.479   2.155  0.5747  0.1993 -0.1377
 5725SOL     OW28633   1.729   1.046   5.084  0.2637  0.3999 -0.5294
 5725SOL    HW128634   1.762   1.135   5.101  0.9476 -0.1830  1.1993
 5725SOL    HW228635   1.812   0.999   5.089 -0.1976 -0.3009  0.4129
 5726SOL     OW28636   2.226   1.582  12.546  0.5364 -0.0673 -0.3611
 5726SOL    HW128637   2.269   1.658  12.508  0.7252  0.1977  0.3952
 5726SOL    HW228638   2.172   1.613  12.618 -0.6566 -0.5448 -1.0432
 5727SOL     OW28639   0.580   2.172   9.600  0.0172  0.1359  0.1209
 5727SOL    HW128640   0.557   2.079   9.609  1.7003 -0.3563 -0.5961
 5727SOL    HW228641   0.658   2.168   9.544 -0.0475  2.7469 -0.1651
 5728SOL     OW28642   3.900   2.132  16.400 -0.4231  0.7691  0.2898
 5728SOL    HW128643   3.832   2.182  16.445 -3.2138 -0.2247 -2.8444
 5728SOL    HW228644   3.915   2.059  16.460  0.6401  1.3931  0.7754
 5729SOL     OW28645   2.922   2.110   5.344 -0.3022 -0.0983  0.4523
 5729SOL    HW128646   2.977   2.083   5.271 -0.0834 -1.4449  1.1017
 5729SOL    HW228647   2.971   2.073   5.418 -0.6894  0.8348  1.1863
 5730SOL     OW28648   3.033   1.128   5.637  0.1312  0.1466  0.0397
 5730SOL    HW128649   3.126   1.112   5.624 -0.0590 -0.6944 -0.2537
 5730SOL    HW228650   3.029   1.223   5.624 -1.4454 -0.1666 -1.8028
 5731SOL     OW28651   1.302   3.128  13.307  0.2208 -0.2674  0.1741
 5731SOL    HW128652   1.308   3.212  13.352 -1.3725 -0.1065  0.1136
 5731SOL    HW228653   1.386   3.134  13.263  0.5736 -0.5253  0.8105
 5732SOL     OW28654   2.718   3.417   0.771  0.1746 -0.2940  0.2087
 5732SOL    HW128655   2.670   3.400   0.852 -0.3890 -2.5473 -0.6167
 5732SOL    HW228656   2.647   3.461   0.725 -0.2504 -0.5761  0.6004
 5733SOL     OW28657   1.892   3.631   8.202 -0.4149  0.4464  0.2736
 5733SOL    HW128658   1.919   3.692   8.271  0.0850 -0.6477  1.0502
 5733SOL    HW228659   1.879   3.547   8.247  0.8167  0.1217  0.0529
 5734SOL     OW28660   0.171   2.898   7.387 -0.3884  0.4867 -0.0513
 5734SOL    HW128661   0.093   2.845   7.372 -0.0239 -0.2608  0.6352
 5734SOL    HW228662   0.212   2.898   7.300  1.2379 -0.7915  0.7081
 5735SOL     OW28663   2.986   3.320  10.558 -0.8321  0.4384 -0.3062
 5735SOL    HW128664   3.004   3.286  10.646  1.8872 -0.5211 -1.2035
 5735SOL    HW228665   3.074   3.355  10.541 -0.8767  2.0208  2.7638
 5736SOL     OW28666   4.395   4.010   3.944  0.1137  0.2278 -0.3792
 5736SOL    HW128667   4.375   3.924   3.906  1.8113 -0.9905  1.4908
 5736SOL    HW228668   4.314   4.051   3.974  0.2548  0.9751 -1.0049
 5737SOL     OW28669   1.182   0.516  14.438 -0.6304  0.0476 -0.1466
 5737SOL    HW128670   1.236   0.561  14.503 -0.1493 -0.8187  0.0467
 5737SOL    HW228671   1.115   0.580  14.411  0.8693  0.8762 -1.8984
 5738SOL     OW28672   1.573   1.847   3.901 -0.1411  0.0624  0.2259
 5738SOL    HW128673   1.578   1.777   3.966  2.5173  0.7680  0.8007
 5738SOL    HW228674   1.491   1.889   3.925 -0.7527 -1.1307  0.2038
 5739SOL     OW28675   1.662   2.203  11.671 -0.1332 -0.4156  0.3981
 5739SOL    HW128676   1.589   2.227  11.729  0.4112 -0.0342  0.9260
 5739SOL    HW228677   1.618   2.200  11.586  0.6093  0.7049 -0.0232
 5740SOL     OW28678   4.236   2.624   8.627 -0.3002 -0.7858 -0.5473
 5740SOL    HW128679   4.160   2.586   8.671 -2.4403  2.7727 -1.2415
 5740SOL    HW228680   4.310   2.578   8.668  1.0238  2.3340  0.5391
 5741SOL     OW28681   1.162   3.458   8.482  0.2282  0.0062 -0.4147
 5741SOL    HW128682   1.107   3.508   8.543  1.1155  0.0958  0.3044
 5741SOL    HW228683   1.129   3.370   8.500  0.1554  0.2283  0.5266
 5742SOL     OW28684   0.850   1.610   5.685 -0.1894 -0.1231 -0.4074
 5742SOL    HW128685   0.805   1.530   5.710  0.1814  0.4247  1.9730
 5742SOL    HW228686   0.890   1.575   5.606  2.5630  0.5580  0.7077
 5743SOL     OW28687   0.286   2.057   3.953 -0.1350 -0.2220  0.3128
 5743SOL    HW128688   0.232   2.020   3.883 -0.9458  2.0221 -0.2441
 5743SOL    HW228689   0.258   2.003   4.027  0.9520 -0.8037  0.3041
 5744SOL     OW28690   0.777   4.215   5.511  0.3614 -0.1207 -0.4832
 5744SOL    HW128691   0.807   4.131   5.546  0.7821  0.4742  0.5907
 5744SOL    HW228692   0.687   4.183   5.506  0.1495  0.5623 -0.8827
 5745SOL     OW28693   1.706   0.312  13.943 -0.0407 -0.1638  0.0810
 5745SOL    HW128694   1.654   0.322  13.864  0.1421  0.2619  0.0110
 5745SOL    HW228695   1.776   0.266  13.896 -0.6524 -1.6626  0.6473
 5746SOL     OW28696   0.222   2.190  10.098 -0.0972  0.4214  0.2576
 5746SOL    HW128697   0.146   2.173  10.042 -1.0109  0.9317  1.3367
 5746SOL    HW228698   0.247   2.101  10.122  0.1421  0.2272 -0.7393
 5747SOL     OW28699   0.714   4.234  17.364  0.2173  0.0378  0.5570
 5747SOL    HW128700   0.706   4.166  17.297 -1.5427 -0.5916  1.4256
 5747SOL    HW228701   0.797   4.212  17.407  0.6084 -0.9081 -0.6846
 5748SOL     OW28702   2.872   3.448   9.711  0.0274  0.1916  0.1765
 5748SOL    HW128703   2.922   3.425   9.789  0.7524  3.5841  0.7046
 5748SOL    HW228704   2.880   3.366   9.661 -1.2838 -0.7893  1.5886
 5749SOL     OW28705   4.374   2.764  11.491 -0.3831  0.1435 -0.1610
 5749SOL    HW128706   4.431   2.798  11.422  0.2679  1.4900  1.0359
 5749SOL    HW228707   4.402   2.672  11.496  1.5914  0.7100 -0.5217
 5750SOL     OW28708   0.372   1.236   2.130  0.3783  0.8596 -0.4135
 5750SOL    HW128709   0.429   1.313   2.130  0.5388  0.7363  0.5646
 5750SOL    HW228710   0.359   1.217   2.037 -0.4169 -1.2949  0.1509
 5751SOL     OW28711   0.381   0.583   8.876 -0.4761 -0.1340  0.8246
 5751SOL    HW128712   0.425   0.500   8.894  1.9844  0.5010 -2.2522
 5751SOL    HW228713   0.325   0.563   8.801 -1.3531  0.3158  1.3529
 5752SOL     OW28714   2.148   2.075   3.213 -0.3403 -0.2497 -0.3821
 5752SOL    HW128715   2.242   2.075   3.194 -0.4045 -0.4184 -0.7002
 5752SOL    HW228716   2.129   1.988   3.247  1.4406 -0.1584  0.8030
 5753SOL     OW28717   2.359   1.716   7.860  0.0849  0.2527  0.3704
 5753SOL    HW128718   2.317   1.644   7.907 -0.9608  0.8613  0.3802
 5753SOL    HW228719   2.316   1.707   7.775  1.1967  0.9931 -0.2605
 5754SOL     OW28720   2.018   0.716   9.161  0.0159  0.2435 -0.6459
 5754SOL    HW128721   2.039   0.809   9.173 -0.1397  0.2936 -0.7641
 5754SOL    HW228722   2.072   0.666   9.223  0.1405  1.8146  0.5103
 5755SOL     OW28723   4.131   1.717   6.673 -0.5799 -0.3045 -0.2997
 5755SOL    HW128724   4.129   1.650   6.742  0.5769  0.3500  0.3692
 5755SOL    HW228725   4.207   1.691   6.620  0.8904 -0.3710  1.8729
 5756SOL     OW28726   0.246   1.533   9.290  0.5884  0.1160  0.5871
 5756SOL    HW128727   0.273   1.449   9.253  0.7473  1.2563 -1.8946
 5756SOL    HW228728   0.151   1.534   9.282  0.5766 -1.4292  0.6044
 5757SOL     OW28729   4.592   1.614   8.346 -0.0224  1.0157  0.0261
 5757SOL    HW128730   4.533   1.569   8.406  2.4788 -0.7778  1.1351
 5757SOL    HW228731   4.640   1.657   8.417  0.7705 -0.2766  0.2813
 5758SOL     OW28732   2.009   0.518  12.227 -0.0739  0.4319 -0.4889
 5758SOL    HW128733   1.915   0.529  12.237  0.2254  1.2890  1.3517
 5758SOL    HW228734   2.045   0.549  12.310 -0.3638 -2.6174  0.7825
 5759SOL     OW28735   2.291   1.415   1.515  0.1263  0.7421 -0.0447
 5759SOL    HW128736   2.288   1.503   1.551 -1.3423  1.4071 -1.7883
 5759SOL    HW228737   2.199   1.397   1.496  0.4942 -1.4936  0.2523
 5760SOL     OW28738   2.581   0.621   8.021  0.1208  0.1231  0.0701
 5760SOL    HW128739   2.658   0.566   8.036 -0.7733 -1.5351 -1.3838
 5760SOL    HW228740   2.610   0.669   7.944  1.1663 -0.7627 -0.0975
 5761SOL     OW28741   1.943   2.431   3.450 -0.2887  0.2743  0.1606
 5761SOL    HW128742   1.882   2.464   3.384  0.0784  0.1167 -0.2576
 5761SOL    HW228743   1.949   2.512   3.499 -2.4769  0.7657 -0.3956
 5762SOL     OW28744   2.260   4.718  15.177 -1.2764  0.4579  0.4544
 5762SOL    HW128745   2.271   4.625  15.161 -0.8727  0.8068 -1.2640
 5762SOL    HW228746   2.312   0.009  15.257  0.9017 -1.0283 -0.7839
 5763SOL     OW28747   3.576   2.512  14.720  0.2240  0.2544 -0.2616
 5763SOL    HW128748   3.574   2.432  14.772 -1.3306  0.2667 -0.3177
 5763SOL    HW228749   3.643   2.491  14.655  1.5296  1.4833  0.6605
 5764SOL     OW28750   1.847   4.310   3.228 -0.2997 -0.1026 -0.1392
 5764SOL    HW128751   1.781   4.372   3.196 -0.2734  0.3605  0.6992
 5764SOL    HW228752   1.926   4.364   3.225  1.4585 -2.7739 -1.0684
 5765SOL     OW28753   2.595   1.536   6.560  0.3625 -0.7593 -0.5568
 5765SOL    HW128754   2.514   1.529   6.509  0.7395  0.1012 -1.2726
 5765SOL    HW228755   2.582   1.468   6.627  1.7702  0.6597  1.1612
 5766SOL     OW28756   2.332   3.114   3.070  0.2839  0.2577 -0.2024
 5766SOL    HW128757   2.334   3.107   2.974  0.8737  0.8094 -0.2313
 5766SOL    HW228758   2.285   3.194   3.090 -0.2184 -0.0685 -0.0796
 5767SOL     OW28759   3.186   0.166  11.229 -0.4955 -0.4868 -0.1856
 5767SOL    HW128760   3.222   0.123  11.307 -1.9174  0.2792  0.9197
 5767SOL    HW228761   3.134   0.091  11.202 -0.1965 -0.4232 -0.9351
 5768SOL     OW28762   4.223   0.691  13.763  0.0118  0.4514 -0.1345
 5768SOL    HW128763   4.132   0.664  13.778  0.0634  1.0431  1.2522
 5768SOL    HW228764   4.242   0.692  13.857 -2.1220  0.3924  0.2971
 5769SOL     OW28765   1.068   3.280   3.354  0.9205 -0.0477  0.6086
 5769SOL    HW128766   1.152   3.241   3.329  1.0305  0.4380  0.2297
 5769SOL    HW228767   1.071   3.286   3.450  1.5774 -1.8949  0.6999
 5770SOL     OW28768   2.524   3.533   5.855  0.0848 -0.0844  0.4377
 5770SOL    HW128769   2.435   3.565   5.873 -0.0545 -0.3792  0.2776
 5770SOL    HW228770   2.549   3.477   5.928 -1.2572 -1.3951 -0.0970
 5771SOL     OW28771   3.190   4.080   0.965 -0.1860  0.3763  0.0378
 5771SOL    HW128772   3.099   4.073   0.936 -0.9575  1.4343  2.1992
 5771SOL    HW228773   3.214   3.987   0.962 -0.0345  0.4733 -1.8446
 5772SOL     OW28774   2.972   0.909   1.405 -1.2146 -0.8040  0.3723
 5772SOL    HW128775   2.895   0.950   1.443 -0.0274  1.4060  0.4213
 5772SOL    HW228776   2.932   0.825   1.387 -0.8466 -0.7341 -0.7469
 5773SOL     OW28777   2.685   1.392   1.529 -0.3765 -0.5521  0.5034
 5773SOL    HW128778   2.704   1.336   1.453  1.3411 -0.0836  0.5801
 5773SOL    HW228779   2.714   1.477   1.496  0.9149 -1.1267  0.1479
 5774SOL     OW28780   1.796   4.213   6.208  0.2206  0.4217  0.1200
 5774SOL    HW128781   1.753   4.128   6.217  2.7204 -0.8813 -0.0686
 5774SOL    HW228782   1.887   4.182   6.208 -0.0814 -0.4884 -0.7454
 5775SOL     OW28783   3.192   4.694  12.054  0.3022 -0.7235  0.0510
 5775SOL    HW128784   3.261   4.629  12.046  1.2598  0.2514  0.4810
 5775SOL    HW228785   3.128   4.655  11.994 -1.4162  1.3573  0.5143
 5776SOL     OW28786   2.016   0.970  11.404  0.4897 -0.1271  0.2180
 5776SOL    HW128787   1.983   0.933  11.323  1.5154 -1.6905  0.5345
 5776SOL    HW228788   1.933   0.965  11.453  1.0480 -3.9127  0.7574
 5777SOL     OW28789   0.896   0.744  10.840 -0.1086  0.1133 -0.1248
 5777SOL    HW128790   0.852   0.686  10.903 -1.2858  0.0084 -1.0430
 5777SOL    HW228791   0.962   0.689  10.798 -2.4267 -1.8131 -1.2021
 5778SOL     OW28792   1.306   4.182   2.952  0.1557 -0.2205  0.5502
 5778SOL    HW128793   1.239   4.170   2.884  1.2538  0.0348 -0.5745
 5778SOL    HW228794   1.253   4.233   3.014 -0.9948 -1.4187  0.5621
 5779SOL     OW28795   0.673   0.265   7.586 -0.0511  0.2888  0.1608
 5779SOL    HW128796   0.663   0.188   7.643  1.1745 -0.2702 -0.3663
 5779SOL    HW228797   0.586   0.291   7.557 -0.1764  0.0216  0.2876
 5780SOL     OW28798   4.715   3.022   7.798 -0.1069 -0.3763 -0.4649
 5780SOL    HW128799   4.716   3.006   7.704 -1.3233  1.2561 -0.7389
 5780SOL    HW228800   4.654   2.953   7.824  0.3784 -1.2896 -1.7735
 5781SOL     OW28801   3.038   0.761   4.289 -0.6239  0.4228  0.5077
 5781SOL    HW128802   3.026   0.830   4.354 -1.6787  0.4106  0.3167
 5781SOL    HW228803   2.973   0.772   4.219  1.0988 -3.2431 -1.6618
 5782SOL     OW28804   1.095   0.225   5.912  0.0835  0.0744 -0.1713
 5782SOL    HW128805   1.141   0.145   5.886 -0.1578 -0.2932  0.5341
 5782SOL    HW228806   1.153   0.247   5.986  2.0215 -1.0210 -1.3625
 5783SOL     OW28807   2.943   1.373   1.309  0.1392 -0.6351 -0.2176
 5783SOL    HW128808   2.990   1.389   1.392 -0.3837 -1.3753  0.2193
 5783SOL    HW228809   2.987   1.291   1.290  0.6523 -0.6029  0.7909
 5784SOL     OW28810   4.535   4.232   6.621 -0.0309  0.1834  0.7579
 5784SOL    HW128811   4.540   4.142   6.589  0.9670  0.9377 -1.1999
 5784SOL    HW228812   4.456   4.235   6.675 -0.1517 -0.2239  0.5970
 5785SOL     OW28813   2.736   0.925   8.109  0.6169  0.2802  0.5206
 5785SOL    HW128814   2.767   1.002   8.060  1.9559 -1.1081 -0.7977
 5785SOL    HW228815   2.657   0.957   8.152 -0.7876 -0.4487 -1.5594
 5786SOL     OW28816   4.569   4.628   6.289 -0.0038 -1.0476 -0.3806
 5786SOL    HW128817   4.519   4.647   6.210 -0.9176 -0.2692  0.3893
 5786SOL    HW228818   4.498   4.629   6.354  0.6127 -2.8734  0.3216
 5787SOL     OW28819   3.218   4.333   4.011 -0.0644 -0.7352 -0.2965
 5787SOL    HW128820   3.138   4.294   4.046 -0.3495  0.6981  0.6668
 5787SOL    HW228821   3.259   4.349   4.097 -0.2877 -1.3770 -0.0712
 5788SOL     OW28822   0.138   0.917  12.867  0.5915 -0.3725 -0.1901
 5788SOL    HW128823   0.133   0.922  12.962  0.9784 -2.2437 -0.0749
 5788SOL    HW228824   0.174   1.003  12.843  1.6138 -0.3954  1.2585
 5789SOL     OW28825   3.344   0.147   5.179  0.2616 -0.4663  0.4832
 5789SOL    HW128826   3.388   0.192   5.251  1.7673  0.1608 -0.8214
 5789SOL    HW228827   3.364   0.057   5.203  0.1843 -0.0559  2.0901
 5790SOL     OW28828   4.706   2.504   7.886  0.5710 -0.0780 -0.2637
 5790SOL    HW128829   4.634   2.462   7.839  1.2295 -2.5078  0.8932
 5790SOL    HW228830   4.697   2.479   7.978  2.3452 -1.4039 -0.4496
 5791SOL     OW28831   2.359   4.186   9.268  0.5606  0.2713  0.2590
 5791SOL    HW128832   2.390   4.129   9.338  1.6198  1.2802  0.5898
 5791SOL    HW228833   2.273   4.211   9.303  1.1427  0.5145  1.4890
 5792SOL     OW28834   1.259   0.620   0.136 -0.1992 -0.2080  0.0118
 5792SOL    HW128835   1.296   0.604   0.049 -0.4123  1.7957 -0.4455
 5792SOL    HW228836   1.278   0.535   0.175  0.5965  0.3951  0.9617
 5793SOL     OW28837   2.584   1.921  17.088  0.0603 -0.5126 -0.3954
 5793SOL    HW128838   2.667   1.896  17.049  1.3298 -0.6036  2.3485
 5793SOL    HW228839   2.599   1.896  17.179  0.9361  2.0612  0.1522
 5794SOL     OW28840   3.766   0.739  14.316 -1.2495  0.1021  0.2647
 5794SOL    HW128841   3.804   0.730  14.228 -1.1430  0.4731  0.2752
 5794SOL    HW228842   3.839   0.773  14.367 -0.2971 -0.8318 -0.4567
 5795SOL     OW28843   1.474   3.667  11.784 -0.7841 -0.0067  0.1121
 5795SOL    HW128844   1.383   3.652  11.808 -0.7813 -2.4295 -1.4187
 5795SOL    HW228845   1.460   3.637  11.694  0.8214 -1.7754  0.4700
 5796SOL     OW28846   3.275   2.228   3.364  0.2553 -0.4601  0.2806
 5796SOL    HW128847   3.340   2.189   3.422 -1.2654 -2.1914  0.8202
 5796SOL    HW228848   3.212   2.156   3.356  1.4540 -1.0056 -4.3772
 5797SOL     OW28849   3.756   2.998   0.563 -0.0815 -0.1678 -0.3728
 5797SOL    HW128850   3.801   3.082   0.577 -2.6097  1.0102  0.5769
 5797SOL    HW228851   3.682   3.000   0.623  0.4816  2.5722  0.2299
 5798SOL     OW28852   3.086   0.930   3.698 -0.0690 -0.0532 -0.0290
 5798SOL    HW128853   3.007   0.952   3.648 -0.2384  0.4357  0.4638
 5798SOL    HW228854   3.066   0.959   3.787  0.9372 -1.7548  0.7327
 5799SOL     OW28855   0.042   1.396  14.204  0.3745 -0.5846 -0.0240
 5799SOL    HW128856   0.078   1.368  14.288  1.0335  1.0961  0.2649
 5799SOL    HW228857   0.052   1.318  14.150  1.4829  0.6079 -1.5531
 5800SOL     OW28858   2.232   1.877  13.908  0.4088  0.0088  0.4128
 5800SOL    HW128859   2.175   1.953  13.915  0.2013 -0.1323  0.2547
 5800SOL    HW228860   2.166   1.816  13.939  1.7532 -1.1011  1.0493
 5801SOL     OW28861   0.470   2.730   6.966 -0.0989  0.2240  0.2026
 5801SOL    HW128862   0.526   2.737   6.888  1.8418 -1.3557  1.4463
 5801SOL    HW228863   0.532   2.715   7.037 -0.1583 -0.1637  0.1741
 5802SOL     OW28864   3.184   0.107   6.539 -0.0711  0.3676  0.0144
 5802SOL    HW128865   3.234   0.178   6.499  0.2369  1.4510  2.3211
 5802SOL    HW228866   3.204   0.114   6.632 -0.8511 -0.7610  0.2632
 5803SOL     OW28867   2.098   3.281   3.111  0.3118 -0.0834 -0.3170
 5803SOL    HW128868   2.049   3.362   3.098  0.2386 -0.0208  0.3583
 5803SOL    HW228869   2.096   3.288   3.206  0.1124 -0.3927 -0.2956
 5804SOL     OW28870   2.277   3.908   4.315  0.3249 -0.4591 -0.0755
 5804SOL    HW128871   2.356   3.956   4.339  0.6032 -1.2412  0.5864
 5804SOL    HW228872   2.206   3.949   4.364 -0.3463 -0.0111 -1.4263
 5805SOL     OW28873   0.257   1.968  16.516 -0.1246  0.0904 -0.1096
 5805SOL    HW128874   0.268   1.889  16.568 -1.2214 -0.2558 -0.4131
 5805SOL    HW228875   0.288   1.937  16.431 -1.4558 -0.0473 -0.5498
 5806SOL     OW28876   1.324   3.990   1.841  0.3326  0.1844 -0.7131
 5806SOL    HW128877   1.364   4.072   1.813  2.0154 -0.0454  0.9973
 5806SOL    HW228878   1.231   4.010   1.850  0.4566  1.4414 -2.3475
 5807SOL     OW28879   2.802   0.339   1.345  0.0124 -0.6056 -1.0052
 5807SOL    HW128880   2.814   0.310   1.436 -0.6681  0.7267 -0.5004
 5807SOL    HW228881   2.895   0.328   1.323  0.3844  0.4721  0.0531
 5808SOL     OW28882   3.584   4.335   1.340 -0.3051  0.1916  0.4018
 5808SOL    HW128883   3.648   4.406   1.338  2.1991 -2.0339  1.4091
 5808SOL    HW228884   3.622   4.272   1.278 -0.1416  0.4527  0.2369
 5809SOL     OW28885   3.395   3.606  17.152 -0.1125  0.3955 -0.6250
 5809SOL    HW128886   3.397   3.699  17.131  0.0515  0.7643  1.0921
 5809SOL    HW228887   3.486   3.582  17.172 -0.8441 -0.6256  1.4419
 5810SOL     OW28888   1.355   2.477   8.232 -0.1217 -0.5294 -0.3113
 5810SOL    HW128889   1.378   2.564   8.265 -3.2826  0.7817 -1.5002
 5810SOL    HW228890   1.436   2.434   8.206 -0.0792 -1.3456  1.1616
 5811SOL     OW28891   4.182   0.428   6.568 -0.4526  0.4598 -0.3353
 5811SOL    HW128892   4.218   0.473   6.491 -1.4012  1.1989 -0.3472
 5811SOL    HW228893   4.094   0.462   6.553 -0.3352  0.7617 -0.3234
 5812SOL     OW28894   3.661   2.828   2.590  0.0541 -0.6074 -0.5144
 5812SOL    HW128895   3.636   2.905   2.540 -2.0899  0.0598  1.5643
 5812SOL    HW228896   3.577   2.815   2.636  2.8406  0.2608  4.8504
 5813SOL     OW28897   0.471   2.401   0.230 -0.1987  0.0759 -0.1322
 5813SOL    HW128898   0.378   2.380   0.229 -0.0771 -0.4148 -0.9232
 5813SOL    HW228899   0.481   2.430   0.321  3.4735 -0.2940 -0.4244
 5814SOL     OW28900   1.883   0.126  17.112 -0.0590 -0.7290  0.4655
 5814SOL    HW128901   1.838   0.125  17.028 -0.4759 -0.8509  0.6917
 5814SOL    HW228902   1.927   0.210  17.100 -2.0406  0.1341 -0.5672
 5815SOL     OW28903   0.902   1.308  16.935  0.1935  0.4524 -0.0329
 5815SOL    HW128904   0.993   1.338  16.940  0.9054 -1.6160 -0.5483
 5815SOL    HW228905   0.881   1.324  17.027  1.6471  1.8422  0.0479
 5816SOL     OW28906   1.011   3.485  10.551  0.4408 -0.2790 -0.3515
 5816SOL    HW128907   1.009   3.390  10.558 -2.4646 -0.2695 -1.2470
 5816SOL    HW228908   0.984   3.517  10.637 -2.3780 -2.0397 -0.5817
 5817SOL     OW28909   1.499   3.366   8.216  0.2112  0.3554 -0.7422
 5817SOL    HW128910   1.425   3.313   8.245  1.1948 -0.3336  0.5048
 5817SOL    HW228911   1.464   3.398   8.133 -0.3985 -1.1933 -1.0717
 5818SOL     OW28912   0.877   0.574   7.332  0.1655 -0.3589  0.1930
 5818SOL    HW128913   0.814   0.534   7.273 -0.1324 -0.0353  0.2898
 5818SOL    HW228914   0.926   0.624   7.266  1.8151 -0.2578  1.4860
 5819SOL     OW28915   3.007   3.557   0.118  0.7289 -0.1489 -0.3652
 5819SOL    HW128916   3.080   3.585   0.173  1.0594 -1.2090 -0.2693
 5819SOL    HW228917   3.028   3.470   0.086  1.7953 -1.0146  2.6824
 5820SOL     OW28918   0.426   3.124   2.150 -0.0232  0.2289 -0.2098
 5820SOL    HW128919   0.496   3.059   2.154 -1.0253 -0.8641 -0.3443
 5820SOL    HW228920   0.370   3.103   2.225 -1.5718  2.5630 -0.6936
 5821SOL     OW28921   3.238   1.907   2.151 -0.1671 -0.7829 -0.2669
 5821SOL    HW128922   3.222   1.962   2.228 -2.1181  0.0797 -1.2989
 5821SOL    HW228923   3.331   1.920   2.136  0.3840 -0.6639  3.4065
 5822SOL     OW28924   1.435   3.265   0.378  0.0571  0.0970  0.4953
 5822SOL    HW128925   1.399   3.323   0.310 -2.5100 -1.1608  0.7809
 5822SOL    HW228926   1.388   3.306   0.451 -2.8509 -1.6459 -0.3780
 5823SOL     OW28927   2.154   1.464   1.899  0.2451  0.3404 -0.4850
 5823SOL    HW128928   2.203   1.524   1.956 -0.1357  1.0893 -0.9481
 5823SOL    HW228929   2.118   1.519   1.830 -0.8435  1.2561  0.8082
 5824SOL     OW28930   1.944   4.448   6.054 -0.2765  0.2598  0.0373
 5824SOL    HW128931   1.880   4.379   6.068  1.0910 -0.3201  3.3667
 5824SOL    HW228932   1.963   4.422   5.964 -2.8264  0.3165 -0.5089
 5825SOL     OW28933   2.414   2.568   8.051  0.3796  0.0350 -0.3376
 5825SOL    HW128934   2.452   2.496   8.001 -2.8739 -2.2461  0.4861
 5825SOL    HW228935   2.329   2.529   8.073  0.7893 -0.4609  0.3801
 5826SOL     OW28936   0.996   0.262   3.643  0.3913 -0.5531 -0.5229
 5826SOL    HW128937   1.035   0.237   3.726 -0.6609 -3.9884 -1.0691
 5826SOL    HW228938   1.039   0.348   3.648 -0.7193 -0.0081 -0.1767
 5827SOL     OW28939   4.026   1.386  10.620  0.0396 -0.4153 -0.0400
 5827SOL    HW128940   4.092   1.335  10.667 -0.1351 -1.5288 -0.9887
 5827SOL    HW228941   3.970   1.401  10.696  0.1210  2.4581 -0.5527
 5828SOL     OW28942   3.510   2.798  16.207 -0.1538  0.0651  0.2648
 5828SOL    HW128943   3.604   2.782  16.207 -0.0607  0.5838  1.6300
 5828SOL    HW228944   3.486   2.814  16.116  1.5106  0.0247 -0.1806
 5829SOL     OW28945   1.456   4.638  15.406  0.5478 -0.4600 -0.4416
 5829SOL    HW128946   1.387   4.623  15.471  0.9100 -0.7928 -0.1345
 5829SOL    HW228947   1.497   4.552  15.411 -1.2552 -1.1329  2.7492
 5830SOL     OW28948   0.820   3.287   7.096  0.0443 -0.1302 -0.1604
 5830SOL    HW128949   0.804   3.380   7.080  0.1462  0.0326  0.6939
 5830SOL    HW228950   0.914   3.284   7.076  0.5567  0.2858  2.1193
 5831SOL     OW28951   0.389   0.700   5.548 -0.4444 -0.2896  0.3739
 5831SOL    HW128952   0.305   0.742   5.570 -0.6737 -0.8774  0.6253
 5831SOL    HW228953   0.377   0.665   5.459  0.0482 -1.3637  0.7307
 5832SOL     OW28954   1.000   4.468   8.393 -0.1588 -0.5216 -0.2824
 5832SOL    HW128955   1.017   4.440   8.303  2.5395  0.8985 -0.2259
 5832SOL    HW228956   0.982   4.383   8.433  0.8200  0.1678  1.6559
 5833SOL     OW28957   2.785   4.463   7.952  0.4471  0.4882  0.4357
 5833SOL    HW128958   2.710   4.452   8.011 -0.1701  0.5455 -0.3245
 5833SOL    HW228959   2.824   4.376   7.963 -1.0860 -0.1014  1.1811
 5834SOL     OW28960   1.335   3.556  17.205 -0.3655  0.3215 -0.4600
 5834SOL    HW128961   1.295   3.487  17.258 -0.1617 -0.1083 -0.8586
 5834SOL    HW228962   1.297   3.631  17.250 -0.4470 -0.2811  0.4769
 5835SOL     OW28963   2.313   0.476   8.157 -0.3115 -0.1097 -0.0801
 5835SOL    HW128964   2.393   0.488   8.208  0.0671 -0.4645 -0.5804
 5835SOL    HW228965   2.295   0.563   8.123 -0.0846 -0.8239 -2.0352
 5836SOL     OW28966   0.838   1.048  13.991  0.6606  0.3523 -0.0341
 5836SOL    HW128967   0.926   1.018  13.967  1.5514  2.7105  0.3262
 5836SOL    HW228968   0.787   1.028  13.912  0.0421 -1.7358  0.8893
 5837SOL     OW28969   2.649   1.306   6.731 -0.0934  0.4800 -0.2434
 5837SOL    HW128970   2.597   1.264   6.663  0.5170 -2.8562  1.3169
 5837SOL    HW228971   2.731   1.260   6.713 -0.6933 -0.7098 -0.0030
 5838SOL     OW28972   2.598   4.641   1.368  0.5922  0.0631  0.6976
 5838SOL    HW128973   2.677   4.675   1.410  0.5866  0.6186  0.2607
 5838SOL    HW228974   2.584   4.566   1.427  0.5475 -0.6830 -0.2547
 5839SOL     OW28975   2.749   4.629   5.210 -0.2088  0.4797 -0.1486
 5839SOL    HW128976   2.832   4.618   5.164  0.0801  2.6049 -0.1669
 5839SOL    HW228977   2.754   4.565   5.281 -1.0627 -0.4187 -0.9036
 5840SOL     OW28978   4.092   1.954   3.044  0.4448  0.2915  0.0512
 5840SOL    HW128979   4.172   1.934   2.996 -0.4746  2.5132 -2.4398
 5840SOL    HW228980   4.130   2.013   3.109 -0.1305 -0.6951  1.2636
 5841SOL     OW28981   2.472   1.644   4.813 -0.2315  0.3245 -0.0726
 5841SOL    HW128982   2.494   1.603   4.897  0.2283  1.5326  0.3946
 5841SOL    HW228983   2.491   1.733   4.841 -1.3024  0.5614 -0.1077
 5842SOL     OW28984   0.694   0.797  10.656 -0.1750 -0.1104 -0.3379
 5842SOL    HW128985   0.757   0.788  10.727  1.3345 -1.9156 -1.8825
 5842SOL    HW228986   0.753   0.796  10.580 -3.6085  2.2166 -3.0600
 5843SOL     OW28987   2.248   1.465   7.907  0.5027  0.4084  0.3326
 5843SOL    HW128988   2.269   1.401   7.839  0.4498  2.2063 -1.3792
 5843SOL    HW228989   2.319   1.450   7.970  2.1141 -0.8925 -1.7602
 5844SOL     OW28990   0.757   2.014   1.528  0.2794  0.2267  0.3229
 5844SOL    HW128991   0.698   2.042   1.597 -0.4744  0.1313 -0.2871
 5844SOL    HW228992   0.833   1.973   1.570 -0.4720 -1.2588  0.2521
 5845SOL     OW28993   4.437   3.468   3.403  0.1144  0.3062  0.1414
 5845SOL    HW128994   4.505   3.473   3.336  0.3762  1.2752  0.4660
 5845SOL    HW228995   4.367   3.511   3.354  0.3619 -0.5650 -0.9606
 5846SOL     OW28996   1.285   0.767   1.758 -0.3319 -0.2709  0.3788
 5846SOL    HW128997   1.265   0.843   1.704  0.9600  1.0078  1.7338
 5846SOL    HW228998   1.275   0.806   1.844  0.2391 -0.6949  0.6346
 5847SOL     OW28999   4.698   1.390   5.907  0.0976 -0.0991 -0.6700
 5847SOL    HW129000   0.072   1.404   5.889  0.1605  0.2723 -0.0481
 5847SOL    HW229001   4.652   1.467   5.873  0.5539  0.7927  0.7333
 5848SOL     OW29002   1.825   2.239  17.346 -0.8942 -1.2473 -0.3355
 5848SOL    HW129003   1.876   2.321  17.343 -1.0757 -1.0519  2.1668
 5848SOL    HW229004   1.795   2.234  17.437 -0.1745 -0.1670 -0.0345
 5849SOL     OW29005   0.888   2.943  11.700 -0.6557 -0.2550 -0.5572
 5849SOL    HW129006   0.947   3.018  11.696  0.7726 -1.3074  0.5653
 5849SOL    HW229007   0.904   2.908  11.788  1.9276 -0.5801 -1.1547
 5850SOL     OW29008   3.017   2.354   3.339 -0.2183 -0.9571  0.8521
 5850SOL    HW129009   2.956   2.301   3.287 -2.2034  2.7547 -0.6565
 5850SOL    HW229010   3.096   2.312   3.305 -0.7875 -1.6260  0.3623
 5851SOL     OW29011   3.778   1.267  11.250  0.4021  0.4055  0.1138
 5851SOL    HW129012   3.743   1.298  11.166 -3.0036 -3.7736  0.0091
 5851SOL    HW229013   3.773   1.341  11.311 -1.7034 -0.1535  0.6163
 5852SOL     OW29014   3.531   3.209  14.297  0.6938 -0.2106  0.8183
 5852SOL    HW129015   3.522   3.115  14.316 -1.7755 -0.3224 -0.9092
 5852SOL    HW229016   3.619   3.204  14.260  0.5294 -0.5805  0.4808
 5853SOL     OW29017   4.348   2.048  14.405 -0.0970  0.1544 -0.6985
 5853SOL    HW129018   4.368   1.960  14.437 -1.6727 -0.4916 -1.5125
 5853SOL    HW229019   4.438   2.079  14.389 -0.2363  1.0803  0.2235
 5854SOL     OW29020   4.072   1.686   6.402  0.4472  0.0028  0.2782
 5854SOL    HW129021   4.028   1.636   6.470 -2.7550  0.7016 -1.2336
 5854SOL    HW229022   4.089   1.768   6.449  0.9607  0.2119 -0.2656
 5855SOL     OW29023   1.242   2.166  10.751 -0.3376 -0.0116  0.4543
 5855SOL    HW129024   1.259   2.170  10.657  0.6169 -1.4969  0.5600
 5855SOL    HW229025   1.177   2.097  10.744  0.8973 -1.1771  0.3999
 5856SOL     OW29026   4.699   4.051  11.049  0.2151  0.2752  0.3153
 5856SOL    HW129027   0.051   4.114  11.045 -1.0203  1.4535 -3.1628
 5856SOL    HW229028   0.025   3.970  11.071 -0.3867  0.8296  3.6200
 5857SOL     OW29029   1.499   3.735  11.185 -0.0614 -0.0794 -0.3939
 5857SOL    HW129030   1.575   3.690  11.149  0.5089  1.6348 -1.3235
 5857SOL    HW229031   1.471   3.782  11.107  0.2747  2.9454  1.3067
 5858SOL     OW29032   0.947   4.611   3.352  0.4643 -0.4450 -0.3136
 5858SOL    HW129033   0.991   4.692   3.377  0.8279 -1.2195  1.5681
 5858SOL    HW229034   0.858   4.645   3.356  0.3308 -1.0601  2.1991
 5859SOL     OW29035   4.296   0.068   5.284 -0.1044 -0.2944  0.3111
 5859SOL    HW129036   4.268   0.146   5.333  0.5211 -1.1052  1.9498
 5859SOL    HW229037   4.224   0.009   5.307 -1.2864  1.2137  0.4904
 5860SOL     OW29038   1.459   2.595   3.568  0.0628 -0.2831  0.2453
 5860SOL    HW129039   1.397   2.525   3.590  0.8086 -0.3478  2.1392
 5860SOL    HW229040   1.467   2.645   3.649  0.5003 -0.2931  0.2078
 5861SOL     OW29041   3.357   1.366   7.822  0.0965 -0.0127  0.0124
 5861SOL    HW129042   3.362   1.381   7.728  0.0080 -0.1552 -0.0146
 5861SOL    HW229043   3.265   1.381   7.845  0.3517  1.4935  0.0723
 5862SOL     OW29044   3.642   4.151  15.736 -0.0429  0.1578 -0.3761
 5862SOL    HW129045   3.635   4.237  15.694  1.2235 -0.0971 -1.1216
 5862SOL    HW229046   3.730   4.165  15.771 -0.9897 -1.0467  2.4625
 5863SOL     OW29047   1.293   2.397   3.662 -1.0262 -0.5381 -0.1808
 5863SOL    HW129048   1.254   2.358   3.583 -0.0252  1.0403 -1.4705
 5863SOL    HW229049   1.354   2.329   3.690 -0.9814  0.3151  1.7944
 5864SOL     OW29050   3.694   0.178   4.215 -0.3999  0.5639 -0.2127
 5864SOL    HW129051   3.749   0.217   4.148 -1.1071  0.1862 -1.0084
 5864SOL    HW229052   3.745   0.186   4.296  0.6161  1.3064 -0.9373
 5865SOL     OW29053   0.432   3.227   6.046 -0.3461 -0.3729  0.3805
 5865SOL    HW129054   0.462   3.281   6.119  2.2956 -0.8217 -0.3651
 5865SOL    HW229055   0.436   3.137   6.078 -1.2358 -0.2280  0.8765
 5866SOL     OW29056   4.275   4.143  13.343  0.1486  0.1931  0.0547
 5866SOL    HW129057   4.362   4.183  13.340  0.6682 -0.8719  1.0151
 5866SOL    HW229058   4.316   4.057  13.347 -1.4689 -0.5172  1.3685
 5867SOL     OW29059   4.602   1.968   2.751  0.1288 -0.3779 -0.2201
 5867SOL    HW129060   4.569   1.892   2.703 -0.0990 -1.5920  1.8596
 5867SOL    HW229061   4.627   2.035   2.687  0.6143 -1.8009 -1.5389
 5868SOL     OW29062   1.776   3.413   5.528  0.2318 -0.0386 -0.1744
 5868SOL    HW129063   1.745   3.335   5.484  0.0935  0.2994 -0.6706
 5868SOL    HW229064   1.841   3.442   5.464  0.2025  2.1296  0.7673
 5869SOL     OW29065   0.885   0.031   0.085 -0.1201  0.6815 -0.5405
 5869SOL    HW129066   0.926   0.107   0.127  1.8469 -1.0524  0.7024
 5869SOL    HW229067   0.836   4.720   0.161 -1.1987 -0.2233 -1.6076
 5870SOL     OW29068   2.171   2.638   7.826  0.1155  0.0962 -0.6951
 5870SOL    HW129069   2.090   2.616   7.780 -0.7177  2.2030 -0.2582
 5870SOL    HW229070   2.187   2.561   7.880  0.4276 -0.1853 -1.1912
 5871SOL     OW29071   0.123   1.398  17.568 -0.0685 -0.0378  0.3640
 5871SOL    HW129072   0.201   1.452  17.564  0.2851 -0.5878 -0.2196
 5871SOL    HW229073   0.130   1.344  17.489  0.8493  1.2707 -0.4252
 5872SOL     OW29074   4.248   1.738   6.199 -0.0599 -0.4349  0.2423
 5872SOL    HW129075   4.244   1.689   6.117 -0.2231 -0.9904  0.5753
 5872SOL    HW229076   4.202   1.681   6.261  0.0407 -0.8625 -0.0735
 5873SOL     OW29077   0.435   0.054   1.201 -0.0511  0.1904  0.4382
 5873SOL    HW129078   0.480   0.136   1.180  0.5219  0.0462  1.1263
 5873SOL    HW229079   0.349   0.087   1.176 -0.5643 -0.5895  1.1898
 5874SOL     OW29080   1.632   0.485   2.452  0.1270 -0.5271 -0.0546
 5874SOL    HW129081   1.605   0.515   2.538  0.5307 -1.2148  0.3103
 5874SOL    HW229082   1.556   0.435   2.421  0.0622  0.1783 -1.0326
 5875SOL     OW29083   2.708   3.137   7.517  0.2932 -0.2139  0.2629
 5875SOL    HW129084   2.644   3.139   7.587  0.2072  0.3945  0.1643
 5875SOL    HW229085   2.771   3.195   7.560  0.9446  0.3621 -1.4749
 5876SOL     OW29086   2.673   3.004  12.094  0.4276  0.5026  0.3180
 5876SOL    HW129087   2.652   2.923  12.048  0.2166  0.1760  0.9953
 5876SOL    HW229088   2.652   2.981  12.185  2.2036 -2.0539  0.0750
 5877SOL     OW29089   2.814   0.024  10.253  0.2543  0.2995 -0.3197
 5877SOL    HW129090   2.901   0.011  10.215 -0.0124  1.1073 -1.2123
 5877SOL    HW229091   2.797   4.659  10.295 -1.1028  0.9515  0.4595
 5878SOL     OW29092   3.008   0.098   1.199 -0.3792 -0.0202 -0.1390
 5878SOL    HW129093   2.981   0.053   1.120  0.1997 -0.6888  0.0475
 5878SOL    HW229094   2.948   0.067   1.267  0.9534  1.3277  1.6707
 5879SOL     OW29095   3.398   2.084   0.559 -0.0637 -0.1309 -0.0063
 5879SOL    HW129096   3.321   2.086   0.616  0.2401  2.8765  0.2826
 5879SOL    HW229097   3.356   2.058   0.477  1.1133 -2.9785  0.2997
 5880SOL     OW29098   0.074   3.559   4.951  0.1109  0.0556  0.5338
 5880SOL    HW129099   0.124   3.640   4.966 -2.1336  1.9209 -2.0741
 5880SOL    HW229100   0.071   3.510   5.033  0.0684 -0.2208  0.3654
 5881SOL     OW29101   4.342   1.097   7.781  0.4581 -0.3766 -0.7420
 5881SOL    HW129102   4.397   1.172   7.801 -2.5096  1.2700  1.1802
 5881SOL    HW229103   4.351   1.037   7.855  0.5810 -1.8421 -1.9463
 5882SOL     OW29104   1.826   3.127   1.446 -0.2991 -0.0579 -0.0065
 5882SOL    HW129105   1.855   3.149   1.357  1.2347 -0.0023  0.5016
 5882SOL    HW229106   1.811   3.218   1.472 -0.4583  0.6607 -2.5331
 5883SOL     OW29107   2.272   4.323   1.822  0.1584  0.4167  0.1395
 5883SOL    HW129108   2.305   4.287   1.740 -2.5901 -1.0341 -0.3351
 5883SOL    HW229109   2.181   4.295   1.812  0.5477 -1.2895  1.1998
 5884SOL     OW29110   3.262   2.390   1.701 -0.3783  0.5608 -0.3489
 5884SOL    HW129111   3.180   2.364   1.660  0.6393  1.3034 -2.8384
 5884SOL    HW229112   3.290   2.463   1.647  1.0654  1.5797  1.7531
 5885SOL     OW29113   1.680   3.742  15.304 -0.5710 -0.5555 -0.4877
 5885SOL    HW129114   1.612   3.676  15.319  0.5524 -2.0244 -1.8157
 5885SOL    HW229115   1.633   3.825  15.307 -1.8590 -1.2477 -1.2490
 5886SOL     OW29116   3.600   3.932   2.605  0.4718 -0.1914  0.1866
 5886SOL    HW129117   3.636   3.884   2.531 -0.7439 -1.9193  0.7159
 5886SOL    HW229118   3.624   3.873   2.677 -1.0990 -0.3915  0.5556
 5887SOL     OW29119   4.064   2.177  11.875 -0.0796  0.3101 -0.1520
 5887SOL    HW129120   4.043   2.232  11.950 -2.0515 -0.6929  0.0254
 5887SOL    HW229121   3.978   2.168  11.834  0.3547 -0.7216 -0.8267
 5888SOL     OW29122   1.572   3.281   9.580 -0.2976 -0.2202  0.2549
 5888SOL    HW129123   1.666   3.269   9.589 -0.2072 -0.8481 -1.7396
 5888SOL    HW229124   1.541   3.199   9.618 -0.3703 -0.8278 -1.1518
 5889SOL     OW29125   1.769   0.642  10.049  0.0808 -0.0974  0.1464
 5889SOL    HW129126   1.801   0.603  10.130  0.9999 -0.5408 -0.4237
 5889SOL    HW229127   1.681   0.604  10.045 -0.2100  0.6005 -0.0394
 5890SOL     OW29128   3.417   0.436  10.445 -0.3105  0.0576  0.0530
 5890SOL    HW129129   3.364   0.465  10.518  0.5343  0.5949  0.4615
 5890SOL    HW229130   3.358   0.416  10.372 -0.5786 -0.4843  0.4280
 5891SOL     OW29131   2.510   2.130  16.525 -0.4011 -0.4417 -0.2375
 5891SOL    HW129132   2.579   2.075  16.562  1.3625  2.1003  0.2561
 5891SOL    HW229133   2.500   2.177  16.607 -2.0534  2.2595 -2.0044
 5892SOL     OW29134   2.478   3.497   0.014 -0.0561  0.4798  0.8091
 5892SOL    HW129135   2.453   3.410   0.047  0.3295  0.3176  0.6699
 5892SOL    HW229136   2.570   3.490   0.039 -0.8267 -0.9543  3.2374
 5893SOL     OW29137   4.401   1.289  15.322 -0.0733  0.0927  0.5085
 5893SOL    HW129138   4.463   1.360  15.302 -1.7239  0.2953 -3.7797
 5893SOL    HW229139   4.316   1.332  15.325  0.0780  0.4047  0.4212
 5894SOL     OW29140   2.841   4.512   2.212 -0.2564 -0.1624  0.4761
 5894SOL    HW129141   2.766   4.514   2.153 -0.7369  1.4953  1.1298
 5894SOL    HW229142   2.865   4.605   2.215 -0.4567 -0.0969  0.0188
 5895SOL     OW29143   0.145   3.200   6.377  0.0866 -0.7250  0.7290
 5895SOL    HW129144   0.073   3.140   6.357 -0.3371 -0.9247  2.8426
 5895SOL    HW229145   0.168   3.247   6.297 -1.8972  0.6218  0.9494
 5896SOL     OW29146   4.161   4.607   0.481 -0.3845  0.2346 -0.7066
 5896SOL    HW129147   4.110   4.583   0.403  0.4535 -0.5994 -0.9906
 5896SOL    HW229148   4.102   4.666   0.529 -1.4557 -1.8969  0.5791
 5897SOL     OW29149   1.689   2.676   3.131  0.0226  0.1214 -0.1308
 5897SOL    HW129150   1.697   2.696   3.225 -0.1719 -0.1566 -0.0556
 5897SOL    HW229151   1.603   2.636   3.143  0.6728 -0.5927  2.2047
 5898SOL     OW29152   4.201   3.104   2.321 -0.0421 -0.8534 -0.0774
 5898SOL    HW129153   4.118   3.068   2.354  0.7938 -1.4248  1.4135
 5898SOL    HW229154   4.249   3.103   2.404 -0.7294  0.7621  0.3254
 5899SOL     OW29155   0.613   0.341   9.786 -0.5102  0.0829 -0.3051
 5899SOL    HW129156   0.617   0.351   9.691  0.3766 -0.4784 -0.3254
 5899SOL    HW229157   0.680   0.274   9.799  0.2801  0.7764 -0.7797
 5900SOL     OW29158   0.885   3.140  12.364 -0.1822 -0.5701  0.0814
 5900SOL    HW129159   0.886   3.066  12.304 -0.1549 -2.0026  1.8391
 5900SOL    HW229160   0.836   3.100  12.436 -1.0536 -0.2465 -0.3356
 5901SOL     OW29161   1.294   4.467   0.302 -0.9383  0.6961  0.2759
 5901SOL    HW129162   1.346   4.519   0.242  1.7200 -1.0742  1.0606
 5901SOL    HW229163   1.243   4.410   0.245 -0.7590 -1.5497  2.3495
 5902SOL     OW29164   0.258   4.290   4.271 -0.1621  0.3714 -0.1303
 5902SOL    HW129165   0.199   4.214   4.272 -1.1214  1.1297  0.8547
 5902SOL    HW229166   0.198   4.355   4.308 -1.1947 -1.3973  1.2932
 5903SOL     OW29167   3.214   2.981   5.973  0.3242  0.1827  0.2477
 5903SOL    HW129168   3.152   2.975   5.900  0.9664  0.3252 -0.3124
 5903SOL    HW229169   3.273   3.048   5.938  1.5563 -1.2993 -0.4986
 5904SOL     OW29170   4.358   0.784   3.378 -0.7865 -0.6437 -0.5060
 5904SOL    HW129171   4.291   0.840   3.337  0.5059  1.2427 -0.0402
 5904SOL    HW229172   4.403   0.849   3.431 -0.5518  0.0277 -1.5117
 5905SOL     OW29173   0.630   0.214   6.955 -0.2031 -0.1158 -0.0967
 5905SOL    HW129174   0.548   0.204   6.906 -1.9770 -0.6730  3.0298
 5905SOL    HW229175   0.632   0.140   7.016  1.1689 -0.9050 -1.0893
 5906SOL     OW29176   4.365   2.647   3.590  0.1876 -0.0650  0.2492
 5906SOL    HW129177   4.280   2.685   3.568 -0.1785 -0.8457  0.3080
 5906SOL    HW229178   4.425   2.677   3.522 -0.3957 -1.3093 -0.8017
 5907SOL     OW29179   0.513   4.012   7.423 -0.0268  0.1778 -0.1725
 5907SOL    HW129180   0.434   4.048   7.383 -0.2384  2.0580  1.9142
 5907SOL    HW229181   0.478   3.946   7.483  0.8124  0.1317  0.2621
 5908SOL     OW29182   4.460   0.053  11.876  0.4246  0.0722  0.0760
 5908SOL    HW129183   4.538   0.068  11.930 -0.6786  3.6238  0.7313
 5908SOL    HW229184   4.480   0.101  11.795  0.2128 -0.0038 -0.0212
 5909SOL     OW29185   3.344   1.891  17.325  0.3722 -0.5662  0.2724
 5909SOL    HW129186   3.289   1.813  17.320 -1.8745  1.0069  0.4071
 5909SOL    HW229187   3.283   1.940  17.381 -1.3691 -0.7750 -1.4498
 5910SOL     OW29188   3.024   0.239   6.067  0.0146  0.3901  0.2844
 5910SOL    HW129189   3.041   0.328   6.036 -1.8264  1.0473  1.1628
 5910SOL    HW229190   3.011   0.235   6.161 -0.8206  0.0722  0.1567
 5911SOL     OW29191   2.698   2.204   1.248 -0.0122  0.0711 -0.1559
 5911SOL    HW129192   2.629   2.202   1.182  0.1560 -1.0375 -0.2835
 5911SOL    HW229193   2.643   2.240   1.318 -1.1702 -0.0858 -0.9768
 5912SOL     OW29194   1.042   1.688   8.951 -0.7680 -0.5965 -0.2760
 5912SOL    HW129195   1.132   1.675   8.981 -2.5287 -0.9264  4.8784
 5912SOL    HW229196   1.042   1.658   8.860  1.6828  1.6024 -0.9822
 5913SOL     OW29197   2.468   2.421   5.580  0.1342  0.0574 -0.3807
 5913SOL    HW129198   2.545   2.397   5.631  0.3459  1.4868 -0.0228
 5913SOL    HW229199   2.396   2.412   5.644 -0.2245 -0.5666 -0.8728
 5914SOL     OW29200   2.906   3.374   4.951  0.2982 -0.0954 -0.1789
 5914SOL    HW129201   2.889   3.280   4.954  0.2185 -0.0140  1.5576
 5914SOL    HW229202   2.815   3.402   4.941  0.1603  0.0824  1.6257
 5915SOL     OW29203   1.082   2.002   2.779 -0.0267  0.1251  0.0183
 5915SOL    HW129204   1.083   2.040   2.692 -2.1977  2.1279  0.8870
 5915SOL    HW229205   1.160   1.947   2.773  0.5953  1.1561 -1.2599
 5916SOL     OW29206   2.862   2.856   6.473 -0.2285  0.3796 -0.3151
 5916SOL    HW129207   2.862   2.938   6.424 -0.3108  1.0323  0.7705
 5916SOL    HW229208   2.808   2.875   6.550 -0.2640 -2.5855  0.3879
 5917SOL     OW29209   2.126   2.797   3.720  0.2096  0.3642  0.8500
 5917SOL    HW129210   2.129   2.874   3.776 -0.1344 -0.0374  1.4239
 5917SOL    HW229211   2.216   2.766   3.733  0.3105  0.3821  0.2040
 5918SOL     OW29212   0.748   2.963   5.766  1.2243  0.6484  0.0894
 5918SOL    HW129213   0.778   2.872   5.770 -1.4861 -0.2456 -0.0679
 5918SOL    HW229214   0.825   3.012   5.739  2.4155 -0.6152  1.1586
 5919SOL     OW29215   2.528   4.105   1.411 -0.5200  0.0580  0.1546
 5919SOL    HW129216   2.440   4.090   1.376 -1.0096  1.9811  0.6001
 5919SOL    HW229217   2.576   4.026   1.385  1.6457  1.8521 -1.3245
 5920SOL     OW29218   4.698   3.140  15.906 -0.1116  0.2989 -0.2793
 5920SOL    HW129219   0.024   3.181  15.832 -1.6056  1.0200 -0.8041
 5920SOL    HW229220   4.694   3.221  15.958  0.2010 -0.1801  0.4805
 5921SOL     OW29221   1.097   2.653   4.457 -0.1821 -0.6971  0.1583
 5921SOL    HW129222   1.009   2.669   4.424 -0.6794 -0.1500  1.7375
 5921SOL    HW229223   1.080   2.653   4.551  0.8872 -0.0698  0.3538
 5922SOL     OW29224   1.239   0.265   5.280  0.3029 -0.5215 -0.3991
 5922SOL    HW129225   1.200   0.221   5.356  0.7530 -0.6604 -0.2467
 5922SOL    HW229226   1.280   0.334   5.333  2.5531 -1.9470 -0.2871
 5923SOL     OW29227   2.319   3.722  16.687 -0.0312 -1.1288 -0.7758
 5923SOL    HW129228   2.329   3.711  16.592  1.3508  0.5612 -0.8291
 5923SOL    HW229229   2.237   3.770  16.693  0.5146 -0.2641 -0.2501
 5924SOL     OW29230   4.425   3.731   3.976 -0.3033 -0.0377 -0.5452
 5924SOL    HW129231   4.463   3.773   4.053  2.3826 -0.0924 -1.8523
 5924SOL    HW229232   4.332   3.733   4.000  0.3406 -0.2001  1.9316
 5925SOL     OW29233   2.610   0.144   1.584 -0.2575  0.5667 -0.1700
 5925SOL    HW129234   2.577   0.109   1.502  1.0801 -2.7230  0.7172
 5925SOL    HW229235   2.694   0.182   1.560 -0.4393  1.1276  0.0618
 5926SOL     OW29236   2.127   3.556   9.541 -0.1956  0.6681 -0.2219
 5926SOL    HW129237   2.089   3.532   9.625 -0.9988  1.8247 -0.2552
 5926SOL    HW229238   2.135   3.473   9.493 -0.5017  0.3124  0.3484
 5927SOL     OW29239   2.879   4.696   6.920  0.1745  0.3111 -0.3758
 5927SOL    HW129240   2.948   4.630   6.912 -2.2186 -2.3477  0.6868
 5927SOL    HW229241   2.917   0.044   6.975  0.3760 -0.0878 -0.0289
 5928SOL     OW29242   0.311   2.519   9.936 -0.3501 -0.8475  0.1031
 5928SOL    HW129243   0.239   2.485   9.989  0.1493 -0.2458  1.1621
 5928SOL    HW229244   0.351   2.436   9.912  0.7701 -0.7001  1.5016
 5929SOL     OW29245   1.228   2.433   5.743 -0.1900 -0.1287  0.5938
 5929SOL    HW129246   1.307   2.404   5.698 -1.1836 -3.8544  1.2237
 5929SOL    HW229247   1.248   2.409   5.833  0.5906  0.0930  0.4754
 5930SOL     OW29248   3.177   3.309   3.640 -0.1486 -0.4104 -0.2484
 5930SOL    HW129249   3.199   3.391   3.684 -0.3862  0.5117 -1.8770
 5930SOL    HW229250   3.085   3.330   3.622 -0.6573 -1.7597  0.6785
 5931SOL     OW29251   2.052   1.974   0.896  0.1285 -0.0421 -0.0513
 5931SOL    HW129252   2.085   1.904   0.951 -0.7358 -0.7362 -0.4139
 5931SOL    HW229253   2.129   2.029   0.910 -0.0709  0.2351 -0.0303
 5932SOL     OW29254   3.869   1.765   2.367 -0.2471  0.1917  0.3510
 5932SOL    HW129255   3.837   1.675   2.367  0.6442 -0.1362 -3.3269
 5932SOL    HW229256   3.800   1.814   2.411 -1.2306  0.6716 -1.7193
 5933SOL     OW29257   3.752   2.827   2.110  0.5660 -0.3699 -0.1445
 5933SOL    HW129258   3.811   2.901   2.103 -0.1959  0.1790 -0.8180
 5933SOL    HW229259   3.669   2.872   2.125 -0.0827 -0.9632 -1.8545
 5934SOL     OW29260   1.807   3.485  13.819 -0.0163 -0.1319 -0.3971
 5934SOL    HW129261   1.749   3.522  13.753 -0.2348 -0.1542 -0.2183
 5934SOL    HW229262   1.811   3.392  13.795 -0.1684  0.2703 -1.9685
 5935SOL     OW29263   2.981   1.441   2.993  0.1626  0.3575 -0.0596
 5935SOL    HW129264   3.053   1.385   2.964 -0.5492 -1.1374  1.0674
 5935SOL    HW229265   3.000   1.518   2.939  3.0692 -0.6469 -0.4461
 5936SOL     OW29266   2.384   1.463   6.368 -0.2519 -0.4900  0.8262
 5936SOL    HW129267   2.297   1.427   6.351 -0.8535  1.0313  0.6346
 5936SOL    HW229268   2.444   1.391   6.349  0.2574  0.1503  0.0059
 5937SOL     OW29269   0.161   2.485  17.416 -0.1972 -0.3397  0.1961
 5937SOL    HW129270   0.121   2.443  17.339  1.1378 -1.5368  0.1590
 5937SOL    HW229271   0.137   2.425  17.487  0.5820  0.7981  1.4061
 5938SOL     OW29272   4.516   3.061   6.512  0.1143  0.0183  0.6515
 5938SOL    HW129273   4.534   3.120   6.586 -0.0104 -0.4597  1.0695
 5938SOL    HW229274   4.518   3.113   6.432 -1.7445 -0.6781  0.1616
 5939SOL     OW29275   0.316   1.645   8.788  0.1815  0.3322  0.2113
 5939SOL    HW129276   0.385   1.579   8.789 -0.5045 -0.4152 -1.5136
 5939SOL    HW229277   0.366   1.723   8.762 -0.1747  0.2195 -0.8067
 5940SOL     OW29278   0.713   2.657   6.487 -0.5559  0.3845  0.1162
 5940SOL    HW129279   0.699   2.660   6.393  1.2966 -0.6891 -0.2028
 5940SOL    HW229280   0.809   2.657   6.486 -0.5492  0.4560  0.5575
 5941SOL     OW29281   1.530   2.969   1.882 -0.0124 -0.0233 -0.6686
 5941SOL    HW129282   1.485   3.048   1.912 -2.9904 -1.0234 -2.5403
 5941SOL    HW229283   1.507   2.961   1.790  1.5606  0.9235 -1.1279
 5942SOL     OW29284   4.047   4.468   2.674  0.3980 -0.1217 -0.2804
 5942SOL    HW129285   4.044   4.413   2.595 -1.0046 -2.5725  1.4992
 5942SOL    HW229286   4.142   4.461   2.684  0.4125 -0.2655 -0.5066
 5943SOL     OW29287   3.910   2.417   5.678 -0.4960  0.0167 -0.2252
 5943SOL    HW129288   3.884   2.492   5.730  2.8968 -0.2927  1.9499
 5943SOL    HW229289   3.852   2.351   5.717 -1.5320  0.6639 -0.6913
 5944SOL     OW29290   2.619   3.588   4.528 -0.1392  0.3568  0.7121
 5944SOL    HW129291   2.597   3.679   4.550 -0.6861 -0.2962  2.8000
 5944SOL    HW229292   2.529   3.559   4.539  0.0437 -0.9079 -1.2236
 5945SOL     OW29293   2.631   3.212   1.925  0.0603 -0.1508  0.2715
 5945SOL    HW129294   2.583   3.138   1.887 -0.6835  1.1939 -1.3768
 5945SOL    HW229295   2.676   3.244   1.847 -0.6682  1.7583  0.6300
 5946SOL     OW29296   2.603   4.260   7.177 -0.3670  0.1960 -0.1343
 5946SOL    HW129297   2.654   4.340   7.168 -0.3684  0.1479 -0.5881
 5946SOL    HW229298   2.529   4.281   7.120 -0.4324  1.1113  0.2829
 5947SOL     OW29299   3.875   1.491   5.809 -0.4573 -0.1859 -0.1277
 5947SOL    HW129300   3.800   1.443   5.773 -1.8349  1.3054  0.7513
 5947SOL    HW229301   3.852   1.571   5.761  1.5125 -1.0545 -2.5148
 5948SOL     OW29302   1.209   3.854   3.046  0.1161 -0.1322 -0.1978
 5948SOL    HW129303   1.209   3.948   3.027  1.7161  0.0001  0.4661
 5948SOL    HW229304   1.154   3.821   2.975 -1.1925 -0.6957  1.1091
 5949SOL     OW29305   2.613   4.391  15.183 -0.0318  1.1145  0.1281
 5949SOL    HW129306   2.521   4.418  15.190 -0.3885 -0.5201  1.7032
 5949SOL    HW229307   2.625   4.380  15.088  0.0850 -0.6147  0.3495
 5950SOL     OW29308   2.045   3.314   1.718 -0.3087 -0.3283 -0.3822
 5950SOL    HW129309   1.950   3.304   1.725 -0.4292 -0.6772 -2.6235
 5950SOL    HW229310   2.053   3.319   1.623  1.9496  1.3588 -0.0830
 5951SOL     OW29311   3.521   4.465   3.826  0.1457  0.0807  0.3571
 5951SOL    HW129312   3.588   4.415   3.873 -1.3150 -1.2572  1.0067
 5951SOL    HW229313   3.529   4.424   3.740 -0.9010 -0.4680  0.5293
 5952SOL     OW29314   4.567   3.704   6.087  0.3309 -0.0570 -0.1721
 5952SOL    HW129315   4.534   3.619   6.114 -1.7606  1.8413  3.2867
 5952SOL    HW229316   4.634   3.680   6.023  0.6012  1.7337 -0.5694
 5953SOL     OW29317   3.554   0.960   0.601  0.6385 -0.3768 -0.6509
 5953SOL    HW129318   3.532   0.868   0.587 -0.2749 -0.1995 -0.3912
 5953SOL    HW229319   3.537   1.002   0.517  0.1877  0.6711 -0.0344
 5954SOL     OW29320   1.257   2.004   1.922  0.7989 -0.2037  0.0618
 5954SOL    HW129321   1.210   2.060   1.985 -1.0313  0.5981 -2.0210
 5954SOL    HW229322   1.348   2.021   1.943  0.0584 -0.4351  3.5564
 5955SOL     OW29323   0.865   1.315   3.520 -0.6051  0.1170 -0.2854
 5955SOL    HW129324   0.808   1.385   3.488  0.1542  1.0712  0.4117
 5955SOL    HW229325   0.893   1.340   3.608 -0.1954 -1.2648 -0.0179
 5956SOL     OW29326   0.953   0.115  11.465  0.0514 -0.8104 -0.7685
 5956SOL    HW129327   0.923   0.206  11.473  1.7830 -0.2495 -0.5724
 5956SOL    HW229328   0.875   0.066  11.440 -0.8788  0.8023 -1.0975
 5957SOL     OW29329   4.229   4.204   6.624  0.4014  0.3352 -0.6713
 5957SOL    HW129330   4.280   4.246   6.694 -1.6028 -0.4027  1.2231
 5957SOL    HW229331   4.226   4.113   6.653  0.5854  0.5055 -0.1027
 5958SOL     OW29332   4.189   3.407   7.940  0.3569  0.7681  0.5317
 5958SOL    HW129333   4.108   3.409   7.889  0.5948  2.2821  0.1993
 5958SOL    HW229334   4.148   3.419   8.025 -1.3716 -0.9148 -0.0575
 5959SOL     OW29335   1.221   0.185   3.826 -0.2464 -0.3674 -0.4490
 5959SOL    HW129336   1.299   0.220   3.868 -0.8650  1.5693 -0.8909
 5959SOL    HW229337   1.186   0.144   3.905 -0.0277  0.6479  0.1805
 5960SOL     OW29338   2.563   3.875   9.353  0.1479  0.2189  0.1189
 5960SOL    HW129339   2.612   3.957   9.356 -0.5510  0.6307  0.2505
 5960SOL    HW229340   2.484   3.900   9.402  0.8825 -0.1069  1.4482
 5961SOL     OW29341   4.223   1.424  10.221  0.4304  0.1022 -0.4171
 5961SOL    HW129342   4.140   1.377  10.231  0.6701 -0.4585 -1.1073
 5961SOL    HW229343   4.189   1.491  10.161 -0.3999  0.1737  0.1298
 5962SOL     OW29344   4.014   2.925   0.570 -0.7726 -0.2262  0.3175
 5962SOL    HW129345   3.922   2.950   0.558 -0.1987  1.3107 -0.8884
 5962SOL    HW229346   3.998   2.841   0.612  1.6788 -0.9751 -0.2948
 5963SOL     OW29347   0.914   3.686   2.153  0.1373  0.4538  0.0561
 5963SOL    HW129348   0.837   3.727   2.192  0.7313  2.7285 -1.1212
 5963SOL    HW229349   0.945   3.754   2.093  2.2450 -0.9128 -0.4168
 5964SOL     OW29350   1.760   0.028   3.347 -0.1193  0.3720 -0.0716
 5964SOL    HW129351   1.742   0.083   3.424  2.9423  1.0356  0.1561
 5964SOL    HW229352   1.837   0.072   3.313  1.0823 -0.9979  0.8756
 5965SOL     OW29353   0.668   2.992   2.082 -0.3932  0.0860  0.2617
 5965SOL    HW129354   0.660   3.046   2.003 -2.9055  0.5898  0.8851
 5965SOL    HW229355   0.736   3.038   2.131  0.4981 -1.3302  0.3469
 5966SOL     OW29356   2.177   1.775   4.062  0.1249  0.1663 -0.0322
 5966SOL    HW129357   2.270   1.757   4.058 -0.1308 -0.8040 -1.5236
 5966SOL    HW229358   2.154   1.788   3.970  0.6346 -0.8292 -0.2982
 5967SOL     OW29359   4.575   2.236   3.200  0.1409 -0.1246 -0.0395
 5967SOL    HW129360   4.530   2.163   3.244 -0.9588 -0.0373 -1.0385
 5967SOL    HW229361   4.660   2.230   3.244  0.2479 -0.8442 -0.3381
 5968SOL     OW29362   1.459   3.146  11.927  0.4646  0.2560 -0.1798
 5968SOL    HW129363   1.470   3.172  12.018 -0.9896  4.5190 -1.2283
 5968SOL    HW229364   1.446   3.230  11.883 -0.0268  0.4119  0.2634
 5969SOL     OW29365   1.798   1.404   8.492 -0.2688  0.2162 -0.0043
 5969SOL    HW129366   1.822   1.428   8.403  1.5059  0.4594  0.5468
 5969SOL    HW229367   1.769   1.313   8.486  0.3724  0.1189 -1.4799
 5970SOL     OW29368   0.466   1.089   6.312  0.3115 -0.1930 -0.1072
 5970SOL    HW129369   0.432   1.010   6.270  1.4944 -0.3667 -0.7524
 5970SOL    HW229370   0.491   1.139   6.234 -1.2549  4.3141  2.2825
 5971SOL     OW29371   0.693   2.320   8.550 -0.3071  0.0138  0.6350
 5971SOL    HW129372   0.768   2.263   8.535 -0.5611  0.2893 -1.7924
 5971SOL    HW229373   0.643   2.295   8.472  0.6271  1.2983 -0.3621
 5972SOL     OW29374   3.401   3.044  16.625 -0.6501 -0.7139 -0.4815
 5972SOL    HW129375   3.410   2.996  16.543  1.2845  0.0562 -0.7119
 5972SOL    HW229376   3.418   2.971  16.684  0.0668 -0.6608 -0.6306
 5973SOL     OW29377   0.674   4.017   9.045 -0.5937  0.0369 -0.0779
 5973SOL    HW129378   0.635   3.929   9.046  1.1935 -0.7299  2.1179
 5973SOL    HW229379   0.766   3.992   9.059 -0.8096 -0.3977  0.5962
 5974SOL     OW29380   2.713   1.112   4.244 -0.9058  0.1866 -0.0514
 5974SOL    HW129381   2.630   1.158   4.234 -1.4735 -0.7953  0.1159
 5974SOL    HW229382   2.690   1.046   4.310  2.9645 -0.7695  0.3493
 5975SOL     OW29383   1.032   4.527   0.427 -0.2227 -0.0371  0.0026
 5975SOL    HW129384   1.123   4.510   0.402  0.0912  0.4019  0.8555
 5975SOL    HW229385   1.033   4.623   0.438 -1.3080 -0.0848  0.4808
 5976SOL     OW29386   2.372   4.125   4.897 -0.0713  0.1533  0.2412
 5976SOL    HW129387   2.460   4.160   4.909 -0.4288  0.3718  2.2079
 5976SOL    HW229388   2.394   4.037   4.928 -0.0881 -0.4279 -1.4036
 5977SOL     OW29389   0.755   2.180  16.547 -0.3527  0.3723  0.2082
 5977SOL    HW129390   0.727   2.113  16.485  1.1905  0.5475 -0.6920
 5977SOL    HW229391   0.738   2.139  16.632  2.8224 -4.3578 -1.4158
 5978SOL     OW29392   3.041   2.046  16.086  0.4504 -0.5385 -0.6185
 5978SOL    HW129393   2.974   2.009  16.144 -0.3830  2.3744  0.2601
 5978SOL    HW229394   3.070   1.969  16.037  0.3964 -1.7588  1.2672
 5979SOL     OW29395   3.451   1.219  15.470  0.3970  0.2633 -0.7282
 5979SOL    HW129396   3.523   1.260  15.422  2.8093 -1.8540  1.0775
 5979SOL    HW229397   3.489   1.146  15.519  1.5893  0.2490 -1.6694
 5980SOL     OW29398   3.381   2.145   5.833  0.1569 -0.3250  0.1036
 5980SOL    HW129399   3.452   2.138   5.896  0.2977  1.2011  0.1279
 5980SOL    HW229400   3.339   2.225   5.866 -1.0243 -0.1428 -1.8148
 5981SOL     OW29401   3.375   2.085   7.067 -0.3210 -0.1768  0.0404
 5981SOL    HW129402   3.426   2.161   7.095  0.6551 -1.3074  1.2883
 5981SOL    HW229403   3.293   2.123   7.035 -0.6138 -0.3636  0.5749
 5982SOL     OW29404   0.147   2.734   3.012  0.0802  0.3751 -0.3762
 5982SOL    HW129405   0.125   2.687   2.932 -1.2613 -1.8736  1.3278
 5982SOL    HW229406   0.205   2.804   2.982  2.5058 -2.1959 -1.5780
 5983SOL     OW29407   4.316   4.243   8.443  0.2037  0.2751 -0.3035
 5983SOL    HW129408   4.349   4.167   8.491  0.9706 -0.5114 -2.0586
 5983SOL    HW229409   4.293   4.200   8.361  2.2325 -0.8737 -0.2650
 5984SOL     OW29410   0.973   0.979  10.965  0.4219  0.2536 -0.2547
 5984SOL    HW129411   0.992   1.028  10.885 -0.2783 -0.7032 -0.9925
 5984SOL    HW229412   0.930   0.901  10.931 -0.0277  0.2602  0.3009
 5985SOL     OW29413   1.563   3.235   1.569 -0.6035  0.2271 -0.4444
 5985SOL    HW129414   1.632   3.287   1.529  0.5331 -0.7139  0.3196
 5985SOL    HW229415   1.513   3.201   1.495 -0.3424  0.2463 -0.6297
 5986SOL     OW29416   2.635   1.622   7.740 -0.5215 -0.1348  0.1542
 5986SOL    HW129417   2.662   1.565   7.812 -1.3088  0.7020  1.1274
 5986SOL    HW229418   2.560   1.664   7.783 -0.2416  0.2875  0.2363
 5987SOL     OW29419   1.537   0.706   9.699  0.4653  0.3407  0.1091
 5987SOL    HW129420   1.560   0.650   9.773  0.3940 -1.5321 -1.2996
 5987SOL    HW229421   1.613   0.763   9.689 -1.2028  2.0597 -2.7797
 5988SOL     OW29422   1.990   1.967   4.698 -0.2022  0.6722  0.3807
 5988SOL    HW129423   1.919   1.922   4.745  0.9958 -1.7526 -0.1321
 5988SOL    HW229424   1.938   2.006   4.628 -1.3062  1.1012  1.4291
 5989SOL     OW29425   1.608   4.055   2.023  0.2058 -0.4209 -0.0787
 5989SOL    HW129426   1.643   3.974   1.988  1.0856  1.0540 -2.6094
 5989SOL    HW229427   1.542   4.017   2.082 -0.0773 -3.0948 -2.1577
 5990SOL     OW29428   1.132   1.331   8.837  0.2713  0.2827 -0.1882
 5990SOL    HW129429   1.127   1.340   8.742  1.0124  0.9450 -0.1720
 5990SOL    HW229430   1.227   1.335   8.849  0.2567 -1.2569  0.4259
 5991SOL     OW29431   2.433   3.553   7.257 -0.4219 -0.3362  0.4847
 5991SOL    HW129432   2.439   3.529   7.350 -1.9926  0.8931  0.9131
 5991SOL    HW229433   2.519   3.523   7.230  0.1779  2.4534 -0.7002
 5992SOL     OW29434   4.450   4.223   1.389 -0.5693 -0.2138 -0.1736
 5992SOL    HW129435   4.527   4.206   1.444 -0.9267  1.2615  0.7926
 5992SOL    HW229436   4.478   4.306   1.349  1.2234  0.2245  1.9980
 5993SOL     OW29437   2.162   2.539   6.590  0.3663 -0.0767  0.4830
 5993SOL    HW129438   2.128   2.620   6.626 -0.2355 -0.7119  1.3436
 5993SOL    HW229439   2.225   2.514   6.658  2.4100  2.8449 -0.3247
 5994SOL     OW29440   0.142   1.034  10.670  0.1954  0.4110 -0.1076
 5994SOL    HW129441   0.226   0.991  10.652  0.2325  0.2769  0.3859
 5994SOL    HW229442   0.103   0.964  10.723 -1.2654  1.9162  0.7886
 5995SOL     OW29443   3.050   0.468   2.383  0.4007  0.5688  0.6228
 5995SOL    HW129444   3.090   0.522   2.314  0.5273  0.8378  0.9075
 5995SOL    HW229445   2.956   0.480   2.365 -0.0568 -0.1508  2.5304
 5996SOL     OW29446   3.731   2.745   4.155  0.2974  0.4497  0.8997
 5996SOL    HW129447   3.715   2.806   4.227  1.3899 -1.2727  2.5858
 5996SOL    HW229448   3.819   2.775   4.132 -0.7340 -0.3696 -4.1451
 5997SOL     OW29449   4.041   4.300  15.610  0.0194 -0.0163  0.5165
 5997SOL    HW129450   3.969   4.241  15.633 -0.8573  0.6070 -0.5888
 5997SOL    HW229451   4.000   4.381  15.640  1.7356  1.0885 -0.1349
 5998SOL     OW29452   3.126   3.564   4.908  0.9390 -0.0304  0.0415
 5998SOL    HW129453   3.047   3.510   4.912  0.6636  0.3657  0.0159
 5998SOL    HW229454   3.091   3.646   4.943  0.7831 -0.4756  0.9382
 5999SOL     OW29455   0.839   4.553   5.334 -0.0105 -0.3245 -0.1382
 5999SOL    HW129456   0.852   4.528   5.425 -0.8695 -0.4017 -0.0366
 5999SOL    HW229457   0.926   4.555   5.294 -0.5799  0.7885 -1.3197
 6000SOL     OW29458   3.221   4.614   2.726  0.4923 -0.7366  0.4453
 6000SOL    HW129459   3.195   4.636   2.637 -0.5633  1.3018  1.2780
 6000SOL    HW229460   3.151   4.554   2.752 -0.7441 -0.3753 -2.0604
 6001SOL     OW29461   3.562   3.153   3.489  0.5596  0.8266 -0.2751
 6001SOL    HW129462   3.503   3.193   3.427 -2.7088 -1.5543  1.2838
 6001SOL    HW229463   3.649   3.174   3.454  0.6483 -0.5662 -0.8751
 6002SOL     OW29464   4.267   1.943   0.408 -0.0047 -0.0870  0.2469
 6002SOL    HW129465   4.180   1.921   0.375  0.2760  2.1992 -2.0298
 6002SOL    HW229466   4.318   1.863   0.396  0.3512  0.2016 -0.1565
 6003SOL     OW29467   3.375   3.828   3.936  0.6628 -0.1467 -0.3241
 6003SOL    HW129468   3.465   3.829   3.905  0.9869 -0.0341  0.6289
 6003SOL    HW229469   3.336   3.894   3.878 -0.2700 -1.4747 -1.2001
 6004SOL     OW29470   2.758   0.107   2.691 -0.0343  0.3807  0.2926
 6004SOL    HW129471   2.777   0.112   2.598  0.0252  2.2838  0.4218
 6004SOL    HW229472   2.741   0.013   2.705  0.1441  0.3764  0.4886
 6005SOL     OW29473   1.020   0.823   4.013 -0.0036  0.0588  0.4528
 6005SOL    HW129474   0.934   0.821   4.054 -1.0716 -0.3981 -1.8117
 6005SOL    HW229475   1.051   0.905   4.052  1.1186 -0.6347  1.0052
 6006SOL     OW29476   2.886   3.438   6.539 -0.2143 -0.1183  0.6709
 6006SOL    HW129477   2.910   3.345   6.535 -0.5764 -0.1371 -1.0897
 6006SOL    HW229478   2.957   3.474   6.486  0.5544 -1.1114  1.0167
 6007SOL     OW29479   2.486   0.088   3.306 -0.4802  0.0535 -0.0741
 6007SOL    HW129480   2.483   0.001   3.267  0.9075 -0.5138  1.0940
 6007SOL    HW229481   2.506   0.060   3.395 -0.8740  1.8148  0.5715
 6008SOL     OW29482   3.458   1.297   3.860  0.2776  0.0348  0.3444
 6008SOL    HW129483   3.450   1.255   3.775 -2.2175  1.7754 -0.2873
 6008SOL    HW229484   3.425   1.236   3.926 -1.3034  0.2441 -0.2520
 6009SOL     OW29485   0.845   2.026   5.951  0.0007  0.1849 -0.0085
 6009SOL    HW129486   0.759   2.055   5.920 -0.0823  0.9487  0.9380
 6009SOL    HW229487   0.907   2.089   5.914  0.3882  0.6053  1.3494
 6010SOL     OW29488   1.797   0.002   6.056  0.3249  0.0538 -0.3417
 6010SOL    HW129489   1.822   4.636   6.023  2.4125 -0.4324  2.4700
 6010SOL    HW229490   1.780   0.046   5.973  0.5128  1.9298  0.6226
 6011SOL     OW29491   2.006   3.612  13.941  0.1089 -0.0101 -0.3227
 6011SOL    HW129492   1.941   3.558  13.897  1.1649 -3.1235  1.8497
 6011SOL    HW229493   1.955   3.640  14.017  0.3028 -0.1005 -0.1576
 6012SOL     OW29494   4.546   1.556   2.469 -0.5339 -0.8321 -0.5889
 6012SOL    HW129495   4.542   1.461   2.477  0.1640 -0.7838  0.3305
 6012SOL    HW229496   4.567   1.571   2.377  1.6572 -0.6669 -0.0572
 6013SOL     OW29497   4.664   2.854   2.737  0.0406 -0.4157 -0.1394
 6013SOL    HW129498   4.628   2.801   2.666 -0.6997  1.2040 -0.9683
 6013SOL    HW229499   4.637   2.797   2.810 -1.1750  1.2577  0.7274
 6014SOL     OW29500   0.520   0.973   5.739 -0.1660 -0.2136 -0.4254
 6014SOL    HW129501   0.566   0.901   5.697 -0.2086 -1.1297  1.0798
 6014SOL    HW229502   0.545   1.042   5.677  1.4581 -1.4666 -1.1567
 6015SOL     OW29503   2.729   0.168  10.486  0.1293 -0.0665 -0.5408
 6015SOL    HW129504   2.786   0.128  10.552 -0.3690  1.1058  0.6153
 6015SOL    HW229505   2.757   0.116  10.411 -0.2205  1.7426 -1.9216
 6016SOL     OW29506   2.302   1.625  14.937  0.0177 -0.0317 -0.1062
 6016SOL    HW129507   2.210   1.606  14.957 -0.2536  0.5910 -0.7667
 6016SOL    HW229508   2.294   1.615  14.843  1.9786  0.3427 -0.3052
 6017SOL     OW29509   2.055   2.331   7.601  0.1973  0.0156 -0.5053
 6017SOL    HW129510   2.017   2.270   7.663 -0.7756 -0.1056 -1.2221
 6017SOL    HW229511   2.082   2.408   7.651  2.4036 -0.5550 -0.8265
 6018SOL     OW29512   0.133   0.717   3.576  0.2921  0.1119 -0.0061
 6018SOL    HW129513   0.153   0.808   3.598 -0.7108  0.8887 -2.3489
 6018SOL    HW229514   0.038   0.713   3.573  0.3811 -0.4750 -2.1534
 6019SOL     OW29515   0.900   4.433  17.476  0.0456 -0.1132  0.6517
 6019SOL    HW129516   0.882   4.429  17.383  1.4092 -1.0399  0.4239
 6019SOL    HW229517   0.910   4.527  17.489 -0.1092 -0.1391  0.9769
 6020SOL     OW29518   4.307   2.864   8.310  0.0830  0.4697  0.1354
 6020SOL    HW129519   4.326   2.868   8.404 -2.0161 -3.0554  0.7204
 6020SOL    HW229520   4.270   2.776   8.303 -1.0244  0.7189  2.7947
 6021SOL     OW29521   0.753   1.023   7.734 -0.1259  0.9243 -0.7885
 6021SOL    HW129522   0.689   0.954   7.747  2.0359 -0.9890 -0.2754
 6021SOL    HW229523   0.836   0.988   7.768  0.3194  1.9679 -0.7817
 6022SOL     OW29524   3.436   1.534   4.949  0.0891  0.7923 -0.1786
 6022SOL    HW129525   3.386   1.480   5.010  1.2218 -1.7662 -1.5293
 6022SOL    HW229526   3.451   1.474   4.876  1.3093  0.8888  0.0018
 6023SOL     OW29527   4.326   3.161   5.692 -0.0050 -0.7549 -0.0077
 6023SOL    HW129528   4.317   3.118   5.607  1.1503 -0.1611 -0.4217
 6023SOL    HW229529   4.342   3.248   5.656 -0.9052 -0.3725  0.5337
 6024SOL     OW29530   0.827   2.968   1.655 -0.4748  0.2209  0.8048
 6024SOL    HW129531   0.861   3.034   1.715 -1.5610  0.6218  0.9829
 6024SOL    HW229532   0.775   3.027   1.600  1.8595 -2.0527 -3.8361
 6025SOL     OW29533   4.707   4.646   3.922 -0.4225  0.3944 -0.4869
 6025SOL    HW129534   4.665   4.565   3.894  0.0610 -0.1794  0.4360
 6025SOL    HW229535   0.077   4.613   3.923  0.0422  1.6622  0.1322
 6026SOL     OW29536   3.195   2.885   1.937 -0.0490  0.4148  0.7468
 6026SOL    HW129537   3.117   2.846   1.976  0.1793 -0.3104  0.4749
 6026SOL    HW229538   3.245   2.807   1.911 -1.3901 -0.4602  0.8132
 6027SOL     OW29539   4.159   0.911  15.251  0.6597  0.1142 -0.1521
 6027SOL    HW129540   4.088   0.974  15.248  1.1918  0.7003 -0.3319
 6027SOL    HW229541   4.110   0.829  15.251 -1.4690  1.3899 -0.4960
 6028SOL     OW29542   4.420   1.857   7.317 -0.0154  0.7533 -0.0162
 6028SOL    HW129543   4.416   1.925   7.250 -1.6648  2.1972  1.5316
 6028SOL    HW229544   4.440   1.911   7.393 -0.2620  2.3960 -1.1106
 6029SOL     OW29545   1.562   1.580   8.255 -0.2388  0.0397  0.1965
 6029SOL    HW129546   1.646   1.548   8.224  0.6868  2.5849  0.1138
 6029SOL    HW229547   1.581   1.669   8.282  2.2348 -1.3327  2.9466
 6030SOL     OW29548   1.699   4.713   1.451  0.1686 -0.2424 -0.1893
 6030SOL    HW129549   1.707   4.643   1.516 -0.3837  0.1110  0.2581
 6030SOL    HW229550   1.777   4.686   1.402 -0.1494 -0.3905 -0.6125
 6031SOL     OW29551   4.387   1.546   8.515 -0.5414  0.4436  0.0221
 6031SOL    HW129552   4.317   1.565   8.577  1.9901 -0.5038  3.1625
 6031SOL    HW229553   4.417   1.461   8.548  0.5267  1.1401  0.8447
 6032SOL     OW29554   3.876   1.906   7.263 -0.0943 -0.0792  0.5343
 6032SOL    HW129555   3.796   1.875   7.221  0.4278  0.8370 -1.1027
 6032SOL    HW229556   3.860   1.984   7.316 -2.3424 -0.3432  0.2485
 6033SOL     OW29557   0.992   3.151   5.698  0.1337 -0.2392 -0.0928
 6033SOL    HW129558   0.983   3.242   5.673  0.5305 -0.0593  0.4161
 6033SOL    HW229559   1.006   3.171   5.791 -0.3390 -0.8867  0.1216
 6034SOL     OW29560   2.693   4.234  17.104 -0.4890 -0.4915  0.4458
 6034SOL    HW129561   2.628   4.301  17.084  1.4233  2.0158  2.5849
 6034SOL    HW229562   2.647   4.154  17.080  2.8041 -2.1367 -0.4220
 6035SOL     OW29563   0.083   0.665   4.411 -0.1473 -0.2918 -1.2354
 6035SOL    HW129564   4.711   0.645   4.429 -0.3762  0.4398 -1.5736
 6035SOL    HW229565   0.116   0.702   4.493  1.2788 -2.1932 -0.9397
 6036SOL     OW29566   4.354   1.892   9.708 -0.7356  0.1814  0.1160
 6036SOL    HW129567   4.312   1.936   9.781  1.1153  0.9714  0.7084
 6036SOL    HW229568   4.369   1.805   9.744 -0.1838  1.0704  2.0046
 6037SOL     OW29569   0.343   1.296  15.865 -0.5900 -0.5073  0.1679
 6037SOL    HW129570   0.355   1.309  15.770 -1.7123 -0.0507  0.0981
 6037SOL    HW229571   0.433   1.318  15.888 -1.8567  3.7102  0.9612
 6038SOL     OW29572   4.338   2.152  11.935 -0.0998 -0.7055 -0.0522
 6038SOL    HW129573   4.247   2.155  11.905 -0.2333  2.4309  0.6492
 6038SOL    HW229574   4.352   2.059  11.917  0.1905 -0.7707  0.5282
 6039SOL     OW29575   1.028   1.053   4.884 -0.0590 -0.6712  0.5679
 6039SOL    HW129576   1.060   0.984   4.827 -1.5991  0.1541 -1.3138
 6039SOL    HW229577   1.070   1.036   4.968 -0.9112  0.0697  1.1457
 6040SOL     OW29578   3.929   4.019  12.503  0.2293 -0.4275  0.2978
 6040SOL    HW129579   3.944   4.087  12.569 -0.6927  0.8146 -0.7607
 6040SOL    HW229580   4.008   4.032  12.451  0.2499  3.5191  1.2800
 6041SOL     OW29581   4.433   2.397   7.856 -0.0628  0.0024  0.1963
 6041SOL    HW129582   4.375   2.382   7.780  2.0987 -1.9741 -1.0521
 6041SOL    HW229583   4.388   2.340   7.918 -0.3969  0.3834  0.3122
 6042SOL     OW29584   2.449   1.823   9.294 -0.2403 -0.1196  0.3202
 6042SOL    HW129585   2.414   1.858   9.212  1.7326  0.2260 -0.3555
 6042SOL    HW229586   2.390   1.870   9.354 -2.2243  0.7860 -2.3081
 6043SOL     OW29587   0.530   3.667   6.018 -0.4739  0.0365 -0.1023
 6043SOL    HW129588   0.557   3.666   5.927  2.5364 -1.7114  0.8072
 6043SOL    HW229589   0.579   3.591   6.050  0.0556  0.4737  0.1196
 6044SOL     OW29590   2.072   0.158   2.470  0.0177 -0.5611 -0.0321
 6044SOL    HW129591   2.014   0.091   2.508  0.6530 -0.2999  1.4016
 6044SOL    HW229592   2.092   0.109   2.390  2.3306  0.0596  0.1421
 6045SOL     OW29593   1.269   2.222  16.158 -0.5267  0.5963 -0.1029
 6045SOL    HW129594   1.284   2.316  16.174 -1.8357  0.5682  1.3350
 6045SOL    HW229595   1.339   2.199  16.099  0.3590 -2.4104  2.1436
 6046SOL     OW29596   1.157   3.727   8.019  0.1281  0.8625  0.5966
 6046SOL    HW129597   1.199   3.794   8.073  1.7725 -0.6456  1.1909
 6046SOL    HW229598   1.138   3.655   8.079 -0.5140 -0.2615 -0.9668
 6047SOL     OW29599   3.541   1.251   1.619 -0.3756 -0.2216  0.0160
 6047SOL    HW129600   3.589   1.282   1.543  1.3345 -1.0460  0.7692
 6047SOL    HW229601   3.458   1.236   1.573 -0.9395  1.2601  0.5387
 6048SOL     OW29602   3.112   1.456   7.866  0.0760  0.2414  0.4010
 6048SOL    HW129603   3.041   1.430   7.924  0.1354 -1.0499 -0.1173
 6048SOL    HW229604   3.058   1.488   7.794  1.8683  0.9219 -0.6437
 6049SOL     OW29605   0.275   1.638   8.204  0.0442 -0.8590 -0.2228
 6049SOL    HW129606   0.355   1.654   8.254  0.8476 -0.2351 -1.7433
 6049SOL    HW229607   0.249   1.553   8.242  3.1527 -1.5212  0.4446
 6050SOL     OW29608   0.054   3.067   3.121  0.1405 -0.2234 -0.0324
 6050SOL    HW129609   0.087   3.102   3.204  1.2240 -0.0688 -0.5274
 6050SOL    HW229610   0.116   2.996   3.102  1.0112 -0.2542  2.8478
 6051SOL     OW29611   0.614   1.856   8.178 -0.7452  0.0313 -0.1653
 6051SOL    HW129612   0.613   1.761   8.189  0.9167  0.0981  0.5201
 6051SOL    HW229613   0.589   1.864   8.086  2.8561 -3.1206 -1.3933
 6052SOL     OW29614   1.233   2.242   1.749  0.3797  0.3787  0.2091
 6052SOL    HW129615   1.289   2.310   1.789  0.5367 -0.0953  0.7977
 6052SOL    HW229616   1.273   2.158   1.770  0.6626  0.7633  1.2296
 6053SOL     OW29617   1.540   3.729   8.545 -0.8307  0.5756 -0.0349
 6053SOL    HW129618   1.562   3.753   8.455  2.1412 -3.2625 -0.3375
 6053SOL    HW229619   1.495   3.644   8.543  0.9458 -0.3765  0.4889
 6054SOL     OW29620   0.406   0.586   3.714 -0.4723  0.2109 -0.4900
 6054SOL    HW129621   0.386   0.622   3.800  0.2583  0.1503 -0.2993
 6054SOL    HW229622   0.377   0.663   3.664  2.2425 -0.4066 -2.9802
 6055SOL     OW29623   0.788   3.869   4.757  0.2400  0.0499 -0.3330
 6055SOL    HW129624   0.727   3.797   4.741  0.5763  0.2377 -2.5632
 6055SOL    HW229625   0.866   3.844   4.707  1.2463 -0.8971  1.7267
 6056SOL     OW29626   3.242   4.414   7.361 -0.3121 -0.0212 -0.1671
 6056SOL    HW129627   3.184   4.431   7.434 -0.7118  0.0791 -0.5092
 6056SOL    HW229628   3.220   4.326   7.330  0.0422 -0.0310 -0.4025
 6057SOL     OW29629   0.014   4.529  15.274 -0.4065 -0.3159 -0.1575
 6057SOL    HW129630   0.069   4.601  15.305  1.5435 -1.4039 -1.0388
 6057SOL    HW229631   0.060   4.454  15.311 -0.9810 -0.8764 -0.5706
 6058SOL     OW29632   0.297   3.805   6.039 -0.2572 -0.3249  0.0232
 6058SOL    HW129633   0.391   3.793   6.029 -0.5748 -1.7243 -1.3611
 6058SOL    HW229634   0.292   3.869   6.110 -2.1520 -1.5430  0.9927
 6059SOL     OW29635   4.071   1.618   1.807  0.4219  0.4940 -0.4198
 6059SOL    HW129636   4.028   1.545   1.849 -0.9378  0.4811 -1.8462
 6059SOL    HW229637   4.123   1.642   1.884 -1.3967  1.2269  0.5750
 6060SOL     OW29638   2.770   3.118   4.960  0.6131  0.3703 -0.6919
 6060SOL    HW129639   2.757   3.112   5.054 -1.4125  0.2357 -0.9685
 6060SOL    HW229640   2.800   3.032   4.930  2.8338  0.7013  0.5796
 6061SOL     OW29641   1.748   2.427   6.414 -0.4022 -0.5515  0.9857
 6061SOL    HW129642   1.750   2.425   6.319 -2.3623 -0.9730  0.9647
 6061SOL    HW229643   1.778   2.338   6.432  0.6458 -0.2542  0.7204
 6062SOL     OW29644   1.050   2.339   6.492 -0.3577 -0.4412 -0.3919
 6062SOL    HW129645   1.121   2.384   6.538 -1.1882 -0.7852  1.2332
 6062SOL    HW229646   0.976   2.341   6.554  0.3052  3.7374  0.2387
 6063SOL     OW29647   3.145   0.102   2.917  0.2544  0.0116  0.4938
 6063SOL    HW129648   3.158   0.026   2.860  1.1423 -0.0968  0.8556
 6063SOL    HW229649   3.123   0.170   2.853 -0.6216 -1.5249 -0.8420
 6064SOL     OW29650   4.147   1.388   8.341 -0.1268 -0.0673 -0.4917
 6064SOL    HW129651   4.225   1.420   8.296  1.3673  0.9451  2.8701
 6064SOL    HW229652   4.109   1.472   8.368 -1.5029 -0.0901 -2.3179
 6065SOL     OW29653   4.657   0.772   5.011  0.7258 -0.2690  0.1332
 6065SOL    HW129654   4.711   0.728   5.077 -1.9476  0.0060  2.5264
 6065SOL    HW229655   0.009   0.809   4.959  2.0303 -2.2179  0.5751
 6066SOL     OW29656   3.492   2.746  14.827  0.0736  0.3121  0.6577
 6066SOL    HW129657   3.423   2.732  14.762 -1.2775  0.1170  2.1239
 6066SOL    HW229658   3.529   2.658  14.824 -1.6342 -0.4042  0.3684
 6067SOL     OW29659   3.633   0.200   2.127  0.3278  0.1576  0.4840
 6067SOL    HW129660   3.684   0.281   2.122 -0.9859  1.0438  1.5973
 6067SOL    HW229661   3.549   0.226   2.089 -0.5920 -1.1602  1.6435
 6068SOL     OW29662   2.004   3.935  10.646 -0.0407 -0.6367  0.2795
 6068SOL    HW129663   1.980   3.850  10.608  2.1272 -1.2587  0.2655
 6068SOL    HW229664   2.097   3.936  10.621 -0.3550  3.5071 -0.7343
 6069SOL     OW29665   2.775   0.632   6.719 -0.5020  0.9002 -0.1070
 6069SOL    HW129666   2.781   0.561   6.656  1.1260 -0.3195  1.4111
 6069SOL    HW229667   2.779   0.598   6.808  0.7723  2.0779  0.2901
 6070SOL     OW29668   0.504   2.741  16.806  0.0657  0.5689 -0.0097
 6070SOL    HW129669   0.593   2.708  16.793 -0.2537 -1.1580  2.1606
 6070SOL    HW229670   0.451   2.681  16.754  1.5868 -0.8252  0.0531
 6071SOL     OW29671   4.674   0.330   5.726  0.2683 -0.1510  0.1593
 6071SOL    HW129672   0.027   0.293   5.776  1.2818  1.7052  0.0574
 6071SOL    HW229673   4.705   0.421   5.724  2.0582 -0.7400  0.9054
 6072SOL     OW29674   1.543   3.506  15.341 -0.3227 -0.3729  0.3912
 6072SOL    HW129675   1.551   3.479  15.249 -1.1240  1.3019 -0.1557
 6072SOL    HW229676   1.610   3.449  15.380 -0.0480  1.5863  2.7628
 6073SOL     OW29677   4.062   2.205   4.720  0.4855 -0.3824  0.0837
 6073SOL    HW129678   4.077   2.221   4.814  0.8749  1.9485 -0.3699
 6073SOL    HW229679   4.085   2.114   4.699  2.1006 -0.1201  0.7123
 6074SOL     OW29680   4.701   2.029   5.758  0.6036 -0.5817 -0.4273
 6074SOL    HW129681   0.035   2.104   5.779  1.9969 -1.5159 -0.6667
 6074SOL    HW229682   4.651   2.026   5.840 -0.8992 -0.8686 -1.3395
 6075SOL     OW29683   4.193   1.372   9.195 -0.4919  0.1363 -0.2836
 6075SOL    HW129684   4.241   1.295   9.224  1.9342  0.8711 -2.3710
 6075SOL    HW229685   4.106   1.333   9.183 -0.1660 -0.9548  0.9872
 6076SOL     OW29686   3.226   4.096   6.265  0.5541 -0.0139  0.1011
 6076SOL    HW129687   3.189   4.165   6.321  0.3191 -0.9669  1.1321
 6076SOL    HW229688   3.203   4.020   6.319 -0.2816 -0.3535 -0.7228
 6077SOL     OW29689   0.986   0.949   2.880 -0.0764  0.6451  0.1406
 6077SOL    HW129690   0.954   0.933   2.969 -0.8091 -0.6885 -0.3598
 6077SOL    HW229691   0.959   1.037   2.854 -1.6316  0.0039 -0.4519
 6078SOL     OW29692   3.669   3.373   5.659  0.7130  0.3538 -0.5129
 6078SOL    HW129693   3.701   3.291   5.621  1.0472 -0.2834  1.1463
 6078SOL    HW229694   3.628   3.350   5.742 -1.0430  1.6709 -1.0165
 6079SOL     OW29695   1.210   2.943   2.164  0.5605  0.1883 -0.0740
 6079SOL    HW129696   1.218   2.886   2.088 -0.5780 -0.6562  0.4397
 6079SOL    HW229697   1.273   2.892   2.215  0.9196 -0.0691 -0.7699
 6080SOL     OW29698   2.628   4.402   8.168  0.4226 -0.2271 -0.2761
 6080SOL    HW129699   2.637   4.327   8.228  0.6309 -1.2580 -1.5838
 6080SOL    HW229700   2.626   4.479   8.224 -1.5901 -0.2731 -0.2969
 6081SOL     OW29701   3.498   1.129   5.864 -0.2483 -0.4216  0.1135
 6081SOL    HW129702   3.498   1.164   5.953 -0.3322 -0.7077  0.2271
 6081SOL    HW229703   3.566   1.184   5.827 -3.1153  3.3598  0.4337
 6082SOL     OW29704   1.067   2.116  11.054 -0.5508 -0.7245 -0.5200
 6082SOL    HW129705   1.108   2.033  11.079  3.0772  1.4605  0.8298
 6082SOL    HW229706   1.129   2.184  11.080 -0.1301 -0.7612 -1.4099
 6083SOL     OW29707   4.544   0.252   7.846 -0.0999 -0.0080 -0.8404
 6083SOL    HW129708   4.584   0.332   7.880 -0.2762 -0.3989  0.3050
 6083SOL    HW229709   4.544   0.281   7.755  1.6822  2.3919 -0.0589
 6084SOL     OW29710   3.555   0.960   6.890  0.1073 -0.5506  0.1365
 6084SOL    HW129711   3.508   1.030   6.845  0.2832  0.7093  1.8817
 6084SOL    HW229712   3.581   0.907   6.815 -1.5788 -0.3523 -0.5734
 6085SOL     OW29713   0.371   2.352  14.383  0.0673 -0.0317  0.7189
 6085SOL    HW129714   0.359   2.446  14.369 -0.4087  0.2288  2.8543
 6085SOL    HW229715   0.414   2.342  14.468 -2.5494  0.2813  2.0948
 6086SOL     OW29716   1.791   3.742   6.498  0.2862  0.2745  0.3793
 6086SOL    HW129717   1.754   3.719   6.413  0.0633 -1.7505  1.0197
 6086SOL    HW229718   1.858   3.805   6.469  1.2090  0.0886  2.0449
 6087SOL     OW29719   4.443   3.594   6.489 -0.0222  0.2915  0.7189
 6087SOL    HW129720   4.384   3.638   6.427  0.9084  0.1750 -0.2505
 6087SOL    HW229721   4.507   3.551   6.432  0.8963  0.0245  1.9583
 6088SOL     OW29722   2.596   3.208   3.723  0.2685  0.0340  0.0151
 6088SOL    HW129723   2.660   3.141   3.698  1.6551 -0.0234  3.7504
 6088SOL    HW229724   2.608   3.210   3.818  4.2545 -2.3363 -0.4090
 6089SOL     OW29725   2.574   2.553   6.062  0.5057 -0.0758  0.3598
 6089SOL    HW129726   2.541   2.617   6.125  0.1533  1.2303 -1.1521
 6089SOL    HW229727   2.497   2.499   6.042 -0.2085  2.1674 -2.9635
 6090SOL     OW29728   3.238   1.207   1.957 -0.0173  0.1681  0.2490
 6090SOL    HW129729   3.168   1.271   1.975  0.0687 -0.1860  1.8794
 6090SOL    HW229730   3.239   1.210   1.861 -0.2203 -0.1272  0.2356
 6091SOL     OW29731   2.233   4.035   3.777  0.0214  0.0117 -0.1432
 6091SOL    HW129732   2.226   4.093   3.853  1.3878  1.0839 -0.8233
 6091SOL    HW229733   2.291   3.969   3.815  0.7197  1.0618  0.6152
 6092SOL     OW29734   3.365   4.108   2.050  0.7594 -0.2139  0.9282
 6092SOL    HW129735   3.393   4.062   1.971 -1.7586  0.6123 -0.4196
 6092SOL    HW229736   3.345   4.034   2.108 -1.0422 -0.2795  0.2115
 6093SOL     OW29737   3.141   3.418  13.352 -0.4246 -0.7043  0.3220
 6093SOL    HW129738   3.099   3.369  13.423  0.7308  0.6617  1.9329
 6093SOL    HW229739   3.157   3.351  13.285  1.9171 -1.8599  2.0575
 6094SOL     OW29740   4.402   4.647   9.896  0.1704 -0.5863  0.0542
 6094SOL    HW129741   4.374   4.706   9.826 -1.7876  0.3003  1.5899
 6094SOL    HW229742   4.458   4.586   9.849  2.0802  1.6826 -0.6217
 6095SOL     OW29743   1.903   0.298   4.457  0.8392 -0.1542  0.0679
 6095SOL    HW129744   1.928   0.213   4.420  2.2293 -0.1518  0.9948
 6095SOL    HW229745   1.814   0.314   4.427  1.1033 -2.9058 -2.2426
 6096SOL     OW29746   4.541   0.331   5.042 -0.1291 -0.2443  0.5035
 6096SOL    HW129747   4.557   0.242   5.074 -2.1341 -0.6496  0.4148
 6096SOL    HW229748   4.486   0.359   5.116  0.9992 -1.2102  1.7159
 6097SOL     OW29749   0.473   0.654  13.059 -0.3107 -0.2814 -0.4176
 6097SOL    HW129750   0.562   0.619  13.060 -0.7524 -1.3659  1.0607
 6097SOL    HW229751   0.440   0.630  12.972 -2.5606 -0.9931  0.6382
 6098SOL     OW29752   2.722   1.307  10.125 -0.2917 -0.0223  0.2534
 6098SOL    HW129753   2.798   1.255  10.150  1.0985  2.0319  0.3310
 6098SOL    HW229754   2.693   1.337  10.211 -0.5488 -1.4819  0.6617
 6099SOL     OW29755   0.344   3.491   8.081 -0.1292  0.3265 -0.1911
 6099SOL    HW129756   0.329   3.559   8.147 -2.6325 -0.8798  0.4777
 6099SOL    HW229757   0.253   3.485   8.052 -0.3200  0.9514  0.2859
 6100SOL     OW29758   3.645   1.656   3.181 -0.2802  0.0381 -0.8961
 6100SOL    HW129759   3.685   1.741   3.197  0.0248 -0.5358  1.4403
 6100SOL    HW229760   3.554   1.669   3.208 -0.2895  1.9985 -1.8525
 6101SOL     OW29761   2.276   3.251   7.371  0.3757  0.2929 -0.0091
 6101SOL    HW129762   2.302   3.223   7.283 -1.9518  0.1586 -0.6348
 6101SOL    HW229763   2.327   3.330   7.391  3.6388 -1.1274 -2.7833
 6102SOL     OW29764   1.807   0.534   7.812  0.2349 -0.2593  0.1062
 6102SOL    HW129765   1.751   0.538   7.890 -0.5497 -0.6941 -0.4260
 6102SOL    HW229766   1.785   0.623   7.785  0.4413  0.1375  1.2468
 6103SOL     OW29767   0.093   2.108  10.876  0.8698 -0.2923  0.1074
 6103SOL    HW129768   0.176   2.130  10.919  1.1041 -0.9148 -0.0278
 6103SOL    HW229769   0.115   2.031  10.824  3.3302 -1.4782  2.9016
 6104SOL     OW29770   0.175   1.574   6.427 -0.1417 -0.1014 -0.3205
 6104SOL    HW129771   0.207   1.493   6.468  2.1560  1.8729  1.7822
 6104SOL    HW229772   0.114   1.533   6.365  0.2056 -0.3986 -0.4654
 6105SOL     OW29773   4.446   4.450  16.930  0.3001 -0.1915 -0.3104
 6105SOL    HW129774   4.416   4.481  16.845  0.9218 -0.3753 -0.5968
 6105SOL    HW229775   4.525   4.412  16.893 -1.3105 -2.1302 -1.7304
 6106SOL     OW29776   1.917   0.564  13.236 -0.6373 -0.3860 -0.3433
 6106SOL    HW129777   1.878   0.587  13.152  0.0097 -2.5182 -1.2318
 6106SOL    HW229778   1.865   0.489  13.265 -0.7216  0.8510  2.7275
 6107SOL     OW29779   0.911   2.507   1.035  0.2150 -0.5007  0.0198
 6107SOL    HW129780   0.861   2.472   1.108 -1.5729  2.5942  0.2829
 6107SOL    HW229781   0.849   2.483   0.966  0.3602  1.3730 -0.7716
 6108SOL     OW29782   3.814   2.787   7.269  0.0771 -0.3803 -0.9431
 6108SOL    HW129783   3.734   2.795   7.321  1.4556  1.8836  0.8428
 6108SOL    HW229784   3.775   2.734   7.200  0.5387  0.8022 -2.1232
 6109SOL     OW29785   0.588   3.924   8.761  0.3672 -0.0562  0.8641
 6109SOL    HW129786   0.510   3.894   8.715 -0.1051  0.4876  1.3248
 6109SOL    HW229787   0.573   3.875   8.842 -1.1673 -3.2339 -1.3509
 6110SOL     OW29788   2.655   1.393  10.389  0.3711  0.2737  0.1690
 6110SOL    HW129789   2.707   1.427  10.462  0.7471  0.4443 -0.1737
 6110SOL    HW229790   2.565   1.415  10.411 -0.3883 -3.1801  0.4769
 6111SOL     OW29791   0.099   3.945   8.494  0.2354 -0.5215 -0.4149
 6111SOL    HW129792   0.027   3.890   8.464 -0.4336  0.3923 -0.4786
 6111SOL    HW229793   0.090   4.016   8.430 -0.9611 -0.3715 -0.0838
 6112SOL     OW29794   3.772   2.695   6.762 -0.1766 -0.2098  0.4090
 6112SOL    HW129795   3.719   2.688   6.842 -2.0885  1.0013 -0.7285
 6112SOL    HW229796   3.728   2.657   6.686  0.5756 -0.3865  0.0624
 6113SOL     OW29797   3.665   4.425  14.440  0.0740 -0.1185  0.6016
 6113SOL    HW129798   3.620   4.374  14.507  1.6557 -1.1978  0.8379
 6113SOL    HW229799   3.724   4.366  14.394  0.0828  1.1997 -1.0798
 6114SOL     OW29800   0.544   2.540   1.457  0.0086 -0.0820  0.1301
 6114SOL    HW129801   0.610   2.471   1.459  0.7099  0.5467 -1.5815
 6114SOL    HW229802   0.493   2.526   1.377  1.5714  0.5451 -0.9808
 6115SOL     OW29803   3.082   1.486   3.836  0.0006  0.1396  0.1638
 6115SOL    HW129804   3.175   1.511   3.843  0.1732 -0.5410  0.3210
 6115SOL    HW229805   3.060   1.560   3.892  0.3119  0.5976 -0.3113
 6116SOL     OW29806   1.077   0.553   4.654 -0.5593  0.2067  0.4208
 6116SOL    HW129807   1.132   0.501   4.595  0.6964 -0.8305  2.5042
 6116SOL    HW229808   1.120   0.535   4.738  1.3969  1.2362 -0.3495
 6117SOL     OW29809   1.375   1.961  11.728  0.1872 -0.2197 -0.1099
 6117SOL    HW129810   1.386   1.881  11.677  1.0970 -0.3489  0.2924
 6117SOL    HW229811   1.288   1.990  11.701  0.2690  1.9804  1.9617
 6118SOL     OW29812   1.340   1.054   6.495 -0.0933  0.1046  0.1871
 6118SOL    HW129813   1.274   0.987   6.479 -0.0662  0.6811 -2.4172
 6118SOL    HW229814   1.286   1.133   6.505  1.1105  0.7645  1.3933
 6119SOL     OW29815   0.778   1.704   7.988  0.6628 -0.9996 -0.3565
 6119SOL    HW129816   0.789   1.732   8.079  1.0866 -0.5339 -0.5506
 6119SOL    HW229817   0.794   1.790   7.949  0.0754 -2.0144 -2.8960
 6120SOL     OW29818   4.087   4.011   0.820  0.2166  0.0249  0.3758
 6120SOL    HW129819   4.079   3.958   0.741 -3.1446  1.2270 -0.0712
 6120SOL    HW229820   4.157   4.067   0.785  0.3311  0.1813  0.8517
 6121SOL     OW29821   0.510   2.439   7.048  0.5033  0.2367 -0.3076
 6121SOL    HW129822   0.549   2.456   6.963 -0.8065 -2.4804 -1.4530
 6121SOL    HW229823   0.581   2.403   7.102  0.3579 -0.7437 -0.7590
 6122SOL     OW29824   3.562   2.478   7.413 -0.0816 -0.2987  0.1241
 6122SOL    HW129825   3.573   2.567   7.447  0.3236 -1.4749  3.0061
 6122SOL    HW229826   3.474   2.482   7.375 -0.6453 -0.0435  1.4745
 6123SOL     OW29827   2.747   0.544   3.125  0.0579 -0.4344  0.6072
 6123SOL    HW129828   2.840   0.566   3.135  0.1085 -0.2010 -0.3397
 6123SOL    HW229829   2.739   0.453   3.097  0.5032 -0.8526  1.8264
 6124SOL     OW29830   1.715   1.675   4.562  0.1693  0.4989 -0.4024
 6124SOL    HW129831   1.759   1.680   4.477  0.7067 -1.2716 -0.2250
 6124SOL    HW229832   1.789   1.684   4.622 -1.5386 -2.7895  2.1570
 6125SOL     OW29833   0.666   1.241   7.868  0.3291 -0.3788 -0.2494
 6125SOL    HW129834   0.670   1.268   7.776 -2.3129  1.1095  0.0768
 6125SOL    HW229835   0.705   1.155   7.855  1.5262  0.0626  0.4552
 6126SOL     OW29836   0.490   1.239   3.527  0.4763 -0.2239  0.1534
 6126SOL    HW129837   0.403   1.205   3.549  0.2558  0.3968  0.2407
 6126SOL    HW229838   0.542   1.173   3.573  0.0769  0.1494  1.1483
 6127SOL     OW29839   4.451   2.916   7.622  0.1424 -0.3282 -0.5439
 6127SOL    HW129840   4.464   2.831   7.664  3.1164  0.5166  0.2670
 6127SOL    HW229841   4.450   2.876   7.535  2.5086  0.7510 -1.0612
 6128SOL     OW29842   2.395   1.387   6.828  0.0346 -0.3623  0.3433
 6128SOL    HW129843   2.469   1.344   6.786 -0.5854 -1.6087  0.5206
 6128SOL    HW229844   2.390   1.349   6.916  2.1102  1.3170  1.1858
 6129SOL     OW29845   3.050   4.646  11.248  0.4327 -0.5879 -0.4394
 6129SOL    HW129846   3.041   4.599  11.331 -2.3802  0.8917  0.1155
 6129SOL    HW229847   2.964   4.640  11.207 -1.2448  3.1019  2.5316
 6130SOL     OW29848   0.144   2.802   8.028  0.1883  0.4756 -0.3953
 6130SOL    HW129849   0.052   2.827   8.022 -0.4204 -1.4048  0.8675
 6130SOL    HW229850   0.159   2.753   7.947 -0.8628 -0.7086  0.1161
 6131SOL     OW29851   2.406   0.132   1.787  0.7202 -0.5263  0.1881
 6131SOL    HW129852   2.338   0.198   1.773  1.9906  1.2508  2.4994
 6131SOL    HW229853   2.468   0.165   1.722  0.5793 -1.7473 -0.5806
 6132SOL     OW29854   2.819   0.714   0.563  0.1647 -0.2445  0.1031
 6132SOL    HW129855   2.902   0.759   0.580 -0.5712  1.4813 -0.9076
 6132SOL    HW229856   2.836   0.632   0.516  2.1427 -0.8826  1.9082
 6133SOL     OW29857   3.437   2.399  17.603 -0.0731  0.0874  0.5274
 6133SOL    HW129858   3.482   2.402   0.005 -0.6731 -2.6556  0.9500
 6133SOL    HW229859   3.481   2.465  17.551 -0.9671  0.2295 -0.0616
 6134SOL     OW29860   3.217   4.621   7.177  0.0586  0.0593 -0.0139
 6134SOL    HW129861   3.217   4.559   7.250 -1.3003 -0.4132 -0.4194
 6134SOL    HW229862   3.204   4.559   7.105 -1.4310  0.5622 -0.1712
 6135SOL     OW29863   0.988   1.990   4.226  0.3273 -0.1898  0.7227
 6135SOL    HW129864   1.059   2.027   4.174 -0.0996 -0.2366  0.1044
 6135SOL    HW229865   0.921   2.032   4.173  1.5662  1.5628  0.5350
 6136SOL     OW29866   2.873   3.393  12.103  0.3432  0.0607 -0.6957
 6136SOL    HW129867   2.890   3.305  12.071  0.0918 -1.1842  2.6210
 6136SOL    HW229868   2.939   3.399  12.172  1.1408 -1.2436 -1.3613
 6137SOL     OW29869   1.880   4.674   5.180  0.6676 -0.5118 -0.2473
 6137SOL    HW129870   1.941   4.672   5.254  1.3797  0.5002 -0.7999
 6137SOL    HW229871   1.850   0.043   5.197  0.9923 -0.6253  0.9648
 6138SOL     OW29872   1.151   4.415   9.647 -0.0165  0.5619  0.0970
 6138SOL    HW129873   1.192   4.367   9.575 -1.3729 -0.5591  0.0675
 6138SOL    HW229874   1.217   4.395   9.714 -0.4316  0.3827  0.4540
 6139SOL     OW29875   3.388   4.090   3.010 -0.3774  0.4974  0.2738
 6139SOL    HW129876   3.294   4.082   2.997 -0.3688  0.2272  0.3619
 6139SOL    HW229877   3.424   4.091   2.921  0.6519 -0.4885  0.6726
 6140SOL     OW29878   0.973   3.331   7.501 -0.0414  0.2349  1.2235
 6140SOL    HW129879   0.929   3.402   7.455  0.3843 -0.0581  0.3729
 6140SOL    HW229880   0.907   3.303   7.565  0.0006 -0.9447  0.7542
 6141SOL     OW29881   0.058   3.377   7.627 -0.0323 -0.4155 -0.0516
 6141SOL    HW129882   0.046   3.304   7.566 -3.1379 -2.2530  2.7667
 6141SOL    HW229883   0.005   3.342   7.699  1.3751  0.3420  1.3573
 6142SOL     OW29884   2.091   1.885  13.284 -0.1169 -0.3837  0.0204
 6142SOL    HW129885   2.148   1.833  13.340 -1.4121 -1.9055 -0.0920
 6142SOL    HW229886   2.004   1.864  13.317 -0.4866  1.2825  0.1204
 6143SOL     OW29887   4.254   2.286   5.774  0.8840  0.4911 -0.1484
 6143SOL    HW129888   4.342   2.323   5.777  0.5224  1.2013  1.4441
 6143SOL    HW229889   4.252   2.228   5.698  1.4783  2.2298 -1.4904
 6144SOL     OW29890   0.787   2.605   2.154  0.0523 -0.2231  0.2967
 6144SOL    HW129891   0.861   2.591   2.214  0.2398  0.2520  0.1789
 6144SOL    HW229892   0.834   2.662   2.094  0.8004 -0.8408  0.2872
 6145SOL     OW29893   0.673   0.377   9.519 -0.9206 -0.1951  0.0377
 6145SOL    HW129894   0.688   0.302   9.461  0.5633  0.9575 -1.0777
 6145SOL    HW229895   0.763   0.410   9.513 -0.6468 -0.8312  0.5859
 6146SOL     OW29896   0.933   2.216   4.484 -0.0114 -0.0214  0.2417
 6146SOL    HW129897   0.966   2.130   4.508 -0.6663  0.3802  2.5452
 6146SOL    HW229898   0.885   2.233   4.565 -2.8459  1.5772 -1.7696
 6147SOL     OW29899   0.795   1.811  10.246 -0.3741 -0.7865 -0.0999
 6147SOL    HW129900   0.832   1.773  10.166 -0.6464 -0.9983 -0.1248
 6147SOL    HW229901   0.869   1.844  10.296 -0.0420  0.7859 -1.6326
 6148SOL     OW29902   1.318   3.748   1.372 -0.2764 -0.4076 -0.0966
 6148SOL    HW129903   1.368   3.828   1.390  0.8687 -1.1091 -0.1974
 6148SOL    HW229904   1.233   3.792   1.373  0.4815  1.0318  1.0422
 6149SOL     OW29905   4.276   4.381   5.423  0.5418  0.4924  0.5899
 6149SOL    HW129906   4.286   4.382   5.328  0.8808 -0.8545  0.6155
 6149SOL    HW229907   4.185   4.354   5.436  0.3981 -0.1132 -1.6963
 6150SOL     OW29908   0.090   0.764  13.413  0.0932 -0.0869  0.1845
 6150SOL    HW129909   0.125   0.688  13.366 -0.1409 -2.0709  3.2239
 6150SOL    HW229910   4.715   0.767  13.399 -0.0655 -0.9945  1.0635
 6151SOL     OW29911   3.686   3.383   9.182 -0.2994 -0.0543  0.6511
 6151SOL    HW129912   3.598   3.399   9.147 -0.1689 -1.0621 -0.1442
 6151SOL    HW229913   3.663   3.369   9.274  0.1853 -0.6215  0.6839
 6152SOL     OW29914   3.301   0.113   1.497  0.1118  0.0260  0.0942
 6152SOL    HW129915   3.387   0.133   1.531  0.0874 -2.7729  1.7958
 6152SOL    HW229916   3.309   0.019   1.485  2.2433  0.0800  1.2682
 6153SOL     OW29917   4.061   0.263  12.878 -0.6997  0.5068  0.7540
 6153SOL    HW129918   4.125   0.298  12.940 -0.8176  0.3903  0.9424
 6153SOL    HW229919   4.128   0.239  12.815  1.2367  1.6403  2.4013
 6154SOL     OW29920   0.929   2.498   4.113  0.3752 -0.2773  0.0199
 6154SOL    HW129921   1.020   2.503   4.142  0.0178  0.5886  0.9932
 6154SOL    HW229922   0.934   2.406   4.087  3.7336  0.2109 -1.0818
 6155SOL     OW29923   2.791   3.143   7.867  0.3592  0.2849  0.0737
 6155SOL    HW129924   2.760   3.066   7.819 -1.6226  0.4611  1.0982
 6155SOL    HW229925   2.706   3.173   7.898 -0.6051 -2.0021 -0.3809
 6156SOL     OW29926   0.651   2.788   7.869 -0.4028  0.2860  0.2054
 6156SOL    HW129927   0.599   2.765   7.793  0.2499  1.2338 -0.5226
 6156SOL    HW229928   0.714   2.716   7.865  1.4044  1.8365  0.4075
 6157SOL     OW29929   2.364   1.124   5.163 -0.0300  0.0038  0.1574
 6157SOL    HW129930   2.357   1.118   5.258 -0.4754 -4.2139 -0.1270
 6157SOL    HW229931   2.316   1.044   5.142 -0.7491  0.9243 -1.6808
 6158SOL     OW29932   1.932   2.990   1.789 -0.0053 -0.3739  0.2962
 6158SOL    HW129933   1.924   2.949   1.876  1.7476 -0.2943  0.5014
 6158SOL    HW229934   2.024   3.015   1.800 -0.0085 -0.5042  0.6266
 6159SOL     OW29935   3.482   4.001   9.018  0.2239  0.6570 -0.8375
 6159SOL    HW129936   3.470   4.071   8.954 -0.6185  0.1429 -1.2552
 6159SOL    HW229937   3.559   3.956   8.984  0.1668  0.1192 -0.2646
 6160SOL     OW29938   2.603   3.774   7.660  0.1603 -0.1574  0.5295
 6160SOL    HW129939   2.617   3.791   7.567  0.6992  1.1195  0.8384
 6160SOL    HW229940   2.536   3.841   7.676  0.4649  0.6215 -1.4548
 6161SOL     OW29941   3.634   3.476  14.267  0.7032 -0.1266 -0.0644
 6161SOL    HW129942   3.583   3.418  14.323  0.2697 -0.3825 -0.7162
 6161SOL    HW229943   3.699   3.498  14.333  0.7426  0.2527 -0.2269
 6162SOL     OW29944   2.638   1.138  12.763 -0.3172 -0.0480  0.1548
 6162SOL    HW129945   2.572   1.149  12.694 -1.5841 -2.2284  0.9922
 6162SOL    HW229946   2.714   1.145  12.706  1.7046 -3.8913  2.3367
 6163SOL     OW29947   0.020   3.896   6.360  0.1372 -0.3175  0.0493
 6163SOL    HW129948   0.053   3.808   6.375  2.9950  0.5675 -0.9700
 6163SOL    HW229949   4.699   3.912   6.445 -0.0074 -0.7204  0.0558
 6164SOL     OW29950   2.227   3.785   7.449 -0.4383  0.2803  0.3080
 6164SOL    HW129951   2.268   3.863   7.486  1.8162 -0.8296  0.1513
 6164SOL    HW229952   2.138   3.818   7.433 -0.1273  2.1944  2.5041
 6165SOL     OW29953   4.015   1.602   8.586 -0.8922  0.1553  0.0485
 6165SOL    HW129954   4.087   1.581   8.645  0.0066  2.8391 -0.1310
 6165SOL    HW229955   4.060   1.636   8.509 -0.5109  1.4419  0.8355
 6166SOL     OW29956   4.355   3.497   3.005  1.1367 -0.0361  0.4313
 6166SOL    HW129957   4.328   3.542   3.086 -1.5280  0.3429 -0.6625
 6166SOL    HW229958   4.308   3.555   2.945  2.2482  0.9258  0.4858
 6167SOL     OW29959   3.745   4.359  12.389  0.2860 -0.0687  0.0812
 6167SOL    HW129960   3.728   4.282  12.444 -0.6649 -0.4819 -0.8068
 6167SOL    HW229961   3.783   4.309  12.317 -0.8591 -4.1471  2.2695
 6168SOL     OW29962   4.483   2.516   4.329  0.2368  0.0092 -0.2475
 6168SOL    HW129963   4.485   2.512   4.234 -0.7984 -1.5769 -0.1827
 6168SOL    HW229964   4.418   2.586   4.335 -0.6581 -0.6785 -1.9946
 6169SOL     OW29965   3.336   1.923  11.451 -0.2615  0.1477  0.1584
 6169SOL    HW129966   3.364   1.909  11.542 -2.2679  0.1386  0.7585
 6169SOL    HW229967   3.272   1.854  11.441 -1.7347  1.2536  1.9208
 6170SOL     OW29968   0.467   0.317   2.037 -0.4605 -0.2909 -0.3913
 6170SOL    HW129969   0.421   0.244   1.994 -0.4417  0.0510 -0.9949
 6170SOL    HW229970   0.553   0.310   1.995 -1.0828  1.4009 -1.9637
 6171SOL     OW29971   2.778   0.141   3.553  0.1053 -0.2609  0.4401
 6171SOL    HW129972   2.734   0.056   3.546  1.3337 -0.7765 -1.0366
 6171SOL    HW229973   2.861   0.115   3.513  0.5663 -0.7508  1.7356
 6172SOL     OW29974   0.096   3.355   4.261 -0.1016  0.1654 -0.1893
 6172SOL    HW129975   0.056   3.319   4.341  0.5764 -0.8604 -0.3109
 6172SOL    HW229976   0.031   3.333   4.194 -1.5166  1.1647  0.8642
 6173SOL     OW29977   4.088   4.378   5.961  0.3410 -0.3286  0.4226
 6173SOL    HW129978   4.134   4.356   6.042 -1.2900  1.7830  1.9288
 6173SOL    HW229979   4.028   4.306   5.942  1.1790 -1.4988  2.2256
 6174SOL     OW29980   1.201   2.687   2.688  0.1040 -0.3019  0.3917
 6174SOL    HW129981   1.195   2.750   2.760 -0.6695 -0.6922  0.6756
 6174SOL    HW229982   1.144   2.615   2.714  0.0644 -0.5557 -0.3840
 6175SOL     OW29983   1.722   4.178   2.329  0.2445 -0.0367  0.2204
 6175SOL    HW129984   1.638   4.186   2.376 -0.6664 -2.9796 -0.8608
 6175SOL    HW229985   1.708   4.092   2.290  0.9535  0.5868 -1.3771
 6176SOL     OW29986   1.683   2.748   6.136 -0.0037  0.2057  0.2340
 6176SOL    HW129987   1.647   2.820   6.085 -0.0337 -0.3616 -0.5409
 6176SOL    HW229988   1.773   2.781   6.136 -0.4010  1.2921 -0.6583
 6177SOL     OW29989   0.820   2.266  11.076 -0.6852 -0.5679 -0.1354
 6177SOL    HW129990   0.874   2.191  11.053 -0.7472 -0.6191 -0.1133
 6177SOL    HW229991   0.837   2.277  11.170  0.0256  1.4892 -0.5002
 6178SOL     OW29992   0.292   2.689   3.261 -0.4123  0.1451  0.0923
 6178SOL    HW129993   0.374   2.695   3.211 -0.0786 -3.4269  0.1927
 6178SOL    HW229994   0.226   2.688   3.192 -0.3494  0.9563  0.0128
 6179SOL     OW29995   3.668   1.970   3.025 -0.0549  0.2353  0.0690
 6179SOL    HW129996   3.695   1.969   3.116 -0.5257  1.8990  0.2217
 6179SOL    HW229997   3.576   1.994   3.036  1.0111  2.2868  4.2930
 6180SOL     OW29998   1.554   4.683   9.858  0.0730  0.1318 -0.0689
 6180SOL    HW129999   1.462   4.675   9.833  0.2113  2.3668 -1.2953
 6180SOL    HW230000   1.592   4.604   9.820 -0.4182  0.4029 -1.1179
 6181SOL     OW30001   2.495   4.441   1.585 -0.0619  0.3844  0.2375
 6181SOL    HW130002   2.433   4.370   1.566  0.9678 -0.1667 -1.0811
 6181SOL    HW230003   2.478   4.462   1.677  3.0312 -3.8498  1.8202
 6182SOL     OW30004   4.542   2.144  10.791  0.4250  0.3401 -0.2562
 6182SOL    HW130005   4.517   2.200  10.865  2.3669  0.8343  0.0233
 6182SOL    HW230006   4.634   2.131  10.815  0.3955 -0.8757 -0.8040
 6183SOL     OW30007   0.070   2.278  13.838 -0.2264  0.5185 -0.0748
 6183SOL    HW130008   0.165   2.290  13.843  0.2445 -3.1847 -0.1353
 6183SOL    HW230009   0.045   2.368  13.818  0.3510  1.0423  1.5667
 6184SOL     OW30010   4.101   0.725  17.504 -0.7366  1.0730  0.0758
 6184SOL    HW130011   4.148   0.773  17.573 -0.4159  0.6899  0.1233
 6184SOL    HW230012   4.167   0.663  17.475 -0.3960  0.7863  1.4507
 6185SOL     OW30013   1.535   4.549   4.045  0.2354  0.0627  0.0990
 6185SOL    HW130014   1.540   4.459   4.079  1.4124 -1.1804 -3.4095
 6185SOL    HW230015   1.460   4.538   3.987  0.5976  0.1115 -0.3801
 6186SOL     OW30016   0.262   4.221   1.928  0.2003 -0.5723  0.0958
 6186SOL    HW130017   0.186   4.253   1.977 -0.4732 -0.4310 -1.0309
 6186SOL    HW230018   0.289   4.144   1.977  3.6027  0.6737  0.1865
 6187SOL     OW30019   0.796   3.340   4.384  0.4637  0.1260  0.2628
 6187SOL    HW130020   0.833   3.253   4.398 -1.7581 -0.9542 -0.7130
 6187SOL    HW230021   0.802   3.349   4.289 -1.5226  2.9581  0.4038
 6188SOL     OW30022   1.864   3.926   5.125  0.4228  0.0536  1.0100
 6188SOL    HW130023   1.896   3.839   5.149  0.9149 -0.3817 -1.1784
 6188SOL    HW230024   1.943   3.961   5.084 -0.8132  0.6609 -0.8380
 6189SOL     OW30025   3.604   1.149   3.623 -0.4334  0.1672  0.0205
 6189SOL    HW130026   3.689   1.162   3.666 -0.3443  1.1472 -0.4583
 6189SOL    HW230027   3.607   1.188   3.536 -0.4496  1.8507  0.7856
 6190SOL     OW30028   3.288   0.172   0.857 -0.0776  0.2525 -0.3928
 6190SOL    HW130029   3.320   0.151   0.769 -0.4703 -1.9688  0.0051
 6190SOL    HW230030   3.226   0.102   0.877  0.2435  0.4441  1.3432
 6191SOL     OW30031   4.484   1.753   5.420  0.8485  0.0877 -0.0835
 6191SOL    HW130032   4.559   1.770   5.363  1.8853 -3.9078  0.1029
 6191SOL    HW230033   4.494   1.828   5.479  2.7018 -0.6413  0.5311
 6192SOL     OW30034   1.648   3.529  17.575  0.4159 -0.1935 -0.0753
 6192SOL    HW130035   1.588   3.603  17.585 -0.5207 -1.0909  0.9937
 6192SOL    HW230036   1.672   3.542  17.483 -0.5656 -1.6848 -0.5560
 6193SOL     OW30037   1.790   1.458   8.209 -0.1587  0.9121 -0.3621
 6193SOL    HW130038   1.785   1.391   8.141  1.3820 -1.5556  1.9901
 6193SOL    HW230039   1.877   1.492   8.189  0.1198  0.3263 -0.1371
 6194SOL     OW30040   3.041   3.888   5.608 -0.0604  0.2023  0.3316
 6194SOL    HW130041   3.014   3.819   5.668 -1.9709 -0.7168 -1.5572
 6194SOL    HW230042   2.954   3.921   5.586  1.2090  2.0280 -1.9477
 6195SOL     OW30043   2.244   4.663   4.926  0.1919 -0.5331 -0.0751
 6195SOL    HW130044   2.306   0.008   4.959 -2.2661  2.9925 -2.2540
 6195SOL    HW230045   2.161   4.709   4.909  1.1383  0.8869 -0.9037
 6196SOL     OW30046   4.417   2.434   1.990 -0.4037 -0.3432  0.1151
 6196SOL    HW130047   4.475   2.367   1.953  0.6275  0.2701  0.6188
 6196SOL    HW230048   4.417   2.507   1.928 -0.1039 -0.2770  0.1930
 6197SOL     OW30049   0.862   1.403  16.401 -0.5416  0.5943  0.1920
 6197SOL    HW130050   0.879   1.321  16.355  0.5359 -0.5023  2.5834
 6197SOL    HW230051   0.767   1.396  16.415 -0.7386  2.2682 -0.2609
 6198SOL     OW30052   2.166   2.822   8.031  0.3100  0.3635 -0.1992
 6198SOL    HW130053   2.093   2.781   8.077 -0.5867  1.8789 -0.2789
 6198SOL    HW230054   2.185   2.757   7.964  2.2027 -0.4143  1.0708
 6199SOL     OW30055   3.872   1.945   5.187 -0.2325  0.0301  0.3439
 6199SOL    HW130056   3.961   1.979   5.197 -0.1406 -0.0579 -0.1981
 6199SOL    HW230057   3.853   1.956   5.094 -0.1325  1.1548  0.4525
 6200SOL     OW30058   2.191   2.662  13.676  0.1402  0.2813 -0.2145
 6200SOL    HW130059   2.138   2.677  13.598  1.3491  0.1765 -1.0534
 6200SOL    HW230060   2.266   2.612  13.644 -0.5102  0.1267 -1.5311
 6201SOL     OW30061   0.464   3.060   5.050 -0.2057  0.2404  0.1503
 6201SOL    HW130062   0.495   3.144   5.085 -0.8982 -0.1796  1.7911
 6201SOL    HW230063   0.544   3.008   5.053  0.6282  1.6690  2.6665
 6202SOL     OW30064   1.231   2.951   5.286  0.4246  0.1428  0.5399
 6202SOL    HW130065   1.207   2.913   5.370 -1.0941  2.5564  1.1921
 6202SOL    HW230066   1.216   3.044   5.302  0.4783  0.4323 -1.0634
 6203SOL     OW30067   4.596   0.208   5.501  0.0951  0.6026 -0.2151
 6203SOL    HW130068   4.605   0.247   5.588 -3.3856 -1.7096  1.1256
 6203SOL    HW230069   4.568   0.120   5.524 -1.6093  1.3855  0.6976
 6204SOL     OW30070   1.403   4.391   5.123 -0.2362 -0.4709 -0.4232
 6204SOL    HW130071   1.469   4.459   5.140  1.3327 -2.1055 -0.0658
 6204SOL    HW230072   1.459   4.331   5.074  0.6189  1.2623 -1.5528
 6205SOL     OW30073   1.434   3.490   8.534  0.1523 -0.3063 -0.6240
 6205SOL    HW130074   1.421   3.434   8.457 -1.0078  0.1379 -0.7597
 6205SOL    HW230075   1.344   3.496   8.567  0.4763 -0.1333  0.2269
 6206SOL     OW30076   4.003   3.555   5.003 -0.4445  0.2219  0.0369
 6206SOL    HW130077   3.987   3.530   4.911  1.2313  1.3301 -0.5447
 6206SOL    HW230078   3.945   3.630   5.014  1.2227  1.3188  1.2516
 6207SOL     OW30079   0.658   0.774   0.965  0.2948  0.4513 -0.1095
 6207SOL    HW130080   0.735   0.790   1.020  0.2411  0.6481 -0.0902
 6207SOL    HW230081   0.627   0.864   0.963 -1.2337 -0.0134  1.9745
 6208SOL     OW30082   0.813   0.435   4.618 -0.4719  0.2069 -0.3682
 6208SOL    HW130083   0.907   0.452   4.620 -0.1888 -0.8399 -4.5584
 6208SOL    HW230084   0.803   0.379   4.696 -0.0359 -2.3470 -2.1358
 6209SOL     OW30085   1.523   2.774   9.471  0.0339 -0.1452  0.2530
 6209SOL    HW130086   1.464   2.848   9.482 -0.1738 -0.3476  0.4925
 6209SOL    HW230087   1.466   2.709   9.430  0.6649 -0.9962  0.7099
 6210SOL     OW30088   4.305   3.911   4.716 -0.6118 -0.3873 -0.1417
 6210SOL    HW130089   4.299   3.962   4.797 -1.4167 -1.8424  0.7178
 6210SOL    HW230090   4.211   3.891   4.712 -1.0326  1.2266  1.7225
 6211SOL     OW30091   0.610   4.274   7.467 -0.3666  0.8651 -0.0369
 6211SOL    HW130092   0.692   4.250   7.423  0.8415  0.1920  2.6338
 6211SOL    HW230093   0.559   4.198   7.438  0.4052  0.7824 -1.2007
 6212SOL     OW30094   2.311   1.441   4.189 -0.0704  0.5840 -0.2285
 6212SOL    HW130095   2.296   1.489   4.108  0.8893  1.1931 -0.0489
 6212SOL    HW230096   2.281   1.511   4.248  1.6165  0.3162  0.9342
 6213SOL     OW30097   1.075   3.335  13.137  0.0018 -0.2158 -0.3278
 6213SOL    HW130098   1.073   3.304  13.046  1.8823  2.0250 -1.1373
 6213SOL    HW230099   1.012   3.278  13.182 -0.0780  1.1787  1.3125
 6214SOL     OW30100   3.755   1.917   5.449 -0.9488 -0.1464 -0.1626
 6214SOL    HW130101   3.815   1.968   5.503 -2.2777  0.9399  0.3105
 6214SOL    HW230102   3.773   1.938   5.357 -3.6037 -0.6700 -0.8041
 6215SOL     OW30103   0.993   3.649   8.542 -0.5074  0.3901 -0.7941
 6215SOL    HW130104   0.939   3.729   8.539 -1.0274  0.1209  1.2318
 6215SOL    HW230105   0.923   3.589   8.567  1.5025 -1.4662  0.3467
 6216SOL     OW30106   3.800   1.735   8.131 -0.1354  0.3012  0.4677
 6216SOL    HW130107   3.787   1.684   8.051  0.2859  0.2300  0.4466
 6216SOL    HW230108   3.764   1.674   8.196  0.3692 -1.1489 -0.6201
 6217SOL     OW30109   0.214   3.545   7.366 -0.5217  0.1283  0.5533
 6217SOL    HW130110   0.233   3.510   7.279 -1.1455  3.1408 -0.7691
 6217SOL    HW230111   0.264   3.486   7.422  0.6960  1.9097  1.3292
 6218SOL     OW30112   2.298   4.567   8.061 -0.4042  0.5037  0.4165
 6218SOL    HW130113   2.377   4.621   8.054 -0.0695  0.0037  0.2954
 6218SOL    HW230114   2.229   4.612   8.109 -2.2273  0.8489 -2.5735
 6219SOL     OW30115   0.373   0.092   1.935  0.4363 -0.4729 -0.8308
 6219SOL    HW130116   0.413   0.011   1.966  0.7559  0.8334  2.1375
 6219SOL    HW230117   0.386   0.081   1.841  1.4634  1.9902 -0.9757
 6220SOL     OW30118   0.906   1.077   0.609  0.3719 -0.0834  0.1099
 6220SOL    HW130119   0.814   1.093   0.631  0.3550 -0.7886  0.5536
 6220SOL    HW230120   0.925   0.989   0.641 -0.6346 -0.3399 -0.0021
 6221SOL     OW30121   3.400   1.630   7.662 -0.0646  0.0174 -0.3680
 6221SOL    HW130122   3.371   1.720   7.645  3.1795  0.8146 -1.5554
 6221SOL    HW230123   3.336   1.573   7.620 -1.5590  1.5835 -0.2242
 6222SOL     OW30124   3.996   3.746   7.292  0.3906  0.4420 -0.0924
 6222SOL    HW130125   4.056   3.817   7.313 -1.0877  1.8879 -0.7318
 6222SOL    HW230126   4.012   3.720   7.202  0.7964  0.1889  0.0518
 6223SOL     OW30127   4.085   3.738   8.089 -0.5082  0.8011  0.2836
 6223SOL    HW130128   4.133   3.728   8.008 -0.8711  2.9370 -0.2061
 6223SOL    HW230129   3.994   3.751   8.060  0.2348 -0.0391 -2.3801
 6224SOL     OW30130   3.231   1.720   5.507 -0.0313  0.2982 -0.5228
 6224SOL    HW130131   3.154   1.770   5.477  0.3844  0.4917 -1.2535
 6224SOL    HW230132   3.296   1.759   5.450  1.4733 -1.4987 -0.0394
 6225SOL     OW30133   1.014   0.874   0.758 -0.4606  0.3819  0.1703
 6225SOL    HW130134   1.025   0.809   0.828 -2.1653  0.7780  0.8024
 6225SOL    HW230135   1.052   0.956   0.788  0.5157  0.3152 -0.8476
 6226SOL     OW30136   1.269   1.103   8.017  0.2951 -0.3968 -0.5289
 6226SOL    HW130137   1.331   1.171   8.043  0.6366 -0.0424 -2.3429
 6226SOL    HW230138   1.274   1.040   8.089  1.3566 -1.0523 -1.1852
 6227SOL     OW30139   0.735   0.526   0.811  0.1343 -0.1632  0.3088
 6227SOL    HW130140   0.717   0.530   0.717 -0.5062 -2.1710  0.3491
 6227SOL    HW230141   0.722   0.619   0.833 -1.2551 -0.4798  0.7914
 6228SOL     OW30142   2.978   4.556   1.794  0.3118 -0.1466 -0.0628
 6228SOL    HW130143   2.943   4.469   1.817 -3.4659  1.9685  2.1162
 6228SOL    HW230144   3.019   4.537   1.710  1.8916 -1.0761  0.9031
 6229SOL     OW30145   0.732   0.637   3.857 -0.1752 -0.1517  0.6072
 6229SOL    HW130146   0.750   0.700   3.787 -1.2437 -1.3050 -0.7087
 6229SOL    HW230147   0.637   0.637   3.862 -0.1951 -0.2608  0.2012
 6230SOL     OW30148   2.973   2.754   5.782  0.3079 -0.4165 -0.4919
 6230SOL    HW130149   2.999   2.663   5.800 -0.8278 -0.2210  2.1716
 6230SOL    HW230150   2.900   2.760   5.844 -0.7377  0.7853 -1.8532
 6231SOL     OW30151   3.065   1.045   3.969 -0.5606 -0.1038  0.0896
 6231SOL    HW130152   2.996   0.996   4.014  0.1124  0.8193  2.1112
 6231SOL    HW230153   3.020   1.129   3.966 -0.7117 -0.2727 -2.9332
 6232SOL     OW30154   4.560   0.238   6.333  0.5024  0.4211  0.3970
 6232SOL    HW130155   4.637   0.215   6.281 -0.3304 -0.6700 -0.3497
 6232SOL    HW230156   4.563   0.333   6.326 -0.0113  0.5444  1.8173
 6233SOL     OW30157   2.034   3.250   1.990 -0.0028  0.2116  0.6165
 6233SOL    HW130158   2.031   3.330   2.042 -1.5054  0.9725 -0.6455
 6233SOL    HW230159   2.016   3.292   1.906  0.0089 -0.4139  0.3012
 6234SOL     OW30160   2.081   0.972  15.058 -0.4031  0.4957  0.6313
 6234SOL    HW130161   2.060   1.066  15.054  0.3847  0.6275 -0.5133
 6234SOL    HW230162   2.168   0.971  15.018 -0.6215 -0.3093  0.1712
 6235SOL     OW30163   1.359   3.012   3.848 -0.1106  0.6302  0.6501
 6235SOL    HW130164   1.381   3.027   3.940  2.4246  0.9907 -0.0170
 6235SOL    HW230165   1.390   3.091   3.805  1.9330 -0.0204  0.9441
 6236SOL     OW30166   2.152   2.217   6.106 -0.1767 -0.7961 -0.1645
 6236SOL    HW130167   2.090   2.272   6.153  1.3279  3.0521 -2.6719
 6236SOL    HW230168   2.186   2.164   6.179  0.1211 -2.5190 -1.5438
 6237SOL     OW30169   0.094   3.675  13.556  0.7048 -0.6492 -0.4285
 6237SOL    HW130170   0.158   3.743  13.576 -0.7053  1.0163 -1.5985
 6237SOL    HW230171   0.061   3.646  13.641 -3.9431  1.8886 -1.3614
 6238SOL     OW30172   4.322   0.683   7.712 -0.1777 -0.2826 -0.0803
 6238SOL    HW130173   4.284   0.624   7.647 -2.8423  0.1311  1.1291
 6238SOL    HW230174   4.256   0.751   7.724  1.1356  0.7950  1.1695
 6239SOL     OW30175   1.020   3.958   6.021 -0.1661 -0.2100 -0.6273
 6239SOL    HW130176   1.020   4.045   6.063  0.8777 -1.3474  1.6968
 6239SOL    HW230177   0.949   3.976   5.959  1.2452  1.3001 -1.8279
 6240SOL     OW30178   0.930   2.741   1.982  0.2210  0.3624 -0.5313
 6240SOL    HW130179   1.007   2.726   1.927  1.0007  0.8112  0.4519
 6240SOL    HW230180   0.890   2.814   1.933 -1.2932  0.2362  0.5232
 6241SOL     OW30181   0.181   4.296   6.785  0.4490 -0.3957 -0.2127
 6241SOL    HW130182   0.249   4.286   6.852  0.2850 -1.0218 -0.1378
 6241SOL    HW230183   0.174   4.206   6.754 -1.8256 -0.3996  0.3047
 6242SOL     OW30184   3.130   0.389   2.032  0.2961 -0.4196  0.1986
 6242SOL    HW130185   3.156   0.476   2.062 -0.3705 -0.5612  1.2079
 6242SOL    HW230186   3.062   0.408   1.967  2.7141  2.1464 -1.5397
 6243SOL     OW30187   3.270   1.758  12.457  0.3647  0.7710 -0.5565
 6243SOL    HW130188   3.347   1.705  12.480  0.8737  1.2742 -1.0985
 6243SOL    HW230189   3.254   1.809  12.536 -1.4560 -0.3468 -0.1972
 6244SOL     OW30190   2.691   4.530   0.221  0.6452 -0.7173  0.3451
 6244SOL    HW130191   2.641   4.604   0.190 -0.6375 -1.4902  0.5771
 6244SOL    HW230192   2.777   4.568   0.205  0.4242 -0.3340  0.0763
 6245SOL     OW30193   2.812   0.753   4.969  0.2648 -0.0731 -0.0038
 6245SOL    HW130194   2.758   0.716   5.039  1.8798 -1.1229  0.6793
 6245SOL    HW230195   2.762   0.724   4.892 -2.5017 -3.5554  3.0699
 6246SOL     OW30196   0.524   1.465   9.058 -0.2656 -0.1563 -0.2547
 6246SOL    HW130197   0.575   1.449   8.979  0.8554 -2.0019  0.8529
 6246SOL    HW230198   0.471   1.535   9.020 -1.5607 -0.7088  0.5413
 6247SOL     OW30199   1.676   0.093   0.390 -0.0068 -0.2880  0.3277
 6247SOL    HW130200   1.658   0.181   0.424  0.3877 -0.1543  0.1951
 6247SOL    HW230201   1.701   0.127   0.304 -0.5275 -2.8399 -0.8043
 6248SOL     OW30202   3.601   2.351   4.945  0.1633  0.2434 -0.3924
 6248SOL    HW130203   3.569   2.371   5.033 -1.2280  1.0483 -1.0829
 6248SOL    HW230204   3.695   2.332   4.948  0.3477  0.6836 -2.7826
 6249SOL     OW30205   1.215   0.725   1.410 -0.2727  0.2640  0.0335
 6249SOL    HW130206   1.137   0.697   1.458 -0.9004  1.5047 -0.2359
 6249SOL    HW230207   1.241   0.797   1.469  3.5812  0.5419 -2.0021
 6250SOL     OW30208   1.643   1.920  11.834 -0.3446  0.4624  0.3761
 6250SOL    HW130209   1.567   1.934  11.777 -0.4853  0.9653  0.6827
 6250SOL    HW230210   1.616   1.966  11.913  3.0768  0.1794  1.7153
 6251SOL     OW30211   3.478   1.731   8.854 -0.5510 -0.1651 -0.2047
 6251SOL    HW130212   3.439   1.649   8.884 -3.0657  0.8990 -0.6356
 6251SOL    HW230213   3.519   1.707   8.771  1.4345 -1.4298  1.1403
 6252SOL     OW30214   1.299   2.112   2.575 -0.5814  0.3135 -0.9890
 6252SOL    HW130215   1.301   2.202   2.608  4.1497 -0.2774  0.2488
 6252SOL    HW230216   1.373   2.077   2.625  0.1978 -0.2036 -2.5067
 6253SOL     OW30217   0.588   2.321   1.937  0.4556  0.1289  0.2865
 6253SOL    HW130218   0.600   2.313   2.031 -1.8094 -1.9622  0.4098
 6253SOL    HW230219   0.618   2.235   1.907  0.3168  0.1990 -0.0612
 6254SOL     OW30220   1.889   2.631  10.510  0.2835  0.6931  0.0188
 6254SOL    HW130221   1.894   2.541  10.541  1.6610  1.3933  1.8067
 6254SOL    HW230222   1.957   2.626  10.443 -0.0141  1.5443 -0.3412
 6255SOL     OW30223   0.780   2.677  16.842 -0.0073 -0.4863 -0.0229
 6255SOL    HW130224   0.845   2.651  16.777  1.6897  2.2249  0.6162
 6255SOL    HW230225   0.759   2.593  16.882 -1.5397  0.2512  0.7260
 6256SOL     OW30226   1.181   0.501   3.762 -0.2045  0.1306 -0.1800
 6256SOL    HW130227   1.098   0.468   3.796 -0.4679  0.4659 -0.4886
 6256SOL    HW230228   1.249   0.459   3.814 -1.1924 -0.6603  0.4727
 6257SOL     OW30229   3.943   3.915  15.567  0.0372 -0.4413 -0.0097
 6257SOL    HW130230   4.026   3.961  15.579  0.3770 -0.3526 -2.7085
 6257SOL    HW230231   3.888   3.985  15.532  0.4011  0.1530  0.6051
 6258SOL     OW30232   3.719   1.282   1.405 -0.1642 -0.3322 -0.3407
 6258SOL    HW130233   3.694   1.374   1.400 -0.3531 -0.3934 -0.5055
 6258SOL    HW230234   3.780   1.275   1.331 -1.1041  1.9961 -1.3223
 6259SOL     OW30235   1.968   3.786   4.197 -0.3547 -0.5729  0.3446
 6259SOL    HW130236   2.036   3.760   4.134 -0.0890  0.4801  0.1996
 6259SOL    HW230237   2.018   3.858   4.235  0.0798 -0.4765 -0.4130
 6260SOL     OW30238   3.174   0.059   9.826  0.2063 -0.1257 -0.4281
 6260SOL    HW130239   3.220   0.099   9.899 -0.3590 -1.0069  0.4143
 6260SOL    HW230240   3.253   0.023   9.784 -0.4584 -1.2509 -0.7127
 6261SOL     OW30241   0.503   3.316   5.806  0.1965 -0.0740 -0.6715
 6261SOL    HW130242   0.577   3.375   5.824 -0.7679  1.8025 -2.7950
 6261SOL    HW230243   0.487   3.279   5.892  1.9118  0.3046 -0.1774
 6262SOL     OW30244   4.062   3.293  16.728 -0.7826  0.5891  0.1180
 6262SOL    HW130245   4.080   3.262  16.639 -1.0608  2.5717 -0.6203
 6262SOL    HW230246   4.077   3.206  16.765 -2.3319  0.4856  0.4916
 6263SOL     OW30247   2.113   3.263  15.274 -0.5492  0.1499  0.7380
 6263SOL    HW130248   2.195   3.246  15.321 -0.3836  2.3779  1.2513
 6263SOL    HW230249   2.110   3.358  15.267  1.6387 -0.0045 -2.2450
 6264SOL     OW30250   0.787   4.480   9.547 -0.7200  0.0033 -0.5240
 6264SOL    HW130251   0.840   4.515   9.619 -1.2310  0.0160 -0.1532
 6264SOL    HW230252   0.799   4.385   9.551  2.2482  0.4743  1.6810
 6265SOL     OW30253   0.208   0.427   2.127 -0.0737 -0.0708 -0.0851
 6265SOL    HW130254   0.195   0.410   2.220  2.8655 -2.8254 -0.1933
 6265SOL    HW230255   0.302   0.411   2.120  0.0685  0.2348  1.1057
 6266SOL     OW30256   4.155   2.752   5.263 -0.3804 -0.7332 -0.5375
 6266SOL    HW130257   4.228   2.690   5.267 -0.9623 -1.5721 -2.9381
 6266SOL    HW230258   4.106   2.741   5.344  2.2697  1.7337  1.4158
 6267SOL     OW30259   4.545   3.557   3.789 -0.1521 -0.1826  0.4032
 6267SOL    HW130260   4.630   3.597   3.768  1.2531 -2.3041  1.9505
 6267SOL    HW230261   4.485   3.625   3.821  0.0309  0.7145 -1.1537
 6268SOL     OW30262   0.325   3.909   8.037  0.0422 -0.1976 -0.8058
 6268SOL    HW130263   0.231   3.923   8.034  0.1348  0.4066 -0.8680
 6268SOL    HW230264   0.350   3.918   7.944 -3.6900 -0.7845 -1.8519
 6269SOL     OW30265   4.544   2.833   0.226  0.4960  0.0235 -0.0407
 6269SOL    HW130266   4.557   2.765   0.291 -0.6517 -0.1498  0.0075
 6269SOL    HW230267   4.450   2.847   0.237  0.5818  1.4609 -1.1584
 6270SOL     OW30268   0.741   1.176  17.365 -0.1546  0.7056  0.4176
 6270SOL    HW130269   0.810   1.179  17.431 -1.3558  0.5289  1.6879
 6270SOL    HW230270   0.692   1.099  17.395  1.6098 -0.4596  0.2693
 6271SOL     OW30271   1.825   1.191   9.471  0.2145  0.3566  0.1268
 6271SOL    HW130272   1.778   1.254   9.524 -2.3297  1.1580 -3.0796
 6271SOL    HW230273   1.914   1.188   9.505  0.2330  0.3397  0.0775
 6272SOL     OW30274   1.998   2.684   2.608  0.2589 -0.5386  0.8499
 6272SOL    HW130275   1.936   2.755   2.592  0.3942 -1.1947 -2.6366
 6272SOL    HW230276   2.072   2.744   2.611  0.9865 -1.3336 -1.3051
 6273SOL     OW30277   2.681   4.103   5.289  0.4768 -0.2028 -0.2324
 6273SOL    HW130278   2.609   4.148   5.243  1.3002  0.4894 -0.8486
 6273SOL    HW230279   2.633   4.026   5.317  0.6071  0.1840  1.0435
 6274SOL     OW30280   1.630   1.900   8.186 -0.1602  0.3395  0.2156
 6274SOL    HW130281   1.686   1.973   8.214  0.5573  0.1036 -0.6289
 6274SOL    HW230282   1.600   1.870   8.272  1.6376  3.0135  1.7671
 6275SOL     OW30283   0.707   2.787   3.777  0.1536 -0.5070  0.1131
 6275SOL    HW130284   0.729   2.850   3.845 -1.3042 -0.3329  0.4104
 6275SOL    HW230285   0.667   2.712   3.820  0.2568 -0.5339  0.1609
 6276SOL     OW30286   1.034   3.880   4.306  0.1577  0.2944  0.1674
 6276SOL    HW130287   0.967   3.947   4.289  0.8436  1.1940  0.9628
 6276SOL    HW230288   1.020   3.814   4.238 -1.9094  0.7617  0.1458
 6277SOL     OW30289   4.018   3.620   1.465  0.2844  0.0631  0.3457
 6277SOL    HW130290   4.051   3.533   1.443  1.7956  0.3418  1.5321
 6277SOL    HW230291   3.923   3.612   1.459  0.4229 -1.7253  0.4329
 6278SOL     OW30292   3.102   4.300   6.402 -0.6454  0.6913 -0.6752
 6278SOL    HW130293   3.090   4.391   6.429 -3.0915  0.1189  0.2204
 6278SOL    HW230294   3.016   4.281   6.364  0.1117 -4.1969  0.1347
 6279SOL     OW30295   1.665   0.818   2.634 -1.0033  0.2913  0.6468
 6279SOL    HW130296   1.637   0.907   2.654 -1.2599  0.0396  1.4244
 6279SOL    HW230297   1.644   0.815   2.541 -0.0214  1.4948  0.3877
 6280SOL     OW30298   3.543   4.014   6.669  0.2157  0.2941 -0.2614
 6280SOL    HW130299   3.486   4.077   6.626  1.4508  1.4883 -0.1268
 6280SOL    HW230300   3.497   3.995   6.751 -0.8851 -2.2260 -1.4525
 6281SOL     OW30301   4.561   0.609   3.253 -0.2653  0.4120 -0.5265
 6281SOL    HW130302   4.535   0.518   3.239 -0.9084  0.7320 -1.3945
 6281SOL    HW230303   4.493   0.649   3.308 -1.8210 -0.0599 -2.0978
 6282SOL     OW30304   1.737   1.892  16.436 -0.1641 -0.0405 -0.0436
 6282SOL    HW130305   1.689   1.925  16.512 -1.7712 -0.2533 -0.9524
 6282SOL    HW230306   1.686   1.811  16.425  2.4788 -1.5488 -1.1137
 6283SOL     OW30307   4.659   2.309  11.495 -0.4579  0.4640 -0.2425
 6283SOL    HW130308   4.708   2.237  11.534  0.4419  1.5661  0.6301
 6283SOL    HW230309   4.714   2.385  11.514 -0.1999 -0.4807  2.7662
 6284SOL     OW30310   2.363   2.129   6.298  0.1457  0.1629 -0.2544
 6284SOL    HW130311   2.454   2.110   6.276 -0.2692 -1.5375 -0.5041
 6284SOL    HW230312   2.331   2.045   6.266 -1.2070  1.0388 -1.2249
 6285SOL     OW30313   0.131   0.157  11.021 -0.1725  0.4389  0.0382
 6285SOL    HW130314   0.115   0.216  11.095 -0.1946 -1.4082  1.4956
 6285SOL    HW230315   0.216   0.120  11.043 -0.8786  0.2847  2.5006
 6286SOL     OW30316   1.181   2.137   7.446 -0.2913 -0.1703 -0.0994
 6286SOL    HW130317   1.144   2.103   7.527 -1.3690  0.7930 -0.1823
 6286SOL    HW230318   1.257   2.170   7.492  0.7288  0.1918 -2.0285
 6287SOL     OW30319   1.245   1.921  15.426  0.2013  0.5349  0.3830
 6287SOL    HW130320   1.221   1.925  15.333  0.1605  2.3306  0.4804
 6287SOL    HW230321   1.261   2.013  15.444 -0.3833  0.6565  0.2586
 6288SOL     OW30322   2.371   4.667   2.501 -0.2418 -0.3845 -0.2937
 6288SOL    HW130323   2.426   4.661   2.423 -0.8883  0.3513 -0.8104
 6288SOL    HW230324   2.413   4.601   2.556 -0.0337  0.2971  0.3671
 6289SOL     OW30325   3.673   1.506   6.082  0.2294 -0.0987 -0.1369
 6289SOL    HW130326   3.713   1.584   6.119  0.0916 -0.9478  1.8303
 6289SOL    HW230327   3.623   1.531   6.004 -0.5669 -1.1008  0.0517
 6290SOL     OW30328   1.937   2.374   9.712 -0.1127 -0.3174  0.0023
 6290SOL    HW130329   2.010   2.313   9.705  1.2515  1.3435 -0.0503
 6290SOL    HW230330   1.911   2.367   9.620  0.1876  0.5637 -0.1477
 6291SOL     OW30331   3.494   1.418   9.922 -0.0198  0.2152  0.5317
 6291SOL    HW130332   3.522   1.501   9.962 -4.4992  2.2124 -0.4962
 6291SOL    HW230333   3.535   1.352   9.978 -1.4373 -0.5446  0.6703
 6292SOL     OW30334   0.097   3.942   2.614  0.1019 -0.6065 -0.1639
 6292SOL    HW130335   0.011   3.904   2.633 -1.1441  3.0893  1.5259
 6292SOL    HW230336   0.135   3.953   2.701  1.2393 -1.0706 -0.5989
 6293SOL     OW30337   1.937   1.755   5.645 -0.1429  0.3965  0.1197
 6293SOL    HW130338   2.009   1.742   5.584 -0.7032 -0.2210 -0.4055
 6293SOL    HW230339   1.907   1.666   5.666  1.3991 -0.0051  0.6454
 6294SOL     OW30340   0.589   2.694   5.592  0.0092 -0.3818  0.2046
 6294SOL    HW130341   0.679   2.721   5.610  0.4289 -1.3003 -0.4965
 6294SOL    HW230342   0.553   2.702   5.681 -2.8160  1.1993 -1.0872
 6295SOL     OW30343   3.994   3.976   2.282 -0.0857 -0.0405 -0.1351
 6295SOL    HW130344   3.958   4.063   2.293  0.6519  0.3073 -0.4589
 6295SOL    HW230345   3.954   3.958   2.196 -1.8013 -2.4526  1.1743
 6296SOL     OW30346   3.095   3.006  13.652 -0.1802  0.8138  0.0260
 6296SOL    HW130347   3.035   2.939  13.686 -0.2226  1.8826  2.0432
 6296SOL    HW230348   3.176   2.954  13.657 -0.3191  0.7439  1.6739
 6297SOL     OW30349   2.721   2.604   7.347 -0.3562  0.0604  0.0923
 6297SOL    HW130350   2.811   2.638   7.349 -0.3030 -0.0664 -0.1736
 6297SOL    HW230351   2.743   2.520   7.389 -0.6915 -0.4308 -0.7237
 6298SOL     OW30352   3.558   3.322   5.902  0.0977  0.2052 -0.3513
 6298SOL    HW130353   3.504   3.371   5.965  0.7918  0.2219  0.2231
 6298SOL    HW230354   3.637   3.305   5.952  0.0578  1.5601  0.1785
 6299SOL     OW30355   3.847   4.675  16.816  0.1365 -0.5451 -0.1269
 6299SOL    HW130356   3.804   4.653  16.734 -0.0792  0.4958 -0.2930
 6299SOL    HW230357   3.770   4.689  16.872 -0.5771 -1.7242 -0.8243
 6300SOL     OW30358   1.475   1.573   6.511  0.0285  0.7343  0.5140
 6300SOL    HW130359   1.395   1.592   6.462  0.1610 -1.4168 -0.5030
 6300SOL    HW230360   1.445   1.523   6.587 -0.4173  0.1639 -0.0388
 6301SOL     OW30361   0.590   0.975   0.546 -0.7024  0.0868  0.1192
 6301SOL    HW130362   0.570   0.888   0.513 -1.0773  0.1124  0.2705
 6301SOL    HW230363   0.660   1.000   0.486 -0.1406  0.4726  0.9219
 6302SOL     OW30364   1.997   2.594   3.158 -0.2529 -0.1148  0.4725
 6302SOL    HW130365   1.993   2.515   3.104  1.3653  1.7751 -2.4179
 6302SOL    HW230366   1.904   2.610   3.176 -0.4592  0.7107 -1.3990
 6303SOL     OW30367   3.850   3.287  14.427 -0.1727  0.0126  0.0523
 6303SOL    HW130368   3.766   3.307  14.469 -0.6843  0.2757 -1.0787
 6303SOL    HW230369   3.826   3.224  14.359  0.2242  0.7477 -0.7633
 6304SOL     OW30370   1.940   0.019   9.479 -0.4526  0.2568  0.2457
 6304SOL    HW130371   2.013   0.075   9.505 -0.7046  0.7482 -0.0966
 6304SOL    HW230372   1.988   4.697   9.408  0.9363 -1.2018  2.0319
 6305SOL     OW30373   3.489   1.792  10.860  0.6082  0.6813 -0.3533
 6305SOL    HW130374   3.434   1.861  10.823 -0.0591 -0.5002 -1.5333
 6305SOL    HW230375   3.441   1.720  10.820 -0.6638  0.6327  1.2729
 6306SOL     OW30376   4.168   0.463  16.492  0.0711  0.1737 -0.1362
 6306SOL    HW130377   4.090   0.455  16.547 -0.5760  0.1641 -1.0333
 6306SOL    HW230378   4.216   0.391  16.533 -1.3198 -0.1646  0.8834
 6307SOL     OW30379   2.805   1.935  11.555  0.7559 -0.3977  0.3488
 6307SOL    HW130380   2.789   1.874  11.483 -0.3542  1.6308 -1.1142
 6307SOL    HW230381   2.861   1.997  11.508 -1.0498  1.9760  1.3214
 6308SOL     OW30382   2.884   1.957   7.379 -0.0865 -0.3241  0.3855
 6308SOL    HW130383   2.883   1.864   7.358  2.4010 -0.2268 -0.1155
 6308SOL    HW230384   2.950   1.949   7.448  0.1748  1.1991  0.3055
 6309SOL     OW30385   1.720   3.833   0.037  0.3831 -0.2462 -0.5328
 6309SOL    HW130386   1.770   3.798   0.111 -0.1765  0.5757  0.2389
 6309SOL    HW230387   1.738   3.759  17.661  2.4250 -2.1131  2.4686
 6310SOL     OW30388   4.314   0.643   6.294 -0.1026 -0.5308 -1.0647
 6310SOL    HW130389   4.274   0.690   6.367 -0.2221  1.2506 -2.2618
 6310SOL    HW230390   4.345   0.718   6.242 -2.5918  2.0148  1.0778
 6311SOL     OW30391   0.139   3.371   0.576  0.2697 -0.2042  0.2065
 6311SOL    HW130392   0.072   3.434   0.601 -1.1138 -1.3378 -0.6023
 6311SOL    HW230393   0.164   3.382   0.484  0.8453 -2.2006  0.1141
 6312SOL     OW30394   2.560   2.028   2.216 -0.2321 -0.6357 -0.6940
 6312SOL    HW130395   2.595   2.022   2.304 -1.9958 -1.8146 -0.0769
 6312SOL    HW230396   2.542   1.938   2.188  0.7581 -1.1850  0.4647
 6313SOL     OW30397   2.751   0.795   7.825  0.6985 -0.0330  0.0276
 6313SOL    HW130398   2.846   0.794   7.840  0.4656  1.2995  1.5912
 6313SOL    HW230399   2.722   0.850   7.898  0.8115  0.3537 -0.2241
 6314SOL     OW30400   2.105   2.386   7.002 -0.0500  0.0187 -0.7506
 6314SOL    HW130401   2.193   2.352   6.986 -0.2350 -0.3187 -1.0470
 6314SOL    HW230402   2.137   2.475   7.018  0.4412 -0.1016 -1.0838
 6315SOL     OW30403   1.999   2.682   5.514  0.6405 -0.2370 -0.2879
 6315SOL    HW130404   1.984   2.692   5.420 -1.4341 -1.1208 -0.0450
 6315SOL    HW230405   1.996   2.586   5.517  1.1940 -0.2374  0.3278
 6316SOL     OW30406   4.367   4.120   8.209  0.1180 -0.4792  0.0338
 6316SOL    HW130407   4.385   4.190   8.147 -1.3594 -1.5781 -1.6241
 6316SOL    HW230408   4.449   4.071   8.207 -0.2721 -1.1024 -0.6433
 6317SOL     OW30409   2.602   1.575   1.979  0.4454  0.0665  0.5224
 6317SOL    HW130410   2.682   1.594   2.028  0.1433  0.3966  0.8915
 6317SOL    HW230411   2.536   1.618   2.034 -0.3160 -0.7881  0.2794
 6318SOL     OW30412   2.654   2.845   3.202  0.1595  0.1159  0.6572
 6318SOL    HW130413   2.565   2.869   3.179  0.5432 -0.6300 -1.5981
 6318SOL    HW230414   2.677   2.777   3.138 -0.5610 -1.2784  1.8829
 6319SOL     OW30415   3.260   3.995   3.709 -0.7428 -0.3415  0.1422
 6319SOL    HW130416   3.259   3.977   3.615 -0.7100  2.4688 -0.4034
 6319SOL    HW230417   3.291   4.086   3.713  0.8449 -0.9197  0.9015
 6320SOL     OW30418   2.947   3.289   9.955 -0.1177  0.0814 -0.0010
 6320SOL    HW130419   2.981   3.223   9.895  0.6572 -1.5146  2.1739
 6320SOL    HW230420   2.985   3.267  10.040 -2.2220 -1.4482  0.5245
 6321SOL     OW30421   0.541   1.360   3.855  0.4450  0.4179 -0.6913
 6321SOL    HW130422   0.570   1.438   3.807  2.0180  1.0993  1.3844
 6321SOL    HW230423   0.626   1.320   3.876 -1.9948 -3.7027  1.1606
 6322SOL     OW30424   1.745   2.045   3.434 -0.2177 -0.5822  0.2923
 6322SOL    HW130425   1.657   2.022   3.402  0.2558 -3.0981  0.7306
 6322SOL    HW230426   1.733   2.022   3.527  1.3176 -0.0202  0.6333
 6323SOL     OW30427   0.311   1.289   9.172 -0.2721 -0.0279  0.5376
 6323SOL    HW130428   0.401   1.309   9.145  0.6797 -2.9300  1.5564
 6323SOL    HW230429   0.299   1.214   9.114  0.8272 -0.0444  0.3358
 6324SOL     OW30430   0.224   0.519   5.026 -0.3753 -0.1245  0.3497
 6324SOL    HW130431   0.202   0.489   4.938 -2.4458  2.4110  0.0070
 6324SOL    HW230432   0.270   0.441   5.057 -0.1658  0.8895  2.5821
 6325SOL     OW30433   1.513   1.791  11.263 -0.2670  0.2074  0.0143
 6325SOL    HW130434   1.477   1.789  11.174 -0.2107 -0.9610  0.0197
 6325SOL    HW230435   1.605   1.791  11.239  0.1372  2.3764  1.5948
 6326SOL     OW30436   0.408   3.434   0.430  0.3079 -0.2786 -0.1754
 6326SOL    HW130437   0.400   3.364   0.365  1.4603 -0.7152  0.1496
 6326SOL    HW230438   0.446   3.395   0.509  0.9667  2.0647  0.6568
 6327SOL     OW30439   2.555   4.159   0.512  0.1646  0.5824  0.1443
 6327SOL    HW130440   2.548   4.087   0.450  1.1358 -0.6178  1.4327
 6327SOL    HW230441   2.559   4.234   0.452  1.2968  0.9448  0.6844
 6328SOL     OW30442   0.559   2.658   9.580 -0.3219 -0.2074  0.4141
 6328SOL    HW130443   0.644   2.686   9.614 -0.7347 -0.4966  1.7113
 6328SOL    HW230444   0.539   2.598   9.653 -2.1344 -1.2941 -0.9832
 6329SOL     OW30445   0.246   4.378   3.679 -0.9912 -0.8125 -0.5497
 6329SOL    HW130446   0.238   4.336   3.765 -0.4269  1.7864  0.7889
 6329SOL    HW230447   0.206   4.462   3.703  1.3669 -0.0872  0.9156
 6330SOL     OW30448   1.964   3.188  10.397  0.0567  0.2806  0.2069
 6330SOL    HW130449   1.892   3.125  10.402  0.3085 -0.2928 -2.9351
 6330SOL    HW230450   1.955   3.220  10.486 -3.3756 -1.2498  0.4283
 6331SOL     OW30451   4.374   3.579  15.818  0.1793 -0.3312  0.3693
 6331SOL    HW130452   4.329   3.617  15.893 -2.1315 -1.8053 -0.3012
 6331SOL    HW230453   4.357   3.655  15.762 -1.2119 -0.5752  0.4737
 6332SOL     OW30454   0.474   3.486  16.911 -0.3071  0.4941  0.0221
 6332SOL    HW130455   0.425   3.428  16.969 -0.9830  1.1452  0.1030
 6332SOL    HW230456   0.455   3.452  16.823 -2.6351  0.3486  0.5630
 6333SOL     OW30457   1.870   1.233   3.344  0.1545  0.4582  0.4390
 6333SOL    HW130458   1.935   1.247   3.275 -0.3264 -2.1166 -0.5435
 6333SOL    HW230459   1.920   1.236   3.425 -0.4370  1.5948  0.7704
 6334SOL     OW30460   1.751   2.270   7.042 -0.4038  0.2244 -0.7291
 6334SOL    HW130461   1.657   2.261   7.026 -0.6733  1.0738  0.4252
 6334SOL    HW230462   1.759   2.264   7.138  0.6148  2.0962 -0.7051
 6335SOL     OW30463   0.650   2.836   4.952 -0.0300  0.2062 -0.0383
 6335SOL    HW130464   0.613   2.821   5.038 -0.4466 -3.8624 -0.9662
 6335SOL    HW230465   0.696   2.917   4.979 -0.5755  0.1176  1.1447
 6336SOL     OW30466   1.626   4.605   6.949  0.0290  0.1236  0.5417
 6336SOL    HW130467   1.648   4.655   6.870 -1.6367  0.4827  0.3146
 6336SOL    HW230468   1.656   4.667   7.016 -0.5746  2.5046 -1.3552
 6337SOL     OW30469   3.812   3.738   5.444 -0.0821  0.0018  0.1972
 6337SOL    HW130470   3.895   3.706   5.407  0.0209  2.7308 -1.9075
 6337SOL    HW230471   3.791   3.667   5.504  0.6723  0.3478  0.8713
 6338SOL     OW30472   4.640   4.454   2.719  0.0402  0.2118  0.2955
 6338SOL    HW130473   4.607   4.364   2.721 -0.4766  0.4219  0.9817
 6338SOL    HW230474   0.013   4.441   2.737 -0.4539 -1.1667  1.8528
 6339SOL     OW30475   3.499   2.232  15.337 -0.1610  0.1241 -0.1615
 6339SOL    HW130476   3.536   2.144  15.344 -1.4818 -0.2268  2.3029
 6339SOL    HW230477   3.572   2.294  15.333 -0.3187  0.3472  0.4458
 6340SOL     OW30478   1.617   1.568   5.319 -0.4502  0.0725  0.3575
 6340SOL    HW130479   1.607   1.602   5.408  0.8381  0.0074  0.5274
 6340SOL    HW230480   1.615   1.647   5.264 -1.2415  0.4432  0.9113
 6341SOL     OW30481   0.694   4.154   1.948  0.2341  0.1744  0.2988
 6341SOL    HW130482   0.715   4.223   1.885  0.5280  0.6563  0.9289
 6341SOL    HW230483   0.620   4.114   1.902  0.7087  1.3394 -1.4660
 6342SOL     OW30484   1.651   2.342   6.157 -0.3054 -0.2907  0.3218
 6342SOL    HW130485   1.631   2.288   6.082  1.0628 -0.9430  0.4272
 6342SOL    HW230486   1.625   2.290   6.233 -0.3855 -2.0133 -0.8940
 6343SOL     OW30487   3.874   0.050   0.393 -0.5790 -0.4098  0.2874
 6343SOL    HW130488   3.922   0.049   0.476 -1.1890  3.2094  0.6777
 6343SOL    HW230489   3.944   0.065   0.329 -2.1273  1.5050 -0.9934
 6344SOL     OW30490   2.750   2.802   5.165 -1.0335 -0.1945 -0.1147
 6344SOL    HW130491   2.803   2.837   5.094 -0.8704  0.1059  0.1551
 6344SOL    HW230492   2.700   2.879   5.193 -2.6657 -0.9754 -0.8670
 6345SOL     OW30493   4.239   2.104  14.172 -0.2666  0.4353 -0.2185
 6345SOL    HW130494   4.268   2.088  14.262 -1.8545 -3.1287 -0.3094
 6345SOL    HW230495   4.297   2.178  14.154  0.9174 -0.5492 -0.5200
 6346SOL     OW30496   1.931   0.827   4.863 -0.1038 -0.0172  0.3539
 6346SOL    HW130497   1.840   0.806   4.887  0.1483  0.0632  1.3618
 6346SOL    HW230498   1.972   0.752   4.906 -0.4607  0.2464  1.1572
 6347SOL     OW30499   1.492   3.953   0.058 -0.6887 -0.0055  0.0790
 6347SOL    HW130500   1.581   3.918   0.065 -0.0158  1.4605 -1.0710
 6347SOL    HW230501   1.511   4.046   0.064  1.2648 -0.7056  4.0723
 6348SOL     OW30502   0.862   0.528   6.143  0.4097 -0.1991  0.0407
 6348SOL    HW130503   0.924   0.463   6.177  0.7949  1.1362  1.9087
 6348SOL    HW230504   0.833   0.475   6.068 -0.6466 -1.8013  1.5672
 6349SOL     OW30505   0.226   1.962   8.467  0.1226  0.0040  0.0088
 6349SOL    HW130506   0.321   1.951   8.474  0.6379  3.7632 -1.3749
 6349SOL    HW230507   0.213   2.030   8.534  2.1752  1.3026 -0.9234
 6350SOL     OW30508   4.014   1.212  14.996 -0.3376  0.0328  0.4806
 6350SOL    HW130509   3.972   1.272  15.058 -0.2635  1.2560 -0.6506
 6350SOL    HW230510   4.084   1.261  14.954 -1.8100  0.6257 -1.3072
 6351SOL     OW30511   2.843   1.071   0.667  0.7323  0.6333 -0.1728
 6351SOL    HW130512   2.808   0.997   0.716 -0.5002  2.6493  1.9671
 6351SOL    HW230513   2.780   1.082   0.596  0.8427  2.4943  0.0272
 6352SOL     OW30514   3.475   1.775   0.669 -0.0666  0.3483  0.4040
 6352SOL    HW130515   3.504   1.835   0.738  1.8871 -0.4153  0.2358
 6352SOL    HW230516   3.379   1.781   0.664 -0.2799 -2.6563  0.4640
 6353SOL     OW30517   4.279   0.474   2.885 -0.4464  0.2013 -0.3987
 6353SOL    HW130518   4.344   0.421   2.839 -2.2888 -2.2991 -0.1345
 6353SOL    HW230519   4.263   0.422   2.965 -1.5115  0.9336 -0.1398
 6354SOL     OW30520   2.723   2.734   1.526  0.0530  0.6692 -0.0345
 6354SOL    HW130521   2.646   2.780   1.560  0.1599  0.6542  0.2212
 6354SOL    HW230522   2.705   2.744   1.432 -1.9445 -1.2614  0.1524
 6355SOL     OW30523   3.237   2.804   5.673  0.2024 -0.0631 -0.0780
 6355SOL    HW130524   3.229   2.856   5.593  1.4011  0.1651 -0.0537
 6355SOL    HW230525   3.149   2.819   5.707  0.0793 -1.3556  0.1715
 6356SOL     OW30526   3.419   1.348   4.381  0.3459 -0.4184 -0.6056
 6356SOL    HW130527   3.461   1.428   4.348 -0.2975 -0.3059 -1.1504
 6356SOL    HW230528   3.384   1.376   4.466 -0.8270 -0.6045 -1.0235
 6357SOL     OW30529   2.795   0.744  10.958 -0.4838  0.1470  0.5521
 6357SOL    HW130530   2.711   0.757  11.003 -1.1515  0.2140 -0.7069
 6357SOL    HW230531   2.849   0.818  10.983 -0.2558 -0.1296  0.8869
 6358SOL     OW30532   4.033   4.621   5.250  0.0910 -0.0127 -0.0064
 6358SOL    HW130533   4.044   4.527   5.238 -0.9521 -0.5050  2.8214
 6358SOL    HW230534   4.040   4.646   5.158 -0.3359  0.3713  0.0634
 6359SOL     OW30535   2.154   4.572   6.156  0.4202 -0.0233 -0.0333
 6359SOL    HW130536   2.074   4.537   6.117  1.4999 -2.9286  0.2777
 6359SOL    HW230537   2.214   4.504   6.122 -0.4366 -0.5087 -0.5728
 6360SOL     OW30538   4.438   1.857  12.882  0.2768 -0.2009  0.2286
 6360SOL    HW130539   4.358   1.810  12.903 -0.7083  1.7749  0.9178
 6360SOL    HW230540   4.460   1.825  12.795  2.3813 -1.1466  1.1086
 6361SOL     OW30541   2.771   1.819   3.687  0.0057  0.2259 -0.0430
 6361SOL    HW130542   2.865   1.803   3.683  0.0996  0.2643  2.0861
 6361SOL    HW230543   2.748   1.730   3.715  3.8491 -0.3291  1.3475
 6362SOL     OW30544   0.092   3.272   7.006 -0.2449  0.0163  0.1035
 6362SOL    HW130545   0.021   3.207   6.999 -0.1641 -0.0166 -0.4285
 6362SOL    HW230546   0.067   3.338   6.941 -0.4912 -0.4566 -0.2807
 6363SOL     OW30547   1.470   4.671   7.253  0.1027  0.4975  0.3189
 6363SOL    HW130548   1.492   4.709   7.338 -0.6918  1.4395  0.1057
 6363SOL    HW230549   1.551   4.690   7.206  0.0424  1.4725  0.6085
 6364SOL     OW30550   1.514   2.235   6.717 -0.0319 -0.3408  0.1925
 6364SOL    HW130551   1.461   2.189   6.651 -0.3546  0.0471  0.1775
 6364SOL    HW230552   1.456   2.243   6.793 -0.9612  1.2775 -0.6947
 6365SOL     OW30553   2.347   1.050   8.566 -0.8262 -0.1553 -0.7077
 6365SOL    HW130554   2.341   1.114   8.637  1.9019 -1.1283  0.3721
 6365SOL    HW230555   2.439   1.024   8.571 -0.0596  2.1971 -2.2929
 6366SOL     OW30556   2.831   0.309  15.894  0.3508  0.2413  0.6589
 6366SOL    HW130557   2.843   0.404  15.891 -3.3611  0.6820 -0.5520
 6366SOL    HW230558   2.767   0.300  15.964 -2.4261 -2.2250 -2.1868
 6367SOL     OW30559   0.432   2.402  15.035 -0.3528  0.4028 -0.1431
 6367SOL    HW130560   0.377   2.453  15.094 -0.7086 -1.0788  0.8059
 6367SOL    HW230561   0.419   2.312  15.063 -0.4923  0.1999 -0.8778
 6368SOL     OW30562   1.125   0.824   4.729 -0.3132 -0.4864 -0.4584
 6368SOL    HW130563   1.179   0.813   4.650 -0.7583  0.3167 -0.8736
 6368SOL    HW230564   1.058   0.758   4.709 -1.8064  0.6541  0.7417
 6369SOL     OW30565   2.653   1.447   7.941 -0.0862  0.0274  0.0702
 6369SOL    HW130566   2.570   1.482   7.974 -0.2723  0.6080 -1.0163
 6369SOL    HW230567   2.628   1.360   7.910  1.9697 -1.5864  2.9226
 6370SOL     OW30568   4.251   0.726   8.611  0.5342 -0.0018 -0.4752
 6370SOL    HW130569   4.297   0.804   8.639 -0.9273  0.0692  1.7195
 6370SOL    HW230570   4.258   0.740   8.517  1.1221  0.2734 -0.3866
 6371SOL     OW30571   3.518   2.314   8.112 -0.0078 -0.3257 -0.4342
 6371SOL    HW130572   3.593   2.369   8.089  0.7378 -0.6769  1.2049
 6371SOL    HW230573   3.492   2.361   8.191 -3.4093 -0.6446 -1.3433
 6372SOL     OW30574   1.701   1.335   8.872 -0.6346 -0.2226  0.2986
 6372SOL    HW130575   1.795   1.320   8.883 -0.9792 -1.0578  2.0201
 6372SOL    HW230576   1.704   1.431   8.877  0.9278 -0.3049  1.0519
 6373SOL     OW30577   2.099   3.892  16.684 -0.0625  0.1315 -0.6215
 6373SOL    HW130578   2.026   3.931  16.731  0.7562  0.3756  0.4326
 6373SOL    HW230579   2.112   3.959  16.617  0.1425  1.4199  0.7086
 6374SOL     OW30580   1.339   2.990   9.449 -0.1567 -0.5579 -0.3643
 6374SOL    HW130581   1.259   2.950   9.484 -0.4666 -0.5430 -1.0412
 6374SOL    HW230582   1.354   3.062   9.509  2.3536 -0.0136 -1.6660
 6375SOL     OW30583   3.489   0.454  15.442 -0.1029  0.4588  0.3128
 6375SOL    HW130584   3.582   0.445  15.423  0.1864  0.6911  1.6496
 6375SOL    HW230585   3.462   0.365  15.419  2.6896 -1.2617  3.5932
 6376SOL     OW30586   2.825   1.028   4.933  0.0283  0.2807  0.0713
 6376SOL    HW130587   2.896   1.076   4.977  1.3106 -0.3695 -1.2841
 6376SOL    HW230588   2.832   0.946   4.982  0.3998 -0.6927 -1.6115
 6377SOL     OW30589   1.701   1.025   9.663  0.6109 -0.7840 -0.6496
 6377SOL    HW130590   1.705   0.970   9.742 -1.5042  1.7651  1.2181
 6377SOL    HW230591   1.632   1.086   9.689  1.4965 -1.0605  2.3689
 6378SOL     OW30592   0.144   4.272   8.788 -0.0948 -0.1789  0.0472
 6378SOL    HW130593   0.149   4.179   8.769 -1.2757 -0.2362 -0.0111
 6378SOL    HW230594   0.201   4.314   8.723  0.1857  1.6005  1.4288
 6379SOL     OW30595   4.412   0.817   4.458  0.3002 -0.2939 -0.0146
 6379SOL    HW130596   4.477   0.885   4.479  0.0591  0.5473 -1.9567
 6379SOL    HW230597   4.352   0.860   4.397  0.5694 -1.7785 -1.3360
 6380SOL     OW30598   1.889   1.545   3.390  0.0716 -0.0167 -0.3090
 6380SOL    HW130599   1.977   1.507   3.385  0.3008  0.7027 -1.6439
 6380SOL    HW230600   1.845   1.461   3.404  1.3194 -0.6958 -0.4539
 6381SOL     OW30601   0.431   3.398   9.003 -0.8210 -0.0585  0.2671
 6381SOL    HW130602   0.381   3.360   8.930 -1.2321 -0.8645  0.9621
 6381SOL    HW230603   0.374   3.466   9.039  1.2677  2.1586 -0.6880
 6382SOL     OW30604   2.682   1.075  13.039  0.2155  0.3840 -0.4454
 6382SOL    HW130605   2.687   0.980  13.046  0.1267  0.4270  0.1543
 6382SOL    HW230606   2.675   1.082  12.944 -0.8582  2.9697 -0.1841
 6383SOL     OW30607   2.149   3.677   9.977  0.4411  0.0321  0.0410
 6383SOL    HW130608   2.192   3.746  10.028 -0.0692  0.6319 -0.3435
 6383SOL    HW230609   2.095   3.726   9.915  0.3358 -1.1331 -0.7952
 6384SOL     OW30610   4.215   1.566   3.848 -0.0031  0.1584  0.2926
 6384SOL    HW130611   4.149   1.626   3.883  0.6899  0.7924  0.5110
 6384SOL    HW230612   4.224   1.603   3.761 -3.0362 -0.5540 -0.3077
 6385SOL     OW30613   1.595   0.929   6.525  0.3756  0.0435 -0.1942
 6385SOL    HW130614   1.571   0.856   6.468  0.3451 -0.3429  0.3070
 6385SOL    HW230615   1.519   0.988   6.530 -0.1624 -0.7223  0.7931
 6386SOL     OW30616   3.337   1.548   3.850 -0.6249 -0.5872  0.1432
 6386SOL    HW130617   3.385   1.465   3.838  0.5776 -0.1189  1.8189
 6386SOL    HW230618   3.405   1.615   3.848 -0.2555 -1.0311 -3.6959
 6387SOL     OW30619   2.399   4.533  10.291 -0.6201  0.3750  0.3882
 6387SOL    HW130620   2.360   4.523  10.378  1.2832 -0.2770  1.1665
 6387SOL    HW230621   2.491   4.522  10.312 -0.6027 -2.0034 -1.0409
 6388SOL     OW30622   4.453   3.265  13.025 -0.6975  0.0690 -0.3922
 6388SOL    HW130623   4.469   3.339  13.083  3.9375 -1.4198  0.2519
 6388SOL    HW230624   4.494   3.297  12.945 -0.5127 -0.5895 -0.5654
 6389SOL     OW30625   0.510   4.545   7.851 -0.0259 -0.0286 -0.3562
 6389SOL    HW130626   0.551   4.558   7.936  0.2671 -1.1087 -0.3256
 6389SOL    HW230627   0.465   4.628   7.840 -0.9001 -0.5782 -0.9071
 6390SOL     OW30628   1.080   2.995   0.906  0.4004 -0.4594 -0.1171
 6390SOL    HW130629   1.066   2.903   0.928 -1.7867 -0.5561 -1.9171
 6390SOL    HW230630   1.082   3.051   0.983  2.9178  0.2455 -0.6843
 6391SOL     OW30631   3.195   1.650   4.303 -0.6999 -0.5259 -0.3226
 6391SOL    HW130632   3.269   1.606   4.261 -0.1956  0.3066 -0.3069
 6391SOL    HW230633   3.239   1.682   4.382 -0.3262 -1.4902 -0.1409
 6392SOL     OW30634   1.216   3.561  13.220  0.2900 -0.0396 -0.1325
 6392SOL    HW130635   1.162   3.484  13.205  2.4241 -1.7252  0.8498
 6392SOL    HW230636   1.287   3.551  13.157 -0.3799  0.8927 -1.0460
 6393SOL     OW30637   3.893   3.618   2.674  0.1783  0.2930 -0.6179
 6393SOL    HW130638   3.914   3.674   2.599 -2.4449  1.1364 -0.7190
 6393SOL    HW230639   3.823   3.661   2.721  0.2043  0.1658 -0.4634
 6394SOL     OW30640   3.935   0.794   5.461  0.1060  0.2866  0.2927
 6394SOL    HW130641   3.989   0.872   5.475  1.3797 -0.6411  0.4810
 6394SOL    HW230642   3.999   0.727   5.485  1.5044  1.0213 -1.4161
 6395SOL     OW30643   0.264   4.157  17.122 -0.4405 -0.0422 -0.2042
 6395SOL    HW130644   0.228   4.225  17.064  0.6094  1.2733  0.6867
 6395SOL    HW230645   0.301   4.207  17.194  0.5370  1.3714 -1.6935
 6396SOL     OW30646   1.510   0.414   2.859 -0.2774  0.0587  0.4184
 6396SOL    HW130647   1.497   0.505   2.885  3.7192  0.6989  0.0947
 6396SOL    HW230648   1.572   0.385   2.925  0.7978 -0.0222 -0.6295
 6397SOL     OW30649   2.989   0.166  16.164  0.7758  0.5666  0.5644
 6397SOL    HW130650   3.058   0.186  16.100 -0.5397  1.0756 -0.6752
 6397SOL    HW230651   3.015   0.225  16.235  1.6912  1.6504 -0.6642
 6398SOL     OW30652   4.683   4.540   9.026  0.0122  0.5806 -0.3992
 6398SOL    HW130653   4.693   4.445   9.018  1.6916  0.7660 -0.6407
 6398SOL    HW230654   0.015   4.562   8.948  0.7271 -1.3846 -0.4993
 6399SOL     OW30655   2.542   0.777   3.265 -0.3107  0.8813 -0.6044
 6399SOL    HW130656   2.593   0.699   3.288 -0.4991  1.0538  0.4072
 6399SOL    HW230657   2.467   0.724   3.237  1.0672 -1.7328  0.6267
 6400SOL     OW30658   1.792   0.339  13.307 -0.5091  0.6560 -0.5203
 6400SOL    HW130659   1.858   0.295  13.361 -4.0796 -1.2603  2.3211
 6400SOL    HW230660   1.712   0.338  13.360 -0.6019 -0.9096 -0.6920
 6401SOL     OW30661   0.290   0.722   0.482  0.4107 -0.1013 -0.2133
 6401SOL    HW130662   0.296   0.692   0.573 -0.7769  1.7020  0.4650
 6401SOL    HW230663   0.198   0.742   0.467  0.4607  0.1977 -0.1189
 6402SOL     OW30664   1.769   4.081  17.565 -0.0917  0.1741 -0.2129
 6402SOL    HW130665   1.742   4.016  17.630  0.5152 -0.1132 -0.2473
 6402SOL    HW230666   1.691   4.135  17.566 -0.0905  0.1953 -1.3157
 6403SOL     OW30667   3.000   1.713   6.301  0.5290 -0.1573  0.2955
 6403SOL    HW130668   2.955   1.636   6.336  0.1268  0.0977  0.3392
 6403SOL    HW230669   3.003   1.773   6.376 -1.7522 -1.0031  1.0768
 6404SOL     OW30670   3.419   2.084  11.242 -0.4226  0.0282 -0.4065
 6404SOL    HW130671   3.471   2.011  11.207  0.8191  1.1269 -0.8700
 6404SOL    HW230672   3.383   2.037  11.317 -0.1640  0.2221 -0.1606
 6405SOL     OW30673   1.812   2.520   7.165  0.2313 -0.0020  0.2602
 6405SOL    HW130674   1.848   2.493   7.081  0.2693  1.2814 -0.1308
 6405SOL    HW230675   1.852   2.453   7.222  0.5950  0.4633  0.5527
 6406SOL     OW30676   4.611   1.004   4.448  0.1817  0.2938 -0.2628
 6406SOL    HW130677   4.600   1.091   4.410  0.0497  0.6434  0.5696
 6406SOL    HW230678   4.701   0.980   4.426  0.6073  2.8212 -1.2757
 6407SOL     OW30679   2.268   2.335   4.215  0.0605  0.0565  0.2524
 6407SOL    HW130680   2.308   2.325   4.302 -1.1987 -1.3474  0.6747
 6407SOL    HW230681   2.187   2.285   4.224  0.9550 -1.1212  1.8240
 6408SOL     OW30682   2.712   1.534   9.940  0.1759 -0.1818  0.5123
 6408SOL    HW130683   2.705   1.460  10.000 -1.7181 -1.2319 -1.0153
 6408SOL    HW230684   2.805   1.524   9.917  0.4521  1.9232  0.6256
 6409SOL     OW30685   2.461   4.168   8.768  0.3815 -0.2589  0.4710
 6409SOL    HW130686   2.444   4.233   8.836 -1.8060  1.8085 -2.0604
 6409SOL    HW230687   2.547   4.201   8.743  0.0492  0.1853 -0.0798
 6410SOL     OW30688   3.315   3.381   5.642  0.2156 -0.1526 -0.6999
 6410SOL    HW130689   3.250   3.330   5.690 -0.5910  0.4747 -1.1101
 6410SOL    HW230690   3.301   3.468   5.678 -2.2043 -0.9604  0.3400
 6411SOL     OW30691   0.167   3.619   4.212 -0.0134  0.6449 -0.4828
 6411SOL    HW130692   0.213   3.579   4.138 -1.5608 -0.2492 -0.9593
 6411SOL    HW230693   0.149   3.539   4.261  0.0314  0.4483 -0.7868
 6412SOL     OW30694   3.905   2.086   2.904  0.9152  0.1166  0.1749
 6412SOL    HW130695   3.978   2.047   2.952  0.6989  0.2209  0.5861
 6412SOL    HW230696   3.827   2.041   2.938  1.5374 -1.5688 -0.6189
 6413SOL     OW30697   1.372   2.474  11.747 -0.3419  0.2653  0.4640
 6413SOL    HW130698   1.387   2.386  11.782 -0.2566  0.5921  1.2450
 6413SOL    HW230699   1.380   2.457  11.653 -0.0743 -2.6107  1.0043
 6414SOL     OW30700   0.002   2.465  15.414  0.5126  0.3516 -0.0848
 6414SOL    HW130701   4.646   2.523  15.408  1.2110  1.2156 -0.4274
 6414SOL    HW230702   0.077   2.523  15.425 -0.1529  1.0321  0.8645
 6415SOL     OW30703   0.042   3.429   5.594  0.2569  0.0271 -0.1494
 6415SOL    HW130704   0.089   3.397   5.517 -0.6008  0.4241 -0.8428
 6415SOL    HW230705   0.089   3.392   5.669  0.7894 -1.2189 -1.0873
 6416SOL     OW30706   3.543   0.889  14.575 -0.1646  0.1209  0.7229
 6416SOL    HW130707   3.473   0.880  14.511 -0.3565 -0.1236  0.9660
 6416SOL    HW230708   3.594   0.956  14.529  2.1865 -1.5684  0.8451
 6417SOL     OW30709   1.963   3.777   1.777 -0.1995 -0.4813  0.5305
 6417SOL    HW130710   1.983   3.823   1.858  1.0737  1.7802 -1.0662
 6417SOL    HW230711   1.951   3.842   1.708  0.8812 -0.8508 -0.0124
 6418SOL     OW30712   2.035   2.672   1.588  0.4145  0.3150  0.1472
 6418SOL    HW130713   1.999   2.760   1.581 -1.0907 -0.4293 -1.7575
 6418SOL    HW230714   2.004   2.637   1.504  2.2632  2.2677 -1.3600
 6419SOL     OW30715   2.351   0.968   7.482 -0.2824  0.0339  0.0611
 6419SOL    HW130716   2.349   0.937   7.572  0.5411 -0.9811 -0.2782
 6419SOL    HW230717   2.406   1.047   7.485 -0.1926 -0.1252  2.5570
 6420SOL     OW30718   4.038   2.426  10.794  0.3606  0.7339 -0.1171
 6420SOL    HW130719   4.114   2.478  10.765 -0.4623  0.5467 -2.6637
 6420SOL    HW230720   4.054   2.336  10.765  0.1525  0.7171 -0.1771
 6421SOL     OW30721   1.199   1.941   5.805 -0.3385 -0.4588  0.5270
 6421SOL    HW130722   1.136   1.893   5.858 -1.6172 -0.1508 -0.7091
 6421SOL    HW230723   1.212   1.888   5.726 -2.3020  1.1961 -0.8987
 6422SOL     OW30724   1.119   0.863  16.991 -0.3403 -0.0371 -0.8598
 6422SOL    HW130725   1.167   0.843  17.072 -0.4230  2.3336 -0.2106
 6422SOL    HW230726   1.175   0.926  16.946 -0.0093  0.4018  0.1584
 6423SOL     OW30727   3.845   0.923  13.040  0.3558  0.1666  0.0221
 6423SOL    HW130728   3.756   0.899  13.067  0.4867 -0.5556 -0.1869
 6423SOL    HW230729   3.862   0.980  13.114  0.6217 -2.7330  2.1991
 6424SOL     OW30730   1.105   4.182   9.211 -0.0221  0.2724  0.2724
 6424SOL    HW130731   1.048   4.110   9.182  0.3850  0.0278  0.0803
 6424SOL    HW230732   1.178   4.169   9.150 -2.1259  0.4262 -2.2729
 6425SOL     OW30733   1.309   3.359   6.020  0.0405  0.1553 -0.0013
 6425SOL    HW130734   1.222   3.346   6.057  0.2241  0.1331  0.4243
 6425SOL    HW230735   1.298   3.371   5.925 -1.3866 -0.0501  0.1416
 6426SOL     OW30736   3.285   4.619   3.311  0.1012 -0.1849  0.0271
 6426SOL    HW130737   3.366   4.612   3.260  0.6207  0.5289  0.7491
 6426SOL    HW230738   3.248   4.532   3.321 -1.0060 -0.1071 -3.3026
 6427SOL     OW30739   3.468   3.125  10.421  0.2325 -0.4288  0.6025
 6427SOL    HW130740   3.524   3.063  10.374 -1.6832 -2.5102  1.0865
 6427SOL    HW230741   3.491   3.208  10.379  0.6418 -0.7724  0.1508
 6428SOL     OW30742   1.304   0.084   5.052  0.3308 -0.1728  0.6211
 6428SOL    HW130743   1.233   0.024   5.076 -3.2789  3.2406 -1.5058
 6428SOL    HW230744   1.289   0.159   5.109  2.4496  0.0833  0.8580
 6429SOL     OW30745   1.577   1.081   2.584  0.3366  0.0559  0.3145
 6429SOL    HW130746   1.625   1.163   2.592 -0.3892  0.6334 -1.1956
 6429SOL    HW230747   1.497   1.119   2.548  1.5803  0.6435 -1.8146
 6430SOL     OW30748   3.088   2.775  11.368  0.3330 -0.1214 -0.8413
 6430SOL    HW130749   3.136   2.702  11.408 -1.4222  0.5092  2.4300
 6430SOL    HW230750   3.154   2.811  11.309  0.6885  0.1847 -0.2510
 6431SOL     OW30751   1.688   0.940   1.702  0.3988  0.0237 -0.1093
 6431SOL    HW130752   1.768   0.896   1.672 -0.8168 -2.2857  0.0264
 6431SOL    HW230753   1.639   0.863   1.731  1.8943 -1.4474 -1.4819
 6432SOL     OW30754   3.107   2.007  11.784  0.8102 -0.7272 -0.0956
 6432SOL    HW130755   3.118   2.081  11.725 -1.9716  1.3858  2.0581
 6432SOL    HW230756   3.196   2.005  11.819  0.1237  0.4521  1.7246
 6433SOL     OW30757   2.583   0.816   6.738 -0.0752  0.3654 -0.8899
 6433SOL    HW130758   2.658   0.758   6.755  1.3412  2.6670  0.7625
 6433SOL    HW230759   2.627   0.901   6.751  1.2419  0.2421 -4.5909
 6434SOL     OW30760   4.551   2.151   7.836  0.0754 -0.4221  0.1443
 6434SOL    HW130761   4.507   2.093   7.898 -0.6625 -0.5554 -0.4954
 6434SOL    HW230762   4.506   2.232   7.860 -0.5510 -0.1322 -1.9932
 6435SOL     OW30763   1.056   0.076   2.051  0.4847  0.0399  0.3384
 6435SOL    HW130764   1.017   0.110   1.970 -0.3395 -0.3242  0.5851
 6435SOL    HW230765   0.984   0.056   2.111  0.0245  0.6140 -0.0243
 6436SOL     OW30766   2.695   3.650  15.640 -0.3659 -0.1339 -0.2328
 6436SOL    HW130767   2.773   3.608  15.676 -1.1214  1.4020  3.2109
 6436SOL    HW230768   2.725   3.733  15.603 -1.0383 -0.4862 -1.5919
 6437SOL     OW30769   2.578   1.550   9.311 -0.2861 -0.2186 -0.1392
 6437SOL    HW130770   2.496   1.581   9.272 -0.1252  0.5541  0.1400
 6437SOL    HW230771   2.552   1.458   9.320 -0.6683 -0.0784  0.2170
 6438SOL     OW30772   1.416   3.850  10.453  0.2387 -0.0018 -0.0217
 6438SOL    HW130773   1.486   3.873  10.392 -1.5864  1.2308 -1.6953
 6438SOL    HW230774   1.447   3.898  10.530 -1.1985  0.2570  0.3971
 6439SOL     OW30775   3.859   3.400   5.344  0.6151 -0.5022  0.6804
 6439SOL    HW130776   3.797   3.461   5.303  0.2163 -0.5069  1.2873
 6439SOL    HW230777   3.939   3.418   5.295  0.2588 -3.2401 -0.9201
 6440SOL     OW30778   1.330   1.692  15.471  0.1959  0.3365 -0.5877
 6440SOL    HW130779   1.286   1.661  15.391  2.7841  1.3387 -2.4045
 6440SOL    HW230780   1.301   1.783  15.468 -0.8762 -0.0211 -0.9626
 6441SOL     OW30781   3.030   0.662   3.103  0.5866 -0.3213 -0.0216
 6441SOL    HW130782   3.085   0.590   3.072  1.7360  0.8934 -0.7940
 6441SOL    HW230783   3.075   0.688   3.183  0.7702 -0.0200 -0.2225
 6442SOL     OW30784   0.675   0.010   0.332 -0.8948  0.2000 -0.0579
 6442SOL    HW130785   0.687   4.635   0.342 -0.7971  0.2811  0.5605
 6442SOL    HW230786   0.584   0.013   0.304 -1.3483  2.3427  1.6929
 6443SOL     OW30787   3.033   0.561   8.105 -0.0061 -0.1584  0.0777
 6443SOL    HW130788   3.040   0.490   8.169  0.7474  0.5804  0.8302
 6443SOL    HW230789   3.050   0.636   8.162  1.9653 -0.5055 -0.0330
 6444SOL     OW30790   1.506   2.528  15.971  0.9373  0.2184  0.7673
 6444SOL    HW130791   1.437   2.591  15.953  0.8061  0.1847  1.1363
 6444SOL    HW230792   1.541   2.558  16.055  1.1986  0.6618  0.4991
 6445SOL     OW30793   0.714   0.206   3.670 -0.7162 -0.1548 -0.0030
 6445SOL    HW130794   0.652   0.275   3.646 -0.5673 -1.1149 -3.0376
 6445SOL    HW230795   0.804   0.240   3.673 -1.6182  2.1485  0.8679
 6446SOL     OW30796   2.661   0.004   2.970 -0.7830  0.3896  0.1961
 6446SOL    HW130797   2.668   4.663   3.044  0.9025 -0.2900 -0.5249
 6446SOL    HW230798   2.692   4.674   2.894 -0.8088 -2.4498  2.0160
 6447SOL     OW30799   1.589   1.460   4.668  0.1314 -0.3488  0.1313
 6447SOL    HW130800   1.541   1.505   4.737 -0.0320 -0.4993  0.1147
 6447SOL    HW230801   1.648   1.522   4.625 -1.1825  1.9061  1.5316
 6448SOL     OW30802   4.485   1.923   2.415  0.0970  0.2733 -0.6539
 6448SOL    HW130803   4.511   1.844   2.366  0.4231  0.1695 -0.3110
 6448SOL    HW230804   4.569   1.951   2.451  0.2568  0.5544 -1.2388
 6449SOL     OW30805   2.248   3.322  10.426  0.1561 -0.2373  0.3845
 6449SOL    HW130806   2.293   3.311  10.510  1.4553  1.9273 -0.0225
 6449SOL    HW230807   2.271   3.412  10.404  0.6877 -0.2703  0.7901
 6450SOL     OW30808   2.467   1.216   6.562 -0.4978  0.4454 -0.2643
 6450SOL    HW130809   2.511   1.141   6.523  0.7121  1.1251 -0.2126
 6450SOL    HW230810   2.384   1.173   6.585 -0.4136  1.6825  2.4285
 6451SOL     OW30811   2.325   0.400   9.516  0.3082 -0.0261 -0.0441
 6451SOL    HW130812   2.361   0.365   9.597  3.0828 -0.5291 -1.5168
 6451SOL    HW230813   2.406   0.428   9.474  0.6570  1.1918  1.4520
 6452SOL     OW30814   2.556   4.611   8.354  0.3918  0.5981 -0.6229
 6452SOL    HW130815   2.510   4.577   8.431  1.2284  0.7219 -0.0660
 6452SOL    HW230816   2.635   4.642   8.399  0.6410 -0.0152 -0.6343
 6453SOL     OW30817   0.080   1.628  14.413 -0.0063  0.5586 -0.2566
 6453SOL    HW130818   0.168   1.640  14.380  0.2741 -1.5215 -0.2582
 6453SOL    HW230819   0.061   1.714  14.449 -1.0459  0.0223  0.5064
 6454SOL     OW30820   3.002   3.185   5.611 -0.2592 -0.4883  0.0201
 6454SOL    HW130821   2.969   3.274   5.619  0.3308 -0.3050  0.3873
 6454SOL    HW230822   2.947   3.138   5.674 -0.1600 -2.9634 -1.7277
 6455SOL     OW30823   2.723   2.802   2.075  0.1136 -0.0634 -0.0784
 6455SOL    HW130824   2.722   2.724   2.020 -0.2891 -0.2078  0.1362
 6455SOL    HW230825   2.747   2.769   2.161  2.1376  1.1616 -0.1648
 6456SOL     OW30826   0.035   1.745   6.082  0.3506 -0.2017 -0.8917
 6456SOL    HW130827   0.093   1.796   6.138  1.1319 -1.2972 -0.6982
 6456SOL    HW230828   0.021   1.668   6.137  1.2448  0.8029  0.7486
 6457SOL     OW30829   0.291   0.902   6.578 -0.6224  0.7562  0.3839
 6457SOL    HW130830   0.262   0.993   6.570 -0.0310  0.8488 -0.6715
 6457SOL    HW230831   0.232   0.857   6.638  1.1000 -0.7942  0.9035
 6458SOL     OW30832   1.012   2.773  10.324 -0.9418 -0.1746  0.4832
 6458SOL    HW130833   1.088   2.785  10.267  0.0583  0.2681  1.9003
 6458SOL    HW230834   0.994   2.680  10.312 -1.9709  0.1487 -0.4286
 6459SOL     OW30835   2.494   3.808   7.167 -0.2113 -0.2765 -0.5491
 6459SOL    HW130836   2.455   3.725   7.195 -1.5153  0.2603 -0.7898
 6459SOL    HW230837   2.416   3.863   7.171  1.2455  1.7867 -0.3861
 6460SOL     OW30838   1.645   3.234   5.324 -0.1407  0.0021 -0.3091
 6460SOL    HW130839   1.691   3.153   5.347 -0.4750 -0.1053 -0.0348
 6460SOL    HW230840   1.617   3.207   5.237  1.0009  1.5595 -1.1746
 6461SOL     OW30841   0.431   1.418   9.500  0.1549 -0.2514  0.5531
 6461SOL    HW130842   0.470   1.334   9.522 -1.6121 -0.8780  1.3044
 6461SOL    HW230843   0.397   1.405   9.411 -1.9357  1.2469  1.1117
 6462SOL     OW30844   2.860   2.985  15.066 -0.0161 -0.3996  0.5904
 6462SOL    HW130845   2.859   2.942  14.981 -0.6716 -0.0243  0.4067
 6462SOL    HW230846   2.947   3.021  15.051 -1.1169  1.6956 -0.7587
 6463SOL     OW30847   0.345   2.135   1.399  0.5053 -0.2734  0.1220
 6463SOL    HW130848   0.439   2.152   1.406  0.5612  0.1649 -1.6750
 6463SOL    HW230849   0.324   2.133   1.493 -0.9445 -2.2845 -0.2377
 6464SOL     OW30850   3.494   3.933   1.265  0.0737  0.0712  0.4201
 6464SOL    HW130851   3.487   3.916   1.359  0.3369  0.2993  0.4788
 6464SOL    HW230852   3.542   4.015   1.258  1.5164 -0.8412 -0.5145
 6465SOL     OW30853   1.298   0.042   5.810  0.3900 -0.2640 -0.1920
 6465SOL    HW130854   1.345   0.121   5.783 -0.3662 -0.0763 -0.9638
 6465SOL    HW230855   1.350   4.696   5.763  3.1126  0.9760  1.0988
 6466SOL     OW30856   2.192   2.966  16.883 -0.3862 -0.5604 -0.2164
 6466SOL    HW130857   2.159   2.928  16.802 -0.1895 -1.6273  0.2129
 6466SOL    HW230858   2.118   3.001  16.933  0.8852  1.7120  0.1053
 6467SOL     OW30859   2.204   3.568   6.367 -0.0884  0.0203  0.1354
 6467SOL    HW130860   2.292   3.540   6.392 -0.2769 -0.5694  0.1410
 6467SOL    HW230861   2.164   3.605   6.446 -1.2898  1.3347 -1.0890
 6468SOL     OW30862   1.324   3.157   8.315  0.2838 -0.0937  0.7952
 6468SOL    HW130863   1.387   3.087   8.330  0.1163 -0.7911 -1.7731
 6468SOL    HW230864   1.295   3.196   8.398  3.5244  2.6932  0.5888
 6469SOL     OW30865   2.737   3.460   0.134  0.0901 -0.9143 -0.3382
 6469SOL    HW130866   2.789   3.397   0.183  0.5977 -0.5414 -0.4052
 6469SOL    HW230867   2.787   3.541   0.141  3.9594 -3.2457 -0.9130
 6470SOL     OW30868   2.213   1.994   7.706 -0.5170 -0.4043 -0.1603
 6470SOL    HW130869   2.219   2.057   7.634  0.4420 -0.9423 -0.5436
 6470SOL    HW230870   2.214   1.907   7.666 -0.4741 -0.0181 -1.0193
 6471SOL     OW30871   2.783   2.839   3.988  0.0948 -0.0948  0.3442
 6471SOL    HW130872   2.782   2.754   4.030 -0.7347  0.5697  1.6927
 6471SOL    HW230873   2.864   2.832   3.938  0.7136 -0.9752  1.4828
 6472SOL     OW30874   1.643   0.314  13.570 -0.0685 -0.5478  0.3586
 6472SOL    HW130875   1.714   0.280  13.626 -0.6160 -2.0802  0.1345
 6472SOL    HW230876   1.574   0.326  13.635  0.0089 -0.0601  0.3475
 6473SOL     OW30877   2.515   2.225   3.383  0.2516  0.4709 -0.8322
 6473SOL    HW130878   2.523   2.195   3.473  0.2057  3.1983  0.1046
 6473SOL    HW230879   2.437   2.278   3.400 -1.9524 -1.9646 -3.4528
 6474SOL     OW30880   0.522   2.798   2.193 -0.0909  0.1896  0.1961
 6474SOL    HW130881   0.597   2.851   2.163 -0.8606  1.4909  0.5990
 6474SOL    HW230882   0.526   2.728   2.127  0.3083  0.9864 -0.6366
 6475SOL     OW30883   1.891   2.052  15.946  0.3219  0.3749 -0.1462
 6475SOL    HW130884   1.796   2.060  15.942  0.5531  2.7909 -1.1128
 6475SOL    HW230885   1.894   2.043  16.041  1.0126  1.8619 -0.0198
 6476SOL     OW30886   2.356   3.431  14.355 -0.1309  0.2523 -0.2136
 6476SOL    HW130887   2.426   3.489  14.384 -0.5988  1.5793 -1.7823
 6476SOL    HW230888   2.273   3.480  14.360 -1.2747 -1.6607 -0.5607
 6477SOL     OW30889   3.327   3.987  12.892 -0.2783  0.5867  0.2321
 6477SOL    HW130890   3.421   3.998  12.876  0.0311  0.5914  2.0708
 6477SOL    HW230891   3.304   4.078  12.874 -0.6536  0.4029 -0.2012
 6478SOL     OW30892   3.763   0.435   2.944 -0.2655 -0.0747  0.0263
 6478SOL    HW130893   3.705   0.484   2.885 -2.1159 -1.7365  0.4717
 6478SOL    HW230894   3.797   0.369   2.884 -0.2262 -0.9683  1.0217
 6479SOL     OW30895   3.279   2.437   5.311  0.3287  0.3770  0.2770
 6479SOL    HW130896   3.280   2.419   5.405  0.6868 -0.0763  0.1809
 6479SOL    HW230897   3.189   2.470   5.302  0.4711  0.3050 -1.3959
 6480SOL     OW30898   2.903   4.338   4.592  0.2606  0.2584 -0.2006
 6480SOL    HW130899   2.888   4.263   4.650 -0.5008 -1.2744 -2.3967
 6480SOL    HW230900   2.813   4.353   4.566  0.3611 -0.6779 -1.0715
 6481SOL     OW30901   4.296   0.269  10.731  0.5913  0.3751  0.1616
 6481SOL    HW130902   4.381   0.260  10.689  0.0035  0.0091 -0.9705
 6481SOL    HW230903   4.304   0.360  10.759  0.3620  1.3136 -2.8120
 6482SOL     OW30904   3.973   3.619  17.500  0.1963 -0.0246  0.9824
 6482SOL    HW130905   3.879   3.629  17.484  0.2067  1.0481  1.6199
 6482SOL    HW230906   3.971   3.565  17.579 -1.1831  0.3806  1.2140
 6483SOL     OW30907   4.230   3.500   4.092 -0.4579 -0.5855  0.5334
 6483SOL    HW130908   4.139   3.474   4.081 -1.7150  3.6589  0.6861
 6483SOL    HW230909   4.264   3.436   4.029  0.1674 -1.3727  1.6727
 6484SOL     OW30910   1.723   0.857   6.753  0.1769  0.5437  0.6154
 6484SOL    HW130911   1.685   0.931   6.801 -0.9860  1.4059 -1.6660
 6484SOL    HW230912   1.680   0.875   6.670 -0.1491 -2.0934  0.2144
 6485SOL     OW30913   0.029   4.446   7.676  1.2204  0.0150  0.0994
 6485SOL    HW130914   0.125   4.442   7.680  1.1960 -1.9600 -1.2425
 6485SOL    HW230915   0.013   4.501   7.752 -0.9756  0.7551 -0.9039
 6486SOL     OW30916   2.838   3.887  15.773  0.6415  0.0707 -0.1061
 6486SOL    HW130917   2.888   3.807  15.790  0.6533  0.0980 -0.0151
 6486SOL    HW230918   2.836   3.887  15.677 -3.5034  0.8787 -0.0344
 6487SOL     OW30919   1.970   4.124   0.922 -0.8725  0.0728 -0.5017
 6487SOL    HW130920   1.928   4.135   1.007 -1.7020 -1.2982 -0.7374
 6487SOL    HW230921   2.058   4.102   0.951 -0.4883  2.4202  0.0700
 6488SOL     OW30922   2.956   1.197  16.744 -0.0513  0.6924  0.3597
 6488SOL    HW130923   2.942   1.130  16.811  2.4127 -1.3163 -1.1430
 6488SOL    HW230924   2.944   1.272  16.802  1.3576  0.5060  0.9022
 6489SOL     OW30925   2.282   3.757   5.714  0.1085 -0.0362 -0.1573
 6489SOL    HW130926   2.284   3.723   5.803 -1.3924 -0.6453 -0.3586
 6489SOL    HW230927   2.260   3.680   5.661  0.3931 -1.6871  2.1295
 6490SOL     OW30928   1.261   4.274   3.907 -0.3605 -0.3091 -0.1148
 6490SOL    HW130929   1.183   4.328   3.906  1.9020  2.9836  0.2351
 6490SOL    HW230930   1.294   4.293   3.995 -0.5730  2.3614 -0.6227
 6491SOL     OW30931   0.947   4.387   4.852 -0.1806  0.1307 -0.2032
 6491SOL    HW130932   1.012   4.371   4.920 -1.4113  0.9684  1.1818
 6491SOL    HW230933   0.889   4.312   4.865  0.3137  0.0471  1.4332
 6492SOL     OW30934   3.526   1.700   3.719 -0.3833  0.0511 -0.4179
 6492SOL    HW130935   3.449   1.753   3.700 -0.8718 -0.8461 -0.9258
 6492SOL    HW230936   3.577   1.753   3.780  1.2876  0.5861 -2.2758
 6493SOL     OW30937   3.717   0.145   2.460  0.2654 -0.7333 -0.2473
 6493SOL    HW130938   3.775   0.105   2.524  1.6146 -1.6341 -2.0451
 6493SOL    HW230939   3.784   0.195   2.414  1.4850 -1.4298  0.7842
 6494SOL     OW30940   1.069   1.997   4.839 -0.2090 -0.2183 -0.0904
 6494SOL    HW130941   1.126   2.072   4.828 -2.0445  0.9603 -1.5546
 6494SOL    HW230942   1.114   1.934   4.783  1.4036 -0.0818  1.0529
 6495SOL     OW30943   1.418   3.129   2.944 -0.3978 -0.2963  0.3840
 6495SOL    HW130944   1.462   3.210   2.968  0.5583 -0.7829  0.2956
 6495SOL    HW230945   1.427   3.069   3.018 -0.0841 -1.2827 -0.4477
 6496SOL     OW30946   1.763   3.692   6.774 -0.0635 -0.2580 -0.3435
 6496SOL    HW130947   1.845   3.731   6.805 -0.3492  1.2075 -1.4273
 6496SOL    HW230948   1.766   3.678   6.679 -0.3673 -1.9416 -0.1113
 6497SOL     OW30949   1.281   4.270   3.346 -0.1125 -0.6283  0.0252
 6497SOL    HW130950   1.246   4.332   3.282  0.9521  0.6471  0.6501
 6497SOL    HW230951   1.211   4.268   3.412 -2.0830  0.3413 -2.0664
 6498SOL     OW30952   3.716   2.793  11.204  0.1235  0.9922  0.1394
 6498SOL    HW130953   3.675   2.762  11.123 -0.7662  1.6141  0.3604
 6498SOL    HW230954   3.809   2.775  11.190  0.0305  0.4394  0.2191
 6499SOL     OW30955   1.495   2.029   3.348  0.6762  0.5654 -1.0496
 6499SOL    HW130956   1.532   1.977   3.276  0.7474 -4.8807  2.9760
 6499SOL    HW230957   1.416   1.980   3.370  2.3966 -1.7270 -0.0197
 6500SOL     OW30958   0.603   2.182   1.414 -0.1690  0.6031 -0.1308
 6500SOL    HW130959   0.616   2.243   1.487  3.1489  0.3664 -0.5050
 6500SOL    HW230960   0.669   2.118   1.442 -0.9670 -0.6811 -1.1887
 6501SOL     OW30961   4.490   2.039   0.165 -0.0369  0.3918 -0.1580
 6501SOL    HW130962   4.501   2.130   0.139  1.5796 -0.2981 -1.8989
 6501SOL    HW230963   4.396   2.035   0.149  0.2514  1.5629 -2.1284
 6502SOL     OW30964   4.102   2.485   9.362 -0.6740  0.0698  0.0102
 6502SOL    HW130965   4.026   2.428   9.370 -0.6636 -0.0178 -0.5475
 6502SOL    HW230966   4.117   2.509   9.454  1.6895 -0.0064 -0.3594
 6503SOL     OW30967   4.716   3.319   5.195 -0.2732 -0.3366  0.1612
 6503SOL    HW130968   0.086   3.287   5.206 -0.4470 -0.9350 -0.1502
 6503SOL    HW230969   4.719   3.312   5.099 -2.1166 -1.1256  0.1600
 6504SOL     OW30970   1.512   1.121   5.332 -0.5360 -0.3336 -0.2478
 6504SOL    HW130971   1.507   1.202   5.281  1.4046  0.0028  0.0984
 6504SOL    HW230972   1.541   1.061   5.264  0.2077  1.9788 -2.0012
 6505SOL     OW30973   0.159   3.375   8.643 -0.4911 -0.0680 -0.4351
 6505SOL    HW130974   0.152   3.373   8.548 -0.7893  0.6643 -0.4301
 6505SOL    HW230975   0.096   3.445   8.661 -0.5636 -0.3603  0.4406
 6506SOL     OW30976   1.977   0.966   0.168 -0.2141  0.0501  0.0324
 6506SOL    HW130977   1.924   0.982   0.246 -0.6501  0.5173 -0.3644
 6506SOL    HW230978   1.910   0.927   0.112 -1.7917  2.7497  0.0342
 6507SOL     OW30979   1.332   0.254   8.212 -0.1143  0.3076 -0.2844
 6507SOL    HW130980   1.415   0.286   8.247 -1.2100  0.2253  2.4229
 6507SOL    HW230981   1.343   0.163   8.237  0.2743  0.0207 -1.5043
 6508SOL     OW30982   3.924   1.313   3.516  0.1656  0.1764  0.3237
 6508SOL    HW130983   3.832   1.319   3.544  0.0137  0.1340 -0.1555
 6508SOL    HW230984   3.953   1.404   3.515 -0.9753  0.5518  0.6805
 6509SOL     OW30985   2.696   1.026  11.262 -0.6241  0.4702 -0.1653
 6509SOL    HW130986   2.738   1.013  11.177  0.6601  1.6131  0.2981
 6509SOL    HW230987   2.764   1.000  11.324 -0.3252 -0.2537 -0.7866
 6510SOL     OW30988   2.931   1.709  10.577 -0.2808  0.1389  0.6824
 6510SOL    HW130989   3.024   1.722  10.557 -0.7377 -1.2013 -2.2434
 6510SOL    HW230990   2.890   1.740  10.496  0.2787 -0.6860  0.0980
 6511SOL     OW30991   1.217   4.413   9.001 -0.0145  0.1437 -0.0855
 6511SOL    HW130992   1.130   4.372   9.003  0.2961 -0.4743  0.8200
 6511SOL    HW230993   1.231   4.441   8.911 -1.8033 -1.0963 -0.7494
 6512SOL     OW30994   3.338   3.967   8.635  0.2200  0.0160  0.0194
 6512SOL    HW130995   3.379   4.010   8.560 -2.0726  2.0736 -0.0499
 6512SOL    HW230996   3.312   4.040   8.691  0.0440  1.6035 -2.1133
 6513SOL     OW30997   2.845   0.223   1.626  0.6692  0.2153  0.3681
 6513SOL    HW130998   2.923   0.179   1.659  1.1305 -0.3628 -1.4622
 6513SOL    HW230999   2.855   0.311   1.662 -1.5895  0.6406 -0.0621
 6514SOL     OW31000   0.153   4.120   6.499  0.3828  0.0260  0.0209
 6514SOL    HW131001   0.140   4.053   6.432  1.0330  0.6699 -0.7483
 6514SOL    HW231002   0.166   4.066   6.577 -2.8862  1.0037  1.2317
 6515SOL     OW31003   0.538   1.767   7.630 -0.2835 -0.3617 -0.0123
 6515SOL    HW131004   0.447   1.781   7.656 -0.3122  2.5634 -1.6724
 6515SOL    HW231005   0.534   1.671   7.625 -3.9340 -0.1936 -0.5923
 6516SOL     OW31006   2.563   2.129   7.112  0.3415 -0.7210  0.6412
 6516SOL    HW131007   2.618   2.127   7.190  1.1032 -3.2383  0.0522
 6516SOL    HW231008   2.624   2.095   7.046  0.3441  0.7629 -0.1149
 6517SOL     OW31009   1.289   1.383   3.217 -0.2580  1.0613  0.7616
 6517SOL    HW131010   1.307   1.312   3.279  1.6287 -0.3770 -1.4301
 6517SOL    HW231011   1.284   1.332   3.136 -0.5903  1.4203  0.5548
 6518SOL     OW31012   4.027   2.102   5.922 -0.3051  0.1877 -0.4901
 6518SOL    HW131013   4.121   2.122   5.921 -0.2532  0.0343  0.8430
 6518SOL    HW231014   4.015   2.097   6.017 -0.5556  2.0610 -0.4314
 6519SOL     OW31015   0.528   1.034   0.824 -0.0299  0.7223 -0.2552
 6519SOL    HW131016   0.553   1.005   0.736 -2.0966 -1.7210 -0.0156
 6519SOL    HW231017   0.437   1.060   0.814  0.5477  2.3069 -1.3383
 6520SOL     OW31018   0.832   3.335   5.051  0.4041  0.9246 -0.1903
 6520SOL    HW131019   0.796   3.420   5.024 -0.3248  1.0368  1.1414
 6520SOL    HW231020   0.914   3.344   5.003  0.3669 -0.8467 -0.5898
 6521SOL     OW31021   3.169   4.483   8.914  0.3595  0.2794 -0.6350
 6521SOL    HW131022   3.198   4.520   8.997 -0.0483 -0.7164 -0.0451
 6521SOL    HW231023   3.211   4.543   8.852 -0.1567  2.5271  1.1832
 6522SOL     OW31024   4.472   0.873   0.423 -0.1651 -0.4840  0.3034
 6522SOL    HW131025   4.467   0.801   0.361 -1.6792 -0.9259  0.9390
 6522SOL    HW231026   4.388   0.865   0.468 -0.4601  0.2937 -0.1259
 6523SOL     OW31027   3.865   1.627   0.387 -0.5000 -0.9606  0.4394
 6523SOL    HW131028   3.865   1.721   0.404  0.3980 -1.2086  1.8510
 6523SOL    HW231029   3.879   1.619   0.293 -2.0887  0.5143  0.0658
 6524SOL     OW31030   0.556   1.694   5.927 -0.2586 -0.4436 -0.3200
 6524SOL    HW131031   0.523   1.733   6.007  0.8953  0.8303 -0.4628
 6524SOL    HW231032   0.580   1.774   5.878  1.0641  0.2534  1.4751
 6525SOL     OW31033   2.880   2.178   1.457 -0.1486  0.3305  0.0082
 6525SOL    HW131034   2.789   2.189   1.483 -0.1447 -0.3603  0.2847
 6525SOL    HW231035   2.868   2.178   1.362  2.2797  1.0704 -0.3167
 6526SOL     OW31036   3.001   0.680  11.660  0.5506  0.7330  0.5060
 6526SOL    HW131037   2.945   0.736  11.714 -0.8800 -0.9757  0.7669
 6526SOL    HW231038   3.083   0.720  11.690  1.2752  0.7236 -1.4424
 6527SOL     OW31039   1.907   3.048   6.952 -0.1923  0.0604 -0.3766
 6527SOL    HW131040   1.878   2.957   6.942  1.3347 -0.4503 -0.1683
 6527SOL    HW231041   1.914   3.042   7.047 -0.6473 -1.3239 -0.4208
 6528SOL     OW31042   4.464   1.491   4.614  0.0507 -0.4090 -0.1347
 6528SOL    HW131043   4.420   1.532   4.540 -0.0446 -0.8018 -0.2940
 6528SOL    HW231044   4.465   1.397   4.598  2.0706 -0.2132 -1.2325
 6529SOL     OW31045   4.619   0.444  13.336  0.2239  0.2250 -0.0745
 6529SOL    HW131046   4.708   0.452  13.303 -0.0125  0.3328 -0.6894
 6529SOL    HW231047   4.619   0.453  13.431 -0.2350  1.0561 -0.1522
 6530SOL     OW31048   1.311   0.743  10.427 -0.0017  0.1309 -0.3776
 6530SOL    HW131049   1.258   0.692  10.488  1.0137 -0.7358 -0.2120
 6530SOL    HW231050   1.306   0.833  10.457  0.8530 -0.1143  0.4729
 6531SOL     OW31051   3.458   3.434  14.074  0.1067  0.1339 -0.0987
 6531SOL    HW131052   3.495   3.458  13.989  3.0629  1.5664  1.6090
 6531SOL    HW231053   3.533   3.431  14.133  0.3414 -3.7917 -0.5706
 6532SOL     OW31054   2.886   2.605   4.681 -0.0104 -0.6210 -0.5219
 6532SOL    HW131055   2.927   2.544   4.619  1.4955  1.4573 -1.5761
 6532SOL    HW231056   2.962   2.655   4.712 -0.3030 -1.0524  0.8716
 6533SOL     OW31057   3.326   1.607   3.122  0.7729 -0.1299  0.7697
 6533SOL    HW131058   3.281   1.527   3.149 -1.7978  1.4923  1.2856
 6533SOL    HW231059   3.280   1.671   3.176 -0.1380  0.5552 -0.8517
 6534SOL     OW31060   0.107   2.224   8.841 -0.5316  0.2660  0.0804
 6534SOL    HW131061   0.179   2.266   8.794 -1.5705  0.3273 -1.4796
 6534SOL    HW231062   0.042   2.225   8.770 -1.2498  2.2854  0.7431
 6535SOL     OW31063   1.441   0.856   5.861  0.8210  0.0127 -0.1109
 6535SOL    HW131064   1.389   0.792   5.909  0.0932 -0.3990 -1.4500
 6535SOL    HW231065   1.393   0.935   5.883  1.3527  0.6204 -1.0964
 6536SOL     OW31066   2.575   2.189   8.245 -0.0395  0.1265 -0.2525
 6536SOL    HW131067   2.628   2.124   8.291 -0.0446 -0.8664 -1.6214
 6536SOL    HW231068   2.499   2.208   8.300  1.2533 -1.7026  2.1231
 6537SOL     OW31069   4.179   4.291  11.872  0.0641  0.3218 -0.6549
 6537SOL    HW131070   4.264   4.253  11.848 -1.3132 -2.4696 -1.1475
 6537SOL    HW231071   4.200   4.330  11.956  3.0337  2.2436 -2.3082
 6538SOL     OW31072   1.575   3.650   2.815  0.0199 -0.6578  0.1480
 6538SOL    HW131073   1.533   3.693   2.890 -1.1440  1.8253 -1.9380
 6538SOL    HW231074   1.496   3.634   2.765  0.6783 -1.0858 -0.7553
 6539SOL     OW31075   2.319   3.112   3.838  0.3846  0.1046  0.2207
 6539SOL    HW131076   2.277   3.056   3.903  0.4922  0.4542  0.5954
 6539SOL    HW231077   2.409   3.101   3.869  0.5949  2.9973  0.6267
 6540SOL     OW31078   3.536   3.569   2.093  0.1021  0.5964 -0.0462
 6540SOL    HW131079   3.604   3.530   2.147  2.0885  1.1415 -2.1186
 6540SOL    HW231080   3.546   3.543   2.001  2.0791 -1.7483  0.8410
 6541SOL     OW31081   4.642   1.344  12.656 -0.3851 -0.9125 -0.0176
 6541SOL    HW131082   0.005   1.382  12.687 -0.5239 -1.6154  1.2101
 6541SOL    HW231083   4.666   1.259  12.620  0.3496 -0.6027 -0.2677
 6542SOL     OW31084   0.321   4.375   0.589 -0.0954 -0.0859  0.1468
 6542SOL    HW131085   0.238   4.364   0.636 -1.2718  0.4200 -1.8433
 6542SOL    HW231086   0.381   4.361   0.662 -0.1443 -1.8939 -0.1590
 6543SOL     OW31087   1.000   2.694   7.197 -0.3147  0.4622  0.3686
 6543SOL    HW131088   1.092   2.721   7.204  0.1503 -0.7058 -1.2369
 6543SOL    HW231089   0.957   2.760   7.252  1.4851  0.3115  1.9486
 6544SOL     OW31090   1.512   2.612   6.325 -0.0937  0.0751 -0.0406
 6544SOL    HW131091   1.567   2.675   6.280 -0.0453  1.2244  1.6263
 6544SOL    HW231092   1.556   2.529   6.309  1.2003  0.3751  1.9951
 6545SOL     OW31093   4.062   1.579   9.097 -0.0626  0.1465  0.3286
 6545SOL    HW131094   4.085   1.671   9.114  1.7433 -0.5868  1.8740
 6545SOL    HW231095   4.110   1.525   9.160 -0.7581  1.4991  2.0212
 6546SOL     OW31096   2.287   1.798   5.793  0.2969  0.3618  0.4902
 6546SOL    HW131097   2.245   1.712   5.797 -0.1896  0.5721 -0.0775
 6546SOL    HW231098   2.223   1.853   5.840 -2.1911 -1.6121 -0.5618
 6547SOL     OW31099   3.525   3.159   3.750  0.0253  0.5941  0.3474
 6547SOL    HW131100   3.600   3.131   3.802 -0.0351  1.0568  0.6792
 6547SOL    HW231101   3.563   3.143   3.663 -0.5258 -1.3411  0.4585
 6548SOL     OW31102   0.995   1.399   0.092 -0.0647  0.1209 -0.0918
 6548SOL    HW131103   0.960   1.393   0.181 -2.1842  0.4541 -0.8980
 6548SOL    HW231104   0.993   1.495   0.099 -0.4967  0.0181  1.2715
 6549SOL     OW31105   0.919   4.711  17.499 -0.1141 -0.1936 -0.2572
 6549SOL    HW131106   0.899   4.719  17.592 -4.6891 -1.1682 -1.1759
 6549SOL    HW231107   0.922   0.083  17.470  0.3928 -0.3291 -0.6373
 6550SOL     OW31108   4.316   4.508  16.670 -0.5456  0.3666 -0.0206
 6550SOL    HW131109   4.344   4.485  16.582  2.8182 -0.7438  1.3257
 6550SOL    HW231110   4.269   4.591  16.670 -0.2814  0.5249  2.3845
 6551SOL     OW31111   2.978   3.445   8.149 -0.2622 -0.3044  0.1696
 6551SOL    HW131112   3.040   3.375   8.169  1.6915  1.1172 -0.8923
 6551SOL    HW231113   2.900   3.412   8.194 -1.0476 -2.8053 -3.0172
 6552SOL     OW31114   2.522   4.708   4.297 -0.2388 -0.0711 -0.0498
 6552SOL    HW131115   2.580   4.695   4.372  0.0547  0.7393 -0.1447
 6552SOL    HW231116   2.445   0.011   4.350  0.8690  0.6508  1.2339
 6553SOL     OW31117   2.531   0.466   9.104  0.1366 -0.1174  0.0695
 6553SOL    HW131118   2.507   0.513   9.184  0.5074 -0.0685  0.1553
 6553SOL    HW231119   2.503   0.521   9.032  1.9517 -0.8841 -1.2384
 6554SOL     OW31120   4.499   3.172  14.718  0.2203  0.4932  0.3582
 6554SOL    HW131121   4.531   3.258  14.691 -0.5116  1.0416  1.2857
 6554SOL    HW231122   4.572   3.160  14.779  0.7033 -0.3791 -0.3905
 6555SOL     OW31123   3.374   3.331   3.402  0.2202  0.1544 -0.1109
 6555SOL    HW131124   3.350   3.376   3.483  0.8525 -0.1385  0.2404
 6555SOL    HW231125   3.290   3.288   3.383 -0.4622  2.1198 -1.4659
 6556SOL     OW31126   4.154   2.351   2.073  0.6383 -0.4216  0.0506
 6556SOL    HW131127   4.171   2.316   2.160 -1.3216 -2.0293 -0.1990
 6556SOL    HW231128   4.239   2.389   2.053  0.2396  0.8880  0.8168
 6557SOL     OW31129   2.886   4.498   0.552  0.3294 -0.7828 -0.7421
 6557SOL    HW131130   2.795   4.520   0.570  0.8614 -0.0114  1.0261
 6557SOL    HW231131   2.908   4.448   0.631  3.2247 -0.5173 -1.3995
 6558SOL     OW31132   3.400   1.077   6.692 -0.2631  0.4484  0.3583
 6558SOL    HW131133   3.317   1.045   6.656  0.6048 -0.1455 -1.0990
 6558SOL    HW231134   3.454   1.012   6.648  1.2346 -0.4418  3.5552
 6559SOL     OW31135   2.344   1.258   1.786 -0.6672  0.4133  0.1544
 6559SOL    HW131136   2.312   1.177   1.826  1.1405  0.4869  1.7613
 6559SOL    HW231137   2.298   1.322   1.840 -1.3955  0.1788 -0.1953
 6560SOL     OW31138   4.233   3.112  12.911  0.0424 -0.2621  0.1020
 6560SOL    HW131139   4.303   3.167  12.945 -0.2003 -0.2986  0.6598
 6560SOL    HW231140   4.193   3.080  12.992 -1.9232  1.9542 -0.0041
 6561SOL     OW31141   3.271   4.346   5.352 -0.0372  0.1717  0.2239
 6561SOL    HW131142   3.197   4.364   5.293 -2.1310  2.1342  3.4520
 6561SOL    HW231143   3.254   4.415   5.416 -0.5264  0.3561 -0.1045
 6562SOL     OW31144   3.724   2.655   5.406  0.5267  0.2306  0.8326
 6562SOL    HW131145   3.637   2.693   5.421  2.0201  3.0868  2.1862
 6562SOL    HW231146   3.725   2.610   5.322 -0.5838 -0.7955  1.3621
 6563SOL     OW31147   2.816   4.401   3.036 -0.8548 -0.2161 -0.6038
 6563SOL    HW131148   2.786   4.434   2.951 -1.9046  0.5122  0.0494
 6563SOL    HW231149   2.904   4.367   3.022  0.5932  1.9472  3.5260
 6564SOL     OW31150   0.255   0.638  17.045  0.3721 -0.4193  0.0552
 6564SOL    HW131151   0.279   0.600  16.960  1.2569  1.3522 -0.4755
 6564SOL    HW231152   0.344   0.630  17.081 -0.5491 -3.8838  1.6195
 6565SOL     OW31153   2.737   2.901   4.445 -0.2653  0.3721  0.2574
 6565SOL    HW131154   2.749   2.919   4.538 -0.7122  0.4785  0.2962
 6565SOL    HW231155   2.823   2.919   4.408 -0.9814 -0.3960 -1.8268
 6566SOL     OW31156   2.354   1.899  11.348 -0.3736  0.2470  0.0767
 6566SOL    HW131157   2.329   1.908  11.439 -3.1526 -1.1456 -0.5479
 6566SOL    HW231158   2.312   1.814  11.332  1.0233 -0.6717  1.3344
 6567SOL     OW31159   1.409   3.091   7.511 -0.3485  0.0627  0.2864
 6567SOL    HW131160   1.428   3.053   7.425 -2.6427 -0.0715 -0.1765
 6567SOL    HW231161   1.498   3.114   7.536 -0.1924 -0.3838  0.1287
 6568SOL     OW31162   3.400   1.066  13.716  0.4546  1.2410  0.1399
 6568SOL    HW131163   3.327   1.109  13.761  0.6782  0.9896  0.7409
 6568SOL    HW231164   3.353   1.021  13.646  2.3960 -0.4900 -0.0270
 6569SOL     OW31165   3.348   4.041   7.399  0.3948  0.0041 -0.1820
 6569SOL    HW131166   3.332   3.947   7.397 -0.7262  0.2458 -2.1963
 6569SOL    HW231167   3.262   4.076   7.379 -0.0103 -1.9528 -1.7787
 6570SOL     OW31168   3.236   0.784   4.063  0.0732 -0.4932  0.6835
 6570SOL    HW131169   3.181   0.847   4.017 -1.5803  0.4576  3.9093
 6570SOL    HW231170   3.263   0.835   4.140  0.3717  1.0076 -0.4345
 6571SOL     OW31171   1.989   3.788  12.541 -0.2853 -0.1394  0.1016
 6571SOL    HW131172   1.968   3.772  12.449  0.8549 -1.5405  0.0780
 6571SOL    HW231173   2.058   3.852  12.525 -1.7322  1.8743  2.0029
 6572SOL     OW31174   2.086   4.296  13.160  0.0540 -0.3185  0.2763
 6572SOL    HW131175   2.106   4.278  13.251  1.0986  1.2565  0.3573
 6572SOL    HW231176   2.170   4.335  13.134 -0.9674  1.3057 -0.6485
 6573SOL     OW31177   4.705   1.531   2.865  0.0111 -0.2184  0.1345
 6573SOL    HW131178   4.621   1.538   2.819 -0.2009 -0.8084  0.4378
 6573SOL    HW231179   0.029   1.453   2.833  3.5238  1.4423  0.8807
 6574SOL     OW31180   4.657   4.397   6.179  0.4286  0.2199  0.3873
 6574SOL    HW131181   4.660   4.485   6.215 -0.9311  0.3917  0.0988
 6574SOL    HW231182   4.654   4.359   6.267 -0.1441  0.1346  0.3314
 6575SOL     OW31183   1.081   4.228  16.892 -0.1450 -0.1283 -0.2647
 6575SOL    HW131184   1.018   4.289  16.931  2.0286  1.2680  1.0309
 6575SOL    HW231185   1.016   4.165  16.861 -0.9837 -0.2576  1.7758
 6576SOL     OW31186   1.857   1.717   4.317  0.3087 -0.4768  0.2749
 6576SOL    HW131187   1.881   1.730   4.226 -1.7438  0.5207 -0.1126
 6576SOL    HW231188   1.843   1.623   4.309 -2.4468 -0.1365  1.1013
 6577SOL     OW31189   4.236   2.102   6.582 -0.2646  0.0330  0.1854
 6577SOL    HW131190   4.209   2.193   6.571 -1.3773 -0.1904  1.1490
 6577SOL    HW231191   4.216   2.070   6.494 -0.9288 -0.2416  0.4390
 6578SOL     OW31192   1.862   2.585   1.362  0.8790 -0.1153  0.0253
 6578SOL    HW131193   1.882   2.502   1.319 -1.2127 -0.7401  0.2389
 6578SOL    HW231194   1.772   2.575   1.392  0.7678 -0.4275 -0.4182
 6579SOL     OW31195   0.382   4.503   8.837  0.3473 -0.0288 -0.2714
 6579SOL    HW131196   0.477   4.509   8.830  0.3854  0.7890  1.0059
 6579SOL    HW231197   0.362   4.487   8.745  0.5586 -1.3599 -0.0827
 6580SOL     OW31198   4.240   3.883  17.000 -0.1552  0.2740 -0.6353
 6580SOL    HW131199   4.247   3.916  16.911 -2.1215  3.0287  0.2430
 6580SOL    HW231200   4.318   3.832  17.023  0.1364  1.0727  0.1631
 6581SOL     OW31201   1.332   1.447   3.626  0.2567 -0.9238  0.1607
 6581SOL    HW131202   1.273   1.487   3.563  2.6775  0.2196 -1.3925
 6581SOL    HW231203   1.356   1.524   3.677  1.1451 -1.5541  0.6939
 6582SOL     OW31204   2.603   3.145   8.073 -0.3083  0.4649  0.5296
 6582SOL    HW131205   2.646   3.065   8.105 -1.7965  0.0783  1.5360
 6582SOL    HW231206   2.521   3.098   8.059 -0.6497  2.6172 -4.9057
 6583SOL     OW31207   0.331   3.861   5.393  0.2263  0.3377 -0.6493
 6583SOL    HW131208   0.398   3.924   5.418  0.2037  0.0564  0.1034
 6583SOL    HW231209   0.264   3.880   5.458 -1.1063 -0.5251 -1.7587
 6584SOL     OW31210   2.663   2.338   1.918  0.0622 -0.3844 -0.2146
 6584SOL    HW131211   2.602   2.341   1.991  0.8385  1.2283  0.3599
 6584SOL    HW231212   2.672   2.243   1.904  0.7147 -0.5013  0.9781
 6585SOL     OW31213   1.621   0.277   5.320 -0.7733 -0.6923 -0.5848
 6585SOL    HW131214   1.560   0.206   5.338  0.2152 -1.7441 -1.4765
 6585SOL    HW231215   1.573   0.357   5.344  1.3598  0.4357 -0.0310
 6586SOL     OW31216   3.896   0.518   3.508  0.0624 -0.2809  0.2648
 6586SOL    HW131217   3.931   0.459   3.441 -0.1995  0.4361 -0.5055
 6586SOL    HW231218   3.963   0.585   3.496 -0.8762  0.0216 -3.2508
 6587SOL     OW31219   0.199   2.033   3.119 -0.0131 -0.6334 -0.1705
 6587SOL    HW131220   0.222   2.125   3.105  0.5423 -0.8380 -0.6402
 6587SOL    HW231221   0.140   2.017   3.046 -1.0076  0.5063  0.3824
 6588SOL     OW31222   3.139   2.493   1.377  0.0241  0.2559 -0.2896
 6588SOL    HW131223   3.187   2.538   1.446 -0.5529  0.1725  0.1623
 6588SOL    HW231224   3.076   2.441   1.427 -3.4483  2.8270 -1.9834
 6589SOL     OW31225   2.908   3.778  17.597 -0.0488  0.2684 -0.2391
 6589SOL    HW131226   2.970   3.849  17.612  0.4884 -0.2711  0.1010
 6589SOL    HW231227   2.964   3.716  17.644  1.2627  2.3583  0.9449
 6590SOL     OW31228   3.977   0.042  14.137  0.0644  0.4465 -0.3867
 6590SOL    HW131229   3.916   4.719  14.197 -1.9090  2.4290 -0.9474
 6590SOL    HW231230   3.970   0.134  14.162  3.1252  1.1375 -1.9891
 6591SOL     OW31231   3.455   4.045   4.177 -0.3013  0.0468  0.0121
 6591SOL    HW131232   3.476   3.966   4.128 -1.4136 -0.4203  0.2707
 6591SOL    HW231233   3.423   4.098   4.104 -2.2945 -1.7838 -0.4390
 6592SOL     OW31234   0.595   2.001   7.033 -0.4961  0.0850 -0.3010
 6592SOL    HW131235   0.606   1.910   7.062  1.0075  0.6979  1.0047
 6592SOL    HW231236   0.606   2.048   7.115  1.6839 -0.8897 -0.0203
 6593SOL     OW31237   2.502   4.146   6.407  0.0852 -0.0911  0.1521
 6593SOL    HW131238   2.560   4.218   6.384  0.9687 -0.4950  1.1305
 6593SOL    HW231239   2.545   4.073   6.361  1.4153  1.3934 -0.9445
 6594SOL     OW31240   0.274   2.508   8.955 -0.3264 -0.8866 -0.0139
 6594SOL    HW131241   0.218   2.486   8.880  0.6427 -1.1249 -0.6632
 6594SOL    HW231242   0.211   2.513   9.028  0.5012  1.3288  0.5487
 6595SOL     OW31243   4.635   3.774   4.473  0.0302  0.0463  0.0416
 6595SOL    HW131244   4.681   3.842   4.424  0.0393  0.2796  0.3727
 6595SOL    HW231245   4.702   3.708   4.485 -0.3073 -0.5397 -1.3228
 6596SOL     OW31246   1.024   3.253   8.590 -0.1343 -0.1297 -0.0024
 6596SOL    HW131247   0.970   3.183   8.554 -1.1558 -0.0235  1.3320
 6596SOL    HW231248   0.995   3.251   8.682  2.1768  0.6671  0.7688
 6597SOL     OW31249   0.356   3.705   2.422  0.2860  0.1241 -0.5927
 6597SOL    HW131250   0.292   3.636   2.442  2.1651 -0.8872  1.9944
 6597SOL    HW231251   0.397   3.678   2.340 -2.3675  0.5434 -2.0485
 6598SOL     OW31252   0.455   0.284   2.395  0.6709  0.4367 -0.5426
 6598SOL    HW131253   0.518   0.243   2.336 -1.2897 -2.3815 -0.6729
 6598SOL    HW231254   0.484   0.253   2.480 -1.0850  1.5731  0.4644
 6599SOL     OW31255   1.669   3.956   3.606 -0.2903  0.0468 -0.5367
 6599SOL    HW131256   1.713   4.010   3.540  1.3005 -0.6538 -0.0565
 6599SOL    HW231257   1.596   4.016   3.619 -0.3157 -0.4206  1.5215
 6600SOL     OW31258   2.384   0.463   3.784  0.0100 -0.0698 -0.4659
 6600SOL    HW131259   2.452   0.402   3.757  1.0811  0.6167  0.6705
 6600SOL    HW231260   2.427   0.547   3.767  0.8742 -0.3896  0.1804
 6601SOL     OW31261   0.489   1.900  11.595  0.0748 -0.6763  0.1775
 6601SOL    HW131262   0.525   1.913  11.508 -0.9586 -0.6375 -0.2406
 6601SOL    HW231263   0.556   1.952  11.640  1.7982 -1.1011 -1.9130
 6602SOL     OW31264   2.632   0.819   3.926 -0.0048 -0.3581  0.3384
 6602SOL    HW131265   2.635   0.852   3.836  2.6287 -2.0610 -0.2235
 6602SOL    HW231266   2.612   0.725   3.919  1.2742 -0.4921 -1.8582
 6603SOL     OW31267   1.696   0.514   1.661  0.1367  0.3802 -0.0008
 6603SOL    HW131268   1.677   0.583   1.725 -0.6745  0.8979 -0.8020
 6603SOL    HW231269   1.613   0.467   1.657 -0.1210  0.5988  2.6866
 6604SOL     OW31270   4.516   3.231   2.306  1.0922 -1.0277  0.1221
 6604SOL    HW131271   4.606   3.252   2.329  0.7276  1.0108 -0.3473
 6604SOL    HW231272   4.499   3.152   2.357  0.0142  0.2369  1.7267
 6605SOL     OW31273   4.159   1.439   5.751  0.6969 -0.1325 -0.2296
 6605SOL    HW131274   4.171   1.502   5.679 -0.4112  0.3167 -0.0334
 6605SOL    HW231275   4.070   1.462   5.779  1.3825  3.3517 -0.8343
 6606SOL     OW31276   1.624   4.487   8.019 -0.0815  0.1075 -0.2254
 6606SOL    HW131277   1.557   4.486   7.951 -0.9691  0.9234  0.6447
 6606SOL    HW231278   1.627   4.580   8.039  2.0683  0.2573 -1.2382
 6607SOL     OW31279   1.312   0.694   4.532  0.0604 -0.4103 -0.7574
 6607SOL    HW131280   1.400   0.723   4.508  1.4887 -2.8384  1.4872
 6607SOL    HW231281   1.320   0.601   4.515 -0.8263 -0.5240 -0.5727
 6608SOL     OW31282   1.435   0.099  11.472  0.0821 -0.4237 -0.3300
 6608SOL    HW131283   1.363   0.114  11.411  0.9264  0.4739 -1.1045
 6608SOL    HW231284   1.394   0.096  11.559 -0.9523  0.7803 -0.7898
 6609SOL     OW31285   0.709   1.691  15.126 -0.0421 -0.4760 -0.2216
 6609SOL    HW131286   0.652   1.663  15.198 -0.9239  0.2965 -0.6368
 6609SOL    HW231287   0.688   1.784  15.118 -1.7688 -0.7695  0.8449
 6610SOL     OW31288   1.483   3.712   3.064  0.1950  0.2217  0.4365
 6610SOL    HW131289   1.570   3.680   3.088  0.4756  0.8532  0.2473
 6610SOL    HW231290   1.468   3.799   3.101 -0.7771  0.6913 -1.0430
 6611SOL     OW31291   0.749   4.189   6.711  0.2223 -0.6869  0.2138
 6611SOL    HW131292   0.728   4.167   6.620 -2.0173  2.6449 -0.0664
 6611SOL    HW231293   0.793   4.107   6.730 -0.1035 -1.0589 -0.6389
 6612SOL     OW31294   3.250   0.673   6.299 -0.8853  0.1916  0.1743
 6612SOL    HW131295   3.336   0.677   6.341 -0.0984  0.9649 -1.5214
 6612SOL    HW231296   3.280   0.687   6.210  0.2635 -3.0416  0.0534
 6613SOL     OW31297   1.946   0.284  14.338  0.7192  0.3397 -0.2809
 6613SOL    HW131298   1.976   0.364  14.383  1.9195 -0.8164  0.9527
 6613SOL    HW231299   2.014   0.253  14.279 -0.3314 -1.9313 -0.2723
 6614SOL     OW31300   1.185   3.924   4.530  0.1536 -0.4744 -0.0613
 6614SOL    HW131301   1.127   3.873   4.474  0.1464 -0.2427 -0.2690
 6614SOL    HW231302   1.131   4.000   4.552 -0.2960 -0.0859 -2.5251
 6615SOL     OW31303   3.466   2.461   6.935 -0.1556  0.4622  0.1985
 6615SOL    HW131304   3.429   2.389   6.883 -1.3318  0.6703  0.7509
 6615SOL    HW231305   3.473   2.413   7.017 -3.0767 -1.7217 -0.7981
 6616SOL     OW31306   2.838   2.650  12.800  0.2033  0.0808 -0.3101
 6616SOL    HW131307   2.893   2.635  12.722 -0.4583  0.2405 -0.8049
 6616SOL    HW231308   2.885   2.585  12.853 -0.4468 -0.9599 -1.0138
 6617SOL     OW31309   4.599   0.314   2.625 -0.0718  0.8927  0.0252
 6617SOL    HW131310   4.636   0.228   2.602 -0.8272  0.7302 -0.5659
 6617SOL    HW231311   4.615   0.307   2.719 -0.2798  0.5228  0.0348
 6618SOL     OW31312   0.571   4.471   8.553  0.5499 -0.2891 -0.0397
 6618SOL    HW131313   0.625   4.426   8.488  3.2549 -1.6652  3.2006
 6618SOL    HW231314   0.634   4.541   8.572  0.0985  0.2921 -0.6676
 6619SOL     OW31315   1.800   3.331  10.586  0.0047  0.3112 -0.2452
 6619SOL    HW131316   1.793   3.286  10.670 -1.2859  1.3918  0.2321
 6619SOL    HW231317   1.708   3.355  10.576  0.2154  0.1563 -2.4624
 6620SOL     OW31318   2.297   4.492  14.147 -0.8274 -0.0318 -0.0976
 6620SOL    HW131319   2.344   4.503  14.065 -0.7966  0.1616 -0.0548
 6620SOL    HW231320   2.321   4.580  14.175 -2.5914  1.1560 -2.3133
 6621SOL     OW31321   2.864   1.201  12.610  0.3076 -0.1573 -0.0784
 6621SOL    HW131322   2.834   1.187  12.520  1.3603 -0.6534 -0.3473
 6621SOL    HW231323   2.902   1.288  12.603 -0.1427 -0.3374 -4.6070
 6622SOL     OW31324   4.077   4.385  17.625 -0.3910 -0.4496  0.1299
 6622SOL    HW131325   3.981   4.382  17.621 -0.5360  4.7443  0.3061
 6622SOL    HW231326   4.093   4.384  17.531  0.6885  1.1898  0.3006
 6623SOL     OW31327   3.365   1.026   7.644 -0.4946  0.0283 -0.7580
 6623SOL    HW131328   3.415   0.958   7.599 -2.7094 -1.5232 -0.8507
 6623SOL    HW231329   3.417   1.105   7.629 -0.0568  0.4931  3.1700
 6624SOL     OW31330   2.745   3.282  13.553  0.2203  0.0440  0.2897
 6624SOL    HW131331   2.771   3.204  13.504 -1.2576  2.0229 -3.6158
 6624SOL    HW231332   2.829   3.322  13.575  2.0869 -1.6483 -3.6597
 6625SOL     OW31333   1.064   1.190  17.211 -0.0268 -0.3010 -0.2492
 6625SOL    HW131334   1.138   1.210  17.268 -1.0767 -4.0780  2.4359
 6625SOL    HW231335   1.014   1.271  17.215 -1.5147 -1.2533  0.5900
 6626SOL     OW31336   0.401   1.347  14.623  0.1192 -1.1954 -0.5313
 6626SOL    HW131337   0.363   1.318  14.706  0.3593  1.1408  0.3945
 6626SOL    HW231338   0.492   1.347  14.653 -0.8298 -0.1522  2.4088
 6627SOL     OW31339   1.684   2.626  10.712  0.1311 -0.8231  0.6076
 6627SOL    HW131340   1.764   2.589  10.674  0.6120 -1.9293  2.6733
 6627SOL    HW231341   1.693   2.719  10.688  0.9836 -1.8657 -3.0654
 6628SOL     OW31342   2.421   2.831   4.763  0.1626 -0.3986 -0.6887
 6628SOL    HW131343   2.484   2.791   4.822 -1.0782 -2.1187 -0.5275
 6628SOL    HW231344   2.395   2.910   4.811  0.8653 -1.2219  1.0230
 6629SOL     OW31345   3.101   1.226  15.814 -0.0111 -0.0011 -0.1713
 6629SOL    HW131346   3.068   1.160  15.876  0.3977 -0.3221 -0.2983
 6629SOL    HW231347   3.022   1.276  15.792 -0.7233 -1.8950 -1.8687
 6630SOL     OW31348   3.239   1.006   2.936 -0.3449  0.3924  0.1704
 6630SOL    HW131349   3.314   0.979   2.990 -0.3386 -1.2800 -0.6682
 6630SOL    HW231350   3.165   0.993   2.995 -1.1644  0.7315 -0.7846
 6631SOL     OW31351   1.080   0.120  16.531 -0.8040 -0.4603 -0.1926
 6631SOL    HW131352   1.066   0.026  16.546 -2.4780 -0.1398  0.2961
 6631SOL    HW231353   0.997   0.159  16.559 -1.1882 -1.0283 -0.5299
 6632SOL     OW31354   3.149   2.750   8.580 -0.0646 -0.0263  0.3825
 6632SOL    HW131355   3.235   2.758   8.539  0.0543 -1.3145  0.3790
 6632SOL    HW231356   3.098   2.719   8.505  2.2376 -0.4930 -0.9879
 6633SOL     OW31357   0.340   2.329   4.621  0.5243  0.0511  0.2266
 6633SOL    HW131358   0.332   2.285   4.536  0.9347  0.1342  0.1427
 6633SOL    HW231359   0.434   2.329   4.639  0.2575  0.1319  1.5625
 6634SOL     OW31360   1.270   0.652   3.534  0.5330  0.0563  0.4037
 6634SOL    HW131361   1.259   0.612   3.620 -2.0673 -0.7706 -0.3207
 6634SOL    HW231362   1.191   0.623   3.489 -1.0970  0.6978  2.8279
 6635SOL     OW31363   3.271   3.908  12.050 -0.0559  0.4472 -0.0646
 6635SOL    HW131364   3.203   3.872  11.993 -0.7303  0.0226  0.9995
 6635SOL    HW231365   3.235   3.997  12.054  1.8520  1.1710  1.0976
 6636SOL     OW31366   0.340   3.548   5.097 -0.2176  0.2639  0.3971
 6636SOL    HW131367   0.377   3.635   5.115  0.1565 -0.0354  1.0571
 6636SOL    HW231368   0.284   3.523   5.170 -1.7992  1.5269 -0.3908
 6637SOL     OW31369   0.084   0.506   6.397 -0.2502 -0.3776  0.3978
 6637SOL    HW131370   0.128   0.438   6.346 -0.7430 -0.0197 -0.4918
 6637SOL    HW231371   4.718   0.495   6.356 -0.0132  1.2652 -0.5154
 6638SOL     OW31372   1.706   0.978   4.383  0.4609 -0.1421 -0.3841
 6638SOL    HW131373   1.789   1.021   4.362 -0.0618  0.1675 -1.7953
 6638SOL    HW231374   1.733   0.950   4.471  2.7287 -0.3765 -1.1608
 6639SOL     OW31375   3.423   0.840  10.339  0.0950  0.0712  0.3788
 6639SOL    HW131376   3.408   0.894  10.416 -0.8126  0.8699 -0.3544
 6639SOL    HW231377   3.500   0.786  10.358  0.4611  0.3003 -0.4685
 6640SOL     OW31378   1.614   3.137   8.592 -0.5395 -0.5322 -0.5207
 6640SOL    HW131379   1.526   3.120   8.559  0.0062 -1.8704 -1.3095
 6640SOL    HW231380   1.663   3.076   8.537 -0.7728  0.0868 -1.4156
 6641SOL     OW31381   3.116   2.595   8.824  0.5041 -0.0023 -0.0862
 6641SOL    HW131382   3.081   2.644   8.898 -1.6378 -0.4053 -0.8310
 6641SOL    HW231383   3.079   2.635   8.745 -0.3500 -2.0725 -0.7461
 6642SOL     OW31384   1.072   1.347   8.577  0.4284  0.1471 -0.2243
 6642SOL    HW131385   1.088   1.358   8.484 -1.7025 -2.7590 -0.9390
 6642SOL    HW231386   1.044   1.256   8.576 -0.1390  0.4026 -4.2340
 6643SOL     OW31387   3.795   4.103   2.638  0.0252 -0.4134 -0.1289
 6643SOL    HW131388   3.746   4.178   2.603 -0.6230 -0.6007  0.3960
 6643SOL    HW231389   3.724   4.041   2.618 -0.0736 -0.3440  0.0129
 6644SOL     OW31390   4.139   2.909   4.621  0.9791 -0.3721 -0.2234
 6644SOL    HW131391   4.192   2.988   4.632 -1.2369  1.1550 -0.5066
 6644SOL    HW231392   4.124   2.899   4.715  1.4376  1.8397  0.0826
 6645SOL     OW31393   3.575   1.911   8.187 -0.2164 -0.8936 -0.3883
 6645SOL    HW131394   3.667   1.919   8.160 -0.6889 -2.0513 -2.2987
 6645SOL    HW231395   3.544   1.834   8.140  0.2810  0.5620 -3.0648
 6646SOL     OW31396   0.256   2.144  17.358 -0.2561  0.9667  0.8083
 6646SOL    HW131397   0.242   2.162  17.265  0.7880 -1.0108  0.2621
 6646SOL    HW231398   0.279   2.051  17.349 -0.0840  0.9226  1.6920
 6647SOL     OW31399   3.347   1.472   9.013 -0.5566  0.3268 -0.4102
 6647SOL    HW131400   3.370   1.470   9.106  1.4737  0.0080 -0.9214
 6647SOL    HW231401   3.252   1.483   9.019 -0.7064  0.6762 -3.5992
 6648SOL     OW31402   4.014   3.698  13.773 -0.1217 -0.0333 -0.1930
 6648SOL    HW131403   4.050   3.786  13.764 -0.0100 -0.1246 -0.6835
 6648SOL    HW231404   3.934   3.697  13.720 -0.6832 -3.2464  0.7325
 6649SOL     OW31405   1.189   2.846  10.135  0.3489  0.2102  0.2418
 6649SOL    HW131406   1.275   2.846  10.093 -0.3047  0.2754 -1.0709
 6649SOL    HW231407   1.179   2.941  10.133  0.0125  0.1981  1.3979
 6650SOL     OW31408   1.785   2.008   2.442  0.3311 -0.0249 -0.2711
 6650SOL    HW131409   1.849   1.948   2.480 -0.3297 -1.0566 -0.7936
 6650SOL    HW231410   1.767   1.951   2.367  0.0607 -0.2806 -0.0120
 6651SOL     OW31411   2.535   0.371   1.181 -0.3995 -0.0625 -0.0181
 6651SOL    HW131412   2.492   0.449   1.217 -0.0424 -0.5879  1.5543
 6651SOL    HW231413   2.602   0.368   1.250  0.2885  2.3298 -0.5778
 6652SOL     OW31414   1.230   1.019   5.086 -0.3792 -0.4995 -0.2684
 6652SOL    HW131415   1.233   0.927   5.061  1.6322 -0.4208 -0.2726
 6652SOL    HW231416   1.316   1.015   5.128 -0.1055 -2.1163 -0.9905
 6653SOL     OW31417   1.664   1.166   8.657  0.5265 -0.7133 -0.0925
 6653SOL    HW131418   1.664   1.228   8.730  0.8735 -1.1758  0.3015
 6653SOL    HW231419   1.757   1.162   8.637 -0.2007  1.0474 -3.8366
 6654SOL     OW31420   2.135   4.656   9.293 -0.3357 -0.0255 -0.2023
 6654SOL    HW131421   2.222   4.694   9.303 -0.4188 -0.5749  2.8053
 6654SOL    HW231422   2.119   4.675   9.201 -2.3772  0.5049  0.2542
 6655SOL     OW31423   0.527   3.934   6.800 -0.5130  0.7017 -0.1249
 6655SOL    HW131424   0.622   3.930   6.815 -1.0462 -3.1582  2.0393
 6655SOL    HW231425   0.487   3.994   6.864 -0.4425 -0.9398  1.4499
 6656SOL     OW31426   0.963   2.698   3.847  0.2426 -0.2249 -0.7573
 6656SOL    HW131427   0.902   2.744   3.790 -1.8451 -1.9078  0.1364
 6656SOL    HW231428   0.910   2.623   3.875 -0.0263  0.0157 -0.6225
 6657SOL     OW31429   2.620   2.513   4.201 -0.3373 -0.5201 -0.2706
 6657SOL    HW131430   2.588   2.592   4.246 -2.1504 -0.8069 -1.0329
 6657SOL    HW231431   2.710   2.541   4.184 -0.4628 -0.3249 -0.6302
 6658SOL     OW31432   2.550   0.614   7.335 -0.1011 -0.1136 -0.8028
 6658SOL    HW131433   2.593   0.530   7.317 -0.2144 -0.1303 -0.9883
 6658SOL    HW231434   2.594   0.643   7.415 -2.4887  1.6967 -0.1487
 6659SOL     OW31435   0.082   4.522   9.277  0.8936 -0.2202 -0.5361
 6659SOL    HW131436   0.037   4.567   9.205  0.0137 -1.0274 -0.4962
 6659SOL    HW231437   0.157   4.479   9.237  2.5022 -0.0013  2.3115
 6660SOL     OW31438   3.516   2.718   5.681 -0.0411  0.2942  0.2326
 6660SOL    HW131439   3.444   2.762   5.727 -0.7705  1.1317 -1.6820
 6660SOL    HW231440   3.498   2.733   5.588  1.1839 -0.2379 -0.0911
 6661SOL     OW31441   1.318   1.521   8.186  0.1416  0.4202 -0.5423
 6661SOL    HW131442   1.409   1.535   8.212  0.2015  0.2200 -0.6438
 6661SOL    HW231443   1.303   1.610   8.155 -0.9804  0.8194  1.1118
 6662SOL     OW31444   2.021   4.399   7.928  0.3848 -0.0567 -0.3002
 6662SOL    HW131445   2.106   4.356   7.925 -0.0289 -0.9894  1.1337
 6662SOL    HW231446   2.048   4.481   7.969 -2.4665  1.2194 -0.9363
 6663SOL     OW31447   1.227   0.684   4.095  0.5952 -0.0776  0.5304
 6663SOL    HW131448   1.143   0.719   4.064  0.5551  0.3585  1.1340
 6663SOL    HW231449   1.204   0.604   4.142  4.2611 -2.3097 -1.5121
 6664SOL     OW31450   3.423   0.317   1.967 -0.4095  0.2719 -0.0980
 6664SOL    HW131451   3.472   0.368   1.903 -1.2574  0.4417 -0.6091
 6664SOL    HW231452   3.341   0.364   1.980 -0.1498  0.8079 -0.4008
 6665SOL     OW31453   0.706   2.501   5.193 -0.3189 -0.5654 -0.1147
 6665SOL    HW131454   0.724   2.410   5.219  0.7454 -0.2002  0.4339
 6665SOL    HW231455   0.646   2.525   5.263  2.0446  0.9302  1.4147
 6666SOL     OW31456   2.077   0.307   1.879  0.1266  0.0730 -0.4884
 6666SOL    HW131457   2.035   0.343   1.802  1.3643  0.5612 -0.9403
 6666SOL    HW231458   2.098   0.388   1.926  0.7456 -0.3789  0.0165
 6667SOL     OW31459   0.252   2.338   0.025  0.0434  0.6664  0.6528
 6667SOL    HW131460   0.257   2.433   0.008 -2.4473  1.0861  2.2683
 6667SOL    HW231461   0.173   2.304  17.666 -0.6953  0.4098  2.2950
 6668SOL     OW31462   2.979   2.886   4.353  0.2104 -0.0974  0.2111
 6668SOL    HW131463   3.033   2.941   4.297  1.3552 -0.6019  0.8271
 6668SOL    HW231464   3.045   2.846   4.410  0.9323  0.5042 -0.2038
 6669SOL     OW31465   3.246   3.067   2.759  0.4146 -0.0648  0.1837
 6669SOL    HW131466   3.263   3.054   2.666  2.1165 -0.6355  0.5896
 6669SOL    HW231467   3.170   3.126   2.759 -0.2937 -0.9649 -0.5757
 6670SOL     OW31468   0.268   1.955   0.828  0.0673 -0.6282 -0.3612
 6670SOL    HW131469   0.234   1.983   0.743 -2.1342  3.6346  1.9329
 6670SOL    HW231470   0.349   1.909   0.806  1.1611  1.6763 -1.1275
 6671SOL     OW31471   0.005   0.498   6.063 -0.3331 -0.1787  0.2926
 6671SOL    HW131472   0.050   0.445   6.128  1.0399  1.1555  0.4423
 6671SOL    HW231473   0.075   0.552   6.025  0.0106  0.2895  1.6081
 6672SOL     OW31474   1.800   1.327  13.494  0.0398 -0.0913 -0.9071
 6672SOL    HW131475   1.706   1.340  13.502  0.3550 -0.3528  3.0236
 6672SOL    HW231476   1.808   1.268  13.418  0.9899 -1.0701 -0.0486
 6673SOL     OW31477   2.763   4.209  13.608  0.0461 -0.6658 -0.1800
 6673SOL    HW131478   2.811   4.236  13.687 -0.3907  0.6883 -0.3753
 6673SOL    HW231479   2.779   4.115  13.599 -1.2473 -1.0082  1.1504
 6674SOL     OW31480   1.767   3.349  15.367  0.6564  0.2006 -0.9536
 6674SOL    HW131481   1.800   3.287  15.432  0.6869  0.2741 -0.8991
 6674SOL    HW231482   1.826   3.423  15.383  1.2317 -0.7570  1.4157
 6675SOL     OW31483   0.065   4.238   8.289  0.4478  0.2415  0.0613
 6675SOL    HW131484   0.141   4.232   8.231  0.4550  0.9950 -0.0011
 6675SOL    HW231485   0.028   4.324   8.268 -1.1315 -0.5800 -0.4999
 6676SOL     OW31486   1.146   3.118   8.946  0.5577 -0.2966 -0.3966
 6676SOL    HW131487   1.053   3.137   8.941  0.6945  0.5506  0.3657
 6676SOL    HW231488   1.197   3.182   8.896 -0.0353  1.3801  1.1567
 6677SOL     OW31489   2.754   2.484   1.293 -0.6075  0.1757 -0.3538
 6677SOL    HW131490   2.675   2.495   1.345 -0.2388 -1.2112  0.5055
 6677SOL    HW231491   2.723   2.431   1.220  0.3903  1.5321 -1.7877
 6678SOL     OW31492   0.227   1.435  16.100  0.4608  0.3083  0.4006
 6678SOL    HW131493   0.220   1.346  16.066 -1.8268  0.0470  1.5768
 6678SOL    HW231494   0.183   1.490  16.035 -0.2741 -1.0946 -0.2990
 6679SOL     OW31495   3.989   3.542  11.697  0.4955 -0.8109  0.1665
 6679SOL    HW131496   4.047   3.569  11.626 -1.4962 -0.9296 -1.4795
 6679SOL    HW231497   3.908   3.515  11.654  0.6381 -0.7125 -0.1597
 6680SOL     OW31498   4.034   2.077   8.686  0.5510 -0.3740 -0.3603
 6680SOL    HW131499   4.114   2.064   8.737  0.8930 -0.4729 -0.9310
 6680SOL    HW231500   4.026   2.172   8.676 -0.8825 -0.4646 -0.1960
 6681SOL     OW31501   1.054   2.644  13.025  0.0380 -0.2087 -0.0900
 6681SOL    HW131502   1.073   2.705  13.097  0.5492 -1.0144  0.4536
 6681SOL    HW231503   1.125   2.674  12.968  1.3248 -1.4805  0.8367
 6682SOL     OW31504   1.178   2.103  11.542  0.4315 -0.8954  0.3685
 6682SOL    HW131505   1.211   2.191  11.524  2.5317 -2.1366 -1.7761
 6682SOL    HW231506   1.215   2.053  11.469  1.4815  2.1123 -1.1745
 6683SOL     OW31507   1.057   0.987   0.219 -0.4559  0.1841 -0.2526
 6683SOL    HW131508   1.021   0.901   0.199  0.6125 -0.6695  1.4990
 6683SOL    HW231509   0.977   1.032   0.247 -0.1574  0.8448 -0.4557
 6684SOL     OW31510   1.791   2.792   7.747  0.1077  0.3285  0.8101
 6684SOL    HW131511   1.832   2.875   7.768  2.2881 -0.3185 -0.9015
 6684SOL    HW231512   1.706   2.817   7.783 -0.8831 -0.6120 -0.8511
 6685SOL     OW31513   2.126   1.853   5.424  0.1425  0.2172  0.4550
 6685SOL    HW131514   2.195   1.896   5.373 -0.8880  0.6236 -0.6004
 6685SOL    HW231515   2.127   1.920   5.493 -1.2365 -0.5272  1.2072
 6686SOL     OW31516   0.573   2.271  11.235  0.0851  0.5990 -0.6804
 6686SOL    HW131517   0.616   2.321  11.303 -2.1548 -0.6654  1.6466
 6686SOL    HW231518   0.633   2.263  11.160 -2.5964 -1.4914 -2.6117
 6687SOL     OW31519   2.839   1.210  12.326  0.1407  0.0859  0.5247
 6687SOL    HW131520   2.796   1.270  12.266 -0.7788 -1.3180 -0.2285
 6687SOL    HW231521   2.844   1.128  12.276  0.8962  0.9871 -0.8913
 6688SOL     OW31522   2.045   4.426   3.509  0.0829 -0.4420 -0.3149
 6688SOL    HW131523   2.019   4.382   3.428 -1.4427 -0.7237  0.3228
 6688SOL    HW231524   2.113   4.367   3.542  3.3026  2.7701 -1.1461
 6689SOL     OW31525   1.274   2.195   4.282  0.2900 -0.5281 -0.0630
 6689SOL    HW131526   1.225   2.135   4.337 -0.2770 -0.4132 -0.4423
 6689SOL    HW231527   1.263   2.157   4.194 -0.7683 -3.6783  1.4392
 6690SOL     OW31528   4.601   4.377   7.023 -0.0138 -0.5654  0.1503
 6690SOL    HW131529   4.642   4.334   7.098 -2.0240 -2.0162  0.3954
 6690SOL    HW231530   4.629   4.329   6.945  1.8691 -0.1617  0.5727
 6691SOL     OW31531   0.848   4.606  12.837  0.0202 -0.2568 -0.1082
 6691SOL    HW131532   0.936   4.618  12.800  0.4086 -1.5436  0.4198
 6691SOL    HW231533   0.810   4.694  12.835  1.4553  0.3308 -1.3490
 6692SOL     OW31534   2.765   3.880   7.881  0.1497 -0.7967  0.5076
 6692SOL    HW131535   2.724   3.874   7.795  0.0055  2.0911  0.3619
 6692SOL    HW231536   2.774   3.789   7.907 -1.3224 -0.6207  1.6443
 6693SOL     OW31537   2.427   1.617   3.688  0.4795 -0.1760  0.2450
 6693SOL    HW131538   2.417   1.707   3.658 -0.3370 -0.1716  0.5267
 6693SOL    HW231539   2.432   1.569   3.604  2.6328  1.3247 -0.4793
 6694SOL     OW31540   1.153   2.936   2.560 -0.0653  0.0852  0.4413
 6694SOL    HW131541   1.220   3.001   2.580  0.2086 -0.1552  0.2991
 6694SOL    HW231542   1.183   2.855   2.600 -1.5505 -0.1380  1.0934
 6695SOL     OW31543   3.070   2.028   3.386 -0.2262  0.0307 -0.6677
 6695SOL    HW131544   3.107   1.986   3.464 -2.9541 -0.9395  0.0914
 6695SOL    HW231545   2.979   2.029   3.414  0.6178  0.4951  1.9911
 6696SOL     OW31546   4.228   0.294   0.552 -0.5253  0.1675 -0.6449
 6696SOL    HW131547   4.288   0.341   0.611 -2.5935  0.9700  0.8083
 6696SOL    HW231548   4.201   0.372   0.505 -2.0534  0.2605  0.3786
 6697SOL     OW31549   2.933   4.133   2.708  0.3025 -0.1249 -0.5998
 6697SOL    HW131550   2.850   4.095   2.737 -0.2618  2.3463  1.0282
 6697SOL    HW231551   2.994   4.075   2.754 -1.2514  1.3011  3.2850
 6698SOL     OW31552   1.109   4.230   2.027 -0.3014  0.2793 -0.0918
 6698SOL    HW131553   1.090   4.159   1.965  1.0988  0.0106 -0.2299
 6698SOL    HW231554   1.165   4.184   2.090  1.3294 -1.2677 -2.6574
 6699SOL     OW31555   0.084   2.814   4.063 -0.1212  0.1394 -0.7812
 6699SOL    HW131556   0.145   2.824   3.991 -0.7135  0.3154 -1.2582
 6699SOL    HW231557   0.085   2.725   4.098  0.2213  0.3869 -0.1482
 6700SOL     OW31558   2.918   0.421  11.784 -0.6600 -0.5364  0.5696
 6700SOL    HW131559   2.965   0.505  11.791 -2.7043  0.4897  1.9057
 6700SOL    HW231560   2.863   0.420  11.862 -0.3585  0.6863  0.8036
 6701SOL     OW31561   2.252   4.106   5.983 -0.1112  0.8517  0.6267
 6701SOL    HW131562   2.166   4.080   6.015  0.7319 -2.3135  0.3342
 6701SOL    HW231563   2.246   4.201   5.994 -2.4066  0.8514 -0.7207
 6702SOL     OW31564   1.773   3.491   9.753  0.3831 -0.4460  0.2131
 6702SOL    HW131565   1.869   3.488   9.745  0.5661 -0.0048  2.2468
 6702SOL    HW231566   1.751   3.399   9.768 -0.4764 -0.7238 -2.6147
 6703SOL     OW31567   3.790   0.254   3.878  0.4660  0.0842 -0.0716
 6703SOL    HW131568   3.698   0.253   3.904 -0.1700  1.1132 -2.2684
 6703SOL    HW231569   3.796   0.336   3.829 -0.1715  0.2085  0.0472
 6704SOL     OW31570   4.095   4.248   2.971 -0.2853  0.1536 -0.2105
 6704SOL    HW131571   4.176   4.255   2.921  0.6983  0.6311  1.4701
 6704SOL    HW231572   4.094   4.335   3.009 -0.1567 -0.1012  0.3833
 6705SOL     OW31573   2.710   3.950   5.992  0.1872  0.1236  0.1274
 6705SOL    HW131574   2.710   4.044   6.005 -2.4107  0.4636 -2.3761
 6705SOL    HW231575   2.615   3.940   5.981  0.3301 -1.4745  0.3014
 6706SOL     OW31576   2.223   0.383   2.615  0.0994 -0.4841 -0.0326
 6706SOL    HW131577   2.172   0.445   2.562 -2.2415 -1.2368  1.3511
 6706SOL    HW231578   2.205   0.422   2.701 -0.8183 -0.7205 -0.1124
 6707SOL     OW31579   3.217   0.788  11.781  0.2405 -0.1806  0.0814
 6707SOL    HW131580   3.309   0.786  11.755 -0.5192  1.1698 -2.7640
 6707SOL    HW231581   3.189   0.880  11.787  1.4048  0.0375  2.1141
 6708SOL     OW31582   4.109   2.653   3.852  0.2937  0.0828 -0.2498
 6708SOL    HW131583   4.193   2.698   3.858  1.0914 -1.6437  1.2083
 6708SOL    HW231584   4.070   2.684   3.770  2.3263  3.1788 -0.0680
 6709SOL     OW31585   2.646   0.092   6.596  0.3611  0.0670  0.4418
 6709SOL    HW131586   2.683   0.020   6.648  3.0796  1.7898  0.9039
 6709SOL    HW231587   2.629   0.035   6.521  3.6491  0.7020 -0.8217
 6710SOL     OW31588   1.327   3.175   8.606 -0.0059  0.0638  0.2702
 6710SOL    HW131589   1.300   3.226   8.681  2.6090  0.4642  0.9220
 6710SOL    HW231590   1.287   3.088   8.617  1.5333 -0.6515  0.2346
 6711SOL     OW31591   4.203   0.614   4.594 -0.2569  0.1192  0.0749
 6711SOL    HW131592   4.277   0.659   4.554  1.2005 -1.6861  0.7225
 6711SOL    HW231593   4.213   0.522   4.568  0.7318  0.3574 -0.3889
 6712SOL     OW31594   0.587   0.370   1.056  0.2980 -0.5539 -0.0879
 6712SOL    HW131595   0.502   0.354   1.015 -0.8894  1.6828  1.5076
 6712SOL    HW231596   0.617   0.438   0.996  0.4578 -2.0790 -1.7199
 6713SOL     OW31597   0.730   4.660   8.839  0.3310 -0.0400  0.5429
 6713SOL    HW131598   0.763   0.029   8.826  2.1313 -0.7774  0.0660
 6713SOL    HW231599   0.797   4.604   8.801  0.2981  0.4420 -0.2324
 6714SOL     OW31600   1.952   3.089  15.154  0.1196  0.7613 -0.0226
 6714SOL    HW131601   1.993   3.015  15.108 -0.6433  0.8191 -0.8140
 6714SOL    HW231602   2.015   3.126  15.216  1.7231 -1.4957 -0.2862
 6715SOL     OW31603   2.256   1.292  15.557  0.2084  0.0998  0.3891
 6715SOL    HW131604   2.229   1.313  15.467  2.6995 -0.3684 -0.4696
 6715SOL    HW231605   2.175   1.263  15.600  0.1252 -1.3703 -0.7614
 6716SOL     OW31606   4.412   4.675  10.349  0.0520 -0.2400 -0.7716
 6716SOL    HW131607   4.414   4.610  10.279 -1.2103 -0.6382 -0.4417
 6716SOL    HW231608   4.385   4.621  10.424  0.6627  0.4214 -0.0686
 6717SOL     OW31609   3.771   4.138  12.204  0.0951  0.3732 -0.6193
 6717SOL    HW131610   3.739   4.144  12.113  0.0590 -0.0312 -0.6370
 6717SOL    HW231611   3.724   4.062  12.240 -0.9509  0.5372 -1.6214
 6718SOL     OW31612   2.275   1.344  14.428 -0.3691 -0.3798 -0.2301
 6718SOL    HW131613   2.312   1.426  14.459  0.3715 -0.4531 -0.9017
 6718SOL    HW231614   2.184   1.368  14.411 -0.1403 -0.2774 -1.3063
 6719SOL     OW31615   0.107   1.595  14.770  0.4324  0.3994 -0.1054
 6719SOL    HW131616   0.105   1.505  14.738  2.7859  0.0832  0.6281
 6719SOL    HW231617   0.202   1.606  14.767  0.3470  1.2622  0.2215
 6720SOL     OW31618   2.312   4.443  15.257 -1.0611  0.6968  0.4163
 6720SOL    HW131619   2.345   4.506  15.321  1.7520 -0.5447  0.1437
 6720SOL    HW231620   2.322   4.361  15.305 -0.4617  1.2416  1.2217
 6721SOL     OW31621   0.488   1.477   5.075  0.7885  0.1259  0.4147
 6721SOL    HW131622   0.560   1.450   5.131  1.4601  4.3917  1.6620
 6721SOL    HW231623   0.419   1.416   5.102  0.3922  0.8194  0.9988
 6722SOL     OW31624   3.515   0.043   0.531 -1.2479  0.1986  0.1168
 6722SOL    HW131625   3.559   0.017   0.612 -1.8832 -0.9936  0.0738
 6722SOL    HW231626   3.530   4.684   0.479 -0.6458 -0.5301  1.3853
 6723SOL     OW31627   0.827   0.466   6.463  0.1943  0.2734  0.3940
 6723SOL    HW131628   0.811   0.419   6.381  0.6403 -1.2305  1.1703
 6723SOL    HW231629   0.909   0.514   6.449 -1.0779  2.6176  0.9607
 6724SOL     OW31630   1.114   2.226   3.298  0.4317 -0.2261  0.1312
 6724SOL    HW131631   1.083   2.316   3.298  0.4304 -0.2281 -0.0638
 6724SOL    HW231632   1.155   2.229   3.212 -0.3071  0.3223 -0.1965
 6725SOL     OW31633   2.346   1.593   7.367 -0.6217 -0.4928 -0.2182
 6725SOL    HW131634   2.286   1.521   7.389 -0.3379 -0.4264  0.7678
 6725SOL    HW231635   2.327   1.632   7.282  0.7315  1.0267  0.1859
 6726SOL     OW31636   2.069   2.361   4.504  0.0472  0.6007  0.1093
 6726SOL    HW131637   2.114   2.437   4.466  0.3682 -0.3915 -1.5127
 6726SOL    HW231638   2.034   2.338   4.418 -1.0554  0.9283  0.4726
 6727SOL     OW31639   2.714   1.471   0.559 -0.2498 -0.8353  0.6105
 6727SOL    HW131640   2.648   1.476   0.491  0.1605  1.1931  0.3525
 6727SOL    HW231641   2.782   1.425   0.510 -1.7975 -1.3025 -1.0745
 6728SOL     OW31642   0.558   3.292   5.436  0.1830  0.2095 -0.3023
 6728SOL    HW131643   0.546   3.245   5.519 -1.6163 -1.0064 -1.2524
 6728SOL    HW231644   0.502   3.370   5.444 -0.1410 -0.1242  0.7614
 6729SOL     OW31645   4.191   0.410   9.197 -0.2251  0.1743  0.0406
 6729SOL    HW131646   4.119   0.348   9.186  1.4366 -1.9231  1.1358
 6729SOL    HW231647   4.218   0.383   9.284  1.2609 -1.2328 -0.8551
 6730SOL     OW31648   1.358   4.256  13.990  0.2029 -0.4208 -0.3518
 6730SOL    HW131649   1.309   4.240  14.071  2.4694  0.0278  1.1023
 6730SOL    HW231650   1.320   4.338  13.962  2.7311  1.2268  0.9950
 6731SOL     OW31651   3.988   0.439   7.307 -0.2591 -0.2426  0.9289
 6731SOL    HW131652   3.993   0.394   7.222  0.9738 -1.9275  1.8760
 6731SOL    HW231653   3.926   0.507   7.283  0.3180 -0.2940 -0.7259
 6732SOL     OW31654   3.936   2.920  12.972  0.1511  0.0894  0.0075
 6732SOL    HW131655   3.977   2.835  12.960  0.4905  0.1261  0.8608
 6732SOL    HW231656   3.890   2.928  12.889  1.1236  1.9798 -0.3632
 6733SOL     OW31657   3.484   3.468   2.991  0.5338 -0.0311 -0.3210
 6733SOL    HW131658   3.455   3.386   2.952 -1.5085 -0.5120  2.1677
 6733SOL    HW231659   3.574   3.477   2.960 -0.0868  0.4095 -2.0038
 6734SOL     OW31660   3.566   4.706   2.731 -0.2747 -0.2080 -0.1529
 6734SOL    HW131661   3.588   4.715   2.638 -2.2902 -0.1511 -0.6361
 6734SOL    HW231662   3.512   0.066   2.739 -0.9574 -0.6827 -0.0132
 6735SOL     OW31663   3.293   2.739  13.978 -0.0195 -0.2209 -0.3353
 6735SOL    HW131664   3.274   2.671  13.914 -0.8121 -1.2084  0.9506
 6735SOL    HW231665   3.223   2.728  14.043  2.5637  2.0297  2.8358
 6736SOL     OW31666   2.419   3.473   5.471  0.5664  0.0151 -0.0367
 6736SOL    HW131667   2.337   3.460   5.424  0.4978 -0.3224  0.1773
 6736SOL    HW231668   2.458   3.388   5.453  0.7442 -0.1059  0.9253
 6737SOL     OW31669   2.152   1.822   7.000 -0.2496 -0.5145 -0.3699
 6737SOL    HW131670   2.212   1.767   6.950  1.3438  0.1607  0.8245
 6737SOL    HW231671   2.213   1.864   7.061 -0.9139  0.2197 -0.2024
 6738SOL     OW31672   4.046   0.238   3.405  0.1603 -0.4222 -0.6123
 6738SOL    HW131673   4.000   0.214   3.485 -0.0547  0.0879 -0.5823
 6738SOL    HW231674   3.982   0.205   3.341 -0.2239  0.5575 -0.7348
 6739SOL     OW31675   1.729   0.165   3.609 -0.1881 -0.0177 -0.1061
 6739SOL    HW131676   1.640   0.188   3.581 -1.0945 -0.8470  2.0767
 6739SOL    HW231677   1.709   0.085   3.657  2.2822  0.9421  2.4477
 6740SOL     OW31678   2.493   3.700   6.859  0.5326  0.0288 -0.3383
 6740SOL    HW131679   2.490   3.661   6.947  0.1549 -0.5245 -0.5986
 6740SOL    HW231680   2.513   3.618   6.814  1.0537 -0.3563  0.5935
 6741SOL     OW31681   2.291   1.161   3.029  0.2222 -0.5511 -0.0988
 6741SOL    HW131682   2.379   1.125   3.037  0.7144  0.5491 -0.5629
 6741SOL    HW231683   2.263   1.135   2.941 -0.7300 -2.3299  0.7354
 6742SOL     OW31684   4.307   1.453   3.296 -0.5728 -0.5371  0.4899
 6742SOL    HW131685   4.280   1.538   3.261 -4.0985 -1.4778  1.0012
 6742SOL    HW231686   4.359   1.424   3.222  2.1884  0.8740  1.8535
 6743SOL     OW31687   4.638   3.531   5.814  0.0054 -0.4949 -0.7867
 6743SOL    HW131688   4.673   3.526   5.725 -0.9528 -0.2989 -1.1806
 6743SOL    HW231689   4.696   3.601   5.844  1.8863 -2.7214  0.7668
 6744SOL     OW31690   2.432   2.448   2.666 -0.0592  0.3849 -0.0102
 6744SOL    HW131691   2.513   2.402   2.645 -0.6810 -0.5466 -0.3809
 6744SOL    HW231692   2.447   2.457   2.760  1.0388 -0.3630 -0.1146
 6745SOL     OW31693   1.102   1.624   2.137 -0.1223 -0.1794 -0.5322
 6745SOL    HW131694   1.083   1.553   2.075  0.9368 -0.3847 -0.6215
 6745SOL    HW231695   1.019   1.639   2.181 -0.6786 -1.1281 -1.2679
 6746SOL     OW31696   4.637   2.682   2.119  0.0421 -0.2679 -0.2588
 6746SOL    HW131697   4.645   2.778   2.123  1.8007 -0.3312 -1.9658
 6746SOL    HW231698   4.651   2.679   2.024 -1.1950 -1.0375 -0.4076
 6747SOL     OW31699   1.630   4.601  15.805 -0.2697 -0.2846 -0.4520
 6747SOL    HW131700   1.681   4.530  15.843  0.2056 -0.6283 -1.7486
 6747SOL    HW231701   1.537   4.589  15.826 -0.6314 -0.5949 -2.2069
 6748SOL     OW31702   1.780   3.936  11.956  0.3637  0.5457  0.3920
 6748SOL    HW131703   1.779   3.903  11.867 -0.5355  2.4787 -0.3115
 6748SOL    HW231704   1.700   3.893  11.987 -0.4857  2.4105  0.7592
 6749SOL     OW31705   1.401   2.974   7.801 -0.3191 -0.5561 -0.4568
 6749SOL    HW131706   1.351   3.048   7.764  0.4839  0.7016  0.9864
 6749SOL    HW231707   1.374   2.908   7.737 -0.6246 -0.9180  0.0558
 6750SOL     OW31708   2.871   1.603   2.122 -0.2297  0.2787  0.2564
 6750SOL    HW131709   2.880   1.620   2.216 -0.6416  0.6747  0.2270
 6750SOL    HW231710   2.918   1.522   2.102 -0.3853 -0.5250  3.0821
 6751SOL     OW31711   3.807   1.438  11.591  0.0017  0.0414  0.3522
 6751SOL    HW131712   3.763   1.492  11.656 -1.4240 -1.5285  0.6950
 6751SOL    HW231713   3.796   1.487  11.509  1.8268 -1.4291 -0.7716
 6752SOL     OW31714   1.544   3.172   2.621  0.1087  0.0461  0.8572
 6752SOL    HW131715   1.566   3.183   2.713 -1.3311  1.6816  1.0080
 6752SOL    HW231716   1.451   3.151   2.622  0.3658 -1.1612 -0.3549
 6753SOL     OW31717   3.833   2.302   1.726 -0.3333 -0.4684  0.1699
 6753SOL    HW131718   3.830   2.235   1.795  0.3492 -1.2562 -0.5569
 6753SOL    HW231719   3.927   2.320   1.728 -0.5818  1.0587 -1.9486
 6754SOL     OW31720   0.588   3.626   4.744 -0.5028 -0.5526  0.5584
 6754SOL    HW131721   0.621   3.588   4.663 -1.6908 -0.0625 -0.1562
 6754SOL    HW231722   0.512   3.671   4.707  0.9050  0.9160 -0.4994
 6755SOL     OW31723   2.685   1.565   8.259 -0.3114 -0.4824 -0.3235
 6755SOL    HW131724   2.692   1.489   8.318  4.0509  0.4587  0.3184
 6755SOL    HW231725   2.773   1.602   8.259 -0.5576  0.1042 -0.4744
 6756SOL     OW31726   4.433   3.885   3.016 -0.1260  0.3931 -0.2135
 6756SOL    HW131727   4.478   3.969   3.005 -1.2620  0.8078 -1.7141
 6756SOL    HW231728   4.343   3.917   3.023  0.0900  0.7962  0.7645
 6757SOL     OW31729   2.635   0.839   1.255 -0.0724  0.4029  0.1471
 6757SOL    HW131730   2.646   0.934   1.256  0.7289  0.3057 -0.0896
 6757SOL    HW231731   2.703   0.812   1.317  0.8579 -2.3496 -2.0629
 6758SOL     OW31732   4.245   1.137   7.226  0.3872  0.4370 -0.1481
 6758SOL    HW131733   4.230   1.189   7.305  0.7572  1.6399 -0.8559
 6758SOL    HW231734   4.339   1.124   7.215  0.4194  0.6026 -0.0815
 6759SOL     OW31735   4.447   0.903   8.592 -0.1201 -0.2005 -0.3221
 6759SOL    HW131736   4.497   0.900   8.510  0.1298  0.3268 -0.1896
 6759SOL    HW231737   4.520   0.882   8.651 -2.1237 -2.2730  1.3915
 6760SOL     OW31738   4.051   0.213  10.837  0.0940 -0.1658  0.4754
 6760SOL    HW131739   4.137   0.219  10.796 -0.0321 -0.6423  0.1404
 6760SOL    HW231740   4.080   0.217  10.928  1.3484 -0.1554  0.0684
 6761SOL     OW31741   2.670   2.239   3.615 -0.5833 -0.3237 -0.3063
 6761SOL    HW131742   2.742   2.242   3.677 -0.8269 -1.6305  0.0471
 6761SOL    HW231743   2.665   2.328   3.581 -1.6656 -0.6918 -1.1163
 6762SOL     OW31744   1.134   2.648   8.298  0.0350 -0.5730  0.0251
 6762SOL    HW131745   1.136   2.553   8.302 -0.0895 -0.5263  1.2924
 6762SOL    HW231746   1.072   2.658   8.227 -1.4178 -2.1352  1.0819
 6763SOL     OW31747   2.963   0.065   4.186 -0.7094  0.6435 -0.0026
 6763SOL    HW131748   3.022   4.711   4.172 -0.9462 -0.3156  3.9014
 6763SOL    HW231749   3.020   0.118   4.242 -1.5415  0.9249  0.5861
 6764SOL     OW31750   2.388   3.093  14.003 -0.5129 -0.0200  0.1735
 6764SOL    HW131751   2.295   3.071  14.000 -0.0555 -1.4524 -2.5953
 6764SOL    HW231752   2.415   3.060  13.918  0.9154 -0.8560  0.9528
 6765SOL     OW31753   2.864   1.113   3.648 -0.3926  0.4237  0.3390
 6765SOL    HW131754   2.875   1.159   3.565 -1.4338  2.6860  1.4719
 6765SOL    HW231755   2.794   1.166   3.685  1.1222  2.5863  0.1182
 6766SOL     OW31756   3.534   0.672   6.417  0.2598 -0.3688 -0.2974
 6766SOL    HW131757   3.567   0.722   6.342 -0.3588 -0.7984 -0.8581
 6766SOL    HW231758   3.588   0.592   6.421  0.4136 -0.1670  1.5937
 6767SOL     OW31759   2.917   1.331  16.999  0.1675  0.2051 -0.4702
 6767SOL    HW131760   2.890   1.399  17.060 -0.4462  0.2680 -0.8153
 6767SOL    HW231761   2.876   1.372  16.923  1.1020  0.0191 -1.0777
 6768SOL     OW31762   1.153   4.202  13.571  0.3596 -0.3168  0.0823
 6768SOL    HW131763   1.178   4.127  13.516  1.5148  1.9116 -2.4111
 6768SOL    HW231764   1.124   4.270  13.510 -0.2647  0.2098  0.9626
 6769SOL     OW31765   0.479   2.735  11.835  0.1000 -0.2836 -0.0751
 6769SOL    HW131766   0.406   2.690  11.879 -1.5191  0.3863 -2.0783
 6769SOL    HW231767   0.542   2.665  11.853 -1.6420 -1.3174  2.0585
 6770SOL     OW31768   0.643   4.370   5.262  0.5301 -0.4469  0.5148
 6770SOL    HW131769   0.703   4.441   5.282  0.9293  0.0357 -2.4321
 6770SOL    HW231770   0.679   4.306   5.324  1.4735 -0.2822  0.1331
 6771SOL     OW31771   1.767   3.867   5.717  0.1675 -0.0678  0.1786
 6771SOL    HW131772   1.689   3.901   5.762  0.1104 -1.0378  0.7975
 6771SOL    HW231773   1.782   3.782   5.756  4.0239  0.1800 -0.8404
 6772SOL     OW31774   0.648   4.143   4.693  0.1448 -1.2571 -0.1348
 6772SOL    HW131775   0.671   4.089   4.617 -0.8329 -0.7098 -0.8218
 6772SOL    HW231776   0.700   4.105   4.763 -0.7824 -2.6407 -0.1990
 6773SOL     OW31777   0.846   3.504   9.555 -0.6054  0.8910 -0.1667
 6773SOL    HW131778   0.823   3.545   9.472  0.9967  2.2916  0.0848
 6773SOL    HW231779   0.768   3.452   9.574 -2.2453  3.5288  0.2630
 6774SOL     OW31780   2.186   2.217   4.692 -0.2646 -0.4086  0.1388
 6774SOL    HW131781   2.169   2.283   4.625 -1.5483  1.0393  1.9084
 6774SOL    HW231782   2.145   2.139   4.654 -1.3317 -0.2545  0.9728
 6775SOL     OW31783   1.092   0.087   9.750 -0.3956  0.3699 -0.2566
 6775SOL    HW131784   1.137   0.152   9.695 -1.5454  2.1361  0.8638
 6775SOL    HW231785   1.136   0.103   9.834  3.1923  1.6880 -2.3414
 6776SOL     OW31786   0.142   1.315   3.217 -0.9653 -0.5134 -0.4776
 6776SOL    HW131787   0.098   1.291   3.298  0.0599  1.5751  0.6988
 6776SOL    HW231788   0.067   1.340   3.164 -0.4997  2.5355  0.2957
 6777SOL     OW31789   3.169   4.596   4.166  0.5863 -0.5467  0.0392
 6777SOL    HW131790   3.222   4.542   4.225 -1.4573 -0.3868  1.9913
 6777SOL    HW231791   3.235   4.614   4.099  2.3581 -3.9456  0.8269
 6778SOL     OW31792   1.220   1.071   0.015 -0.4257  0.1881  0.1938
 6778SOL    HW131793   1.292   1.029   0.062 -0.5470  2.5382  2.4964
 6778SOL    HW231794   1.149   1.057   0.076 -0.0141  0.7168  0.8010
 6779SOL     OW31795   2.641   1.031   2.362 -0.2914  0.3729 -0.3845
 6779SOL    HW131796   2.589   0.987   2.294  0.3963  0.2757 -0.8587
 6779SOL    HW231797   2.572   1.069   2.415 -0.1604 -0.2996  0.2718
 6780SOL     OW31798   4.169   2.325  13.654 -0.1785  0.1178 -0.0753
 6780SOL    HW131799   4.189   2.356  13.743  1.3717  0.8551 -0.6929
 6780SOL    HW231800   4.077   2.300  13.663 -0.8172  1.3865 -3.1703
 6781SOL     OW31801   3.354   0.112  16.979 -0.7433 -0.3314  0.0413
 6781SOL    HW131802   3.377   0.200  16.951 -1.5227  0.5961  2.3611
 6781SOL    HW231803   3.275   0.094  16.928 -0.8576 -0.9287  0.4341
 6782SOL     OW31804   1.749   4.289  10.408  0.2892  0.2024 -0.4983
 6782SOL    HW131805   1.763   4.340  10.328  1.6754  2.8044  1.4099
 6782SOL    HW231806   1.748   4.203  10.366  0.1909  0.6969 -1.5199
 6783SOL     OW31807   4.319   1.161   8.138  0.0259  0.5156  0.1507
 6783SOL    HW131808   4.328   1.084   8.081 -1.3048 -0.1627  0.8665
 6783SOL    HW231809   4.406   1.167   8.179  0.6662 -0.3494 -1.0713
 6784SOL     OW31810   1.411   3.963   8.636 -0.2557 -0.2549  0.2863
 6784SOL    HW131811   1.467   3.916   8.574  0.3700  0.5230  0.2549
 6784SOL    HW231812   1.460   3.942   8.715  0.0296 -0.7218 -0.0111
 6785SOL     OW31813   1.873   0.086   4.302 -0.5934 -0.4493 -0.4223
 6785SOL    HW131814   1.784   0.069   4.273 -0.0255 -3.1158 -0.6436
 6785SOL    HW231815   1.925   0.019   4.258  0.7273  1.4567 -1.8125
 6786SOL     OW31816   2.642   2.069  16.773 -0.0479 -1.0727 -0.1449
 6786SOL    HW131817   2.572   2.107  16.826 -0.2440 -0.8103 -0.5894
 6786SOL    HW231818   2.710   2.125  16.811 -0.8498  0.2222 -0.6221
 6787SOL     OW31819   2.490   1.264   4.231  0.3351  0.2629  0.8085
 6787SOL    HW131820   2.432   1.339   4.217  1.4842  1.1522  0.7925
 6787SOL    HW231821   2.479   1.260   4.326  0.9033  2.8456  0.9805
 6788SOL     OW31822   1.553   3.499   6.886 -0.1144 -0.7397  0.1057
 6788SOL    HW131823   1.633   3.454   6.857  0.2170  0.9706 -1.7072
 6788SOL    HW231824   1.496   3.467   6.816  1.2188 -2.3301 -0.2484
 6789SOL     OW31825   1.133   3.853  17.615  0.6981 -0.3631 -0.1012
 6789SOL    HW131826   1.051   3.903  17.616 -0.1552 -1.7707 -0.6016
 6789SOL    HW231827   1.150   3.836   0.026  0.3876 -1.2112 -0.1997
 6790SOL     OW31828   3.574   1.724   8.566 -0.0680  0.8118 -0.9167
 6790SOL    HW131829   3.522   1.796   8.530  1.8757  1.6866 -1.9723
 6790SOL    HW231830   3.667   1.741   8.547  0.6890 -0.3474  1.6579
 6791SOL     OW31831   3.642   3.598  10.011  0.6529  0.1747  0.4351
 6791SOL    HW131832   3.684   3.585   9.926 -1.6337 -0.7331 -0.5480
 6791SOL    HW231833   3.553   3.565  10.002 -0.1756  2.4619  0.0378
 6792SOL     OW31834   0.756   0.156   5.315 -0.1160  0.1837 -0.0905
 6792SOL    HW131835   0.774   0.084   5.375 -0.9301 -1.0625 -1.3371
 6792SOL    HW231836   0.736   0.222   5.381  1.0543  0.2532  0.1886
 6793SOL     OW31837   0.447   2.842  15.772  0.2797 -0.2096  0.5026
 6793SOL    HW131838   0.365   2.816  15.731  0.4531  1.2062 -0.7512
 6793SOL    HW231839   0.503   2.832  15.695  0.7426 -1.3293  0.9855
 6794SOL     OW31840   1.821   2.962  10.242 -0.0067 -0.2191  0.5542
 6794SOL    HW131841   1.853   3.022  10.175 -0.5100  0.6693  1.1158
 6794SOL    HW231842   1.805   2.884  10.188 -1.3316  1.0429 -0.8690
 6795SOL     OW31843   1.735   1.848  10.397  0.5459  0.5276 -0.0318
 6795SOL    HW131844   1.693   1.881  10.318  0.5982 -3.0221 -1.5440
 6795SOL    HW231845   1.822   1.830  10.359  0.6649  0.0406  0.4672
 6796SOL     OW31846   0.996   3.878   7.791 -0.1227  0.2832  0.2390
 6796SOL    HW131847   1.038   3.837   7.716 -1.6679  0.0330 -0.4937
 6796SOL    HW231848   1.024   3.821   7.863  3.0428  2.1865  0.5145
 6797SOL     OW31849   0.033   2.571   6.327  0.0348 -0.2163  0.0530
 6797SOL    HW131850   4.668   2.597   6.290 -0.7459 -0.4111  1.7223
 6797SOL    HW231851   0.004   2.507   6.392  0.4605 -0.3920  0.0700
 6798SOL     OW31852   2.325   0.975  14.982  0.1714 -0.8712  0.0022
 6798SOL    HW131853   2.387   1.047  14.991  0.6960 -1.0928 -1.8199
 6798SOL    HW231854   2.379   0.928  14.919  0.9110  0.1320 -0.0990
 6799SOL     OW31855   4.542   1.624   7.269 -0.0165  0.3674  0.3423
 6799SOL    HW131856   4.514   1.703   7.315 -1.2869  0.2289 -0.1893
 6799SOL    HW231857   4.585   1.564   7.330  0.4483  2.0361  1.6580
 6800SOL     OW31858   0.388   3.207   3.080  0.4399  0.0639 -0.0168
 6800SOL    HW131859   0.366   3.114   3.073 -0.3655  0.3826 -1.8827
 6800SOL    HW231860   0.421   3.207   3.170 -0.3656 -0.7235  0.2841
 6801SOL     OW31861   4.030   1.320   6.027 -0.7558 -0.1491  0.4788
 6801SOL    HW131862   4.001   1.365   6.106  4.6211  0.2410  2.1819
 6801SOL    HW231863   3.966   1.348   5.961  0.5255  0.3688 -0.5466
 6802SOL     OW31864   0.521   0.203   4.465 -0.3831  0.5257 -0.8269
 6802SOL    HW131865   0.567   0.152   4.531  1.8262  2.9757 -0.4651
 6802SOL    HW231866   0.560   0.161   4.389 -1.0802 -1.2607 -0.2022
 6803SOL     OW31867   1.286   4.427   4.756  0.2940 -0.0039  0.1050
 6803SOL    HW131868   1.256   4.501   4.810  1.6633  1.6429 -1.4337
 6803SOL    HW231869   1.336   4.370   4.814  0.2940  0.0851  0.1933
 6804SOL     OW31870   4.704   3.142   8.295 -0.2101 -0.5025 -0.0761
 6804SOL    HW131871   0.053   3.077   8.283 -0.8583 -1.8493  3.4647
 6804SOL    HW231872   4.623   3.098   8.269 -0.9316 -0.9163  2.8282
 6805SOL     OW31873   0.087   2.051  12.870 -0.1422  0.1600 -0.5529
 6805SOL    HW131874   0.158   2.044  12.805  0.8599  0.8722  0.4548
 6805SOL    HW231875   0.055   1.962  12.851  2.0562 -0.4031 -1.6478
 6806SOL     OW31876   1.888   1.077   5.883 -0.1094  0.1895  0.4065
 6806SOL    HW131877   1.816   1.020   5.909 -0.7807  1.8991  2.3019
 6806SOL    HW231878   1.936   1.078   5.965 -0.9759  0.0096  0.9175
 6807SOL     OW31879   1.387   0.848   0.054 -0.2142  0.0184  0.6173
 6807SOL    HW131880   1.337   0.778   0.097  0.0829  0.0133  0.9531
 6807SOL    HW231881   1.428   0.804  17.661  2.2250  0.0533  1.9431
 6808SOL     OW31882   1.771   1.463  16.369 -0.2069 -0.0439 -0.4335
 6808SOL    HW131883   1.796   1.428  16.283 -0.7650 -1.6705  0.0758
 6808SOL    HW231884   1.813   1.405  16.432  0.0422  1.0342  0.3927
 6809SOL     OW31885   4.176   1.984   3.662 -0.0966  0.1757  0.3759
 6809SOL    HW131886   4.232   2.037   3.607  0.4265 -1.1611 -0.3858
 6809SOL    HW231887   4.163   2.042   3.737  0.2997 -0.9599  1.3257
 6810SOL     OW31888   0.128   2.033   4.414 -0.0797  0.3790  0.4375
 6810SOL    HW131889   0.189   2.019   4.341 -0.1969  1.5052  0.1196
 6810SOL    HW231890   0.177   1.985   4.480  2.3420  1.8109 -0.3137
 6811SOL     OW31891   2.801   0.784   8.557  0.3493  0.3680 -0.4709
 6811SOL    HW131892   2.888   0.762   8.591 -0.4714 -0.5333  1.0587
 6811SOL    HW231893   2.818   0.783   8.463  0.1701 -1.2735 -0.4781
 6812SOL     OW31894   1.689   1.655   8.574  0.1547 -0.0006  0.4525
 6812SOL    HW131895   1.711   1.563   8.564  0.1637  0.0066  0.4057
 6812SOL    HW231896   1.768   1.686   8.618 -1.3618  1.6011  2.0673
 6813SOL     OW31897   2.437   1.438  17.421  0.0461  0.0605  0.1719
 6813SOL    HW131898   2.420   1.362  17.365  0.7974  0.8935 -1.1836
 6813SOL    HW231899   2.381   1.433  17.498  2.1312 -0.2326  1.6795
 6814SOL     OW31900   0.052   4.129  13.957  0.3495 -0.1658 -0.5687
 6814SOL    HW131901   0.135   4.160  13.921  0.3585 -0.1855 -0.5648
 6814SOL    HW231902   0.040   4.174  14.040 -0.3664 -0.9626 -0.2420
 6815SOL     OW31903   4.546   1.435  12.005  0.2582  0.0832  0.6011
 6815SOL    HW131904   4.636   1.458  12.028  0.4298  1.8686 -1.8092
 6815SOL    HW231905   4.505   1.440  12.091 -1.9349  0.6756 -0.4779
 6816SOL     OW31906   3.894   0.432  12.371  0.2657  0.8136 -0.8619
 6816SOL    HW131907   3.876   0.412  12.279 -1.6168  2.0001 -0.7536
 6816SOL    HW231908   3.808   0.431  12.413 -0.2060 -0.4215 -1.8685
 6817SOL     OW31909   2.444   2.631  11.348 -0.8806  0.0301 -0.2076
 6817SOL    HW131910   2.513   2.567  11.365  0.6977  1.6949 -0.3789
 6817SOL    HW231911   2.368   2.574  11.336 -0.0883 -0.5362 -2.5782
 6818SOL     OW31912   1.108   1.267   5.148  0.3059  0.2782  0.0652
 6818SOL    HW131913   1.197   1.269   5.113 -0.5139 -3.4336 -2.2185
 6818SOL    HW231914   1.088   1.177   5.123  2.0590  0.4380 -1.9339
 6819SOL     OW31915   3.765   2.155   4.194 -1.1264  0.8272  0.1927
 6819SOL    HW131916   3.859   2.143   4.199 -1.1272 -0.5792 -2.8913
 6819SOL    HW231917   3.765   2.238   4.241 -1.3086  2.0359 -1.9752
 6820SOL     OW31918   3.410   2.302   9.237 -0.4695 -0.3972  0.3928
 6820SOL    HW131919   3.481   2.360   9.263 -0.6731  0.2367 -0.4629
 6820SOL    HW231920   3.359   2.282   9.315  0.3562  1.3523  1.3825
 6821SOL     OW31921   1.942   3.077   2.631 -0.2132  0.4070  0.7974
 6821SOL    HW131922   1.929   3.072   2.726  2.1529 -0.6470  1.0610
 6821SOL    HW231923   1.953   3.172   2.619 -0.1115  0.7544  3.6030
 6822SOL     OW31924   4.158   4.023   3.660 -0.4960 -0.5171 -0.0159
 6822SOL    HW131925   4.151   4.060   3.748  0.0061  0.1173 -0.2455
 6822SOL    HW231926   4.251   4.039   3.640 -0.7759  1.6016  0.3762
 6823SOL     OW31927   3.282   0.265  16.152  0.0720  0.0503  0.5799
 6823SOL    HW131928   3.314   0.315  16.228  1.8121  0.3192 -0.3312
 6823SOL    HW231929   3.327   0.183  16.172  0.4602  0.1613  0.1455
 6824SOL     OW31930   2.459   3.378  17.415  0.0743  0.1508 -0.4135
 6824SOL    HW131931   2.497   3.359  17.500 -0.3886  1.0487 -0.0006
 6824SOL    HW231932   2.513   3.449  17.379  0.0638  0.0975 -0.5330
 6825SOL     OW31933   0.657   1.775   7.179 -0.4365 -0.4148  0.2551
 6825SOL    HW131934   0.567   1.741   7.188 -0.8886  0.8036  0.3655
 6825SOL    HW231935   0.672   1.811   7.266 -0.0006 -1.7214  0.7158
 6826SOL     OW31936   4.429   3.343   6.940 -0.0651  0.1834 -0.0891
 6826SOL    HW131937   4.397   3.403   6.872 -0.8039  0.6470  0.6701
 6826SOL    HW231938   4.478   3.403   6.996  0.3266  1.9743 -2.3460
 6827SOL     OW31939   1.111   2.583   5.545  0.1507  0.2398 -0.7834
 6827SOL    HW131940   1.167   2.532   5.604  0.7929  2.4070  0.4921
 6827SOL    HW231941   1.173   2.656   5.533 -0.3783  0.6833 -0.8224
 6828SOL     OW31942   2.081   4.007   5.644  0.0791  0.0369  0.1006
 6828SOL    HW131943   2.170   4.038   5.659 -0.9625  2.1463  1.9525
 6828SOL    HW231944   2.040   4.079   5.597 -2.5211 -0.4747  1.5893
 6829SOL     OW31945   4.414   3.275   4.916  0.3781  0.2251 -0.3190
 6829SOL    HW131946   4.415   3.263   5.011 -0.6678 -2.2855 -0.6197
 6829SOL    HW231947   4.508   3.273   4.896  0.4987  1.5997  0.1245
 6830SOL     OW31948   0.061   3.503   2.143 -0.7616  0.1153  0.8070
 6830SOL    HW131949   0.069   3.410   2.120 -2.0702  0.5091 -1.2110
 6830SOL    HW231950   4.700   3.538   2.107  0.2562  1.8728  0.2281
 6831SOL     OW31951   2.098   2.865   7.660 -0.2861  0.2623 -0.4770
 6831SOL    HW131952   2.168   2.914   7.617  0.1330  1.6782  1.8125
 6831SOL    HW231953   2.125   2.777   7.633 -0.0410  0.0361  0.5164
 6832SOL     OW31954   1.054   3.275   6.168  0.3665 -0.0610  0.4022
 6832SOL    HW131955   1.074   3.219   6.243  2.3284 -0.5004 -0.4461
 6832SOL    HW231956   1.026   3.360   6.201  0.0991  0.1260 -0.3021
 6833SOL     OW31957   2.737   2.009   5.909  0.3123 -0.7607 -0.0250
 6833SOL    HW131958   2.644   1.989   5.897 -0.5012  3.9029 -1.4548
 6833SOL    HW231959   2.745   2.080   5.846  2.0356 -1.0836 -0.1541
 6834SOL     OW31960   0.347   3.965   8.313 -0.2403  0.0117  0.3079
 6834SOL    HW131961   0.357   4.055   8.343  0.4968  0.1747 -0.4053
 6834SOL    HW231962   0.333   3.984   8.220 -1.0388  0.9644  0.6311
 6835SOL     OW31963   0.698   4.183   2.882 -0.0715  0.0608 -0.0467
 6835SOL    HW131964   0.752   4.236   2.941 -0.7115 -1.6765  2.0919
 6835SOL    HW231965   0.719   4.237   2.806 -0.4665  0.6086  0.2347
 6836SOL     OW31966   1.843   0.838  12.722  0.4006  0.0815 -0.2495
 6836SOL    HW131967   1.809   0.789  12.647  2.2002 -0.2305 -0.8572
 6836SOL    HW231968   1.935   0.838  12.697  0.2034  0.3728 -0.9826
 6837SOL     OW31969   4.492   3.969   6.475 -0.2424  0.3732 -0.7253
 6837SOL    HW131970   4.477   3.932   6.563 -0.9541  2.9447  0.2325
 6837SOL    HW231971   4.438   3.908   6.425 -0.3488  0.3749 -0.6136
 6838SOL     OW31972   1.594   1.713   7.001 -0.0819 -0.2420 -0.0725
 6838SOL    HW131973   1.609   1.754   7.086  0.5674  0.0817 -0.3464
 6838SOL    HW231974   1.516   1.759   6.969 -0.6987  0.2860  2.2096
 6839SOL     OW31975   1.380   4.215   1.653 -0.4273 -0.0589 -0.1039
 6839SOL    HW131976   1.306   4.193   1.597  0.0890  1.1706 -1.2640
 6839SOL    HW231977   1.359   4.303   1.683  2.9734  0.1558  1.7049
 6840SOL     OW31978   0.311   4.154   7.693  0.0942  0.0509  0.3671
 6840SOL    HW131979   0.219   4.126   7.699 -0.1759  1.0468  0.7410
 6840SOL    HW231980   0.362   4.079   7.724  0.6659  0.8629  1.3462
 6841SOL     OW31981   0.778   3.837   0.228 -0.2213 -0.9275 -0.0778
 6841SOL    HW131982   0.702   3.787   0.261 -0.1605 -1.1879 -0.3365
 6841SOL    HW231983   0.836   3.815   0.302 -1.2778 -1.4005  0.6127
 6842SOL     OW31984   0.447   3.596   3.788 -0.4769 -0.1920 -0.2952
 6842SOL    HW131985   0.539   3.625   3.788 -1.4622  2.9371  0.0919
 6842SOL    HW231986   0.427   3.594   3.694 -0.9327 -2.4541 -0.1405
 6843SOL     OW31987   1.022   0.727   6.048  0.5099 -0.1358 -0.0333
 6843SOL    HW131988   0.986   0.678   6.122 -0.4697  2.4259  1.1447
 6843SOL    HW231989   0.949   0.714   5.988 -0.3758 -2.1474  1.4900
 6844SOL     OW31990   0.350   0.508  11.203 -0.8067 -0.5516 -0.2722
 6844SOL    HW131991   0.380   0.559  11.279 -0.2242 -0.4673 -0.5674
 6844SOL    HW231992   0.259   0.488  11.226 -0.7535 -1.3332 -0.7606
 6845SOL     OW31993   4.662   3.959  11.957 -0.0802  0.1809  0.0898
 6845SOL    HW131994   0.016   3.930  11.904  0.5327  0.5986  0.7099
 6845SOL    HW231995   4.699   4.023  12.018 -2.2046  1.0681  0.4579
 6846SOL     OW31996   3.687   4.125  12.517  0.2430 -0.3809  0.0195
 6846SOL    HW131997   3.615   4.076  12.478 -0.1235 -0.4585  0.7894
 6846SOL    HW231998   3.759   4.062  12.517  0.6535  0.1008  5.6960
 6847SOL     OW31999   0.355   4.428   8.261  0.1285  0.2733 -0.5000
 6847SOL    HW132000   0.385   4.511   8.298 -0.4910  0.4690 -0.4324
 6847SOL    HW232001   0.294   4.451   8.191 -2.1366 -2.0664  0.7127
 6848SOL     OW32002   1.260   1.188   3.631  0.4797 -0.2010  0.3547
 6848SOL    HW132003   1.195   1.184   3.701  0.0153  0.1333 -0.0526
 6848SOL    HW232004   1.265   1.283   3.622 -0.1475 -0.3937 -2.0056
 6849SOL     OW32005   2.777   0.188   7.653 -0.5069  0.3900 -0.2134
 6849SOL    HW132006   2.779   0.147   7.740  1.4735  0.1263 -0.3853
 6849SOL    HW232007   2.718   0.127   7.608 -0.5819 -0.8328  1.5198
 6850SOL     OW32008   3.011   2.993   7.691  0.3456  0.2000 -0.4282
 6850SOL    HW132009   2.989   2.912   7.738 -2.4551  1.0384 -0.2753
 6850SOL    HW232010   3.053   3.034   7.766 -0.0694 -0.3231  0.0904
 6851SOL     OW32011   1.755   0.119  16.876 -0.2204  0.0519  0.6406
 6851SOL    HW132012   1.831   0.110  16.820 -1.2686 -2.5160 -0.3701
 6851SOL    HW232013   1.677   0.125  16.820 -2.0145  0.1041  3.0982
 6852SOL     OW32014   2.006   4.472   4.078 -0.8914  0.7341 -0.1675
 6852SOL    HW132015   2.064   4.531   4.029  0.2692 -0.1696  0.1108
 6852SOL    HW232016   2.031   4.384   4.053 -0.9206  0.2900  1.3605
 6853SOL     OW32017   2.666   2.763  14.497 -0.5592  0.0628 -0.0508
 6853SOL    HW132018   2.574   2.780  14.476 -0.9833 -1.7589  0.4022
 6853SOL    HW232019   2.673   2.711  14.577 -2.4196  1.0446  0.7508
 6854SOL     OW32020   2.079   1.233   5.515 -0.2728  0.3576  0.3380
 6854SOL    HW132021   1.995   1.201   5.482 -0.7085  2.6539 -0.7562
 6854SOL    HW232022   2.111   1.265   5.431  0.9491 -0.4046  0.5034
 6855SOL     OW32023   2.442   3.964  15.058 -0.2696 -0.5678  0.1660
 6855SOL    HW132024   2.425   4.024  14.986  1.5470 -0.5005 -0.2160
 6855SOL    HW232025   2.461   4.020  15.133 -2.6456  0.2662  0.1446
 6856SOL     OW32026   3.534   1.737   2.312 -0.1147 -0.3765 -0.0398
 6856SOL    HW132027   3.476   1.758   2.386 -0.8116 -0.7713 -0.4778
 6856SOL    HW232028   3.592   1.677   2.359  1.0523  1.5870  1.0453
 6857SOL     OW32029   3.261   2.371   7.987 -0.5586  0.2919  0.2132
 6857SOL    HW132030   3.326   2.322   8.038  3.0178  3.8131 -1.0276
 6857SOL    HW232031   3.195   2.305   7.965 -1.4296  1.3375 -0.2508
 6858SOL     OW32032   0.278   4.175   8.085  0.0154  0.2210 -0.0336
 6858SOL    HW132033   0.335   4.102   8.058 -0.4916 -0.5565  0.9817
 6858SOL    HW232034   0.205   4.144   8.032  0.3805 -1.5507  0.4873
 6859SOL     OW32035   3.224   0.405   5.318  0.6384  0.1578  0.0054
 6859SOL    HW132036   3.217   0.447   5.232  2.2632  0.5489  0.0830
 6859SOL    HW232037   3.283   0.465   5.363 -0.0640  0.7299  0.1588
 6860SOL     OW32038   0.541   1.597   8.248 -0.1045  0.5266  0.5571
 6860SOL    HW132039   0.620   1.597   8.303 -1.4169  0.4334  2.4449
 6860SOL    HW232040   0.541   1.504   8.223  1.5404  0.1831  1.8203
 6861SOL     OW32041   3.875   3.494   8.999  0.0344  0.0942  0.5474
 6861SOL    HW132042   3.900   3.402   8.991 -0.0310 -0.0675  2.1516
 6861SOL    HW232043   3.806   3.475   9.063 -1.3101  1.4553 -0.5105
 6862SOL     OW32044   3.908   3.375   3.100 -0.2557  0.0018 -0.1041
 6862SOL    HW132045   3.917   3.389   3.194 -0.0540 -1.7136  0.1220
 6862SOL    HW232046   3.878   3.284   3.103 -0.4989  0.1825  2.9924
 6863SOL     OW32047   0.772   1.281   8.340  0.1778  0.5221  0.0078
 6863SOL    HW132048   0.782   1.253   8.431 -0.8355  1.0313  0.2765
 6863SOL    HW232049   0.782   1.375   8.356  1.3243  0.3656  0.1658
 6864SOL     OW32050   2.792   0.897   3.260 -0.0433 -0.0117 -0.4757
 6864SOL    HW132051   2.708   0.852   3.257 -0.2543  0.2763  1.5904
 6864SOL    HW232052   2.830   0.859   3.339  1.0041  1.6735 -0.1671
 6865SOL     OW32053   3.577   2.943   8.232 -0.5266  0.0115  0.2711
 6865SOL    HW132054   3.508   2.974   8.173 -0.5660  1.5341  1.1351
 6865SOL    HW232055   3.619   3.016   8.277 -1.4701  1.2826 -0.9268
 6866SOL     OW32056   3.892   2.903   8.610  0.4594  0.2299 -0.1430
 6866SOL    HW132057   3.969   2.901   8.666 -0.6083  0.4981  1.3304
 6866SOL    HW232058   3.882   2.814   8.576 -0.1538  0.9028 -1.7552
 6867SOL     OW32059   1.762   0.031  17.535 -0.3055 -0.1353  0.0936
 6867SOL    HW132060   1.685   0.048  17.481 -0.6664  0.0481  0.6603
 6867SOL    HW232061   1.824   4.714  17.473  0.0125  0.5029  0.0325
 6868SOL     OW32062   3.165   0.168   2.186  0.1087 -0.1412  0.4111
 6868SOL    HW132063   3.152   0.252   2.143 -0.2153 -0.2114  0.3697
 6868SOL    HW232064   3.174   0.189   2.279  0.4337 -1.8635  0.7680
 6869SOL     OW32065   2.290   3.622   5.948 -0.0690 -0.6287  0.1699
 6869SOL    HW132066   2.270   3.684   6.018 -0.1085  1.0354 -1.2939
 6869SOL    HW232067   2.231   3.551   5.972 -0.7810 -0.8254 -2.1212
 6870SOL     OW32068   1.733   0.068   6.766 -0.2351  0.3889  0.4499
 6870SOL    HW132069   1.817   0.116   6.765 -0.4882  0.8014 -2.3091
 6870SOL    HW232070   1.739   0.036   6.676 -0.2186 -0.2601  0.6861
 6871SOL     OW32071   2.594   2.227   1.507 -0.4781  0.1399  0.0064
 6871SOL    HW132072   2.498   2.229   1.502 -0.3433 -2.3100 -3.6142
 6871SOL    HW232073   2.606   2.286   1.581  1.7791  0.2420 -0.4553
 6872SOL     OW32074   0.889   4.107   4.817  0.0600 -0.0680  0.1086
 6872SOL    HW132075   0.859   4.017   4.831 -0.8615  0.6684  2.8441
 6872SOL    HW232076   0.984   4.101   4.806 -0.3451  1.3415 -4.3129
 6873SOL     OW32077   2.342   3.871   6.709 -0.5501 -0.2207 -0.5113
 6873SOL    HW132078   2.399   3.815   6.761  0.0335  0.5771 -0.2936
 6873SOL    HW232079   2.272   3.891   6.772  0.3021 -0.3762  0.4782
 6874SOL     OW32080   1.830   3.777   2.797  0.2413  0.3613  0.0923
 6874SOL    HW132081   1.839   3.683   2.787 -1.1180 -0.1057  3.0160
 6874SOL    HW232082   1.745   3.784   2.754  0.1934  2.0162  0.4437
 6875SOL     OW32083   3.435   0.807   5.241 -0.6165 -0.4432 -0.5651
 6875SOL    HW132084   3.440   0.898   5.211  0.6529 -0.2824  0.1312
 6875SOL    HW232085   3.344   0.802   5.268 -0.1365 -4.1160  0.2590
 6876SOL     OW32086   3.884   0.927   5.755  0.3636  0.0821  0.7988
 6876SOL    HW132087   3.829   0.890   5.686  0.1586  1.7896  0.0402
 6876SOL    HW232088   3.950   0.858   5.757  0.8441  0.5265  0.2186
 6877SOL     OW32089   0.575   4.570  11.692 -0.1388 -0.0539  0.4101
 6877SOL    HW132090   0.576   4.627  11.770 -0.8670 -0.7876  0.9553
 6877SOL    HW232091   0.481   4.566  11.673  0.3202 -2.1158 -1.4088
 6878SOL     OW32092   0.978   2.483   7.591 -0.1079 -0.3969  0.1877
 6878SOL    HW132093   0.963   2.490   7.685 -0.7092  0.8234 -0.0040
 6878SOL    HW232094   1.073   2.472   7.599 -0.2031 -1.1729  0.1790
 6879SOL     OW32095   4.701   4.593  15.590 -0.0898 -0.2428 -0.2429
 6879SOL    HW132096   4.618   4.576  15.546 -1.2817  0.7331  1.6151
 6879SOL    HW232097   0.001   4.681  15.559  0.0144  0.8257  2.8160
 6880SOL     OW32098   0.703   0.980  14.872 -0.2907 -0.5528 -0.4440
 6880SOL    HW132099   0.730   1.056  14.924  0.8168 -0.6384 -0.8848
 6880SOL    HW232100   0.764   0.912  14.903  1.8702  2.4586  1.9132
 6881SOL     OW32101   1.818   0.567   1.966 -0.3752 -0.5431  0.5371
 6881SOL    HW132102   1.725   0.578   1.987 -0.3858 -0.4321  0.4342
 6881SOL    HW232103   1.829   0.661   1.951  0.3654 -0.6684  0.3273
 6882SOL     OW32104   3.642   0.386   2.621  0.1241 -0.7482 -0.3303
 6882SOL    HW132105   3.588   0.318   2.662 -2.1281  0.9367 -0.4507
 6882SOL    HW232106   3.691   0.333   2.559  2.7080  2.8598 -1.3540
 6883SOL     OW32107   3.449   2.472   4.518 -0.1314 -0.5517  0.7007
 6883SOL    HW132108   3.409   2.519   4.444  0.2109  1.7048  1.9392
 6883SOL    HW232109   3.487   2.544   4.568 -1.8434  0.0306  1.1427
 6884SOL     OW32110   1.076   4.593   5.601 -0.4826 -0.1119  0.3455
 6884SOL    HW132111   1.022   4.514   5.604 -0.0627 -0.3926  0.6010
 6884SOL    HW232112   1.040   4.633   5.681 -2.1880 -0.6614 -0.1670
 6885SOL     OW32113   4.488   4.222   6.067 -0.2959 -0.5027  0.5895
 6885SOL    HW132114   4.553   4.279   6.107  0.5698  0.8948 -2.8173
 6885SOL    HW232115   4.512   4.145   6.119 -0.8150 -0.3048  1.1275
 6886SOL     OW32116   4.549   0.239   9.317  0.1802  0.1461 -0.5824
 6886SOL    HW132117   4.624   0.213   9.264 -2.1286  0.6218 -4.0194
 6886SOL    HW232118   4.577   0.200   9.400  2.7645 -0.7612 -1.8893
 6887SOL     OW32119   3.601   2.270   1.079 -0.4839  0.2631 -0.2475
 6887SOL    HW132120   3.630   2.360   1.096  1.3135  0.1969 -3.0783
 6887SOL    HW232121   3.511   2.274   1.112 -0.2150  1.4014  0.3374
 6888SOL     OW32122   4.558   1.404   8.196 -0.0701 -0.4246 -0.0230
 6888SOL    HW132123   4.581   1.432   8.107  2.1889 -0.4020  0.5741
 6888SOL    HW232124   4.570   1.482   8.250  0.9113 -1.2049  0.8818
 6889SOL     OW32125   3.524   4.623  10.937 -0.5099  0.4214 -0.1717
 6889SOL    HW132126   3.441   4.616  10.890 -0.4259  2.5001 -0.6305
 6889SOL    HW232127   3.501   4.566  11.011  2.4169  1.3587  1.4629
 6890SOL     OW32128   2.779   3.287  15.079  0.1910 -0.0182 -0.1478
 6890SOL    HW132129   2.806   3.196  15.072 -3.7921 -1.3666  1.8016
 6890SOL    HW232130   2.831   3.315  15.154  0.3496  2.1832 -1.0647
 6891SOL     OW32131   3.191   3.863  17.632  0.0064  0.6807  0.4933
 6891SOL    HW132132   3.215   3.839  17.542 -0.9550  1.7379 -0.0517
 6891SOL    HW232133   3.267   3.827  17.677 -1.5263 -0.9288  1.7774
 6892SOL     OW32134   0.447   0.314  11.853 -0.0382  0.1519 -0.7120
 6892SOL    HW132135   0.513   0.264  11.803 -0.0803  1.4399 -2.0345
 6892SOL    HW232136   0.371   0.296  11.798 -2.5168 -0.9769  3.1009
 6893SOL     OW32137   1.481   1.231   8.104  0.2561 -0.9771 -0.6759
 6893SOL    HW132138   1.481   1.320   8.138 -1.4132  0.7775 -5.1910
 6893SOL    HW232139   1.566   1.199   8.134  0.8932  0.1162 -1.3263
 6894SOL     OW32140   2.447   2.965   5.025 -0.2633  0.2824  0.8503
 6894SOL    HW132141   2.461   2.871   5.031 -1.0300  0.2288  1.8854
 6894SOL    HW232142   2.532   3.002   5.047 -0.4204  0.4026  1.2595
 6895SOL     OW32143   4.365   2.119   4.111  0.0903  0.4935 -0.1890
 6895SOL    HW132144   4.322   2.204   4.115 -2.6636 -0.9404  0.9257
 6895SOL    HW232145   4.455   2.132   4.141  0.4982  0.7257 -1.5107
 6896SOL     OW32146   3.934   4.656   4.135  0.1903  0.2733  0.8991
 6896SOL    HW132147   4.008   4.717   4.128 -1.2101  2.0345  1.5433
 6896SOL    HW232148   3.937   4.655   4.231  2.5111 -1.9309  0.8185
 6897SOL     OW32149   2.856   4.192   7.868  0.3705 -0.3446  0.4765
 6897SOL    HW132150   2.936   4.151   7.900 -0.4443 -1.8597  0.5520
 6897SOL    HW232151   2.861   4.179   7.773 -1.4160  1.2791  0.1552
 6898SOL     OW32152   1.498   3.357   4.947 -0.7900  0.2021 -0.5215
 6898SOL    HW132153   1.588   3.388   4.958 -0.6443  0.1606 -1.5695
 6898SOL    HW232154   1.526   3.282   4.895 -0.9746 -0.0319 -0.2838
 6899SOL     OW32155   2.379   3.654   9.528 -0.0812  0.1574  0.1430
 6899SOL    HW132156   2.358   3.705   9.450 -0.4143  0.2954  0.3240
 6899SOL    HW232157   2.298   3.604   9.539  0.3727 -0.2456  1.7176
 6900SOL     OW32158   0.689   1.720   4.421 -0.0230  0.0606  0.2193
 6900SOL    HW132159   0.738   1.638   4.413 -1.7056 -0.7966 -1.3542
 6900SOL    HW232160   0.596   1.704   4.404 -0.4566  1.4407  1.3074
 6901SOL     OW32161   3.179   2.221   1.338 -0.3132  0.5964 -0.6268
 6901SOL    HW132162   3.189   2.313   1.363 -2.0489  0.4650  0.5974
 6901SOL    HW232163   3.099   2.225   1.286  1.2129  2.3363 -2.8251
 6902SOL     OW32164   4.401   4.057   4.285  0.4862 -0.4925  0.2597
 6902SOL    HW132165   4.415   3.969   4.250  1.7898 -0.0240 -0.3674
 6902SOL    HW232166   4.404   4.050   4.380  0.3215  1.7088  0.4421
 6903SOL     OW32167   3.655   3.042   1.904 -0.1812  0.8109 -0.2720
 6903SOL    HW132168   3.670   2.956   1.866  1.1553 -0.3477  2.9559
 6903SOL    HW232169   3.744   3.064   1.929  0.6913  1.4229 -3.9141
 6904SOL     OW32170   2.689   0.988   7.164 -0.3321  0.2648 -0.4498
 6904SOL    HW132171   2.594   1.003   7.170 -0.0106  2.2060 -0.1549
 6904SOL    HW232172   2.686   0.899   7.128  0.0479  0.0137  0.1283
 6905SOL     OW32173   4.334   2.685  12.996 -0.2100  0.7169 -0.0606
 6905SOL    HW132174   4.277   2.697  12.920 -0.1566 -0.4432 -0.2740
 6905SOL    HW232175   4.310   2.596  13.023  0.1460  1.1273  1.6476
 6906SOL     OW32176   4.282   1.967   2.618  0.1238  0.1831 -0.2980
 6906SOL    HW132177   4.341   1.962   2.543 -1.7529  0.4261 -1.8140
 6906SOL    HW232178   4.205   1.916   2.592  0.0664  0.2711 -0.3022
 6907SOL     OW32179   4.251   3.088   7.250 -0.0436 -0.4065  0.1207
 6907SOL    HW132180   4.220   3.135   7.172  0.9258 -0.9824 -0.6175
 6907SOL    HW232181   4.172   3.043   7.280 -0.2642  1.3106  2.0518
 6908SOL     OW32182   2.515   1.945   7.643  0.0525 -0.1688  0.3514
 6908SOL    HW132183   2.475   1.938   7.730  0.1784  1.3952  0.5396
 6908SOL    HW232184   2.599   1.902   7.655 -1.1426 -2.0506  1.9981
 6909SOL     OW32185   1.919   0.846   4.161 -0.1367  0.3517 -0.1479
 6909SOL    HW132186   1.940   0.780   4.227  2.9617  0.0907 -1.4004
 6909SOL    HW232187   1.955   0.926   4.200 -0.3929 -1.4530  3.8765
 6910SOL     OW32188   3.041   3.003   0.396 -1.1134  0.1188  0.6099
 6910SOL    HW132189   2.996   2.922   0.371 -1.1341  0.2800  0.1056
 6910SOL    HW232190   2.985   3.062   0.344  3.8346  5.0725  0.9363
 6911SOL     OW32191   3.980   1.638  15.179 -0.5252  0.3085 -0.1971
 6911SOL    HW132192   4.034   1.609  15.106 -0.7670  1.1770 -0.7160
 6911SOL    HW232193   4.054   1.655  15.237 -1.4935  0.8696  0.8912
 6912SOL     OW32194   2.696   0.908   0.830 -0.2748 -0.6019  0.0525
 6912SOL    HW132195   2.603   0.896   0.813 -0.4637  0.6658  0.2230
 6912SOL    HW232196   2.699   0.989   0.880  2.4410  0.5982 -2.0245
 6913SOL     OW32197   1.619   2.496   6.669 -0.4245  0.0725  0.2850
 6913SOL    HW132198   1.654   2.470   6.584  0.0758  0.1184  0.4762
 6913SOL    HW232199   1.597   2.409   6.701  1.8527 -0.4042  0.5783
 6914SOL     OW32200   3.763   0.548   7.531 -0.3582 -0.0803 -0.0353
 6914SOL    HW132201   3.830   0.481   7.540  1.2186  1.4450 -0.2480
 6914SOL    HW232202   3.829   0.617   7.517  0.1326 -1.4728 -4.6131
 6915SOL     OW32203   3.607   0.475   4.389 -0.1425 -0.0869 -0.7766
 6915SOL    HW132204   3.593   0.539   4.458  0.9132  0.7855 -1.3667
 6915SOL    HW232205   3.603   0.537   4.316  2.1797  0.5479 -0.3713
 6916SOL     OW32206   0.006   3.747   2.855 -0.5281  0.6068 -0.4300
 6916SOL    HW132207   0.081   3.688   2.865 -0.4878  0.3465 -2.2124
 6916SOL    HW232208   0.043   3.827   2.892  1.6088 -0.2417 -0.7304
 6917SOL     OW32209   0.461   3.674   9.256  0.1454  0.1674 -0.2410
 6917SOL    HW132210   0.388   3.643   9.310  0.5198  0.6841  0.5705
 6917SOL    HW232211   0.509   3.591   9.261 -1.4758 -0.7194  0.5578
 6918SOL     OW32212   2.430   3.930   8.602 -0.3457  0.4487  0.5842
 6918SOL    HW132213   2.497   3.884   8.653 -0.7044 -0.9794 -0.2342
 6918SOL    HW232214   2.442   4.018   8.640  1.7777  0.8247 -0.9832
 6919SOL     OW32215   4.430   4.418   8.641  0.1179  0.6488  0.0200
 6919SOL    HW132216   4.442   4.490   8.579 -0.0901 -0.5622 -1.4312
 6919SOL    HW232217   4.405   4.347   8.583 -0.8634  0.1911  1.0176
 6920SOL     OW32218   2.047   4.650   0.527 -0.5344 -0.3879 -0.4353
 6920SOL    HW132219   2.101   4.573   0.508  1.6110  1.5286 -2.0798
 6920SOL    HW232220   2.112   4.702   0.575 -1.8595  2.0130 -1.2461
 6921SOL     OW32221   3.995   2.865   2.647  0.2425  0.1928 -0.1597
 6921SOL    HW132222   4.036   2.925   2.584  0.1115 -0.3749 -0.7866
 6921SOL    HW232223   3.931   2.825   2.588 -0.0351 -0.5762  0.6644
 6922SOL     OW32224   0.138   2.612  12.799 -0.0734  0.0507  0.0444
 6922SOL    HW132225   0.209   2.673  12.820 -0.1257 -1.2107  4.0179
 6922SOL    HW232226   0.159   2.532  12.848 -0.0650 -0.7888 -1.3538
 6923SOL     OW32227   3.373   0.348   5.790  0.2182  0.4364  0.0531
 6923SOL    HW132228   3.358   0.319   5.880  0.1006 -0.2694 -0.1972
 6923SOL    HW232229   3.295   0.401   5.779 -0.4734 -0.4195  0.8211
 6924SOL     OW32230   1.530   3.232   3.863  0.6591  0.0349 -0.6171
 6924SOL    HW132231   1.585   3.217   3.940  0.0142  2.5018  0.3249
 6924SOL    HW232232   1.605   3.256   3.808  0.1391  1.4136 -0.7369
 6925SOL     OW32233   0.451   2.086   9.163  0.1405  0.4094 -0.0491
 6925SOL    HW132234   0.461   2.037   9.081 -0.2438 -0.3857  0.3742
 6925SOL    HW232235   0.490   2.031   9.231  0.4376  0.6755 -0.0056
 6926SOL     OW32236   0.191   2.716  16.972 -0.1482 -0.5018  0.0785
 6926SOL    HW132237   0.104   2.686  16.944 -0.4616 -0.4467  0.9726
 6926SOL    HW232238   0.190   2.793  16.916 -0.8963 -0.5058  0.0853
 6927SOL     OW32239   4.134   3.373  11.867 -0.3969  0.6161  0.4994
 6927SOL    HW132240   4.066   3.427  11.828 -1.0397 -0.0869  0.6231
 6927SOL    HW232241   4.196   3.443  11.887 -0.1347  0.5137  0.0281
 6928SOL     OW32242   1.999   3.831   3.091  0.2252  0.6130 -0.1882
 6928SOL    HW132243   1.963   3.919   3.105 -3.5544 -0.7534 -1.2598
 6928SOL    HW232244   2.083   3.851   3.132  1.2106 -1.2488 -1.3601
 6929SOL     OW32245   1.300   2.004   7.239 -0.1274 -0.0386 -0.4310
 6929SOL    HW132246   1.217   1.982   7.197 -1.4391  0.4579  1.9180
 6929SOL    HW232247   1.278   2.063   7.311  2.3365  1.0169 -0.5481
 6930SOL     OW32248   4.320   3.515  10.423 -1.0470  0.1537 -0.6385
 6930SOL    HW132249   4.253   3.573  10.387 -0.9474 -0.5429 -1.9749
 6930SOL    HW232250   4.397   3.569  10.439 -1.9290  1.2905 -0.2979
 6931SOL     OW32251   1.048   2.124  16.302  0.5265  0.0010 -0.3420
 6931SOL    HW132252   1.054   2.177  16.382 -2.4370 -0.2932  0.0913
 6931SOL    HW232253   1.126   2.157  16.258  1.0460  0.0871  0.6434
 6932SOL     OW32254   2.313   2.030   5.358 -0.1421 -0.7405 -0.4007
 6932SOL    HW132255   2.278   2.105   5.311 -0.1497  0.1849  1.0846
 6932SOL    HW232256   2.355   1.986   5.284  3.1434  0.6848  0.6420
 6933SOL     OW32257   0.445   2.195   7.791  0.3377 -0.1708  0.3481
 6933SOL    HW132258   0.363   2.234   7.821  1.0972  1.2475  0.5947
 6933SOL    HW232259   0.501   2.273   7.788  0.9391 -0.5902  0.6636
 6934SOL     OW32260   3.898   3.924   3.817 -0.0636  0.0799  0.1776
 6934SOL    HW132261   3.913   3.988   3.748 -1.9506  0.5267  0.1888
 6934SOL    HW232262   3.942   3.847   3.781  1.0479  0.3125  1.0413
 6935SOL     OW32263   1.643   4.263  15.644  0.1810  0.2925  0.3584
 6935SOL    HW132264   1.726   4.308  15.654 -0.6572  1.4231  2.1473
 6935SOL    HW232265   1.624   4.294  15.555  0.4524  1.1675  0.6129
 6936SOL     OW32266   2.786   3.506   4.004  0.4544 -0.4878 -0.0153
 6936SOL    HW132267   2.845   3.502   4.079  1.3331 -1.0773 -0.7429
 6936SOL    HW232268   2.841   3.548   3.939 -1.4213  2.1894  0.1481
 6937SOL     OW32269   2.199   2.208   1.928 -0.0946  0.2395  0.1813
 6937SOL    HW132270   2.166   2.127   1.890 -0.8251  0.1408  1.0419
 6937SOL    HW232271   2.190   2.269   1.854  2.6085 -1.7179 -1.7683
 6938SOL     OW32272   3.321   1.649   7.345 -0.7134 -0.3230  0.1785
 6938SOL    HW132273   3.414   1.632   7.359 -0.5093 -0.0216 -0.8166
 6938SOL    HW232274   3.334   1.742   7.328 -0.5533 -0.2796  0.5518
 6939SOL     OW32275   2.480   2.444  12.779  0.2475  0.0959 -0.0961
 6939SOL    HW132276   2.399   2.399  12.804 -0.6186  1.3959 -0.5886
 6939SOL    HW232277   2.450   2.523  12.734  0.7140  1.6500  2.3683
 6940SOL     OW32278   0.896   2.736   7.553 -0.0241 -0.0679  0.1452
 6940SOL    HW132279   0.807   2.706   7.533 -0.4648  1.6461 -0.4610
 6940SOL    HW232280   0.944   2.656   7.574  0.0717 -0.0155  0.1212
 6941SOL     OW32281   3.586   2.200   4.547  0.2427 -0.2122 -0.2215
 6941SOL    HW132282   3.670   2.222   4.588  0.2525  1.2222 -1.0198
 6941SOL    HW232283   3.549   2.288   4.538  0.1092 -0.2899 -0.4361
 6942SOL     OW32284   4.538   3.815   4.213  0.7028 -0.0141  0.3227
 6942SOL    HW132285   4.628   3.813   4.179  0.2054  0.9456 -1.0814
 6942SOL    HW232286   4.550   3.759   4.289  1.3349 -1.3773 -0.7839
 6943SOL     OW32287   1.315   1.768   5.619  0.1129  0.1721  0.2369
 6943SOL    HW132288   1.271   1.707   5.560  2.0550 -0.6878 -0.3022
 6943SOL    HW232289   1.369   1.702   5.663 -0.4398 -1.2670 -1.2282
 6944SOL     OW32290   1.445   4.622   1.043  0.5214  0.1369  0.2960
 6944SOL    HW132291   1.493   4.666   0.973  0.5035  1.7633  1.2929
 6944SOL    HW232292   1.513   4.611   1.110  1.4443 -3.0532 -1.1702
 6945SOL     OW32293   4.485   2.850  12.096  0.0851 -0.1581  0.1252
 6945SOL    HW132294   4.427   2.777  12.116 -1.0731  0.8644  0.4982
 6945SOL    HW232295   4.487   2.842  12.001 -1.3162  0.7287  0.0289
 6946SOL     OW32296   2.685   0.326  12.043  0.0696 -0.2889  0.0002
 6946SOL    HW132297   2.601   0.367  12.020  0.7267  0.7549 -0.5591
 6946SOL    HW232298   2.738   0.405  12.054 -0.3598  0.1110 -0.7607
 6947SOL     OW32299   4.311   4.399   5.139 -0.2531 -0.2420 -0.3918
 6947SOL    HW132300   4.219   4.391   5.114  0.0447  0.5029 -1.7174
 6947SOL    HW232301   4.345   4.458   5.071 -1.2666 -0.7272 -1.3237
 6948SOL     OW32302   3.378   1.969   6.678 -0.1129  0.6815  0.4912
 6948SOL    HW132303   3.449   1.913   6.647 -0.2642  0.0440  1.2909
 6948SOL    HW232304   3.310   1.943   6.616  0.9104 -1.1195  0.1418
 6949SOL     OW32305   2.653   1.981  14.075 -0.3437  0.3115  0.2842
 6949SOL    HW132306   2.627   1.968  13.984 -2.4019 -2.1850  1.2515
 6949SOL    HW232307   2.639   2.074  14.090  1.5409  0.4789  1.0789
 6950SOL     OW32308   4.101   4.014   6.297  0.6002  0.7969 -0.9481
 6950SOL    HW132309   4.132   3.961   6.370  2.4865  1.9428 -0.9075
 6950SOL    HW232310   4.180   4.063   6.272  1.3686 -0.3194 -0.7293
 6951SOL     OW32311   0.457   0.293   7.409  0.1972 -0.1022 -0.0725
 6951SOL    HW132312   0.365   0.294   7.380 -0.8368 -0.8201  3.1959
 6951SOL    HW232313   0.483   0.222   7.350 -2.0150 -2.4359  1.7165
 6952SOL     OW32314   3.211   2.822  13.350 -0.0008  0.1367 -0.4800
 6952SOL    HW132315   3.250   2.901  13.313  1.8947 -0.8139 -0.5027
 6952SOL    HW232316   3.283   2.792  13.405 -0.6457 -0.2254  0.1742
 6953SOL     OW32317   3.748   0.033  11.687  0.0987 -0.3283  0.1454
 6953SOL    HW132318   3.701   0.112  11.715 -1.3469 -0.6020 -1.5487
 6953SOL    HW232319   3.724   4.693  11.757 -0.0797 -2.0745 -1.4055
 6954SOL     OW32320   1.072   2.923   8.083  0.3949  0.3010 -0.6335
 6954SOL    HW132321   1.128   2.997   8.058  0.6865 -0.1264 -1.2718
 6954SOL    HW232322   1.079   2.932   8.178 -1.0092  1.2532 -0.6244
 6955SOL     OW32323   2.029   3.098   5.076  0.0874  0.2729 -0.3199
 6955SOL    HW132324   1.946   3.099   5.124 -0.1007 -0.9562 -0.6190
 6955SOL    HW232325   2.006   3.041   5.003  1.0601 -1.8834  1.0487
 6956SOL     OW32326   1.573   1.808  15.266 -0.1383  0.2302 -0.3105
 6956SOL    HW132327   1.527   1.748  15.208  0.2254 -0.7845  0.4630
 6956SOL    HW232328   1.617   1.869  15.207  1.5591 -0.2122  0.4921
 6957SOL     OW32329   0.260   0.881   7.039 -0.4371  0.2574 -0.6771
 6957SOL    HW132330   0.212   0.884   6.956 -1.4754 -2.0226 -0.1660
 6957SOL    HW232331   0.350   0.858   7.019 -0.8930 -0.9635 -1.3381
 6958SOL     OW32332   0.104   0.845   8.094  0.3563  0.2150  0.5924
 6958SOL    HW132333   0.166   0.812   8.159  2.1419  0.3412 -1.0284
 6958SOL    HW232334   0.130   0.782   8.027  0.0053  2.6072 -1.7857
 6959SOL     OW32335   0.719   2.199  14.966  0.2043  0.2245  0.4970
 6959SOL    HW132336   0.684   2.183  15.054 -0.4281  0.6199  0.3206
 6959SOL    HW232337   0.658   2.146  14.915 -0.1398  1.6309 -0.5729
 6960SOL     OW32338   4.662   2.088  17.350 -0.2936  0.4924 -0.3300
 6960SOL    HW132339   4.595   2.031  17.387 -0.3777  0.6240 -0.2828
 6960SOL    HW232340   4.688   2.028  17.280 -0.7017 -1.2106  0.9654
 6961SOL     OW32341   4.075   2.829   7.700 -0.2265  0.3435 -0.2053
 6961SOL    HW132342   4.011   2.899   7.684 -0.8985 -0.2484 -0.1251
 6961SOL    HW232343   4.116   2.853   7.783 -0.7705 -0.7107  0.3619
 6962SOL     OW32344   1.577   2.301   7.459  0.0465  0.7203  0.1687
 6962SOL    HW132345   1.614   2.236   7.399  1.0298  2.2525 -0.9074
 6962SOL    HW232346   1.533   2.244   7.522 -1.1574  1.7241  0.2482
 6963SOL     OW32347   0.452   0.844  15.595 -0.0167  0.0094 -0.2350
 6963SOL    HW132348   0.479   0.935  15.609 -1.6618  0.4562  0.0061
 6963SOL    HW232349   0.372   0.866  15.548 -2.2413 -0.3147  3.3781
 6964SOL     OW32350   1.066   3.607  16.074  0.3418  0.4829 -0.1112
 6964SOL    HW132351   1.133   3.614  16.007 -1.1956 -0.2233 -1.7045
 6964SOL    HW232352   1.048   3.699  16.093  0.9402  0.5580  0.0726
 6965SOL     OW32353   3.295   0.235   9.086  0.1977  0.2758 -0.1382
 6965SOL    HW132354   3.345   0.313   9.064 -1.5206  2.0204  2.1875
 6965SOL    HW232355   3.216   0.268   9.129 -0.2728 -1.0718  0.0369
 6966SOL     OW32356   3.675   2.140   0.582  0.2622 -0.4138 -0.0017
 6966SOL    HW132357   3.675   2.173   0.672 -2.7245 -2.1751  0.6797
 6966SOL    HW232358   3.591   2.094   0.586  1.2006 -2.1602 -0.3304
 6967SOL     OW32359   0.871   3.139   8.339  0.5905  0.4265  0.0499
 6967SOL    HW132360   0.895   3.230   8.323  2.5558  0.4001  2.8170
 6967SOL    HW232361   0.948   3.085   8.323 -0.1545 -0.5012 -0.3997
 6968SOL     OW32362   2.164   4.602  13.218 -0.5044  0.1758  0.0703
 6968SOL    HW132363   2.243   4.557  13.190 -0.9800  0.6986 -2.0749
 6968SOL    HW232364   2.096   4.550  13.177 -2.4157  2.9035 -0.2172
 6969SOL     OW32365   0.680   3.007   3.075  0.0695  0.4908 -0.3634
 6969SOL    HW132366   0.761   3.000   3.125  0.2202  1.2560 -0.5069
 6969SOL    HW232367   0.714   3.001   2.986  1.0890  0.4677  0.0299
 6970SOL     OW32368   1.648   3.722   7.094 -0.4113  0.2997 -0.3137
 6970SOL    HW132369   1.597   3.649   7.058 -1.2639  0.7297  0.0286
 6970SOL    HW232370   1.698   3.679   7.164  0.9066 -0.9242 -2.0150
 6971SOL     OW32371   1.871   4.530   5.755 -0.0628 -0.1568 -0.2143
 6971SOL    HW132372   1.849   4.447   5.798  0.3685 -1.9119 -3.4200
 6971SOL    HW232373   1.832   4.510   5.670  1.9145 -0.3499 -1.0969
 6972SOL     OW32374   1.767   4.525  11.212 -0.2618  0.3607 -0.0609
 6972SOL    HW132375   1.687   4.577  11.206 -2.0822 -2.4783 -0.3678
 6972SOL    HW232376   1.793   4.538  11.121 -0.4588 -0.5989 -0.2507
 6973SOL     OW32377   0.088   2.811   1.601  0.4204 -0.2167 -0.1040
 6973SOL    HW132378   0.104   2.896   1.560  2.9299 -1.7043 -2.1422
 6973SOL    HW232379   0.055   2.758   1.529  1.9578 -3.7080  1.8093
 6974SOL     OW32380   0.377   3.261   6.492  0.0849  0.0196 -0.2258
 6974SOL    HW132381   0.341   3.179   6.524  2.0598 -0.2122  1.3984
 6974SOL    HW232382   0.409   3.228   6.408  0.1336 -2.0823  0.6248
 6975SOL     OW32383   2.935   0.375   5.022  0.0737 -0.2296  0.6018
 6975SOL    HW132384   2.864   0.388   4.959  0.1249 -1.5431  0.2843
 6975SOL    HW232385   2.972   0.293   4.990 -1.7550 -0.3163 -1.3292
 6976SOL     OW32386   0.222   2.346   7.826 -0.2173  0.0554  0.8393
 6976SOL    HW132387   0.249   2.424   7.778 -1.0896  0.6758  1.3723
 6976SOL    HW232388   0.134   2.374   7.853 -0.5283  0.3561 -0.5252
 6977SOL     OW32389   2.235   3.875  10.149  0.7168 -0.3822 -0.1476
 6977SOL    HW132390   2.316   3.841  10.186  0.9459  0.1397 -0.1701
 6977SOL    HW232391   2.235   3.962  10.187  1.8311 -0.1285 -0.7474
 6978SOL     OW32392   3.014   1.726   3.589  0.0185  0.5358 -0.7534
 6978SOL    HW132393   3.105   1.704   3.570 -0.3761 -1.2276 -0.6473
 6978SOL    HW232394   2.975   1.647   3.550 -1.4658  1.5836 -1.4043
 6979SOL     OW32395   1.187   0.639   7.426  0.2332  0.2474 -0.0594
 6979SOL    HW132396   1.135   0.713   7.396 -0.0172  0.1912  0.2382
 6979SOL    HW232397   1.234   0.666   7.504  2.2604 -2.8668 -0.2050
 6980SOL     OW32398   4.611   1.831  14.248 -0.1639 -0.1180 -0.3052
 6980SOL    HW132399   4.646   1.914  14.280  1.8875 -1.2993  0.4992
 6980SOL    HW232400   4.551   1.859  14.178 -2.7852  0.6652  2.2675
 6981SOL     OW32401   3.673   2.986   6.809  0.1924  0.0966  0.3679
 6981SOL    HW132402   3.613   2.912   6.820  0.2066  0.0599  0.1978
 6981SOL    HW232403   3.640   3.042   6.739 -0.0019 -0.2954  0.1454
 6982SOL     OW32404   0.691   3.530   8.226 -0.5337  0.2155 -0.2228
 6982SOL    HW132405   0.675   3.465   8.159 -0.0467  1.5158 -1.6108
 6982SOL    HW232406   0.634   3.602   8.197  0.3513  0.7190 -0.7248
 6983SOL     OW32407   2.634   2.096   6.376  0.1675  0.1437 -0.1108
 6983SOL    HW132408   2.701   2.134   6.432  0.3551  0.1243 -0.3231
 6983SOL    HW232409   2.689   2.056   6.309  0.8073  1.2773 -0.2646
 6984SOL     OW32410   0.267   2.979   4.877 -0.0337 -0.0270 -0.5039
 6984SOL    HW132411   0.287   2.888   4.856 -0.7520 -0.2031 -0.4447
 6984SOL    HW232412   0.339   3.011   4.930 -0.3289 -0.5186  0.1879
 6985SOL     OW32413   4.460   1.544  11.464 -0.0533 -0.2360  0.0955
 6985SOL    HW132414   4.386   1.501  11.507 -1.3356  0.2852 -1.6173
 6985SOL    HW232415   4.538   1.491  11.479 -0.5594 -0.6377  1.3420
 6986SOL     OW32416   2.624   0.410   5.198  0.1820 -0.3299  0.2779
 6986SOL    HW132417   2.701   0.426   5.251  0.6339 -0.8065 -0.2420
 6986SOL    HW232418   2.666   0.364   5.126  2.2396 -0.1369  1.3784
 6987SOL     OW32419   0.412   1.195  11.616 -0.4642 -0.0963 -0.2576
 6987SOL    HW132420   0.428   1.193  11.711  3.1318  0.9640 -0.8435
 6987SOL    HW232421   0.493   1.236  11.589 -0.5487 -0.0037 -0.3698
 6988SOL     OW32422   1.199   3.635  11.841 -0.2072  0.4000 -0.1664
 6988SOL    HW132423   1.229   3.690  11.914  0.5473  1.8147 -1.5405
 6988SOL    HW232424   1.144   3.575  11.891 -1.4116  0.0612 -1.9208
 6989SOL     OW32425   0.839   2.035   8.283  0.5290 -0.1733  0.3818
 6989SOL    HW132426   0.774   1.973   8.249  1.3202 -1.7271  1.7082
 6989SOL    HW232427   0.911   1.974   8.297  1.6628  1.5493  1.9937
 6990SOL     OW32428   1.648   0.268   1.452  0.5643 -0.2049  0.1738
 6990SOL    HW132429   1.605   0.202   1.397  0.5947 -1.0551  1.1716
 6990SOL    HW232430   1.571   0.309   1.492 -0.7180 -2.9348  0.5147
 6991SOL     OW32431   1.028   2.726  11.507  0.1155 -0.7257 -0.0155
 6991SOL    HW132432   0.969   2.743  11.434  0.2004 -1.3812 -0.2331
 6991SOL    HW232433   0.997   2.798  11.563  3.0612  1.3678 -1.0320
 6992SOL     OW32434   2.028   2.368  11.039 -0.6024  0.0106  0.0654
 6992SOL    HW132435   2.080   2.435  11.082 -0.2565 -1.7889  2.4724
 6992SOL    HW232436   2.087   2.328  10.975 -0.5876 -1.9190  1.2759
 6993SOL     OW32437   2.984   4.328   2.072  0.3078  0.0956 -0.1247
 6993SOL    HW132438   2.948   4.408   2.110  1.3904 -0.5701  2.2988
 6993SOL    HW232439   3.076   4.329   2.098 -0.7882 -2.8036  3.7508
 6994SOL     OW32440   2.088   0.441   8.296 -0.9554 -0.5708  0.4143
 6994SOL    HW132441   2.149   0.435   8.223 -2.1386 -0.9781 -0.5314
 6994SOL    HW232442   2.150   0.471   8.363 -1.7912  0.7915  0.5840
 6995SOL     OW32443   3.924   0.772  15.425  0.1014  0.2598  0.0633
 6995SOL    HW132444   3.902   0.718  15.501 -0.0095  0.2194  0.0021
 6995SOL    HW232445   3.982   0.717  15.372 -0.6738 -0.9250  0.4462
 6996SOL     OW32446   1.607   0.860   3.549 -0.3519 -0.1699  0.1415
 6996SOL    HW132447   1.561   0.804   3.487 -1.0978  1.3893 -0.7167
 6996SOL    HW232448   1.539   0.886   3.611 -0.2560 -1.5649  0.8342
 6997SOL     OW32449   2.186   1.294  15.298  0.0158 -0.2507 -0.5849
 6997SOL    HW132450   2.156   1.299  15.208 -1.4293  0.2817 -0.0787
 6997SOL    HW232451   2.162   1.204  15.316  0.1573  0.0681  1.2379
 6998SOL     OW32452   2.033   1.400   1.419  0.0535 -0.0885  0.4094
 6998SOL    HW132453   2.007   1.324   1.470  0.1980 -1.4610 -1.5346
 6998SOL    HW232454   1.954   1.453   1.428  0.4481  0.4567  0.6571
 6999SOL     OW32455   3.977   1.048   0.886  0.1535 -0.0930  0.1515
 6999SOL    HW132456   3.904   1.031   0.827  0.0163 -0.3401  0.3928
 6999SOL    HW232457   4.010   0.961   0.909  0.8654  0.3128  0.6771
 7000SOL     OW32458   2.698   2.933  13.763  0.1996 -0.5169  0.5983
 7000SOL    HW132459   2.706   2.921  13.668 -1.2637 -0.0159  0.4121
 7000SOL    HW232460   2.788   2.912  13.788 -0.3875 -1.1697  2.1445
 7001SOL     OW32461   2.069   3.196   5.352 -0.2753  0.1910  0.0320
 7001SOL    HW132462   2.103   3.265   5.410 -0.9304 -0.0240  0.6688
 7001SOL    HW232463   2.149   3.146   5.337 -0.0966  0.7013 -0.7482
 7002SOL     OW32464   2.105   4.288   9.365  0.1142 -0.2542 -0.5024
 7002SOL    HW132465   2.032   4.253   9.416 -0.8856  3.5212  0.6106
 7002SOL    HW232466   2.066   4.345   9.298  1.2471  1.8926  0.6678
 7003SOL     OW32467   2.659   4.338  10.151 -0.2519 -0.0863 -0.0358
 7003SOL    HW132468   2.720   4.339  10.225 -2.1299 -0.7930  1.5295
 7003SOL    HW232469   2.718   4.364  10.081  1.0231 -0.7815  0.7882
 7004SOL     OW32470   4.600   4.062  14.275 -0.2745  0.3193  0.0440
 7004SOL    HW132471   4.638   4.142  14.240  0.1377  0.4972  0.8890
 7004SOL    HW232472   4.675   4.002  14.272 -0.1030  0.4887  0.7797
 7005SOL     OW32473   4.100   3.982   4.215  0.2525 -0.0458  0.2991
 7005SOL    HW132474   4.102   3.931   4.296 -1.2158 -0.5640  0.0035
 7005SOL    HW232475   4.175   3.942   4.170  1.5753  1.8767  0.7619
 7006SOL     OW32476   4.571   1.116   5.255 -0.1980 -0.3265 -0.2945
 7006SOL    HW132477   4.541   1.029   5.228 -1.1208  0.1231 -0.7231
 7006SOL    HW232478   4.493   1.172   5.255  0.1843  0.2038 -0.4631
 7007SOL     OW32479   4.322   4.470  10.895  0.1708  0.4315  0.1195
 7007SOL    HW132480   4.243   4.517  10.870  0.7293 -0.1913 -2.8354
 7007SOL    HW232481   4.308   4.485  10.988 -2.3622  1.5182 -0.4465
 7008SOL     OW32482   3.199   2.225   8.340 -0.2085  0.6701  0.2832
 7008SOL    HW132483   3.233   2.153   8.393  1.8262  1.5825  0.2114
 7008SOL    HW232484   3.234   2.298   8.392  1.7828 -0.4976  0.5485
 7009SOL     OW32485   2.874   0.605   6.976 -0.4596  0.2729  0.6771
 7009SOL    HW132486   2.907   0.677   7.030  0.0546 -0.5221  1.4395
 7009SOL    HW232487   2.917   0.535   7.026 -1.0000 -0.4551  0.1290
 7010SOL     OW32488   3.528   1.624  10.178 -0.1022 -0.1904  0.9520
 7010SOL    HW132489   3.450   1.680  10.177  1.0751  1.4433  0.8373
 7010SOL    HW232490   3.527   1.592  10.268  1.0816 -0.8633  0.7218
 7011SOL     OW32491   1.208   0.665   7.989 -0.0560  0.2042  0.4547
 7011SOL    HW132492   1.123   0.621   7.980  0.2255 -0.0350 -1.0954
 7011SOL    HW232493   1.223   0.679   8.082  3.2081  1.0258 -0.1921
 7012SOL     OW32494   1.141   1.397   4.033 -0.0879  0.3102  0.1672
 7012SOL    HW132495   1.156   1.358   4.119  0.7578 -2.1228 -1.0554
 7012SOL    HW232496   1.233   1.410   4.011 -0.6504  0.0511 -2.3585
 7013SOL     OW32497   2.569   3.426  10.680  0.3979  0.4087 -0.6021
 7013SOL    HW132498   2.510   3.489  10.639 -1.8235 -1.3130 -0.0267
 7013SOL    HW232499   2.547   3.342  10.638 -0.6444  1.7001 -2.6307
 7014SOL     OW32500   2.984   0.232   6.394  0.5497  0.2602 -0.3406
 7014SOL    HW132501   2.927   0.156   6.401  0.4754  0.1571 -2.0517
 7014SOL    HW232502   3.067   0.186   6.386 -0.5190 -1.2795 -2.4468
 7015SOL     OW32503   4.477   3.114   4.355 -0.0742  0.2098 -0.2220
 7015SOL    HW132504   4.525   3.197   4.354 -1.1445  0.8207 -0.5614
 7015SOL    HW232505   4.504   3.083   4.442  1.0494 -1.5441 -1.1928
 7016SOL     OW32506   0.121   3.367   6.584 -0.2971 -0.3767  0.6206
 7016SOL    HW132507   0.165   3.331   6.507 -0.3180 -0.0681  0.4644
 7016SOL    HW232508   0.102   3.294   6.643  0.5365  1.3392  2.9879
 7017SOL     OW32509   1.464   0.193   4.807  0.1697  0.2215  1.0960
 7017SOL    HW132510   1.450   0.160   4.718  0.7065  0.7073  0.8349
 7017SOL    HW232511   1.371   0.196   4.829  0.5362 -1.3116  2.8298
 7018SOL     OW32512   3.177   0.277   4.055 -0.1681  0.8716 -0.7576
 7018SOL    HW132513   3.180   0.337   4.129  0.2569 -1.1302  0.8448
 7018SOL    HW232514   3.258   0.231   4.076 -1.4825 -1.2598 -0.3700
 7019SOL     OW32515   1.578   0.442   7.375  0.0341 -0.0347  0.1032
 7019SOL    HW132516   1.531   0.392   7.441 -0.3281  0.8520  0.5224
 7019SOL    HW232517   1.666   0.438   7.412  0.4187  0.8305 -0.7262
 7020SOL     OW32518   3.339   3.664   8.027 -0.0764 -0.6013  0.3188
 7020SOL    HW132519   3.354   3.580   7.985  2.8741  0.0166  0.1516
 7020SOL    HW232520   3.378   3.731   7.971 -1.5306  1.9574  2.3609
 7021SOL     OW32521   2.468   3.145   4.148 -0.0627  0.2102  0.0124
 7021SOL    HW132522   2.426   3.228   4.172 -0.6781 -0.3896  1.0079
 7021SOL    HW232523   2.484   3.100   4.231  0.9758  0.3303 -0.1197
 7022SOL     OW32524   0.577   1.308   9.779 -0.2039  0.0042  0.1436
 7022SOL    HW132525   0.482   1.312   9.792  0.2221  2.3654  2.5479
 7022SOL    HW232526   0.578   1.248   9.704 -0.7262 -0.0615  0.1865
 7023SOL     OW32527   0.427   3.982  16.260 -0.0456 -0.3021  0.2172
 7023SOL    HW132528   0.512   4.004  16.299 -0.1697 -2.4739  1.7120
 7023SOL    HW232529   0.428   4.032  16.178 -0.6916 -0.2476  0.2389
 7024SOL     OW32530   4.627   0.172   1.203 -0.0707  0.5243 -0.1676
 7024SOL    HW132531   4.597   0.090   1.243  0.9995  0.1340 -0.1532
 7024SOL    HW232532   4.638   0.223   1.284  1.5734 -1.0904  0.6287
 7025SOL     OW32533   0.499   2.092  14.765 -0.6878 -0.5232 -0.2959
 7025SOL    HW132534   0.497   2.169  14.709  2.2433  1.1555  1.8885
 7025SOL    HW232535   0.407   2.079  14.787 -1.1002  1.1412 -1.0545
 7026SOL     OW32536   2.464   1.760   6.216  0.2941  0.1914 -0.0320
 7026SOL    HW132537   2.462   1.681   6.162 -1.4929  0.4103 -0.2893
 7026SOL    HW232538   2.555   1.747   6.243  0.9387  0.6665 -1.9763
 7027SOL     OW32539   3.612   2.087   5.965 -0.5059  0.1400  0.2302
 7027SOL    HW132540   3.642   2.021   5.903 -1.8320 -0.7718  0.5507
 7027SOL    HW232541   3.624   2.042   6.049 -1.0340 -0.1116  0.1722
 7028SOL     OW32542   1.859   1.965  17.249  0.2403  0.6011 -0.2304
 7028SOL    HW132543   1.841   2.055  17.273  0.0445  0.3954  0.3764
 7028SOL    HW232544   1.897   1.925  17.327  0.3704  0.2743 -0.4594
 7029SOL     OW32545   3.576   2.465   8.589  0.1886  0.2833 -0.1459
 7029SOL    HW132546   3.505   2.462   8.654 -0.7637 -1.6876 -1.2693
 7029SOL    HW232547   3.619   2.543   8.623 -0.3951  1.3403 -1.7901
 7030SOL     OW32548   1.349   1.264   8.573 -0.1416 -0.2816 -0.1137
 7030SOL    HW132549   1.273   1.323   8.569  0.1627  0.1496  0.5839
 7030SOL    HW232550   1.412   1.331   8.597  1.2874 -1.3136 -1.0160
 7031SOL     OW32551   1.737   2.275   1.392  0.0510  0.9354 -0.0001
 7031SOL    HW132552   1.737   2.209   1.322 -1.0094  1.8137 -0.8184
 7031SOL    HW232553   1.760   2.227   1.472  0.4990  1.5083  0.2153
 7032SOL     OW32554   1.781   0.692   5.631  0.2838 -0.0264 -0.3249
 7032SOL    HW132555   1.833   0.613   5.616  1.8699  0.5046  2.4395
 7032SOL    HW232556   1.854   0.750   5.652  0.7721 -0.8495  0.2895
 7033SOL     OW32557   2.524   2.928   5.771 -0.1520  0.0009 -0.2977
 7033SOL    HW132558   2.439   2.886   5.784 -0.8383  1.8605  1.1762
 7033SOL    HW232559   2.569   2.872   5.708 -2.0833 -2.5394  0.5816
 7034SOL     OW32560   2.721   1.226   1.313  0.4055  0.7656  0.5212
 7034SOL    HW132561   2.796   1.281   1.289 -1.3418  1.4491 -3.3850
 7034SOL    HW232562   2.655   1.255   1.251 -0.0195 -2.1587 -0.3717
 7035SOL     OW32563   1.457   2.286   3.269 -0.3442 -0.5953 -0.0855
 7035SOL    HW132564   1.470   2.196   3.299  0.2950 -0.2281  0.7512
 7035SOL    HW232565   1.371   2.282   3.227  0.0462 -0.7958 -0.8477
 7036SOL     OW32566   4.700   4.123   4.809 -0.7164  0.4389  0.3867
 7036SOL    HW132567   0.005   4.200   4.860  0.0675 -0.1508  0.9010
 7036SOL    HW232568   0.004   4.047   4.861 -0.2326  0.7355  0.5948
 7037SOL     OW32569   2.626   2.426   8.487  0.3445 -0.3553  0.9058
 7037SOL    HW132570   2.590   2.342   8.517  0.4633 -0.0467  1.9262
 7037SOL    HW232571   2.716   2.432   8.520 -0.1171  0.5986  1.9880
 7038SOL     OW32572   2.827   2.792   8.875 -0.5036  0.0844 -0.0424
 7038SOL    HW132573   2.889   2.857   8.843 -0.1529  0.4336  1.3449
 7038SOL    HW232574   2.863   2.786   8.963  3.5497 -1.3131 -1.8118
 7039SOL     OW32575   0.330   0.010  11.857 -0.2910  0.1752 -0.2120
 7039SOL    HW132576   0.376   0.009  11.773  2.2906 -1.4469  1.2183
 7039SOL    HW232577   0.242   0.001  11.820 -0.5964  2.2642  0.0005
 7040SOL     OW32578   0.026   4.416   3.346  0.2669  1.0356  0.3386
 7040SOL    HW132579   0.031   4.328   3.309 -0.4601  0.5954  1.2896
 7040SOL    HW232580   4.659   4.410   3.387 -0.9054 -0.6368 -2.3942
 7041SOL     OW32581   3.777   1.715  10.907 -0.1560  0.3459 -0.0972
 7041SOL    HW132582   3.695   1.683  10.870 -0.0481 -1.5889  1.3886
 7041SOL    HW232583   3.782   1.803  10.868 -3.0831  0.8187  0.6528
 7042SOL     OW32584   2.070   1.500   6.840  0.2710  0.1054  0.1010
 7042SOL    HW132585   2.150   1.550   6.823 -0.1842  0.9207  0.3354
 7042SOL    HW232586   2.003   1.558   6.804  1.5207  1.6102  0.2061
 7043SOL     OW32587   1.285   1.593   9.020 -0.4594  0.1896 -0.1933
 7043SOL    HW132588   1.363   1.583   9.075 -0.0655  0.3393 -0.7220
 7043SOL    HW232589   1.299   1.517   8.963 -0.4083  1.9879 -2.5590
 7044SOL     OW32590   2.729   2.615   5.372  0.1405 -0.5829 -0.2352
 7044SOL    HW132591   2.711   2.673   5.298  3.0393  0.0730 -0.4297
 7044SOL    HW232592   2.822   2.630   5.389  0.1256 -0.9443  0.1622
 7045SOL     OW32593   2.075   2.080   1.279 -0.0913 -0.0067 -0.1535
 7045SOL    HW132594   2.106   2.008   1.225 -1.3490  0.9301 -2.1144
 7045SOL    HW232595   2.000   2.119   1.235 -1.7100  0.0392  2.6658
 7046SOL     OW32596   2.940   3.995   3.921  0.4192 -0.0808  0.2799
 7046SOL    HW132597   2.977   3.907   3.933 -0.4651 -0.8154 -2.3454
 7046SOL    HW232598   2.950   4.012   3.827 -0.0617 -1.3660  0.0016
 7047SOL     OW32599   2.889   1.584   5.516 -0.1507  0.0971 -0.2842
 7047SOL    HW132600   2.942   1.525   5.569  1.1988  2.3222  0.8078
 7047SOL    HW232601   2.835   1.615   5.589  2.4348 -2.2324  2.5836
 7048SOL     OW32602   2.600   1.353   6.270  0.6559  0.0884  0.4971
 7048SOL    HW132603   2.685   1.333   6.310  1.2746  0.1798 -0.7720
 7048SOL    HW232604   2.575   1.273   6.224  0.9919  0.8576 -1.0445
 7049SOL     OW32605   2.352   2.327   2.419 -0.4370  0.0902 -0.3416
 7049SOL    HW132606   2.438   2.286   2.430 -0.4198  0.7676  1.9883
 7049SOL    HW232607   2.360   2.387   2.493  0.3083  3.1462 -2.8846
 7050SOL     OW32608   1.411   1.736  12.895 -0.2016  0.0393 -1.0297
 7050SOL    HW132609   1.455   1.785  12.964  0.7863  1.4410 -2.6523
 7050SOL    HW232610   1.405   1.801  12.825  2.3735  1.3664 -0.0004
 7051SOL     OW32611   3.016   1.715   3.060 -0.2742 -0.3577  0.3426
 7051SOL    HW132612   2.967   1.699   3.140 -0.3408 -0.0952  0.3526
 7051SOL    HW232613   2.953   1.762   3.005  0.6388  1.5352  0.9168
 7052SOL     OW32614   4.451   2.339  11.763 -0.3752 -0.4121  0.1423
 7052SOL    HW132615   4.424   2.264  11.816  3.4592 -1.3254  0.7945
 7052SOL    HW232616   4.427   2.402  11.832  2.2790 -0.2851  0.9429
 7053SOL     OW32617   1.671   2.471   2.900 -0.5203 -0.1248 -0.2613
 7053SOL    HW132618   1.755   2.513   2.920 -0.0090 -2.0595  1.6535
 7053SOL    HW232619   1.692   2.378   2.903  1.9168  0.5136  3.5060
 7054SOL     OW32620   1.051   2.700  16.202  0.3116 -0.0676  0.0619
 7054SOL    HW132621   1.034   2.610  16.231 -0.5007 -0.1295 -0.5643
 7054SOL    HW232622   0.967   2.744  16.215 -0.2292 -0.7263 -1.1107
 7055SOL     OW32623   1.120   2.935   1.505 -0.2236  0.4608  0.4160
 7055SOL    HW132624   1.050   2.877   1.537 -0.3288  0.3729  0.0251
 7055SOL    HW232625   1.197   2.908   1.556  1.6521  1.5280 -1.8850
 7056SOL     OW32626   0.934   2.776  16.473 -0.0135  0.4880 -0.2514
 7056SOL    HW132627   1.024   2.809  16.469  0.4091 -0.6646 -0.1831
 7056SOL    HW232628   0.946   2.721  16.551 -1.3200  0.9695  0.2919
 7057SOL     OW32629   0.784   3.055   7.461 -0.7768  0.6236  0.3631
 7057SOL    HW132630   0.726   2.993   7.507 -0.3698 -1.5034 -1.9751
 7057SOL    HW232631   0.860   3.069   7.517 -0.1289  0.9306 -0.5993
 7058SOL     OW32632   2.272   4.257  14.998 -0.2588  0.2851  0.1611
 7058SOL    HW132633   2.229   4.216  14.922 -0.4328 -1.7853  1.3962
 7058SOL    HW232634   2.360   4.223  14.986  0.3394  1.5435  1.0381
 7059SOL     OW32635   3.966   4.397   4.496 -0.1865 -0.3767  0.0539
 7059SOL    HW132636   4.008   4.323   4.454  0.2632 -0.5348  0.7942
 7059SOL    HW232637   3.962   4.473   4.438  0.1663  0.7223  1.4696
 7060SOL     OW32638   1.241   3.375  16.464 -0.2966 -0.1554  0.0218
 7060SOL    HW132639   1.208   3.354  16.552  1.0349 -0.6074  0.4119
 7060SOL    HW232640   1.322   3.324  16.460 -1.1706 -1.4864 -0.5372
 7061SOL     OW32641   2.489   0.162   5.462  0.3842  0.2224  0.5258
 7061SOL    HW132642   2.569   0.207   5.489  0.1133  2.0305 -1.6864
 7061SOL    HW232643   2.487   0.190   5.371  1.8777 -1.4884 -0.0112
 7062SOL     OW32644   2.275   3.771   6.202  0.1680 -0.5404 -0.4947
 7062SOL    HW132645   2.237   3.696   6.248  1.2581 -0.9621 -0.2686
 7062SOL    HW232646   2.294   3.831   6.274  0.3505 -0.3301 -0.7195
 7063SOL     OW32647   3.756   1.969   7.696 -0.3732 -0.2477  0.4867
 7063SOL    HW132648   3.847   1.998   7.704  0.1043 -1.3622 -0.9109
 7063SOL    HW232649   3.722   2.023   7.768  0.9242 -0.0262  0.9393
 7064SOL     OW32650   0.112   2.704   9.857  0.1537 -0.1079 -0.1198
 7064SOL    HW132651   0.177   2.648   9.899 -0.4676  0.8310  2.0884
 7064SOL    HW232652   0.125   2.786   9.904  1.5366 -0.4922  0.1560
 7065SOL     OW32653   4.377   1.908  13.705  0.4729 -0.2152 -0.4415
 7065SOL    HW132654   4.349   1.889  13.616  2.1186 -1.3154 -0.7377
 7065SOL    HW232655   4.407   1.998  13.691 -0.1694  0.1781  0.6581
 7066SOL     OW32656   3.162   1.050   7.350  0.4650  0.4244 -0.5909
 7066SOL    HW132657   3.177   0.956   7.340 -3.1348 -0.2854  0.6856
 7066SOL    HW232658   3.183   1.070   7.441  0.3459 -0.5296 -0.3548
 7067SOL     OW32659   4.369   1.002  12.600 -0.2238  0.8674 -0.3086
 7067SOL    HW132660   4.439   1.013  12.664 -0.4680 -1.6389  0.3764
 7067SOL    HW232661   4.405   1.048  12.525 -0.2875  0.1135 -0.8013
 7068SOL     OW32662   2.541   0.239   3.655 -0.2307  0.2549 -0.0517
 7068SOL    HW132663   2.606   0.223   3.587 -0.3148 -0.6961  0.0915
 7068SOL    HW232664   2.590   0.215   3.733 -0.6311  0.7819  0.3687
 7069SOL     OW32665   0.031   0.496   6.670 -0.3114 -0.4191  0.3732
 7069SOL    HW132666   0.019   0.539   6.585 -0.9047  0.7975  1.0636
 7069SOL    HW232667   4.697   0.418   6.660 -1.1348  0.2964 -0.7637
 7070SOL     OW32668   1.333   2.493  16.194  0.6725  0.3230 -0.3300
 7070SOL    HW132669   1.335   2.523  16.103  2.6429 -0.0681 -0.4134
 7070SOL    HW232670   1.413   2.530  16.231 -0.2982 -0.9416  3.0294
 7071SOL     OW32671   2.203   2.997   1.650 -0.2958  0.2526 -0.0497
 7071SOL    HW132672   2.229   3.087   1.665 -0.1249  0.5997 -2.4056
 7071SOL    HW232673   2.156   3.001   1.566  1.4507 -1.8132 -1.1180
 7072SOL     OW32674   1.823   4.517   8.305  0.6882  0.0522 -0.3373
 7072SOL    HW132675   1.876   4.440   8.325  0.9718  0.4277  0.3530
 7072SOL    HW232676   1.865   4.540   8.223  0.9877  0.5206 -0.0549
 7073SOL     OW32677   4.706   3.436   6.819 -0.0613 -0.0214  0.3379
 7073SOL    HW132678   4.658   3.516   6.840 -0.0644 -0.2205  1.1122
 7073SOL    HW232679   4.707   3.446   6.724 -2.0474 -1.0552  0.2120
 7074SOL     OW32680   3.481   3.912  16.548 -0.2202  0.1480  0.1565
 7074SOL    HW132681   3.395   3.883  16.579 -1.0469  3.0083  0.5144
 7074SOL    HW232682   3.546   3.849  16.579 -0.1368  0.6227  0.9587
 7075SOL     OW32683   2.763   4.461   3.939  0.2552 -0.1470  0.1451
 7075SOL    HW132684   2.724   4.419   3.862  0.6341 -0.8455  0.3368
 7075SOL    HW232685   2.843   4.498   3.903  0.7222 -0.5395  0.7885
 7076SOL     OW32686   1.033   1.292   7.173 -0.0368  0.5404  0.1047
 7076SOL    HW132687   1.078   1.244   7.242  1.4841 -1.0992 -2.0138
 7076SOL    HW232688   1.008   1.218   7.117 -2.2136 -0.5661  2.5463
 7077SOL     OW32689   0.433   1.780   9.161 -0.1684 -0.3035 -0.4854
 7077SOL    HW132690   0.355   1.833   9.179 -0.0544 -0.5084  0.5949
 7077SOL    HW232691   0.428   1.711   9.227  2.8155 -1.0997 -1.1104
 7078SOL     OW32692   3.556   3.480   3.254 -0.2727 -0.1731 -0.2840
 7078SOL    HW132693   3.511   3.465   3.170  1.3348  0.8558 -1.3318
 7078SOL    HW232694   3.496   3.436   3.314  2.2262  0.0875  2.3952
 7079SOL     OW32695   1.237   3.298   7.558  0.2104 -0.4365  0.2171
 7079SOL    HW132696   1.147   3.298   7.527  0.2177 -0.6720  0.1918
 7079SOL    HW232697   1.273   3.215   7.526 -0.6365 -0.5297 -0.4879
 7080SOL     OW32698   2.420   0.866   1.626 -0.4299  0.0399 -0.0397
 7080SOL    HW132699   2.489   0.903   1.681 -0.2561 -1.2825  0.6378
 7080SOL    HW232700   2.464   0.788   1.592  0.2805  0.1740  0.5758
 7081SOL     OW32701   4.446   3.995   1.983  0.3792 -0.2130  0.2042
 7081SOL    HW132702   4.383   4.066   1.970  2.7278  1.6981 -0.6947
 7081SOL    HW232703   4.507   4.042   2.039  1.8519 -4.8483  2.5646
 7082SOL     OW32704   4.634   1.437   3.128 -0.0887  0.4147 -0.0664
 7082SOL    HW132705   4.632   1.457   3.034 -0.7766 -0.8266 -0.3130
 7082SOL    HW232706   4.632   1.521   3.175  0.1119 -0.2253  1.0800
 7083SOL     OW32707   3.710   2.312  17.328  0.3604  0.0577  0.3672
 7083SOL    HW132708   3.734   2.289  17.239  1.3217  0.0079  0.6408
 7083SOL    HW232709   3.753   2.397  17.337 -1.5251  1.0756 -0.1526
 7084SOL     OW32710   1.840   0.403   3.858  0.2895 -0.0257  0.8236
 7084SOL    HW132711   1.788   0.463   3.805  0.6056 -0.0888  0.4434
 7084SOL    HW232712   1.915   0.460   3.875  1.2739 -1.3053  0.7868
 7085SOL     OW32713   3.996   0.688   2.839 -0.0579 -0.2185 -0.7520
 7085SOL    HW132714   4.038   0.623   2.895  0.7399  0.6074 -0.3872
 7085SOL    HW232715   3.929   0.729   2.894  1.3096  0.3016  0.5630
 7086SOL     OW32716   1.170   3.523   1.849  0.6711  0.3266  0.1761
 7086SOL    HW132717   1.133   3.548   1.764 -0.3134 -1.8275 -0.0487
 7086SOL    HW232718   1.235   3.590   1.871 -1.1373  1.7510  1.1717
 7087SOL     OW32719   4.622   3.371  16.058  0.3637 -0.1772  0.5611
 7087SOL    HW132720   4.534   3.369  16.096  0.3818  4.5291  0.8614
 7087SOL    HW232721   4.666   3.420  16.127 -0.8846 -1.1729  2.0884
 7088SOL     OW32722   1.738   0.878   0.029  0.3550  0.0728 -0.0983
 7088SOL    HW132723   1.672   0.859   0.095  0.2240 -1.7623 -0.7750
 7088SOL    HW232724   1.759   0.788   0.004  2.1281  0.8702 -1.5144
 7089SOL     OW32725   2.232   4.173   3.056 -0.3568  0.0915  0.4129
 7089SOL    HW132726   2.236   4.100   2.994  2.3260  1.3012 -0.8342
 7089SOL    HW232727   2.150   4.147   3.097 -0.2255  0.7771  1.1110
 7090SOL     OW32728   3.293   0.682   4.364 -0.3191  0.0993 -0.2231
 7090SOL    HW132729   3.228   0.679   4.295 -1.5481 -0.2053  0.9466
 7090SOL    HW232730   3.356   0.743   4.324 -0.0280 -1.2921 -1.9042
 7091SOL     OW32731   1.933   2.007   4.038 -0.2576 -0.1092 -0.2813
 7091SOL    HW132732   1.906   1.915   4.032 -1.6541  0.3423 -0.7383
 7091SOL    HW232733   1.973   2.019   3.952  1.4669  0.6017  0.6117
 7092SOL     OW32734   1.959   1.269   8.905  0.3203 -0.0085 -0.0500
 7092SOL    HW132735   2.010   1.343   8.872  1.4782 -1.6456 -1.9686
 7092SOL    HW232736   1.957   1.281   9.000 -2.5259  0.9995 -0.2360
 7093SOL     OW32737   4.062   3.089   3.466 -1.0030 -0.2013  0.1852
 7093SOL    HW132738   4.120   3.151   3.421  0.3893 -1.3703  0.3761
 7093SOL    HW232739   4.077   3.121   3.555  0.1352  0.9262 -0.4058
 7094SOL     OW32740   2.471   2.012   8.906 -0.0786  0.3681  0.4302
 7094SOL    HW132741   2.388   2.014   8.952  0.7504 -0.0763  1.9258
 7094SOL    HW232742   2.533   2.008   8.979 -0.8247 -0.6573  0.9976
 7095SOL     OW32743   1.839   2.401   0.398 -0.8357 -0.1761  0.0745
 7095SOL    HW132744   1.819   2.468   0.464  0.9002  0.3947  0.0224
 7095SOL    HW232745   1.786   2.437   0.327  0.8252 -1.9472 -2.0624
 7096SOL     OW32746   3.606   2.883   3.921 -0.4164 -0.4312  0.0642
 7096SOL    HW132747   3.691   2.885   3.877  0.8059 -0.0020  2.4654
 7096SOL    HW232748   3.633   2.841   4.002  0.9006  1.2790  0.5255
 7097SOL     OW32749   2.718   0.677   4.300  0.0044  0.1588  0.1700
 7097SOL    HW132750   2.719   0.652   4.392  1.1807  0.4399  0.2300
 7097SOL    HW232751   2.787   0.620   4.265  0.6597  0.0746  1.5880
 7098SOL     OW32752   1.528   0.949  12.480  0.0986 -0.0779 -0.4327
 7098SOL    HW132753   1.595   0.883  12.460  0.4290  0.4572 -1.0446
 7098SOL    HW232754   1.582   1.022  12.511 -0.5941  0.5823 -0.8137
 7099SOL     OW32755   1.751   4.286  10.142 -0.1603  0.5145 -0.1961
 7099SOL    HW132756   1.770   4.239  10.061 -4.3988  1.3095 -1.6442
 7099SOL    HW232757   1.719   4.374  10.122  0.2891  0.6224 -0.4196
 7100SOL     OW32758   2.132   4.310   5.788 -0.2072 -0.1426 -0.3362
 7100SOL    HW132759   2.083   4.320   5.707  1.3765 -1.7481 -1.4870
 7100SOL    HW232760   2.210   4.268   5.752  0.4406 -0.7974  1.7803
 7101SOL     OW32761   4.406   4.012   3.433  0.1500  0.4961  0.0834
 7101SOL    HW132762   4.328   3.978   3.387 -1.2888 -1.4045  3.9512
 7101SOL    HW232763   4.472   3.945   3.417 -1.2535 -1.2541  1.5853
 7102SOL     OW32764   0.110   3.595   3.657 -0.0610 -0.0960 -0.4838
 7102SOL    HW132765   0.155   3.659   3.712  2.5022 -1.1993 -1.2652
 7102SOL    HW232766   0.034   3.648   3.635  0.1271  0.6438  0.6343
 7103SOL     OW32767   2.559   1.044   8.284 -0.2734 -0.1090  0.6337
 7103SOL    HW132768   2.500   1.115   8.260 -1.7508 -1.7528 -0.6075
 7103SOL    HW232769   2.612   1.082   8.354  0.7466  0.7984 -0.6345
 7104SOL     OW32770   2.462   2.301   3.791 -0.1546 -0.2194  0.5221
 7104SOL    HW132771   2.396   2.263   3.733 -1.7661  0.8691  1.6307
 7104SOL    HW232772   2.542   2.255   3.768 -0.0898 -0.9815  2.2983
 7105SOL     OW32773   1.002   1.755   5.900  0.2539  0.4801 -0.3385
 7105SOL    HW132774   0.948   1.829   5.927  0.5937  0.3667  0.6335
 7105SOL    HW232775   0.937   1.702   5.854  2.0960 -0.1432 -2.2490
 7106SOL     OW32776   1.972   2.009   9.361  0.6404 -0.2803  0.0554
 7106SOL    HW132777   2.017   2.031   9.442  2.4360 -0.1533 -0.9695
 7106SOL    HW232778   1.996   2.086   9.310 -0.8635  0.3710  0.3290
 7107SOL     OW32779   1.638   0.533   5.832 -0.2062 -0.1023 -0.4812
 7107SOL    HW132780   1.628   0.451   5.783 -3.8360 -0.8575  1.4932
 7107SOL    HW232781   1.689   0.587   5.772  0.1977  1.9816  1.7714
 7108SOL     OW32782   2.503   3.124   3.468 -0.5618  0.4010  0.1446
 7108SOL    HW132783   2.530   3.158   3.553 -1.9564  2.2594 -0.1566
 7108SOL    HW232784   2.558   3.046   3.465 -0.4632  0.4706  0.1142
 7109SOL     OW32785   3.799   3.818  11.513  0.0996  0.3355  0.2875
 7109SOL    HW132786   3.768   3.798  11.601  0.2946 -1.0367  0.0406
 7109SOL    HW232787   3.893   3.801  11.513 -0.0302 -0.4355 -1.5864
 7110SOL     OW32788   3.626   1.505  11.144  0.5183 -0.1314  0.6025
 7110SOL    HW132789   3.542   1.520  11.186  0.9232  1.0243  0.9968
 7110SOL    HW232790   3.595   1.483  11.056  1.3269  0.2787  0.2092
 7111SOL     OW32791   1.349   2.756   3.154  0.4873 -0.3382 -0.3019
 7111SOL    HW132792   1.372   2.678   3.104  1.6440  1.7194 -3.0415
 7111SOL    HW232793   1.314   2.719   3.235  1.7845 -0.5804  0.1497
 7112SOL     OW32794   0.429   1.896   6.832  0.0677 -0.0347  0.5581
 7112SOL    HW132795   0.500   1.922   6.891  2.6928 -0.7630 -2.2542
 7112SOL    HW232796   0.358   1.958   6.850  0.5536  0.5453  0.5023
 7113SOL     OW32797   1.069   0.180  15.363 -0.5203 -0.3783 -0.0519
 7113SOL    HW132798   1.113   0.139  15.288 -1.2525 -0.1327 -0.6118
 7113SOL    HW232799   1.051   0.263  15.318  0.0297  0.2936  0.9710
 7114SOL     OW32800   0.649   0.032   4.628 -0.3852 -0.8583 -0.5112
 7114SOL    HW132801   0.692   4.666   4.632 -0.0715 -0.6890 -0.2827
 7114SOL    HW232802   0.659   0.065   4.717 -2.6435 -0.7833 -0.2981
 7115SOL     OW32803   4.127   0.371   7.767 -1.1553  0.0684  0.0742
 7115SOL    HW132804   4.034   0.394   7.763 -0.6147  2.4118  1.0781
 7115SOL    HW232805   4.157   0.420   7.690  0.5815  3.0512  2.6365
 7116SOL     OW32806   0.124   1.338   7.720 -0.6036 -0.2790  0.1571
 7116SOL    HW132807   0.188   1.348   7.649 -0.3307 -2.3474  0.1189
 7116SOL    HW232808   0.120   1.245   7.740 -0.0447  0.0571  1.7880
 7117SOL     OW32809   3.328   1.115  17.655 -0.0031 -0.0451  0.2583
 7117SOL    HW132810   3.415   1.134  17.620  0.0766  2.3247  1.7410
 7117SOL    HW232811   3.340   1.062   0.053 -0.8556  1.6241  1.5032
 7118SOL     OW32812   3.612   3.744   3.203  0.0427 -0.1295  0.1740
 7118SOL    HW132813   3.529   3.783   3.178  1.0675  2.1974  0.3828
 7118SOL    HW232814   3.589   3.655   3.230  0.4461 -0.2298  0.1924
 7119SOL     OW32815   2.036   4.167   9.011 -0.6653 -0.7012  0.4488
 7119SOL    HW132816   1.948   4.133   8.994 -0.6601 -0.4621 -0.0465
 7119SOL    HW232817   2.012   4.258   9.026 -0.4268 -0.8102  1.4837
 7120SOL     OW32818   0.785   0.245   0.428 -0.3452 -0.3595  0.3108
 7120SOL    HW132819   0.710   0.302   0.410 -0.4961 -0.0826  1.8095
 7120SOL    HW232820   0.750   0.161   0.399 -1.1132  0.8969 -2.3972
 7121SOL     OW32821   0.985   1.956   9.299  0.3441 -0.2004 -0.3372
 7121SOL    HW132822   1.052   1.887   9.294 -0.7966 -1.3187  0.0397
 7121SOL    HW232823   0.910   1.920   9.252 -1.3749  2.2567  0.5420
 7122SOL     OW32824   3.694   1.419   3.938 -0.3580  0.5474 -0.0791
 7122SOL    HW132825   3.609   1.383   3.911 -0.0638 -0.1249 -0.0972
 7122SOL    HW232826   3.737   1.449   3.858  1.9492 -1.1567  0.5292
 7123SOL     OW32827   1.377   0.931   3.683  0.0947  0.1163 -0.8976
 7123SOL    HW132828   1.366   1.020   3.651  1.0258  1.3688  2.3052
 7123SOL    HW232829   1.296   0.888   3.653  0.9399 -3.0118  1.2915
 7124SOL     OW32830   2.486   1.803   8.151  0.5266  0.0378  0.7460
 7124SOL    HW132831   2.482   1.813   8.246 -1.8966  1.8205  0.4616
 7124SOL    HW232832   2.482   1.893   8.118  0.3621 -0.4838 -0.6764
 7125SOL     OW32833   4.716   0.039  16.860  0.2996  0.3114  0.2276
 7125SOL    HW132834   4.694   0.089  16.938  1.3616 -2.8743  2.5610
 7125SOL    HW232835   4.644   0.055  16.799  0.4643  0.4560  0.0682
 7126SOL     OW32836   4.209   1.896   7.876  0.2041 -0.2435  0.8027
 7126SOL    HW132837   4.137   1.877   7.936 -0.6704 -0.5351 -0.3444
 7126SOL    HW232838   4.222   1.813   7.831  0.7935  0.2995 -0.0319
 7127SOL     OW32839   0.142   2.947   8.243 -0.1511 -0.2994  0.9263
 7127SOL    HW132840   0.148   2.899   8.161  2.1799 -0.4274  1.1680
 7127SOL    HW232841   0.230   2.930   8.278 -0.0104  3.0558  2.2027
 7128SOL     OW32842   2.633   1.716   2.660  0.0815  0.2353  0.5292
 7128SOL    HW132843   2.708   1.681   2.708  1.9321  0.3006 -2.3888
 7128SOL    HW232844   2.582   1.638   2.637  0.2148  0.1881  0.3966
 7129SOL     OW32845   2.250   0.018   4.649 -0.1663 -0.0489  0.0594
 7129SOL    HW132846   2.251   0.087   4.583 -1.0421 -2.1455 -2.1596
 7129SOL    HW232847   2.304   0.064   4.713 -1.0074  0.0318  0.7019
 7130SOL     OW32848   1.747   3.757   8.004 -0.1177 -0.2412  0.2610
 7130SOL    HW132849   1.783   3.740   8.092 -0.4743  0.3581  0.5261
 7130SOL    HW232850   1.740   3.852   7.999  1.0727 -0.0084  2.5382
 7131SOL     OW32851   4.525   2.659  15.390  0.4276  0.1623  0.7358
 7131SOL    HW132852   4.441   2.646  15.346 -0.5181 -0.6123  2.7806
 7131SOL    HW232853   4.547   2.751  15.374 -1.6256  0.6251  0.6544
 7132SOL     OW32854   1.064   1.400   5.617 -0.1208  0.2471 -0.3731
 7132SOL    HW132855   1.058   1.399   5.712  1.8462  1.8069 -0.2365
 7132SOL    HW232856   1.085   1.313   5.583 -1.7983 -0.0741 -0.6027
 7133SOL     OW32857   2.245   2.120   8.204  0.0370 -0.7646 -0.5158
 7133SOL    HW132858   2.290   2.132   8.120  1.7159  0.0752  0.5119
 7133SOL    HW232859   2.315   2.138   8.266 -1.4550 -1.1545  1.2716
 7134SOL     OW32860   2.729   2.094   3.960  0.0140 -0.4624  0.3629
 7134SOL    HW132861   2.767   2.060   4.041 -0.9664  0.1532  1.0737
 7134SOL    HW232862   2.803   2.119   3.904 -0.4956 -4.4135 -2.0890
 7135SOL     OW32863   3.078   3.731   6.754 -0.8880 -0.3862 -0.2040
 7135SOL    HW132864   3.144   3.661   6.756  0.7541  1.2078  1.7809
 7135SOL    HW232865   3.091   3.787   6.831 -1.6382 -0.7063  0.1592
 7136SOL     OW32866   1.368   2.450   8.559  0.9731  0.4645  0.4897
 7136SOL    HW132867   1.325   2.379   8.607  0.8505  1.0516  1.2590
 7136SOL    HW232868   1.380   2.400   8.478 -0.3243  1.8625 -0.5572
 7137SOL     OW32869   1.766   0.070   2.175 -0.4446  0.0769 -0.1266
 7137SOL    HW132870   1.720   4.705   2.176  0.1190 -0.2365 -2.3662
 7137SOL    HW232871   1.694   0.130   2.195 -1.5962 -1.4522  0.3268
 7138SOL     OW32872   0.750   3.713   3.802  0.3576  0.1988  0.1898
 7138SOL    HW132873   0.802   3.790   3.783 -2.3385  1.3656 -2.5033
 7138SOL    HW232874   0.737   3.699   3.896 -2.4915  2.3263  0.0992
 7139SOL     OW32875   0.666   0.124   7.925 -0.4650 -0.1863  0.9505
 7139SOL    HW132876   0.712   0.040   7.924  0.2737  0.2368 -0.9464
 7139SOL    HW232877   0.644   0.134   8.017  2.1200  0.6817  1.4549
 7140SOL     OW32878   4.111   1.864   9.128 -0.4625  0.5171  0.0580
 7140SOL    HW132879   4.143   1.954   9.131  0.7962 -0.0480  3.2763
 7140SOL    HW232880   4.108   1.842   9.221 -0.1315 -1.3307 -0.3650
 7141SOL     OW32881   3.956   2.372   8.397  0.5248  0.8651  0.5193
 7141SOL    HW132882   4.037   2.326   8.375 -0.4943 -0.3623 -0.7022
 7141SOL    HW232883   3.953   2.354   8.491 -0.5645  1.3064  0.5741
 7142SOL     OW32884   1.824   2.565   6.819  0.1736  0.0547 -0.3096
 7142SOL    HW132885   1.752   2.552   6.758  1.5396 -0.4586 -1.8009
 7142SOL    HW232886   1.860   2.476   6.810 -1.9374 -0.8708  0.4802
 7143SOL     OW32887   2.129   1.290   2.293  0.1838  0.5718 -0.1859
 7143SOL    HW132888   2.148   1.224   2.360 -0.1392  1.3122  0.6302
 7143SOL    HW232889   2.157   1.367   2.341  2.4837 -0.6644  0.4146
 7144SOL     OW32890   2.045   1.818   3.756  0.2617 -0.1433  0.7687
 7144SOL    HW132891   2.003   1.904   3.759 -2.5683 -1.3797 -3.6186
 7144SOL    HW232892   2.134   1.830   3.790  1.1052 -0.6501 -1.2776
 7145SOL     OW32893   3.562   0.381   6.509  0.3129  0.2498 -0.3994
 7145SOL    HW132894   3.541   0.395   6.602 -0.0171 -0.7449 -0.3260
 7145SOL    HW232895   3.482   0.364   6.460  0.6231  1.1595 -1.2154
 7146SOL     OW32896   3.435   0.649  12.659 -0.2063 -0.2908 -0.2867
 7146SOL    HW132897   3.404   0.561  12.680 -1.0412  0.7631  2.9756
 7146SOL    HW232898   3.358   0.692  12.624 -1.7335 -1.0581  2.1096
 7147SOL     OW32899   0.951   3.412   5.578  0.2296 -0.0520 -0.3120
 7147SOL    HW132900   0.887   3.483   5.568  0.1250 -0.0056  0.7566
 7147SOL    HW232901   0.923   3.367   5.498 -1.0042  2.0473 -1.0499
 7148SOL     OW32902   3.557   1.480   8.679  0.1677  0.0057  0.5373
 7148SOL    HW132903   3.635   1.425   8.665  0.0253 -0.3599  1.1933
 7148SOL    HW232904   3.586   1.567   8.651 -2.4256  1.4083  2.2689
 7149SOL     OW32905   2.095   3.536  14.291  0.2788  0.0519 -0.6993
 7149SOL    HW132906   2.046   3.530  14.372 -0.4528 -0.0021 -1.1461
 7149SOL    HW232907   2.034   3.497  14.228 -0.1350  0.3083 -0.4540
 7150SOL     OW32908   3.818   0.644   7.232 -0.2528 -0.2731  0.1206
 7150SOL    HW132909   3.815   0.696   7.152 -0.4105 -0.7486 -0.1812
 7150SOL    HW232910   3.809   0.708   7.302  0.5844 -1.0104  0.9032
 7151SOL     OW32911   1.618   1.094   3.878 -0.1102  0.5570  0.4599
 7151SOL    HW132912   1.629   1.175   3.828  3.6535 -0.1100  0.2175
 7151SOL    HW232913   1.671   1.040   3.819 -0.5954  0.7622 -0.1691
 7152SOL     OW32914   1.809   4.496  11.579  0.4377  0.3485 -0.2039
 7152SOL    HW132915   1.827   4.412  11.620 -0.0608  1.6609  2.7297
 7152SOL    HW232916   1.883   4.547  11.610  1.1862 -1.5004  1.0008
 7153SOL     OW32917   2.634   3.080   8.617 -0.1901 -0.3589  0.4580
 7153SOL    HW132918   2.573   3.123   8.677 -0.6365 -0.3456 -0.0023
 7153SOL    HW232919   2.642   3.145   8.547  3.0559 -0.6818  0.5515
 7154SOL     OW32920   2.396   4.261   8.500  0.6564 -1.0274  0.0923
 7154SOL    HW132921   2.399   4.265   8.596 -0.8161 -2.7823  0.2002
 7154SOL    HW232922   2.311   4.298   8.477  1.1493  0.4608  0.6258
 7155SOL     OW32923   4.032   2.184   1.894  0.4039 -0.0629 -0.0491
 7155SOL    HW132924   4.077   2.228   1.966 -0.3301 -0.4027  0.6180
 7155SOL    HW232925   4.064   2.094   1.898  0.3513 -0.0627  0.3981
 7156SOL     OW32926   2.751   0.184   8.915 -0.2963 -0.5858  0.5252
 7156SOL    HW132927   2.765   0.228   8.831  2.3856 -2.6102 -0.0759
 7156SOL    HW232928   2.715   0.098   8.891  2.8634 -1.3163 -1.5604
 7157SOL     OW32929   2.547   3.822   4.603  0.7257  0.4498  0.2712
 7157SOL    HW132930   2.536   3.892   4.539 -0.8704 -1.8480 -1.9606
 7157SOL    HW232931   2.464   3.812   4.650  0.7863 -2.5598 -0.2362
 7158SOL     OW32932   1.984   2.125  11.146  0.0602  0.1109 -0.4383
 7158SOL    HW132933   1.905   2.123  11.093 -0.6412 -0.4315  0.6361
 7158SOL    HW232934   2.010   2.216  11.135  2.0097 -0.2094  1.4953
 7159SOL     OW32935   3.273   0.239   3.581 -0.0472  0.1842  0.3352
 7159SOL    HW132936   3.254   0.307   3.646  0.6509 -0.9552  1.7244
 7159SOL    HW232937   3.300   0.170   3.641  2.1462  0.4664 -0.3449
 7160SOL     OW32938   3.482   0.331   3.387  0.1892 -0.1794  0.5105
 7160SOL    HW132939   3.514   0.403   3.442 -1.0950  0.7113  0.1077
 7160SOL    HW232940   3.405   0.298   3.433 -0.9758  0.7603 -0.7638
 7161SOL     OW32941   3.303   1.164   4.860 -0.3164  0.1156 -0.1563
 7161SOL    HW132942   3.263   1.116   4.932  0.0382  0.4602  0.2695
 7161SOL    HW232943   3.304   1.096   4.792 -1.8692  1.0863 -1.1452
 7162SOL     OW32944   2.292   1.795   2.311 -0.3749  0.6352 -0.2014
 7162SOL    HW132945   2.202   1.820   2.290 -0.6489 -0.4534 -0.2988
 7162SOL    HW232946   2.300   1.843   2.393 -1.0849  0.7209 -0.1778
 7163SOL     OW32947   2.456   0.712   9.259  0.4397  0.0572  0.1614
 7163SOL    HW132948   2.454   0.693   9.353  0.3664 -0.6018  0.0203
 7163SOL    HW232949   2.383   0.774   9.262 -0.6602 -1.0993 -3.5735
 7164SOL     OW32950   0.447   1.314   4.434 -0.4358 -0.6104  0.0652
 7164SOL    HW132951   0.353   1.333   4.436 -0.5850 -1.3487 -0.0099
 7164SOL    HW232952   0.476   1.387   4.489  1.4752  0.0809 -1.8565
 7165SOL     OW32953   0.283   2.580   1.963  0.3303  0.4857  0.2952
 7165SOL    HW132954   0.234   2.638   2.021  2.2814  1.2566  1.1809
 7165SOL    HW232955   0.376   2.575   1.986  0.1622 -1.0095  0.6516
 7166SOL     OW32956   0.305   1.268   7.077 -0.7911 -0.6688 -0.0239
 7166SOL    HW132957   0.258   1.194   7.116  0.3705 -1.5464 -0.2966
 7166SOL    HW232958   0.265   1.336   7.131  1.2255 -1.9260  3.0178
 7167SOL     OW32959   2.315   2.806  14.983  0.1661  0.3346  0.3928
 7167SOL    HW132960   2.410   2.802  14.978  0.1315 -0.1081  0.1147
 7167SOL    HW232961   2.294   2.739  14.918 -1.8022 -0.1831  1.5528
 7168SOL     OW32962   1.297   1.268  17.319 -0.0937 -0.1427  0.1960
 7168SOL    HW132963   1.272   1.305  17.403  2.1196  2.7994 -0.4466
 7168SOL    HW232964   1.351   1.335  17.277  0.1506 -0.0029  0.7360
 7169SOL     OW32965   1.415   4.552   5.380  0.4130 -0.1375  0.1216
 7169SOL    HW132966   1.372   4.505   5.309  0.7567 -1.2033  0.6186
 7169SOL    HW232967   1.505   4.556   5.349 -0.9130 -0.7035 -3.7792
 7170SOL     OW32968   4.449   0.877   5.208 -0.4303  0.1937 -0.1364
 7170SOL    HW132969   4.370   0.879   5.155 -0.3889 -2.7696 -0.3347
 7170SOL    HW232970   4.492   0.806   5.160  2.5936  1.7199  0.3155
 7171SOL     OW32971   2.469   3.803   2.524 -0.0056 -0.4929 -0.5432
 7171SOL    HW132972   2.402   3.750   2.568 -1.1512  0.0634 -1.6407
 7171SOL    HW232973   2.487   3.875   2.585 -3.0664 -1.0697  1.0242
 7172SOL     OW32974   1.110   3.780   6.212  0.1516 -0.2080  0.0696
 7172SOL    HW132975   1.110   3.833   6.292  1.9492 -1.9031  1.2051
 7172SOL    HW232976   1.072   3.840   6.149  2.4182  0.9224 -0.2037
 7173SOL     OW32977   0.498   3.045   6.973 -0.3062  0.5634 -0.2493
 7173SOL    HW132978   0.592   3.027   6.975 -0.5885 -0.8106  0.2905
 7173SOL    HW232979   0.512   3.134   6.940 -0.2971  0.3061 -0.9284
 7174SOL     OW32980   4.010   1.381   5.282  0.1233  0.2270 -0.3954
 7174SOL    HW132981   4.087   1.418   5.238  1.4892 -1.7696  0.2885
 7174SOL    HW232982   4.023   1.401   5.375  0.6709 -1.8092 -0.0325
 7175SOL     OW32983   3.634   3.942   3.870 -0.4755 -0.2962 -0.0117
 7175SOL    HW132984   3.728   3.953   3.887 -1.0268 -0.5072  3.1984
 7175SOL    HW232985   3.640   3.954   3.775 -0.2001 -1.3462 -0.1188
 7176SOL     OW32986   2.308   1.667   6.831  0.1202  0.2427 -0.2913
 7176SOL    HW132987   2.295   1.717   6.751 -1.2819  1.1763  0.5339
 7176SOL    HW232988   2.370   1.601   6.799  0.4413 -0.0149  0.8925
 7177SOL     OW32989   1.174   4.164   8.698  0.0887  0.1269  0.0817
 7177SOL    HW132990   1.242   4.099   8.681 -1.6431 -2.0866  1.5518
 7177SOL    HW232991   1.226   4.234   8.737 -0.8104  2.4822 -2.9143
 7178SOL     OW32992   0.623   3.382   4.130  0.4540  0.1000 -0.8380
 7178SOL    HW132993   0.576   3.367   4.048 -0.6440  0.2585 -0.2417
 7178SOL    HW232994   0.716   3.362   4.117  0.2788 -0.2974 -1.4753
 7179SOL     OW32995   4.653   2.114   5.177  0.3696 -0.0776 -0.2461
 7179SOL    HW132996   4.598   2.117   5.098 -0.4654  1.3330  0.4022
 7179SOL    HW232997   4.709   2.190   5.164  1.1360 -0.6035 -0.0072
 7180SOL     OW32998   3.226   1.442   8.734 -0.1386 -0.2408 -0.2518
 7180SOL    HW132999   3.292   1.420   8.800 -0.7288  0.1083  0.4437
 7180SOL    HW233000   3.172   1.507   8.778  0.6418  0.0686  0.2590
 7181SOL     OW33001   3.706   4.328   4.357  0.6508 -0.5348  0.2698
 7181SOL    HW133002   3.771   4.299   4.421  1.3411 -1.8892 -1.0632
 7181SOL    HW233003   3.660   4.246   4.336  2.6075 -1.4066 -0.5680
 7182SOL     OW33004   2.535   1.224   3.550 -0.7058 -0.3302 -0.0904
 7182SOL    HW133005   2.512   1.309   3.513 -3.5903 -0.9168  0.3490
 7182SOL    HW233006   2.578   1.179   3.477  0.1191 -1.1729  0.9135
 7183SOL     OW33007   0.006   3.804   5.232 -0.5762 -0.2986  0.2280
 7183SOL    HW133008   4.667   3.807   5.157  0.9262  0.7578 -0.8949
 7183SOL    HW233009   0.020   3.895   5.256  2.0120 -0.1418 -1.9300
 7184SOL     OW33010   4.653   2.748   7.342 -0.5298  0.0630 -0.0579
 7184SOL    HW133011   4.663   2.737   7.247 -1.0123 -0.6965 -0.0162
 7184SOL    HW233012   4.559   2.754   7.356 -0.7366 -1.7551 -0.5930
 7185SOL     OW33013   2.015   1.451   6.442  0.2417  0.0367 -0.2318
 7185SOL    HW133014   1.936   1.501   6.460 -0.0444 -0.3536 -0.3967
 7185SOL    HW233015   2.068   1.509   6.389  1.9974 -0.5199  0.8984
 7186SOL     OW33016   2.892   1.629   2.631 -0.5998  0.5746  0.0573
 7186SOL    HW133017   2.945   1.594   2.559 -2.1542  4.2909 -2.8837
 7186SOL    HW233018   2.940   1.595   2.706  0.1946  1.9614  0.1702
 7187SOL     OW33019   1.042   3.644   5.342  0.2644  0.0511 -1.0280
 7187SOL    HW133020   1.047   3.559   5.299 -1.1241 -0.3784 -0.3157
 7187SOL    HW233021   1.132   3.677   5.344  1.3737 -3.0412 -0.4669
 7188SOL     OW33022   1.196   3.606   5.992 -0.1329 -0.1910 -0.2516
 7188SOL    HW133023   1.168   3.650   6.072  0.8176 -0.3329  0.1598
 7188SOL    HW233024   1.284   3.576   6.013  0.5106  1.7166 -0.2043
 7189SOL     OW33025   0.965   3.098   7.886 -0.0343 -0.3699  0.2677
 7189SOL    HW133026   1.050   3.111   7.929  0.3739 -1.1959 -0.2956
 7189SOL    HW233027   0.905   3.052   7.944  3.7332 -3.6572  1.5803
 7190SOL     OW33028   2.005   2.396   2.979 -0.4515 -0.1363 -0.4535
 7190SOL    HW133029   2.007   2.300   2.985  0.3699 -0.1915 -1.6192
 7190SOL    HW233030   2.073   2.415   2.915  0.5376 -0.6913  0.4305
 7191SOL     OW33031   0.493   0.228  12.976 -0.7192 -0.1901 -0.6349
 7191SOL    HW133032   0.572   0.227  12.922 -0.3373  0.6944 -0.0880
 7191SOL    HW233033   0.440   0.288  12.925 -0.7726  1.6488  1.5760
 7192SOL     OW33034   3.762   3.651  16.299  0.5484 -0.1859  0.3677
 7192SOL    HW133035   3.691   3.664  16.361 -1.1593 -0.0852 -1.6042
 7192SOL    HW233036   3.795   3.564  16.323  0.8303 -0.7397 -1.9820
 7193SOL     OW33037   3.714   3.602   9.719 -0.5022 -0.6215  0.7445
 7193SOL    HW133038   3.740   3.687   9.684  1.7782 -0.1387  3.5317
 7193SOL    HW233039   3.798   3.566   9.749 -1.2299 -0.8733  2.5192
 7194SOL     OW33040   3.345   4.188   1.175 -0.1067 -0.6265  0.3576
 7194SOL    HW133041   3.423   4.222   1.131 -0.4884 -0.9365 -0.5620
 7194SOL    HW233042   3.297   4.158   1.098  3.3122  0.6634 -2.2860
 7195SOL     OW33043   3.967   0.284   8.007  0.5427  0.2550 -0.7515
 7195SOL    HW133044   3.920   0.230   7.943 -1.5805  1.2101 -0.0097
 7195SOL    HW233045   4.054   0.293   7.968 -0.0424  2.6776 -1.5507
 7196SOL     OW33046   4.162   2.376   6.610  0.1465 -0.4144 -0.5428
 7196SOL    HW133047   4.107   2.452   6.595  0.4448 -0.1131 -0.0901
 7196SOL    HW233048   4.135   2.357   6.700  0.1238 -0.6083 -0.5899
 7197SOL     OW33049   2.395   4.309   8.016 -0.2985  0.0448 -0.2449
 7197SOL    HW133050   2.375   4.402   8.022 -0.0314  0.1569 -1.0736
 7197SOL    HW233051   2.463   4.310   7.948 -1.4142 -1.3856 -1.3986
 7198SOL     OW33052   3.674   0.555   1.978 -0.6490  0.0497 -0.3033
 7198SOL    HW133053   3.719   0.597   1.906 -0.5232 -0.0380 -0.2755
 7198SOL    HW233054   3.743   0.512   2.028 -1.4078 -1.1426 -0.2497
 7199SOL     OW33055   0.509   2.675   2.800 -0.0072 -0.6465  0.1493
 7199SOL    HW133056   0.514   2.601   2.739 -2.0846  0.8433 -1.8313
 7199SOL    HW233057   0.419   2.706   2.792 -0.3962 -1.4336  1.6751
 7200SOL     OW33058   2.576   2.787  14.931 -0.2255 -0.4252 -0.3477
 7200SOL    HW133059   2.657   2.833  14.909 -0.8550  0.0196 -1.7390
 7200SOL    HW233060   2.537   2.781  14.844 -1.5533 -1.2590  0.3143
 7201SOL     OW33061   1.599   0.370   3.462 -0.3646 -0.5776  0.0931
 7201SOL    HW133062   1.577   0.462   3.446 -1.0706 -1.1253 -2.0507
 7201SOL    HW233063   1.673   0.375   3.521 -0.0023 -1.5227 -0.2790
 7202SOL     OW33064   2.755   4.718  16.167  0.3424  0.3061  0.0530
 7202SOL    HW133065   2.806   4.637  16.161 -0.3038 -0.0937 -0.0160
 7202SOL    HW233066   2.824   0.061  16.187 -1.5775  1.9972  1.2966
 7203SOL     OW33067   4.017   4.023   7.882  0.0216 -0.3288  0.2255
 7203SOL    HW133068   4.109   3.998   7.868  0.5928  2.6010 -1.2027
 7203SOL    HW233069   3.994   4.048   7.792 -1.5589  1.7342  1.2181
 7204SOL     OW33070   1.735   0.596   3.657  0.4353 -0.3909 -0.7053
 7204SOL    HW133071   1.660   0.622   3.710  0.0013 -2.7388 -0.1857
 7204SOL    HW233072   1.736   0.672   3.600  0.5441 -0.2094 -0.4638
 7205SOL     OW33073   1.790   4.064   6.726  0.0649 -0.5253  0.3991
 7205SOL    HW133074   1.696   4.056   6.747 -0.4737  1.1269 -1.4031
 7205SOL    HW233075   1.836   4.053   6.809 -1.3309  2.0141  1.4855
 7206SOL     OW33076   1.855   3.462   2.928  0.9276 -0.0178  0.0466
 7206SOL    HW133077   1.885   3.489   2.842 -0.5188  0.9340 -0.1694
 7206SOL    HW233078   1.787   3.402   2.898  0.3337 -0.0707  1.4715
 7207SOL     OW33079   0.156   2.548   6.658 -0.4866 -0.2076  0.3029
 7207SOL    HW133080   0.207   2.467   6.666 -2.0400 -1.4209 -1.7670
 7207SOL    HW233081   0.068   2.535   6.623 -0.3355 -3.6705  1.2451
 7208SOL     OW33082   4.393   3.696   2.735  0.0710 -0.4089 -0.0387
 7208SOL    HW133083   4.384   3.739   2.820  0.5125 -0.7066  0.1574
 7208SOL    HW233084   4.321   3.633   2.728 -0.3819  0.0020  0.9697
 7209SOL     OW33085   0.053   1.746  15.146  0.0482  0.0336 -0.5222
 7209SOL    HW133086   0.058   1.765  15.053 -1.2366 -0.8310 -0.7656
 7209SOL    HW233087   4.699   1.801  15.173  0.1891  0.6737 -1.4480
 7210SOL     OW33088   2.663   0.287   2.202  0.0358 -0.0771 -0.2945
 7210SOL    HW133089   2.641   0.244   2.120 -1.6149 -0.7495  0.4848
 7210SOL    HW233090   2.753   0.257   2.212  0.9450  2.1628 -1.8930
 7211SOL     OW33091   0.614   3.711   2.742  0.2392  0.2627 -0.3015
 7211SOL    HW133092   0.709   3.722   2.745  0.1166  1.4972 -1.4534
 7211SOL    HW233093   0.586   3.801   2.732 -1.8274 -0.3628 -0.0640
 7212SOL     OW33094   2.544   1.584   5.070  0.0783 -0.4950 -0.0485
 7212SOL    HW133095   2.455   1.579   5.105  1.3635  1.6144  3.5332
 7212SOL    HW233096   2.592   1.598   5.152 -0.5909  0.4571  0.1800
 7213SOL     OW33097   1.975   4.025   7.746 -0.1405 -0.5090 -0.3412
 7213SOL    HW133098   1.914   4.090   7.713  1.0043  0.9208  0.3472
 7213SOL    HW233099   2.052   4.070   7.780  0.3217 -2.1160  0.7621
 7214SOL     OW33100   2.741   4.144   2.242 -0.3504 -0.4389  0.1147
 7214SOL    HW133101   2.728   4.094   2.322 -0.7272  1.3748  1.1895
 7214SOL    HW233102   2.836   4.150   2.238 -0.2780 -1.0128  1.0105
 7215SOL     OW33103   3.167   1.542   8.483  0.1727 -0.4058 -0.1050
 7215SOL    HW133104   3.184   1.495   8.564  3.1249 -0.3247 -0.6823
 7215SOL    HW233105   3.259   1.554   8.457 -0.3505 -0.1930 -1.9028
 7216SOL     OW33106   1.323   4.167   9.055 -0.0497 -0.6537  0.3077
 7216SOL    HW133107   1.324   4.263   9.055  1.6541 -0.6671  1.4893
 7216SOL    HW233108   1.367   4.147   8.973 -0.6503 -1.3402  0.1518
 7217SOL     OW33109   1.892   3.046  11.571 -0.5930 -0.1005 -0.1186
 7217SOL    HW133110   1.981   3.071  11.596 -0.3438 -1.9053  0.7895
 7217SOL    HW233111   1.924   2.973  11.517 -0.9017 -1.4039  1.4803
 7218SOL     OW33112   1.479   3.427  16.289  0.5493  0.5142  0.2600
 7218SOL    HW133113   1.550   3.482  16.321  0.8363  0.0149  0.4735
 7218SOL    HW233114   1.412   3.496  16.281  0.5307  0.3817 -0.7780
 7219SOL     OW33115   3.444   1.498   8.427 -0.1629 -0.1580  0.0872
 7219SOL    HW133116   3.436   1.409   8.392  2.0503 -0.5706  0.6576
 7219SOL    HW233117   3.463   1.479   8.519 -0.6877  1.2879  0.4957
 7220SOL     OW33118   2.412   3.349   4.482  0.1932  0.1437  1.0129
 7220SOL    HW133119   2.375   3.375   4.397 -3.4281 -0.8496  2.2907
 7220SOL    HW233120   2.494   3.312   4.450  0.2499 -1.9721  3.6125
 7221SOL     OW33121   4.150   2.991   3.032 -0.0249 -0.0050 -1.0624
 7221SOL    HW133122   4.226   2.932   3.030 -0.1771 -0.1651 -2.1364
 7221SOL    HW233123   4.187   3.072   2.997 -1.1734  0.4258 -1.2647
 7222SOL     OW33124   3.766   3.187  13.765 -0.3729 -0.0097 -0.5872
 7222SOL    HW133125   3.679   3.222  13.744 -0.5108 -0.6148 -1.0418
 7222SOL    HW233126   3.812   3.241  13.701 -0.9006  0.2831 -0.7281
 7223SOL     OW33127   4.154   0.315   8.621  0.1136 -0.4753 -0.9549
 7223SOL    HW133128   4.204   0.370   8.682  1.0108 -1.4347 -0.8254
 7223SOL    HW233129   4.078   0.370   8.604  0.1900 -0.3140 -0.7821
 7224SOL     OW33130   1.472   0.356   1.640  0.0847  0.5297  0.1020
 7224SOL    HW133131   1.451   0.302   1.717  1.2719  0.3706  0.3189
 7224SOL    HW233132   1.386   0.391   1.620  0.4937  0.5853 -1.5215
 7225SOL     OW33133   3.584   4.246   2.159  0.5224 -0.2968  0.2547
 7225SOL    HW133134   3.517   4.234   2.092 -0.4275  0.3332  1.0979
 7225SOL    HW233135   3.563   4.329   2.202  2.5230  0.1494  0.3910
 7226SOL     OW33136   1.158   1.024   4.165  0.1704 -0.6756 -0.0592
 7226SOL    HW133137   1.221   1.060   4.227  0.7543 -2.1724  0.2151
 7226SOL    HW233138   1.217   0.992   4.097 -0.5022  0.6302 -1.2720
 7227SOL     OW33139   3.839   1.187   8.129  0.7405  0.2539 -0.3993
 7227SOL    HW133140   3.750   1.166   8.155  0.9821  0.1020  0.2967
 7227SOL    HW233141   3.884   1.173   8.212  1.1107  1.7679 -0.3458
 7228SOL     OW33142   0.175   0.137   4.046  0.2881  0.3365  0.4856
 7228SOL    HW133143   0.096   0.088   4.066  1.0366 -0.5494  1.2508
 7228SOL    HW233144   0.181   0.116   3.953 -0.9468 -0.1951  0.5388
 7229SOL     OW33145   0.823   2.225  10.607  0.7075 -0.3624  0.3816
 7229SOL    HW133146   0.874   2.154  10.567 -1.6995 -1.3314 -1.0301
 7229SOL    HW233147   0.773   2.248  10.528  0.3292 -0.2051  0.6721
 7230SOL     OW33148   3.807   1.006  11.136  0.1332  0.0093 -0.5589
 7230SOL    HW133149   3.901   0.993  11.151 -1.0033 -3.8904  3.0815
 7230SOL    HW233150   3.794   1.078  11.198 -3.8601 -1.1642 -0.0350
 7231SOL     OW33151   2.989   3.473   4.190 -0.1885 -0.4791 -0.0336
 7231SOL    HW133152   2.991   3.534   4.263  3.0186 -0.9410  0.2489
 7231SOL    HW233153   3.080   3.445   4.196  0.0483  0.4159  0.5048
 7232SOL     OW33154   2.830   4.623  11.653 -0.0473 -0.6898 -0.0687
 7232SOL    HW133155   2.791   4.701  11.691 -2.6874 -2.3299  0.5959
 7232SOL    HW233156   2.871   4.597  11.735 -0.7815 -0.5822  0.3245
 7233SOL     OW33157   3.826   3.829   3.026  0.2730  0.6134  0.5598
 7233SOL    HW133158   3.780   3.776   3.091 -1.6502  1.8019  0.1594
 7233SOL    HW233159   3.848   3.910   3.072  1.4668 -0.1978  1.4263
 7234SOL     OW33160   3.347   1.899   7.602  0.4770 -0.1910  0.3536
 7234SOL    HW133161   3.370   1.984   7.640 -1.2238 -0.2928  1.6060
 7234SOL    HW233162   3.382   1.924   7.517  0.2368 -1.7247 -0.1949
 7235SOL     OW33163   2.208   0.440  10.331 -0.2485 -0.3396 -0.0932
 7235SOL    HW133164   2.239   0.510  10.388  0.0280 -1.2474  0.8691
 7235SOL    HW233165   2.204   0.362  10.386  1.6678 -0.6013 -0.3308
 7236SOL     OW33166   0.449   2.305   3.388  0.0168 -0.6364 -0.3068
 7236SOL    HW133167   0.514   2.375   3.402 -1.1419  0.2621  0.6363
 7236SOL    HW233168   0.483   2.253   3.315  0.6556 -1.1257  0.3387
 7237SOL     OW33169   2.726   2.649   0.162  0.7103 -0.3054 -0.2524
 7237SOL    HW133170   2.675   2.616   0.236 -0.6797 -0.7385 -1.4032
 7237SOL    HW233171   2.660   2.633   0.096 -0.2952 -1.9136  1.1332
 7238SOL     OW33172   0.107   4.358   4.955 -0.5998 -0.2002 -0.7332
 7238SOL    HW133173   0.150   4.442   4.969  1.1500 -1.2290 -0.0337
 7238SOL    HW233174   0.171   4.298   4.993 -1.1402 -1.8191 -2.3800
 7239SOL     OW33175   2.226   1.903   6.202  0.4477  0.3670  0.3228
 7239SOL    HW133176   2.308   1.853   6.206  0.6986  0.7657  0.2585
 7239SOL    HW233177   2.175   1.872   6.276  0.1566  1.2615  0.5055
 7240SOL     OW33178   0.226   0.384  13.543  0.4664  0.5410 -0.2335
 7240SOL    HW133179   0.230   0.450  13.473 -2.7258  0.3555 -0.6045
 7240SOL    HW233180   0.213   0.443  13.617  1.8899  1.4324 -0.7053
 7241SOL     OW33181   4.070   0.238   4.088  0.5144 -0.5064  0.3791
 7241SOL    HW133182   4.031   0.264   4.004 -3.1555 -1.5778  1.7323
 7241SOL    HW233183   4.007   0.286   4.143 -0.4899 -0.1737 -1.0686
 7242SOL     OW33184   2.371   2.977   9.453 -0.3682 -0.0253 -0.2424
 7242SOL    HW133185   2.300   3.011   9.508 -0.0941 -0.3988  0.3412
 7242SOL    HW233186   2.428   2.929   9.514 -0.4972  1.1188  0.7775
 7243SOL     OW33187   4.455   3.031  11.617 -0.1334 -0.0100  0.1367
 7243SOL    HW133188   4.361   3.051  11.619  0.1194  1.0835  0.7702
 7243SOL    HW233189   4.454   2.942  11.581 -0.2917 -0.9200  2.3972
 7244SOL     OW33190   3.880   0.796   3.250  0.1295  0.0740 -0.7353
 7244SOL    HW133191   3.953   0.853   3.275 -0.4736  1.3723 -1.9156
 7244SOL    HW233192   3.868   0.819   3.158 -3.4301 -0.5974 -0.4274
 7245SOL     OW33193   1.391   0.696   2.932  0.6577  0.1230  0.1647
 7245SOL    HW133194   1.358   0.784   2.948  0.7148  0.4040 -1.2475
 7245SOL    HW233195   1.311   0.646   2.917  0.4796 -0.0667  1.7087
 7246SOL     OW33196   2.969   0.942   4.509 -0.0384  0.6595 -0.6665
 7246SOL    HW133197   3.045   0.895   4.545 -3.6669 -3.9708  0.9182
 7246SOL    HW233198   2.911   0.949   4.584  0.0766 -0.2406 -0.4915
 7247SOL     OW33199   3.939   1.146   5.564 -0.1928 -0.0142 -0.4880
 7247SOL    HW133200   4.025   1.112   5.541  1.1597  3.9513 -1.2880
 7247SOL    HW233201   3.933   1.101   5.648  2.1330 -1.4727 -1.1145
 7248SOL     OW33202   1.826   0.453   7.121  0.2821  0.5628 -0.0585
 7248SOL    HW133203   1.739   0.466   7.083  0.3930  1.4671  0.0076
 7248SOL    HW233204   1.880   0.488   7.051  2.0455 -0.4472  0.8068
 7249SOL     OW33205   0.327   0.911  15.107  0.1359 -0.7509 -0.1610
 7249SOL    HW133206   0.420   0.922  15.126 -0.1851  0.4158  0.7583
 7249SOL    HW233207   0.294   0.985  15.157  0.9289 -0.5604  0.0885
 7250SOL     OW33208   1.262   1.690   8.428  0.2199  0.0683  0.0550
 7250SOL    HW133209   1.314   1.653   8.499  0.7341 -0.1934 -0.4578
 7250SOL    HW233210   1.325   1.750   8.387 -1.1483  0.7193 -1.0693
 7251SOL     OW33211   3.213   3.739   1.466  0.5367 -0.4699  0.2034
 7251SOL    HW133212   3.266   3.807   1.506  1.3595  0.3632 -2.3374
 7251SOL    HW233213   3.216   3.763   1.373 -0.2950 -1.6391 -0.1329
 7252SOL     OW33214   0.568   1.499   6.934  0.3683  0.4192  0.7838
 7252SOL    HW133215   0.499   1.562   6.952 -1.0802 -1.5194  2.0355
 7252SOL    HW233216   0.628   1.559   6.890  2.3569 -1.8964  0.3191
 7253SOL     OW33217   0.126   2.191   8.348  0.3297  0.4001 -1.0151
 7253SOL    HW133218   0.054   2.167   8.290  0.4425 -2.3363 -0.0023
 7253SOL    HW233219   0.183   2.117   8.329 -0.1218 -0.1008 -0.4186
 7254SOL     OW33220   0.230   1.433   0.929  0.6334 -0.3733 -0.0609
 7254SOL    HW133221   0.197   1.389   1.009  0.2245  0.5747  0.2924
 7254SOL    HW233222   0.156   1.491   0.909 -1.5148 -2.6927  1.0234
 7255SOL     OW33223   2.880   3.633   2.049  0.2280 -0.0796 -0.5098
 7255SOL    HW133224   2.872   3.542   2.020 -0.2776 -0.1067 -0.2912
 7255SOL    HW233225   2.885   3.618   2.143 -0.0952 -0.3732 -0.5361
 7256SOL     OW33226   1.871   4.090   0.673 -0.3172  0.0227  0.0813
 7256SOL    HW133227   1.906   4.096   0.762 -3.0920 -0.6679  1.2185
 7256SOL    HW233228   1.952   4.117   0.630 -0.0376 -0.3275  0.3836
 7257SOL     OW33229   4.622   2.581  12.987 -0.6022 -0.6848 -0.3344
 7257SOL    HW133230   4.693   2.620  13.038 -0.6560 -0.6599 -0.2784
 7257SOL    HW233231   4.546   2.602  13.041  0.0399  1.7222 -0.3622
 7258SOL     OW33232   0.993   1.536   1.836 -0.3845 -0.0483 -0.4093
 7258SOL    HW133233   1.001   1.632   1.837 -1.1359  0.0124 -0.2118
 7258SOL    HW233234   1.032   1.515   1.751 -1.1325 -0.9301 -0.5368
 7259SOL     OW33235   3.902   4.073   3.102  0.2931 -0.1963 -0.4399
 7259SOL    HW133236   3.835   4.122   3.056  1.3004 -1.4642 -3.2626
 7259SOL    HW233237   3.980   4.129   3.096 -0.5399  0.6608 -3.0286
 7260SOL     OW33238   2.230   3.514   8.427 -0.0986 -0.5893  0.1863
 7260SOL    HW133239   2.316   3.499   8.389  0.8966  0.0964  2.1712
 7260SOL    HW233240   2.177   3.445   8.386 -1.1334  1.1385 -1.4040
 7261SOL     OW33241   2.288   3.880   4.774 -0.2736  0.2124 -0.0584
 7261SOL    HW133242   2.220   3.855   4.712  2.4314 -0.0558 -2.9219
 7261SOL    HW233243   2.292   3.976   4.768  0.2334  0.2469  0.7728
 7262SOL     OW33244   0.083   4.002  16.322 -0.1310  0.0630  0.4197
 7262SOL    HW133245   0.115   3.999  16.232  2.7546  1.7813  1.3743
 7262SOL    HW233246   4.715   4.034  16.299  0.7714  2.3067  0.1489
 7263SOL     OW33247   2.453   2.250  15.548 -0.2032 -0.4486  0.0342
 7263SOL    HW133248   2.478   2.342  15.559 -1.8709 -0.3953  3.4953
 7263SOL    HW233249   2.523   2.201  15.591  0.4297  0.4191 -0.0098
 7264SOL     OW33250   3.487   0.646   2.200  0.0924 -0.0976 -0.0425
 7264SOL    HW133251   3.522   0.620   2.115 -1.1107  0.7124 -0.7741
 7264SOL    HW233252   3.570   0.677   2.238  0.2303 -1.1895  0.5676
 7265SOL     OW33253   3.498   4.571  12.628 -0.4233  1.0313  0.7068
 7265SOL    HW133254   3.476   4.615  12.546  0.7592 -0.3615 -0.3609
 7265SOL    HW233255   3.430   4.609  12.683 -1.3730  0.5449 -0.1416
 7266SOL     OW33256   3.912   2.777   8.265 -0.4206  0.1023 -0.1727
 7266SOL    HW133257   3.972   2.744   8.197 -2.6263 -0.2456 -1.9500
 7266SOL    HW233258   3.924   2.872   8.254 -2.0695  0.1717 -1.4024
 7267SOL     OW33259   3.578   0.879   3.059 -0.1586  0.1882 -0.3089
 7267SOL    HW133260   3.500   0.825   3.045 -0.2113 -0.0145  0.7886
 7267SOL    HW233261   3.597   0.908   2.970 -1.8876 -1.2962 -1.1786
 7268SOL     OW33262   1.213   0.085   4.088  0.8787  0.1517 -0.3260
 7268SOL    HW133263   1.141   0.070   4.149 -0.0812  1.4378 -1.1729
 7268SOL    HW233264   1.283   0.115   4.146 -0.1262  0.9642  0.4532
 7269SOL     OW33265   4.037   4.398  11.018  0.3037  0.3375 -0.6693
 7269SOL    HW133266   4.096   4.469  11.043  2.7575 -1.9080 -0.1386
 7269SOL    HW233267   3.987   4.381  11.098  1.1263  2.5638  0.3281
 7270SOL     OW33268   2.646   4.165   1.666 -0.4778  0.2203 -0.5137
 7270SOL    HW133269   2.617   4.159   1.575 -2.5868  0.7023  0.1316
 7270SOL    HW233270   2.590   4.101   1.710  1.1165  0.1536  1.4340
 7271SOL     OW33271   0.214   1.616   3.294 -0.3908  0.4361 -0.0537
 7271SOL    HW133272   0.172   1.615   3.208  0.7666  2.7333 -0.6387
 7271SOL    HW233273   0.140   1.575   3.340 -0.4359 -0.5215 -0.9842
 7272SOL     OW33274   3.567   0.756  12.033  0.2032  0.1684 -0.5462
 7272SOL    HW133275   3.482   0.737  12.072  2.0159 -5.0473  0.9110
 7272SOL    HW233276   3.569   0.685  11.969  1.2354 -1.2527  1.0556
 7273SOL     OW33277   2.821   1.396   0.099  0.0747 -0.2368  0.6693
 7273SOL    HW133278   2.797   1.356   0.016 -2.5515  0.9854  0.8201
 7273SOL    HW233279   2.886   1.329   0.120  1.3532  0.6888 -0.3719
 7274SOL     OW33280   2.053   2.121   2.946  0.3368  0.3037 -1.1297
 7274SOL    HW133281   2.136   2.121   2.994 -0.4445  0.5471  0.2172
 7274SOL    HW233282   2.033   2.027   2.952  1.4500 -0.0321 -2.5704
 7275SOL     OW33283   3.762   2.570  17.655  0.7790  0.2095  0.4343
 7275SOL    HW133284   3.853   2.560   0.001  1.3308 -2.8916 -2.5381
 7275SOL    HW233285   3.716   2.495   0.010 -0.6579 -0.1172 -2.0136
 7276SOL     OW33286   4.426   4.217  10.866 -0.5353  0.2320 -0.3740
 7276SOL    HW133287   4.404   4.171  10.947 -1.6374 -0.7409 -1.2252
 7276SOL    HW233288   4.375   4.297  10.879 -1.5982 -0.2869 -1.3458
 7277SOL     OW33289   0.648   4.136   8.443 -0.3152 -0.3226 -0.4910
 7277SOL    HW133290   0.566   4.184   8.440 -0.8684 -1.3867 -2.0127
 7277SOL    HW233291   0.686   4.148   8.531 -1.4507 -1.5862  0.1648
 7278SOL     OW33292   0.271   4.163   3.527  0.1676  0.5754 -0.1648
 7278SOL    HW133293   0.191   4.113   3.545  0.4672 -0.0741 -0.6524
 7278SOL    HW233294   0.268   4.243   3.580 -1.0758 -0.3035  1.1076
 7279SOL     OW33295   3.395   1.027   2.710 -0.4470  0.1269 -0.0156
 7279SOL    HW133296   3.321   1.024   2.771 -0.5204 -1.7486 -0.1960
 7279SOL    HW233297   3.356   0.979   2.637  0.8405  0.0092 -0.6193
 7280SOL     OW33298   0.050   1.100   7.951 -0.6736 -0.1981 -0.3084
 7280SOL    HW133299   0.138   1.063   7.949 -0.2953  0.4947  2.4765
 7280SOL    HW233300   0.009   1.025   7.995 -0.2851  0.0194  0.4274
 7281SOL     OW33301   3.895   1.617   4.097 -0.7103  0.3751  0.2145
 7281SOL    HW133302   3.847   1.557   4.040 -0.0930 -0.8472  0.9704
 7281SOL    HW233303   3.921   1.551   4.162  0.7781  1.0752  0.3169
 7282SOL     OW33304   3.878   3.267   4.684  0.1706 -0.6310  0.5600
 7282SOL    HW133305   3.931   3.232   4.756  1.1773  1.8882  1.0434
 7282SOL    HW233306   3.844   3.347   4.724  0.2521 -0.2139 -0.2119
 7283SOL     OW33307   0.409   0.375  17.065 -0.3294  0.2019 -0.1931
 7283SOL    HW133308   0.471   0.335  17.126 -1.0036 -0.8395 -0.1950
 7283SOL    HW233309   0.331   0.326  17.090 -0.5232  1.0900  0.9638
 7284SOL     OW33310   2.012   0.895   7.589  0.0603  0.2751 -0.0120
 7284SOL    HW133311   2.030   0.801   7.590  1.0914  0.4289 -2.0324
 7284SOL    HW233312   2.042   0.917   7.500 -1.7124  0.8821 -0.4700
 7285SOL     OW33313   4.516   1.746   8.769  0.5762 -0.4568 -0.0781
 7285SOL    HW133314   4.448   1.679   8.756  0.5096 -0.2841 -0.6088
 7285SOL    HW233315   4.511   1.761   8.864 -0.0368  0.8072 -0.3144
 7286SOL     OW33316   2.361   3.912   4.024  0.3330  0.5229 -0.0414
 7286SOL    HW133317   2.308   3.923   4.104  0.2704 -1.9385  0.2510
 7286SOL    HW233318   2.434   3.861   4.059 -1.6996 -2.4661 -0.1582
 7287SOL     OW33319   1.465   2.264   7.037 -0.0741 -0.2785  0.3735
 7287SOL    HW133320   1.385   2.294   6.995 -0.7176 -1.8091  0.5216
 7287SOL    HW233321   1.487   2.337   7.095  1.1913 -2.1822  2.2910
 7288SOL     OW33322   4.425   4.621  10.668 -0.1118  0.2176 -0.6727
 7288SOL    HW133323   4.396   4.562  10.738 -1.2772  0.9627 -0.5349
 7288SOL    HW233324   4.350   4.607  10.610  0.9407 -3.2135 -1.2690
 7289SOL     OW33325   0.532   1.150  13.316 -0.3106 -0.3346 -0.5737
 7289SOL    HW133326   0.512   1.140  13.222  0.9268  2.0093 -1.0642
 7289SOL    HW233327   0.453   1.183  13.358 -0.3647 -1.6792  0.3899
 7290SOL     OW33328   2.794   1.899  16.937  0.0320 -0.3675 -0.1934
 7290SOL    HW133329   2.859   1.894  16.867  0.2859 -0.2418  0.0310
 7290SOL    HW233330   2.724   1.931  16.880  1.9731  2.6909 -0.8678
 7291SOL     OW33331   3.888   4.665   2.566 -0.0156 -0.1979 -0.2840
 7291SOL    HW133332   3.923   4.588   2.610 -1.5896 -0.2944  0.8174
 7291SOL    HW233333   3.965   4.705   2.525  1.0514  0.4218  2.2832
 7292SOL     OW33334   1.468   3.140   3.469  0.0800  0.8911 -0.4642
 7292SOL    HW133335   1.535   3.081   3.434 -0.0894 -0.4508  1.4800
 7292SOL    HW233336   1.531   3.210   3.490 -1.8736  1.9348  1.8457
 7293SOL     OW33337   1.310   2.288  17.632  0.2209 -0.4107 -0.4544
 7293SOL    HW133338   1.362   2.214  17.663 -1.9423 -1.5604  0.4440
 7293SOL    HW233339   1.249   2.287   0.024 -0.9384 -0.2718 -1.4200
 7294SOL     OW33340   1.525   4.463   3.644  0.1284 -0.0691 -0.1300
 7294SOL    HW133341   1.598   4.427   3.695  0.4694 -0.3728 -0.8454
 7294SOL    HW233342   1.525   4.553   3.677 -2.1590 -0.4377  0.9242
 7295SOL     OW33343   3.847   4.643  10.924 -0.1155 -0.0599 -0.0824
 7295SOL    HW133344   3.937   4.612  10.915  0.4191  1.2631  0.8805
 7295SOL    HW233345   3.788   4.570  10.903 -0.0494 -0.7194  2.0114
 7296SOL     OW33346   4.527   3.197  15.661 -0.2038  0.3499  0.3922
 7296SOL    HW133347   4.478   3.142  15.723  2.1531 -3.3768 -1.0317
 7296SOL    HW233348   4.467   3.175  15.589 -0.0299 -0.5528  0.5273
 7297SOL     OW33349   1.349   2.206   7.911  0.1811  0.1647 -0.1280
 7297SOL    HW133350   1.357   2.301   7.906  1.2306 -0.0422 -2.2300
 7297SOL    HW233351   1.411   2.185   7.981 -0.2761 -0.3580  0.1212
 7298SOL     OW33352   4.550   4.348   9.975  0.0355  0.4929 -0.3080
 7298SOL    HW133353   4.535   4.377   9.885 -0.4686  1.9492  0.2405
 7298SOL    HW233354   4.646   4.340   9.976  0.0550  0.8323  0.4932
 7299SOL     OW33355   3.149   3.561   2.683  0.0258  0.2355 -0.0671
 7299SOL    HW133356   3.231   3.519   2.655  0.1548 -0.3485  1.1584
 7299SOL    HW233357   3.124   3.503   2.756  1.7060 -1.0317 -0.4943
 7300SOL     OW33358   1.111   4.468   3.184 -0.2159 -0.4622  0.0638
 7300SOL    HW133359   1.087   4.531   3.252  2.5291  0.1684  0.4295
 7300SOL    HW233360   1.162   4.528   3.130 -0.4030  2.1610  2.7909
 7301SOL     OW33361   2.031   4.072   1.510 -0.5175  0.8613 -0.3748
 7301SOL    HW133362   2.039   4.132   1.584 -1.3893  1.1031 -0.4805
 7301SOL    HW233363   1.939   4.049   1.525 -0.6086  1.4095 -0.0640
 7302SOL     OW33364   3.518   3.056   9.286  0.8457  0.1599  0.3108
 7302SOL    HW133365   3.576   3.048   9.210 -0.7083 -1.8638 -0.6562
 7302SOL    HW233366   3.580   3.071   9.357  3.0277 -1.0143 -1.3510
 7303SOL     OW33367   1.224   4.585  12.111 -0.1272  0.3389 -0.4557
 7303SOL    HW133368   1.176   4.665  12.090  2.7955  2.0870 -0.4790
 7303SOL    HW233369   1.233   4.552  12.022 -3.6369  2.2886 -1.4907
 7304SOL     OW33370   2.937   1.268   0.842  0.0089 -0.1752 -0.2343
 7304SOL    HW133371   2.853   1.313   0.846 -0.6325 -1.5894  2.4729
 7304SOL    HW233372   2.922   1.199   0.778  2.5956 -1.4796  0.5823
 7305SOL     OW33373   0.941   0.287   5.552  0.0757  0.2332  0.0033
 7305SOL    HW133374   0.881   0.344   5.504  1.9738  1.9419 -0.3355
 7305SOL    HW233375   0.978   0.339   5.622 -0.9384  0.1043  0.6371
 7306SOL     OW33376   2.731   0.574  11.184 -0.1005  0.1437 -0.0059
 7306SOL    HW133377   2.746   0.666  11.162  1.7988 -0.3518 -0.8060
 7306SOL    HW233378   2.819   0.553  11.214 -0.1223 -0.6216 -0.4731
 7307SOL     OW33379   1.293   3.699  12.074  0.0629 -0.0898 -0.1189
 7307SOL    HW133380   1.328   3.761  12.139  0.5051 -1.5334  1.0092
 7307SOL    HW233381   1.227   3.647  12.121 -0.4420  0.1398 -0.5753
 7308SOL     OW33382   0.409   0.203  12.439 -0.1763  0.4010  0.5719
 7308SOL    HW133383   0.364   0.199  12.524 -2.0509  0.7423 -0.3935
 7308SOL    HW233384   0.400   0.112  12.410 -0.3654  0.0776  1.6300
 7309SOL     OW33385   3.823   1.023  14.508 -0.2021  0.2701  0.6764
 7309SOL    HW133386   3.871   0.996  14.586  2.2262  0.8563 -0.6247
 7309SOL    HW233387   3.892   0.997  14.447 -0.8525  0.5532 -0.1732
 7310SOL     OW33388   4.614   0.736   6.413 -0.2086 -0.5047 -0.2754
 7310SOL    HW133389   4.708   0.721   6.397  0.0940  1.3637 -0.1763
 7310SOL    HW233390   4.611   0.831   6.410  0.1889 -0.5124 -1.1512
 7311SOL     OW33391   4.196   1.117   6.350  0.3022  0.0210  0.8873
 7311SOL    HW133392   4.240   1.152   6.428  0.3603  1.5175  0.1788
 7311SOL    HW233393   4.106   1.115   6.381  1.0425  3.2209  3.2332
 7312SOL     OW33394   3.130   4.367   0.990 -0.0047  0.2696  0.1015
 7312SOL    HW133395   3.151   4.282   0.952  0.0722  0.0916  0.5392
 7312SOL    HW233396   3.213   4.399   1.024  0.3969 -0.1786 -0.4609
 7313SOL     OW33397   0.526   0.521   5.957  0.4453  0.3203  0.1232
 7313SOL    HW133398   0.479   0.442   5.985 -0.0607  0.4478 -0.3510
 7313SOL    HW233399   0.546   0.559   6.042  1.0299  1.6480 -0.6024
 7314SOL     OW33400   4.367   1.164   6.152 -0.0259 -0.9209  0.0493
 7314SOL    HW133401   4.302   1.111   6.106 -0.1936  0.0266 -0.7945
 7314SOL    HW233402   4.312   1.198   6.222  2.2809 -2.4279  2.5999
 7315SOL     OW33403   1.928   3.426   4.896 -0.3558 -0.0659 -0.1065
 7315SOL    HW133404   1.933   3.420   4.801  1.7408  0.1107 -0.0041
 7315SOL    HW233405   1.850   3.479   4.914 -0.6219  0.2597 -2.2462
 7316SOL     OW33406   2.418   3.375   8.166 -0.1825  0.4655  0.4684
 7316SOL    HW133407   2.458   3.309   8.109  0.2053 -0.0664  1.3532
 7316SOL    HW233408   2.343   3.404   8.114  0.3124  0.2411 -0.3754
 7317SOL     OW33409   3.662   2.890   6.422  0.2220 -0.5763 -0.5795
 7317SOL    HW133410   3.618   2.821   6.373 -0.7585 -0.1604 -0.2947
 7317SOL    HW233411   3.595   2.895   6.490  1.7579 -1.5060  0.9952
 7318SOL     OW33412   0.850   0.243   6.632 -0.4124  0.0610  0.3487
 7318SOL    HW133413   0.832   0.329   6.596  1.1948  0.6739  1.0313
 7318SOL    HW233414   0.873   0.262   6.723  1.0495 -1.3088  0.2834
 7319SOL     OW33415   1.003   3.528   6.296 -0.1613 -0.2700 -0.1105
 7319SOL    HW133416   1.000   3.619   6.267  0.1519 -0.5698 -1.1013
 7319SOL    HW233417   1.064   3.528   6.369 -1.3327 -0.9310  0.8771
 7320SOL     OW33418   2.334   2.916   6.485 -0.2316  0.6583 -0.4178
 7320SOL    HW133419   2.370   2.990   6.533  0.6837  0.6466 -1.0927
 7320SOL    HW233420   2.268   2.883   6.546  0.9529 -0.3260  0.3332
 7321SOL     OW33421   4.174   3.774   4.022 -0.2641 -0.5164 -0.1050
 7321SOL    HW133422   4.194   3.691   4.064 -0.2458 -0.1858  0.5445
 7321SOL    HW233423   4.103   3.740   3.968 -0.4143 -2.1491  1.1378
 7322SOL     OW33424   1.132   1.754   4.132 -0.8689 -0.3678 -0.0342
 7322SOL    HW133425   1.076   1.822   4.169 -0.1410  0.6101 -0.7449
 7322SOL    HW233426   1.125   1.685   4.199 -3.0139  1.3801  1.5532
 7323SOL     OW33427   3.094   3.105  15.013  0.1806 -0.1950 -0.5860
 7323SOL    HW133428   3.138   3.128  15.096 -0.2653 -1.7618  0.0770
 7323SOL    HW233429   3.159   3.050  14.969  1.0799  0.9530 -0.7100
 7324SOL     OW33430   1.270   2.925   3.559 -0.2450  0.0938  0.0435
 7324SOL    HW133431   1.300   2.913   3.649  0.6219  0.6771 -0.1684
 7324SOL    HW233432   1.323   2.994   3.519  0.2301 -1.0286 -1.2858
 7325SOL     OW33433   3.690   4.405  15.964 -0.1024 -0.0600  0.1694
 7325SOL    HW133434   3.682   4.322  16.011  3.2798 -1.6437 -2.0852
 7325SOL    HW233435   3.783   4.426  15.966  0.3220 -2.0113  0.9561
 7326SOL     OW33436   1.145   3.227   4.915 -0.5122  0.2084 -0.0599
 7326SOL    HW133437   1.204   3.152   4.925 -1.0032 -0.0928  0.5222
 7326SOL    HW233438   1.081   3.201   4.850  0.3377 -0.6721 -0.5464
 7327SOL     OW33439   3.769   2.197  12.134  0.2453  0.3042  0.5094
 7327SOL    HW133440   3.685   2.171  12.095  0.0953  1.5800 -0.0059
 7327SOL    HW233441   3.785   2.264  12.069  2.6006 -1.0049 -0.2502
 7328SOL     OW33442   3.782   2.534  11.606  0.2599 -0.0413  0.6439
 7328SOL    HW133443   3.817   2.533  11.695 -1.5667  1.3771  1.3787
 7328SOL    HW233444   3.832   2.466  11.561 -0.9675 -1.2211  1.0790
 7329SOL     OW33445   3.930   3.502   7.391  0.1334 -0.0727 -0.4616
 7329SOL    HW133446   3.952   3.452   7.313  0.5356 -0.8089  0.1280
 7329SOL    HW233447   3.957   3.587   7.357  0.3983  0.1830  0.3903
 7330SOL     OW33448   0.656   1.544   4.864  0.6374 -0.7519 -0.4716
 7330SOL    HW133449   0.630   1.508   4.779  2.5701  0.0380 -1.3947
 7330SOL    HW233450   0.592   1.511   4.927  2.1514 -1.4831  0.6879
 7331SOL     OW33451   3.948   2.982   2.397 -0.6431  0.3758  0.6786
 7331SOL    HW133452   3.959   2.902   2.345 -0.1798  0.5644  0.4852
 7331SOL    HW233453   3.867   3.018   2.360 -1.6114 -0.2568  2.1757
 7332SOL     OW33454   2.744   3.677   9.348 -0.2832 -0.6851  0.3019
 7332SOL    HW133455   2.690   3.603   9.318 -1.9245  0.8334 -0.4656
 7332SOL    HW233456   2.689   3.741   9.392 -0.3329 -0.3673 -0.2215
 7333SOL     OW33457   1.088   4.273  17.579  0.1988 -0.3457 -0.0004
 7333SOL    HW133458   1.024   4.334  17.541  1.1133  1.8167  1.9286
 7333SOL    HW233459   1.065   4.193  17.532 -2.5255 -0.0228  0.7904
 7334SOL     OW33460   4.462   1.221  12.853  0.0853 -0.2156 -0.2744
 7334SOL    HW133461   4.505   1.139  12.828 -1.3018 -1.0986  0.2215
 7334SOL    HW233462   4.398   1.194  12.919  0.3042 -1.4829 -0.5870
 7335SOL     OW33463   0.758   1.356  17.155  0.4326  0.2954  0.3443
 7335SOL    HW133464   0.751   1.441  17.197  0.6586 -0.6950  2.3976
 7335SOL    HW233465   0.746   1.295  17.229 -0.3059  0.8816  0.7121
 7336SOL     OW33466   3.023   4.292  12.821 -0.3339  0.3774 -0.4502
 7336SOL    HW133467   3.118   4.290  12.838 -0.2707  2.2393 -0.6004
 7336SOL    HW233468   2.997   4.217  12.875 -0.6290 -0.1808 -1.3778
 7337SOL     OW33469   3.276   4.477  11.718 -0.6570  0.1143 -0.1949
 7337SOL    HW133470   3.248   4.568  11.720  0.0450  0.3018  1.2952
 7337SOL    HW233471   3.265   4.476  11.623 -0.7027  0.3010 -0.1908
 7338SOL     OW33472   2.102   3.579   3.411 -0.0142 -0.2382  0.2582
 7338SOL    HW133473   2.017   3.548   3.444 -0.4073 -0.8073 -1.2842
 7338SOL    HW233474   2.086   3.569   3.317  0.6273 -1.6539  0.3092
 7339SOL     OW33475   2.529   2.933   3.978 -0.1319  0.0510 -0.6728
 7339SOL    HW133476   2.504   3.010   4.028  1.2621  1.9493 -2.8793
 7339SOL    HW233477   2.622   2.916   3.995 -0.4798 -0.7971  0.4369
 7340SOL     OW33478   3.813   2.034   6.611  0.2579  0.4822 -0.2332
 7340SOL    HW133479   3.898   2.012   6.649 -0.5909 -1.9696  0.2463
 7340SOL    HW233480   3.761   2.043   6.692  0.5651  0.6412 -0.0544
 7341SOL     OW33481   1.070   4.535  16.560 -0.1908 -0.4300 -0.0949
 7341SOL    HW133482   1.049   4.533  16.653  1.0711  1.0414  0.2295
 7341SOL    HW233483   1.092   4.444  16.539  0.7507 -0.4024  0.7533
 7342SOL     OW33484   1.178   0.328   1.990  0.2296  0.2593  0.1407
 7342SOL    HW133485   1.128   0.259   2.034  0.0358  1.9470  2.6258
 7342SOL    HW233486   1.123   0.341   1.913  0.0830 -0.2574  0.1595
 7343SOL     OW33487   4.580   0.018  10.858  0.3158  0.4108  0.1329
 7343SOL    HW133488   4.614   0.086  10.800 -0.4647 -0.6327 -1.5589
 7343SOL    HW233489   4.516   4.699  10.798  1.9867  1.4784 -2.3305
 7344SOL     OW33490   4.373   2.770  17.595 -0.2699 -0.2951  0.6043
 7344SOL    HW133491   4.399   2.860  17.614 -0.1553  0.3773 -2.6301
 7344SOL    HW233492   4.327   2.775  17.511 -3.1147 -0.4063  2.1646
 7345SOL     OW33493   3.456   4.687   6.310  0.1865  0.1138 -0.3288
 7345SOL    HW133494   3.549   4.710   6.302  0.1942  0.6544  1.2461
 7345SOL    HW233495   3.454   4.597   6.279 -0.7718  0.6897 -1.9075
 7346SOL     OW33496   4.049   1.687   2.931 -0.4928 -0.0754 -0.3710
 7346SOL    HW133497   4.007   1.727   2.854  1.1549  0.5276 -0.9520
 7346SOL    HW233498   4.049   1.763   2.989  2.7326  1.0592 -1.8657
 7347SOL     OW33499   4.192   3.375  14.503  0.3025  0.1027  0.3078
 7347SOL    HW133500   4.242   3.356  14.424 -2.6095  0.9342 -1.7464
 7347SOL    HW233501   4.195   3.289  14.546  0.4633 -0.8742 -1.6489
 7348SOL     OW33502   3.341   2.331   1.094 -0.6035  0.0200  0.1531
 7348SOL    HW133503   3.338   2.425   1.076 -0.7189  0.2674  1.4818
 7348SOL    HW233504   3.315   2.338   1.186  2.6203 -1.1210  1.1589
 7349SOL     OW33505   4.442   0.596   3.772  0.4078  0.6286 -0.0694
 7349SOL    HW133506   4.398   0.526   3.820  2.0141 -1.3362 -1.4266
 7349SOL    HW233507   4.373   0.662   3.777 -0.7956 -0.9893  4.3588
 7350SOL     OW33508   2.841   2.904   7.470 -0.1047 -0.3354 -0.1644
 7350SOL    HW133509   2.767   2.964   7.482  0.5071 -0.2859  3.4720
 7350SOL    HW233510   2.877   2.919   7.557  0.5114  1.3649 -0.7138
 7351SOL     OW33511   3.010   4.618   8.577  0.5501 -0.6723 -0.2502
 7351SOL    HW133512   3.030   4.529   8.607 -0.3095 -1.1975 -1.2227
 7351SOL    HW233513   2.918   4.619   8.551  0.7919 -0.8441 -1.1455
 7352SOL     OW33514   0.953   0.362  14.384 -0.3919 -0.1125  0.3502
 7352SOL    HW133515   0.942   0.423  14.311 -2.0754 -2.0091 -0.9762
 7352SOL    HW233516   1.022   0.394  14.443 -1.1830  1.4888  0.4098
 7353SOL     OW33517   2.523   0.824   1.947  0.6391  0.4177  0.1931
 7353SOL    HW133518   2.508   0.849   2.038 -3.3036  0.3882 -0.4227
 7353SOL    HW233519   2.433   0.793   1.932  1.1143 -1.9760  2.3951
 7354SOL     OW33520   3.288   2.840   6.822  0.6830 -0.5651 -0.0830
 7354SOL    HW133521   3.360   2.780   6.838 -0.3282 -1.0138  2.8276
 7354SOL    HW233522   3.216   2.777   6.814 -1.5165  1.6856  1.4685
 7355SOL     OW33523   3.266   3.972   1.607  0.1660 -0.5441  0.3885
 7355SOL    HW133524   3.356   3.998   1.627  1.0732 -1.2185 -2.9034
 7355SOL    HW233525   3.238   4.023   1.531 -0.7072 -0.4719  0.7599
 7356SOL     OW33526   0.578   2.741   2.450 -0.0062 -0.1468 -0.2876
 7356SOL    HW133527   0.487   2.720   2.469  0.3548  0.3327  1.9882
 7356SOL    HW233528   0.561   2.790   2.369 -0.6400 -1.2206 -0.7993
 7357SOL     OW33529   3.814   2.832   3.721  0.0013  0.0430  0.2977
 7357SOL    HW133530   3.811   2.850   3.627 -0.5721  0.0627  0.3210
 7357SOL    HW233531   3.812   2.737   3.724 -0.7561  0.0559  0.3168
 7358SOL     OW33532   3.160   4.537  14.613 -0.0358 -0.0478 -0.6143
 7358SOL    HW133533   3.152   4.445  14.589 -0.8993 -0.0828 -0.1921
 7358SOL    HW233534   3.070   4.556  14.584 -0.2373  0.0791  0.1003
 7359SOL     OW33535   3.877   4.376   7.693 -0.1513 -0.0552 -0.1069
 7359SOL    HW133536   3.902   4.418   7.610 -1.2930  1.9477  0.5428
 7359SOL    HW233537   3.905   4.286   7.680  0.5809  0.5772 -2.9565
 7360SOL     OW33538   3.568   4.137   0.692  0.1421 -0.2256  0.1187
 7360SOL    HW133539   3.663   4.144   0.680  0.0892  1.1461  0.5463
 7360SOL    HW233540   3.544   4.168   0.605  1.1178  2.3710  0.7808
 7361SOL     OW33541   3.848   3.894  14.774 -0.3264  0.5228  0.2874
 7361SOL    HW133542   3.771   3.838  14.778 -0.3632  0.7246  2.4789
 7361SOL    HW233543   3.873   3.894  14.682 -4.0207  1.8194 -0.6893
 7362SOL     OW33544   2.916   3.193   9.574 -0.4521  0.7688  0.1593
 7362SOL    HW133545   2.866   3.119   9.540 -0.9653  0.9538  0.4956
 7362SOL    HW233546   2.929   3.252   9.499  0.5877  1.7671  1.1146
 7363SOL     OW33547   1.708   1.353   5.210  0.1472 -0.4952 -0.6188
 7363SOL    HW133548   1.682   1.430   5.260  0.3761 -0.4226 -0.6098
 7363SOL    HW233549   1.800   1.377   5.200 -0.0213  1.5518  2.6862
 7364SOL     OW33550   1.275   4.180  15.521 -0.3467  0.1464  0.4270
 7364SOL    HW133551   1.235   4.243  15.581  0.2908  1.3761 -0.4227
 7364SOL    HW233552   1.351   4.175  15.579  2.1124  3.6090 -2.4305
 7365SOL     OW33553   2.788   4.467   7.186 -0.1039 -0.1786  0.0564
 7365SOL    HW133554   2.742   4.543   7.152 -0.6291 -0.3635  0.3621
 7365SOL    HW233555   2.857   4.514   7.233 -1.0180  0.9826  0.2123
 7366SOL     OW33556   3.751   0.215   3.510  0.1291  0.3418  0.4704
 7366SOL    HW133557   3.697   0.146   3.472 -0.3441  0.7588  0.3921
 7366SOL    HW233558   3.693   0.291   3.520 -2.0917 -1.2010 -0.7057
 7367SOL     OW33559   4.467   4.418   8.287 -0.0642  0.0330  0.4760
 7367SOL    HW133560   4.404   4.378   8.346 -0.6760 -0.5008 -0.5546
 7367SOL    HW233561   4.420   4.420   8.204  3.1013  0.8302 -1.3298
 7368SOL     OW33562   2.377   3.042   2.806 -0.4171  0.4019  0.0245
 7368SOL    HW133563   2.327   3.044   2.725 -0.4171 -0.6761 -0.0013
 7368SOL    HW233564   2.462   3.066   2.770  0.2163  1.0151  1.9164
 7369SOL     OW33565   4.256   0.647  14.059 -0.2464  0.0200  0.2846
 7369SOL    HW133566   4.248   0.742  14.068 -1.3179 -0.0326 -0.0207
 7369SOL    HW233567   4.336   0.629  14.107 -0.2416  1.2670  0.7384
 7370SOL     OW33568   2.858   3.631   5.396  0.8590 -0.0161 -0.2576
 7370SOL    HW133569   2.942   3.585   5.402  1.0733  0.2279 -1.4628
 7370SOL    HW233570   2.795   3.563   5.419 -0.5569  0.7201 -1.9571
 7371SOL     OW33571   2.032   1.223   4.906 -0.5051  0.3204  0.3186
 7371SOL    HW133572   1.965   1.156   4.894  1.1124 -1.1162 -0.8700
 7371SOL    HW233573   2.080   1.219   4.823 -0.9273 -0.0079  0.0886
 7372SOL     OW33574   3.978   4.492  15.282 -0.3600  0.0399 -0.1012
 7372SOL    HW133575   3.889   4.510  15.313 -0.8496 -2.0748 -0.3257
 7372SOL    HW233576   3.995   4.580  15.246 -1.5432  0.7636  1.0930
 7373SOL     OW33577   1.947   3.511   7.937 -0.0756 -0.3071 -0.8192
 7373SOL    HW133578   1.918   3.567   7.865 -2.5879  1.1308  1.2701
 7373SOL    HW233579   1.944   3.569   8.014 -2.3666 -0.0055 -1.1301
 7374SOL     OW33580   1.066   4.431  14.694  0.3396  0.2831  0.1437
 7374SOL    HW133581   0.983   4.478  14.692 -0.9027 -1.8973  0.2586
 7374SOL    HW233582   1.123   4.500  14.661 -1.9148  2.6338  1.2102
 7375SOL     OW33583   0.675   3.230   7.321 -0.1291 -0.0750 -0.0887
 7375SOL    HW133584   0.718   3.215   7.237 -1.7387 -3.5595 -0.2892
 7375SOL    HW233585   0.702   3.155   7.375 -2.0405  0.2285  1.2993
 7376SOL     OW33586   1.873   4.553   1.336  0.7165 -0.4881  0.4362
 7376SOL    HW133587   1.833   4.467   1.329  0.5267 -0.5073  1.6857
 7376SOL    HW233588   1.928   4.541   1.259 -0.9447 -4.7165 -0.0613
 7377SOL     OW33589   2.876   0.632   1.341 -0.1499 -0.0510  0.0501
 7377SOL    HW133590   2.950   0.602   1.393 -0.6833 -0.9499  0.2933
 7377SOL    HW233591   2.846   0.543   1.321 -0.1994  0.2144 -1.0951
 7378SOL     OW33592   4.202   4.357   7.046 -0.4930  0.7269  0.9638
 7378SOL    HW133593   4.109   4.345   7.026 -0.4015 -0.3529  1.1707
 7378SOL    HW233594   4.190   4.437   7.098 -1.2969  0.2364  1.5331
 7379SOL     OW33595   2.882   0.746   7.388 -0.1878 -0.1960 -0.2534
 7379SOL    HW133596   2.954   0.751   7.451  0.0314  1.8905 -0.6749
 7379SOL    HW233597   2.820   0.705   7.448  0.6313 -0.3887  0.4658
 7380SOL     OW33598   3.464   2.823  12.382  0.0422 -0.2077  0.4267
 7380SOL    HW133599   3.536   2.884  12.368 -1.2915  1.7124  1.9624
 7380SOL    HW233600   3.480   2.781  12.297 -1.1873  2.5275 -1.1404
 7381SOL     OW33601   0.981   1.837  11.355  0.1136 -0.2798  0.0955
 7381SOL    HW133602   0.967   1.923  11.396  0.1715  0.1047 -0.6782
 7381SOL    HW233603   1.076   1.838  11.345  0.3527 -0.7894  2.5007
 7382SOL     OW33604   0.619   0.148   9.105  0.3573  0.0442  0.1741
 7382SOL    HW133605   0.678   0.121   9.035  0.7981 -1.4019  1.0982
 7382SOL    HW233606   0.676   0.147   9.182  0.2811  2.4372  0.2831
 7383SOL     OW33607   3.765   3.864  12.075 -0.3057 -0.2720  0.6517
 7383SOL    HW133608   3.751   3.770  12.076 -0.9288 -0.2015 -1.3618
 7383SOL    HW233609   3.790   3.879  12.166  0.6696 -1.5032  0.5847
 7384SOL     OW33610   1.074   0.044   6.614  0.2709 -0.2237 -0.4371
 7384SOL    HW133611   1.006   0.081   6.672  0.1682 -1.1314  0.0101
 7384SOL    HW233612   1.070   4.669   6.620 -0.8144 -0.1491  0.0160
 7385SOL     OW33613   3.161   1.787  11.327 -0.3090  0.4406 -0.5528
 7385SOL    HW133614   3.174   1.835  11.245  0.5536  0.6051 -0.3225
 7385SOL    HW233615   3.067   1.768  11.327  0.0993 -1.7215  3.3406
 7386SOL     OW33616   0.894   3.856   5.374  0.3597  0.5634 -0.3381
 7386SOL    HW133617   0.964   3.796   5.346  1.6813  1.4318  1.1244
 7386SOL    HW233618   0.824   3.819   5.320  0.5053  0.5480 -0.5199
 7387SOL     OW33619   1.744   3.176   2.898  0.3082  0.5449 -0.0526
 7387SOL    HW133620   1.835   3.148   2.897  0.0037 -0.4700  0.7772
 7387SOL    HW233621   1.702   3.090   2.901  3.3320 -0.9636 -0.9229
 7388SOL     OW33622   2.527   2.878   1.899  0.3271  0.2365  0.7278
 7388SOL    HW133623   2.598   2.857   1.960  0.0160 -0.9608  0.6670
 7388SOL    HW233624   2.447   2.856   1.946 -1.0831  4.0913  0.0976
 7389SOL     OW33625   0.689   4.316   7.739  0.0372 -0.2304 -0.2586
 7389SOL    HW133626   0.635   4.395   7.748  2.6595  1.6771 -1.1145
 7389SOL    HW233627   0.686   4.295   7.645  0.4084  0.3322 -0.4029
 7390SOL     OW33628   0.086   0.574   5.657 -0.0183 -0.1933 -0.0804
 7390SOL    HW133629   0.117   0.589   5.746 -0.4904  0.1754  0.0205
 7390SOL    HW233630   0.107   0.661   5.624  0.2389  0.3455  1.5302
 7391SOL     OW33631   2.907   3.153   7.255 -0.2738  1.1743 -0.3371
 7391SOL    HW133632   2.888   3.246   7.249  0.2038  1.4503  2.4467
 7391SOL    HW233633   2.830   3.116   7.299  1.2584 -0.8290  0.6625
 7392SOL     OW33634   2.324   2.176  15.279 -0.0966  0.2188 -0.5484
 7392SOL    HW133635   2.367   2.092  15.288  0.3148  0.5163  0.3059
 7392SOL    HW233636   2.361   2.213  15.360 -2.2677 -0.8144  0.9237
 7393SOL     OW33637   0.711   0.016   3.360  0.1056 -0.2391 -0.1206
 7393SOL    HW133638   0.700   0.111   3.367  1.0082 -0.1830  0.4603
 7393SOL    HW233639   0.624   4.714   3.393 -0.3744  1.3611 -0.3185
 7394SOL     OW33640   2.250   2.165  11.314 -0.1202 -0.1878  0.6183
 7394SOL    HW133641   2.323   2.109  11.340  0.3116 -0.0507 -0.3071
 7394SOL    HW233642   2.244   2.149  11.220 -1.4016 -0.3507  0.7343
 7395SOL     OW33643   1.836   3.192  10.825  0.2458  0.1477  0.5887
 7395SOL    HW133644   1.854   3.217  10.916 -0.7656  1.0185  0.5523
 7395SOL    HW233645   1.787   3.112  10.841  1.9088 -1.1817 -1.1063
 7396SOL     OW33646   4.174   0.562   3.440  0.1742  0.0134  0.0532
 7396SOL    HW133647   4.173   0.471   3.411 -0.6569 -0.0291  0.2093
 7396SOL    HW233648   4.262   0.593   3.420 -0.5104  0.8375 -1.6824
 7397SOL     OW33649   1.779   1.998   0.945  0.0173 -0.3212  0.3817
 7397SOL    HW133650   1.736   2.001   0.860  1.4046 -0.6834 -0.3236
 7397SOL    HW233651   1.871   1.991   0.918  0.0207  0.4606  0.2128
 7398SOL     OW33652   1.661   1.853   5.336  0.5900  1.2039  0.1714
 7398SOL    HW133653   1.681   1.876   5.427 -1.9644 -0.5555  1.1651
 7398SOL    HW233654   1.567   1.865   5.344  0.4766 -0.1187  0.8918
 7399SOL     OW33655   2.442   4.535   8.638 -0.8622  0.4215  0.6599
 7399SOL    HW133656   2.373   4.506   8.699  0.2754 -1.3681  1.0940
 7399SOL    HW233657   2.509   4.552   8.705 -1.6942  1.2726  1.2837
 7400SOL     OW33658   2.661   3.481   3.626 -0.2664 -0.3416  0.7941
 7400SOL    HW133659   2.623   3.412   3.681 -1.7716 -0.8167 -0.8423
 7400SOL    HW233660   2.755   3.464   3.633 -0.5935 -2.4692  0.1412
 7401SOL     OW33661   0.351   2.032   8.902  0.0751  0.0781  0.1146
 7401SOL    HW133662   0.381   1.964   8.842  1.0395  1.7606 -1.3165
 7401SOL    HW233663   0.390   2.105   8.853 -1.6878  0.1143 -1.2324
 7402SOL     OW33664   3.095   4.394   5.926 -0.2604 -0.0230 -0.2968
 7402SOL    HW133665   3.050   4.341   5.861  2.8420 -2.4169 -0.5124
 7402SOL    HW233666   3.156   4.330   5.964  0.0172 -1.2422 -2.8461
 7403SOL     OW33667   0.528   1.962   7.875  0.2536 -0.3873 -0.6543
 7403SOL    HW133668   0.463   1.921   7.818 -0.6120  0.4770 -0.2981
 7403SOL    HW233669   0.493   2.051   7.868  0.1612 -0.3671  0.1677
 7404SOL     OW33670   2.396   1.978   7.930 -0.4868 -0.0795 -0.5719
 7404SOL    HW133671   2.338   1.998   7.856 -1.1954  2.3751  0.6489
 7404SOL    HW233672   2.389   1.883   7.934  0.2433 -0.1599 -1.1449
 7405SOL     OW33673   3.289   3.731   5.512  0.3344 -0.6123 -0.4581
 7405SOL    HW133674   3.284   3.665   5.581  2.3803  0.7746  1.0207
 7405SOL    HW233675   3.372   3.696   5.480  1.9030  0.8841  1.9351
 7406SOL     OW33676   4.668   1.927   0.368  0.0722 -0.1988 -0.6394
 7406SOL    HW133677   4.627   1.854   0.414 -0.3284  0.7320  0.4811
 7406SOL    HW233678   4.595   1.944   0.308  1.3587 -1.3984 -2.5512
 7407SOL     OW33679   0.682   2.448   7.403  0.3757  0.0873  0.3753
 7407SOL    HW133680   0.771   2.428   7.373 -0.0085 -0.5187 -0.3676
 7407SOL    HW233681   0.670   2.394   7.481 -1.2025 -2.1664 -1.4219
 7408SOL     OW33682   2.074   0.634   5.502 -0.1101 -0.5548  0.1781
 7408SOL    HW133683   2.080   0.652   5.409 -0.8290 -1.5013 -0.0551
 7408SOL    HW233684   2.016   0.704   5.533  3.2056  1.9611  0.6507
 7409SOL     OW33685   0.459   1.123   7.537 -0.2752  0.1653 -0.6621
 7409SOL    HW133686   0.543   1.169   7.527 -0.2388  0.1387 -0.4779
 7409SOL    HW233687   0.467   1.070   7.458  0.5457 -0.6756 -0.0157
 7410SOL     OW33688   0.527   2.489   6.755 -0.3173 -0.1470 -0.0386
 7410SOL    HW133689   0.468   2.542   6.702  0.2322  2.1356  1.6270
 7410SOL    HW233690   0.602   2.548   6.764  0.7892 -1.7347  1.2542
 7411SOL     OW33691   1.901   3.828   7.117 -0.6147 -0.2035  0.3468
 7411SOL    HW133692   1.815   3.802   7.083 -0.2667  0.5093 -1.1018
 7411SOL    HW233693   1.944   3.748   7.144  2.1912  0.9902 -0.5447
 7412SOL     OW33694   3.839   4.585   8.246 -0.1719  0.1572 -0.4974
 7412SOL    HW133695   3.872   4.674   8.237  0.0788 -0.1162 -2.2585
 7412SOL    HW233696   3.922   4.539   8.253  0.0931  0.6327 -0.5573
 7413SOL     OW33697   4.452   0.516   8.420  0.3267 -0.2033  0.1843
 7413SOL    HW133698   4.527   0.518   8.361  0.1354  0.7234 -0.0334
 7413SOL    HW233699   4.486   0.557   8.500  2.2184 -1.9576  0.2784
 7414SOL     OW33700   1.351   1.537   7.673  0.0062 -0.3649 -0.4147
 7414SOL    HW133701   1.322   1.506   7.759  0.4683  0.5448  0.0727
 7414SOL    HW233702   1.437   1.493   7.668 -0.1187 -0.6682  0.0485
 7415SOL     OW33703   3.510   2.115   3.978  0.3102  0.0986 -0.7529
 7415SOL    HW133704   3.510   2.141   4.070  0.4927  0.1835 -0.7774
 7415SOL    HW233705   3.572   2.180   3.944  1.5893 -0.3777  0.6473
 7416SOL     OW33706   1.554   4.133   1.322 -0.0403  0.3834 -1.0010
 7416SOL    HW133707   1.476   4.125   1.267 -0.8385 -0.3222  0.2280
 7416SOL    HW233708   1.528   4.089   1.403 -0.4365 -1.1160 -1.9458
 7417SOL     OW33709   1.842   2.860   8.063  0.4359  0.7100  0.0560
 7417SOL    HW133710   1.865   2.895   7.977 -0.6428 -1.9051 -1.2838
 7417SOL    HW233711   1.747   2.868   8.069  0.4931  1.0615  0.5077
 7418SOL     OW33712   4.626   1.447  14.508 -0.0335 -0.5788  0.4154
 7418SOL    HW133713   4.685   1.515  14.478 -3.6108  1.7227 -1.4507
 7418SOL    HW233714   4.677   1.395  14.570  1.6865  0.0597 -0.4790
 7419SOL     OW33715   1.711   1.132   8.204 -0.4172  0.2965  0.1472
 7419SOL    HW133716   1.731   1.059   8.146 -3.5703 -0.0015 -0.6034
 7419SOL    HW233717   1.774   1.135   8.275 -1.2188 -0.8172  0.8967
 7420SOL     OW33718   1.566   3.941   2.495  0.1561 -0.5557  0.1792
 7420SOL    HW133719   1.553   4.030   2.529 -1.4375  0.4460 -3.0931
 7420SOL    HW233720   1.605   3.896   2.570  1.1753 -0.0492 -0.0398
 7421SOL     OW33721   3.710   1.330   5.645 -0.5240 -0.5527  0.2031
 7421SOL    HW133722   3.659   1.329   5.564 -0.3645 -3.0018  0.1082
 7421SOL    HW233723   3.802   1.315   5.620 -0.8212 -1.3257 -0.4633
 7422SOL     OW33724   0.673   3.863   6.189  0.0820  0.2311  0.9671
 7422SOL    HW133725   0.640   3.782   6.149  0.8581 -0.2804  1.3656
 7422SOL    HW233726   0.730   3.829   6.257 -1.0407  0.6531  2.1281
 7423SOL     OW33727   3.406   0.144   4.162 -0.0025  0.3873 -0.1253
 7423SOL    HW133728   3.393   0.057   4.125 -0.1384  0.2908  0.1444
 7423SOL    HW233729   3.493   0.146   4.203 -1.0950 -0.9284  2.2910
 7424SOL     OW33730   2.505   1.013   3.127  0.0380  0.2339  0.1564
 7424SOL    HW133731   2.580   1.052   3.173  0.4830 -0.2781 -0.1280
 7424SOL    HW233732   2.493   0.932   3.177  1.5008 -1.1220 -1.6946
 7425SOL     OW33733   2.134   3.989   8.362 -0.0309 -0.1429  0.3043
 7425SOL    HW133734   2.094   4.021   8.281  1.6421 -1.7388 -1.1548
 7425SOL    HW233735   2.070   3.927   8.396 -1.8333 -0.1265 -3.0747
 7426SOL     OW33736   1.046   0.076  15.606 -0.5587  0.3074  0.1434
 7426SOL    HW133737   0.955   0.057  15.582 -0.5050 -0.6322  0.7032
 7426SOL    HW233738   1.071   0.126  15.528 -0.9555  2.2924  1.2821
 7427SOL     OW33739   3.175   0.986   6.576  0.2749 -0.2631  0.1668
 7427SOL    HW133740   3.130   0.968   6.493  1.1943  0.7747 -0.5469
 7427SOL    HW233741   3.124   0.926   6.631 -0.2256  0.4006  0.4196
 7428SOL     OW33742   0.987   4.666   4.921 -0.0186 -0.1129  0.4161
 7428SOL    HW133743   0.955   4.616   4.847  2.4713  0.9686 -1.3868
 7428SOL    HW233744   1.016   4.591   4.973  0.7123 -0.0651  0.0891
 7429SOL     OW33745   3.320   0.222  11.907  0.1761 -0.1512 -0.3267
 7429SOL    HW133746   3.286   0.154  11.965 -1.7501  0.3698 -0.8210
 7429SOL    HW233747   3.275   0.299  11.944 -2.8628 -1.4608 -1.2696
 7430SOL     OW33748   3.472   3.322   1.462  0.2381  0.0721  0.1080
 7430SOL    HW133749   3.433   3.378   1.529  0.0179  3.7618 -3.0900
 7430SOL    HW233750   3.513   3.252   1.514  1.5820  0.4988 -0.3725
 7431SOL     OW33751   4.122   1.851  13.863  0.1706  0.3006 -0.0150
 7431SOL    HW133752   4.083   1.931  13.897 -0.5028 -0.5078  1.1330
 7431SOL    HW233753   4.044   1.818  13.819 -0.7086  0.4828  1.3891
 7432SOL     OW33754   3.999   4.295   6.487  0.5577 -0.1910 -0.5153
 7432SOL    HW133755   4.044   4.365   6.440  0.7726 -0.5910 -0.9030
 7432SOL    HW233756   4.071   4.244   6.524  0.3724 -0.0287  0.0604
 7433SOL     OW33757   1.552   1.789   7.951 -0.3783 -0.6319 -0.0623
 7433SOL    HW133758   1.576   1.816   8.040 -0.4678 -1.9562  0.3554
 7433SOL    HW233759   1.481   1.729   7.972 -0.6647 -0.0987  0.4759
 7434SOL     OW33760   0.315   2.904   7.131  0.3435  0.3452  0.4673
 7434SOL    HW133761   0.367   2.827   7.108  2.3026  1.6262  0.6764
 7434SOL    HW233762   0.367   2.974   7.092  0.3879  0.8705  1.4528
 7435SOL     OW33763   0.841   3.290   1.778  0.1661  0.1435  0.1696
 7435SOL    HW133764   0.889   3.298   1.696  2.6268 -4.2434  1.1387
 7435SOL    HW233765   0.884   3.350   1.839  3.6121 -1.1590 -0.9336
 7436SOL     OW33766   3.536   1.629   7.933  0.2408 -0.2227 -0.3314
 7436SOL    HW133767   3.602   1.665   7.874  0.8360  0.0072  0.4818
 7436SOL    HW233768   3.459   1.683   7.911 -0.8865 -1.5530  0.3930
 7437SOL     OW33769   4.002   2.555   7.762  0.3830 -0.6085  0.4605
 7437SOL    HW133770   3.996   2.644   7.726 -1.5785 -0.6829  0.6051
 7437SOL    HW233771   3.992   2.573   7.856  0.0722 -0.8666  0.4761
 7438SOL     OW33772   4.156   3.529   2.768 -0.4635  0.4089 -0.1121
 7438SOL    HW133773   4.123   3.439   2.762 -0.1555  0.3094 -0.3579
 7438SOL    HW233774   4.078   3.567   2.728  0.3632  2.0959 -0.1563
 7439SOL     OW33775   0.065   2.208   1.431  0.0163  0.0173  0.3329
 7439SOL    HW133776   4.719   2.139   1.416 -1.1306  0.8428  1.5848
 7439SOL    HW233777   0.081   2.194   1.524 -0.2261  1.8769  0.6392
 7440SOL     OW33778   2.784   0.770   5.971  0.0515 -0.7247  0.6934
 7440SOL    HW133779   2.721   0.840   5.952  2.6978  1.1260 -1.2544
 7440SOL    HW233780   2.731   0.694   5.948  1.2170 -1.5301  0.6736
 7441SOL     OW33781   2.592   4.128  10.374 -0.0170 -0.4347  0.3551
 7441SOL    HW133782   2.594   4.041  10.335  1.2625  0.0785 -0.7651
 7441SOL    HW233783   2.593   4.182  10.295 -0.6841 -1.1843 -0.1561
 7442SOL     OW33784   3.194   0.082   8.020 -0.0805 -0.1668 -0.0709
 7442SOL    HW133785   3.113   0.045   7.985  0.9470  0.9595 -3.5686
 7442SOL    HW233786   3.199   0.038   8.105 -0.6207 -0.2562 -0.0841
 7443SOL     OW33787   2.155   0.833   6.714 -0.3055 -0.3252 -0.4887
 7443SOL    HW133788   2.206   0.788   6.782 -0.9612 -3.2878 -1.9803
 7443SOL    HW233789   2.070   0.824   6.757 -0.1803 -1.2183 -0.4446
 7444SOL     OW33790   4.527   4.637   9.236  0.1482 -0.0343 -0.2421
 7444SOL    HW133791   4.483   4.556   9.210  0.2272 -1.1045  2.9621
 7444SOL    HW233792   4.582   4.638   9.158 -1.2922 -0.2441 -1.2779
 7445SOL     OW33793   0.633   2.223   3.779 -0.1305 -0.1637 -0.2352
 7445SOL    HW133794   0.650   2.130   3.793 -0.9066 -0.2832 -0.0745
 7445SOL    HW233795   0.554   2.214   3.726 -0.4233  0.6695  0.0580
 7446SOL     OW33796   2.323   2.171   3.614 -0.0510  0.2014 -0.2788
 7446SOL    HW133797   2.254   2.177   3.548  0.5544 -0.4427 -0.9626
 7446SOL    HW233798   2.286   2.101   3.667  0.6644 -0.6654 -0.9126
 7447SOL     OW33799   0.217   1.514   5.919 -0.0946  0.1990  0.1165
 7447SOL    HW133800   0.259   1.496   6.003 -0.0707  3.9346  0.9221
 7447SOL    HW233801   0.190   1.604   5.936 -0.6778 -0.3173  1.9187
 7448SOL     OW33802   2.616   0.332   4.386 -0.1696 -0.0438  0.0139
 7448SOL    HW133803   2.672   0.285   4.325 -0.8018  0.2857 -0.8169
 7448SOL    HW233804   2.542   0.271   4.382 -0.6955  0.6218 -0.4384
 7449SOL     OW33805   2.205   2.415   9.445 -0.2985 -0.0932  0.4666
 7449SOL    HW133806   2.199   2.466   9.364 -3.1248  4.1847  3.3435
 7449SOL    HW233807   2.189   2.484   9.510  1.6135  0.2772  0.5288
 7450SOL     OW33808   1.573   2.951   6.015 -0.1221  0.4538  0.2910
 7450SOL    HW133809   1.614   3.029   5.978 -2.1537  0.0204 -2.9068
 7450SOL    HW233810   1.487   2.972   5.978  0.0698 -0.4925 -0.7079
 7451SOL     OW33811   0.028   4.281   9.041  0.5601 -0.5299  0.1498
 7451SOL    HW133812   0.034   4.255   8.949 -2.6362 -1.1854  0.1458
 7451SOL    HW233813   0.119   4.277   9.072  0.5387  0.4597  0.3433
 7452SOL     OW33814   3.913   1.098   1.283  0.2457  0.2212 -0.0815
 7452SOL    HW133815   3.991   1.044   1.285  0.3185  0.4006  1.6580
 7452SOL    HW233816   3.906   1.131   1.373  1.0262 -0.7832  0.3438
 7453SOL     OW33817   4.243   0.813   6.479 -0.8547 -0.7164  0.0182
 7453SOL    HW133818   4.301   0.868   6.532 -0.5760 -0.6006 -0.4132
 7453SOL    HW233819   4.151   0.838   6.494 -0.1779  1.3486  0.7688
 7454SOL     OW33820   0.885   2.358   6.073 -0.3671  0.7467 -0.6415
 7454SOL    HW133821   0.823   2.424   6.105  1.3104  2.7599 -1.5522
 7454SOL    HW233822   0.884   2.366   5.978 -0.5283 -4.9074 -1.1326
 7455SOL     OW33823   1.064   1.477  17.215  0.2189 -0.2209 -0.4405
 7455SOL    HW133824   1.146   1.491  17.264  0.2294 -0.7981 -0.2902
 7455SOL    HW233825   1.091   1.475  17.124 -1.7390 -0.1503 -1.0129
 7456SOL     OW33826   1.877   2.510  16.196  0.2674 -0.1646 -0.4286
 7456SOL    HW133827   1.864   2.474  16.284 -0.1221 -0.0534 -0.4423
 7456SOL    HW233828   1.793   2.553  16.181  0.8802  0.3479 -2.3828
 7457SOL     OW33829   3.366   4.152   6.545 -0.7723 -0.6318 -0.2286
 7457SOL    HW133830   3.417   4.232   6.534 -0.5243 -0.7474  0.0736
 7457SOL    HW233831   3.279   4.185   6.567 -1.3854 -2.8247  0.6066
 7458SOL     OW33832   0.369   2.420  12.858 -0.4908  0.1786  0.7926
 7458SOL    HW133833   0.402   2.474  12.930  1.4528  1.4564 -1.0643
 7458SOL    HW233834   0.319   2.355  12.908 -1.1229 -0.4344 -0.6401
 7459SOL     OW33835   1.478   1.448  11.985  0.4574  0.3668  0.4275
 7459SOL    HW133836   1.498   1.355  11.983  0.4450  0.3626  0.5049
 7459SOL    HW233837   1.412   1.446  12.055 -1.4103 -0.1996 -1.3302
 7460SOL     OW33838   1.458   1.258  14.506  0.3994  0.4903  0.1973
 7460SOL    HW133839   1.457   1.312  14.585 -0.5213 -1.4929  1.5546
 7460SOL    HW233840   1.417   1.311  14.438  1.3195 -0.9642 -1.5107
 7461SOL     OW33841   0.932   4.252   8.518  0.3248 -0.2232  0.1638
 7461SOL    HW133842   0.865   4.253   8.586  1.5512  1.1287  1.3466
 7461SOL    HW233843   1.011   4.215   8.557 -1.1539 -0.9149  2.4787
 7462SOL     OW33844   1.030   1.862   8.068  0.3356  0.5654  0.2914
 7462SOL    HW133845   1.117   1.837   8.037 -0.4191 -1.8354  0.1593
 7462SOL    HW233846   1.027   1.952   8.035 -0.2167  0.3064 -0.3794
 7463SOL     OW33847   1.917   2.509   6.005  0.7985 -0.0649  0.4346
 7463SOL    HW133848   1.860   2.580   5.976  1.2902 -0.2402 -0.9720
 7463SOL    HW233849   1.885   2.426   5.969 -0.2198 -0.3252  1.9437
 7464SOL     OW33850   2.255   0.925   9.278 -0.8137  0.2888  0.4345
 7464SOL    HW133851   2.171   0.968   9.263 -0.5028  0.1885 -1.6441
 7464SOL    HW233852   2.282   0.948   9.367  0.4152 -0.4321  0.2522
 7465SOL     OW33853   1.919   4.199   3.687 -0.2121  0.3469 -0.4517
 7465SOL    HW133854   2.008   4.189   3.652 -0.3020  1.6202 -1.0405
 7465SOL    HW233855   1.900   4.125   3.744  0.6230  1.2495  0.9890
 7466SOL     OW33856   4.348   2.618   0.501 -0.3105  0.4970 -0.2065
 7466SOL    HW133857   4.392   2.560   0.562 -2.6798 -1.2085 -0.1198
 7466SOL    HW233858   4.267   2.569   0.488  0.3917 -0.3462 -1.3737
 7467SOL     OW33859   1.108   2.238   9.133  0.2737  0.3540  0.6898
 7467SOL    HW133860   1.088   2.150   9.162 -1.2921  1.0014  1.5567
 7467SOL    HW233861   1.045   2.249   9.062 -1.0856  1.4280  2.0956
 7468SOL     OW33862   3.500   3.216   1.715 -0.0019 -0.1721 -0.0024
 7468SOL    HW133863   3.413   3.222   1.754  0.2249 -1.2830  0.6675
 7468SOL    HW233864   3.540   3.147   1.767 -2.3949 -0.9914  0.7454
 7469SOL     OW33865   2.756   1.903   5.002 -0.2955  0.1709  0.0130
 7469SOL    HW133866   2.787   1.813   4.988  0.9232  0.2047  2.4886
 7469SOL    HW233867   2.743   1.904   5.096 -0.9824  1.2191 -0.0860
 7470SOL     OW33868   4.710   0.522   9.113 -0.2815 -0.6784 -0.1100
 7470SOL    HW133869   4.659   0.515   9.193 -1.5204  1.0129 -0.7750
 7470SOL    HW233870   4.672   0.605   9.087  0.2950 -0.9520 -1.8385
 7471SOL     OW33871   3.503   3.983  12.205  0.6031 -0.3359  0.3241
 7471SOL    HW133872   3.412   3.974  12.177  0.7629  0.2623 -0.3744
 7471SOL    HW233873   3.498   3.950  12.295 -2.4875  0.9670  0.6410
 7472SOL     OW33874   2.266   3.230  10.966  0.2135 -0.5613 -0.1871
 7472SOL    HW133875   2.203   3.302  10.961 -0.1816 -0.6632  3.7867
 7472SOL    HW233876   2.347   3.279  10.950 -0.6863  0.7016 -0.9152
 7473SOL     OW33877   1.702   0.326   5.637  0.8337  0.4791 -0.2889
 7473SOL    HW133878   1.761   0.277   5.579  2.0970  1.4455  0.1893
 7473SOL    HW233879   1.619   0.315   5.589  0.2063  1.4338  0.5613
 7474SOL     OW33880   1.027   3.509  12.034 -0.3812 -0.0693 -0.1160
 7474SOL    HW133881   1.004   3.464  12.114 -0.2160 -3.0175 -1.7382
 7474SOL    HW233882   0.959   3.576  12.023  1.3230  1.6499 -0.3024
 7475SOL     OW33883   0.853   2.219   9.009  0.1572 -0.1609 -0.2072
 7475SOL    HW133884   0.818   2.250   8.926  1.2925 -0.9710 -0.9876
 7475SOL    HW233885   0.773   2.233   9.059  2.6335  1.1033  3.3910
 7476SOL     OW33886   1.443   3.651   2.457  0.1780  0.0492  0.3849
 7476SOL    HW133887   1.479   3.729   2.498 -0.6312 -0.4611  2.0627
 7476SOL    HW233888   1.366   3.633   2.511  0.5635  0.4415  1.0581
 7477SOL     OW33889   0.233   3.157  17.639  0.2514  0.2594 -0.1235
 7477SOL    HW133890   0.247   3.079  17.585  0.6691 -0.3274  0.8357
 7477SOL    HW233891   0.215   3.107   0.037 -1.2250 -2.0410 -1.8628
 7478SOL     OW33892   0.045   0.346   5.333  0.3868 -0.8656  0.2333
 7478SOL    HW133893   0.077   0.272   5.282  2.4421 -2.0805  3.2561
 7478SOL    HW233894   4.715   0.299   5.400 -1.4225 -0.4076 -0.8107
 7479SOL     OW33895   1.657   2.947   3.354  0.6540  0.3704  0.1120
 7479SOL    HW133896   1.699   2.870   3.392 -1.1506  0.7544  2.8632
 7479SOL    HW233897   1.731   2.984   3.306  0.8314 -0.8870 -0.5850
 7480SOL     OW33898   3.483   3.705  14.463 -0.6093  0.2633 -0.4606
 7480SOL    HW133899   3.466   3.748  14.379  0.6054 -0.5913 -1.1627
 7480SOL    HW233900   3.400   3.671  14.496 -0.3721 -1.2807 -1.4196
 7481SOL     OW33901   2.087   4.097   9.765  0.1549 -0.0579  0.0482
 7481SOL    HW133902   2.171   4.095   9.719 -1.0954 -1.2991 -2.2138
 7481SOL    HW233903   2.031   4.056   9.699 -1.7001  2.0590  0.3019
 7482SOL     OW33904   3.898   2.421   2.663  0.1915 -0.2273  0.8137
 7482SOL    HW133905   3.945   2.378   2.592 -1.8870 -1.2743  0.0683
 7482SOL    HW233906   3.873   2.501   2.616  1.0476  0.2324  1.1299
 7483SOL     OW33907   4.263   4.008   7.653  0.2127  0.2430 -0.1375
 7483SOL    HW133908   4.318   3.985   7.579  0.9432  2.1012 -0.1702
 7483SOL    HW233909   4.327   4.060   7.701 -1.8327  1.0615  1.6889
 7484SOL     OW33910   1.188   3.796   8.676  0.0506 -0.3756 -0.9622
 7484SOL    HW133911   1.241   3.862   8.632 -0.3580 -0.4232 -1.5233
 7484SOL    HW233912   1.140   3.748   8.608  0.8455 -0.3388 -1.5533
 7485SOL     OW33913   2.543   2.706   5.603  0.5367 -0.0088  0.0207
 7485SOL    HW133914   2.590   2.624   5.621  0.3459 -0.2813 -0.7330
 7485SOL    HW233915   2.486   2.678   5.532  1.7905  1.1427 -1.4394
 7486SOL     OW33916   3.120   1.340   9.114 -0.2084 -0.4226 -0.5239
 7486SOL    HW133917   3.030   1.367   9.133 -0.1598 -0.4591 -0.2417
 7486SOL    HW233918   3.147   1.299   9.195  1.3694 -0.3920 -1.0291
 7487SOL     OW33919   3.021   1.617   6.652  0.1243  0.4481  0.1855
 7487SOL    HW133920   3.046   1.604   6.561  0.7559 -3.3676  0.9001
 7487SOL    HW233921   2.981   1.531   6.665 -0.2194  0.5248 -0.3516
 7488SOL     OW33922   3.532   0.071   7.731  0.3005 -0.1293  0.0228
 7488SOL    HW133923   3.493   0.009   7.793  0.1307 -0.3125 -0.2655
 7488SOL    HW233924   3.465   0.113   7.676  0.4864  0.3969  0.2030
 7489SOL     OW33925   0.367   0.663  10.886  0.0489  0.0013 -0.1832
 7489SOL    HW133926   0.279   0.699  10.891  0.0142 -0.4588  2.8050
 7489SOL    HW233927   0.416   0.738  10.853  0.4189  0.0034  0.3617
 7490SOL     OW33928   2.768   3.367  11.159 -0.1482  0.0487  0.1718
 7490SOL    HW133929   2.802   3.425  11.091  0.1447  0.6618  0.8525
 7490SOL    HW233930   2.760   3.436  11.224  0.3092 -0.6019  0.9106
 7491SOL     OW33931   3.843   0.993   1.788  0.4478  0.0845 -0.4323
 7491SOL    HW133932   3.846   1.043   1.707 -0.7408  0.7606 -0.0458
 7491SOL    HW233933   3.863   0.906   1.752 -0.2644 -0.6368  0.9129
 7492SOL     OW33934   2.944   4.251   7.077 -0.2609 -0.7496  0.4399
 7492SOL    HW133935   2.899   4.324   7.120 -3.4532 -3.0795  1.0458
 7492SOL    HW233936   2.899   4.250   6.993  0.1380  1.4569  0.1872
 7493SOL     OW33937   2.203   0.679   9.428  0.1777  0.3356 -0.3561
 7493SOL    HW133938   2.287   0.708   9.464  0.7093 -0.8589 -0.6286
 7493SOL    HW233939   2.144   0.690   9.502 -0.1452 -2.7071 -0.1603
 7494SOL     OW33940   1.323   1.152   3.369  0.2662  0.2105 -0.1477
 7494SOL    HW133941   1.277   1.073   3.341  0.2359  0.4043 -0.6408
 7494SOL    HW233942   1.285   1.169   3.455 -0.1921  2.1430 -0.7449
 7495SOL     OW33943   1.506   4.169   5.961  0.0009  0.1428  0.1627
 7495SOL    HW133944   1.458   4.208   5.888  0.2051 -0.9857 -0.5844
 7495SOL    HW233945   1.452   4.191   6.036  0.1959  0.7445  0.1296
 7496SOL     OW33946   2.265   3.708  11.186 -0.3268  0.2180 -0.0769
 7496SOL    HW133947   2.232   3.680  11.271  1.7390  0.9864  0.9916
 7496SOL    HW233948   2.285   3.801  11.197  1.7115 -0.2964  0.6276
 7497SOL     OW33949   2.363   4.252   6.631  0.1287  0.2892  0.0919
 7497SOL    HW133950   2.393   4.336   6.596  1.7560  0.5879  2.1962
 7497SOL    HW233951   2.403   4.197   6.564 -0.3846  0.4986 -0.3836
 7498SOL     OW33952   2.517   4.232   7.448  0.1140 -0.7852 -0.1952
 7498SOL    HW133953   2.545   4.249   7.358 -0.0567  0.1895 -0.0652
 7498SOL    HW233954   2.454   4.304   7.454  1.7158  0.4603  1.6862
 7499SOL     OW33955   2.381   0.177   7.739 -0.7648 -0.4223 -0.2746
 7499SOL    HW133956   2.384   0.225   7.656 -2.2654  0.2969  0.0959
 7499SOL    HW233957   2.440   0.231   7.792 -0.5577  0.1534 -1.0885
 7500SOL     OW33958   2.340   4.643   7.755  0.0099  0.1996 -0.0601
 7500SOL    HW133959   2.433   4.635   7.777 -0.7286 -1.3301  2.6016
 7500SOL    HW233960   2.340   0.016   7.733  0.0363 -0.0759 -1.2254
 7501SOL     OW33961   3.053   3.249  13.541 -0.2928 -0.3957 -0.3080
 7501SOL    HW133962   3.113   3.290  13.603 -0.1959 -0.0302 -0.6395
 7501SOL    HW233963   3.065   3.160  13.573  1.4639 -0.1565 -0.2945
 7502SOL     OW33964   0.755   4.647   5.912  0.1031 -0.0129 -0.1591
 7502SOL    HW133965   0.670   4.609   5.931  0.0272  0.1319 -0.2106
 7502SOL    HW233966   0.800   4.626   5.995  1.9018 -0.7845 -1.3208
 7503SOL     OW33967   3.721   3.342   4.168 -0.3531 -0.1680 -0.0390
 7503SOL    HW133968   3.648   3.341   4.229 -0.0735  0.4696  0.3102
 7503SOL    HW233969   3.662   3.329   4.095 -2.1884 -0.4943  1.5100
 7504SOL     OW33970   2.241   3.974  10.900 -1.0073  0.6314 -0.2745
 7504SOL    HW133971   2.309   3.906  10.889 -0.8396  0.3192  2.6051
 7504SOL    HW233972   2.274   4.009  10.983 -0.5807 -1.5320  0.4785
 7505SOL     OW33973   2.798   3.939  13.614 -0.2422  0.7545  0.1327
 7505SOL    HW133974   2.744   3.860  13.606  0.0180  0.4054  1.9989
 7505SOL    HW233975   2.822   3.930  13.706 -2.1062 -0.4551  0.5015
 7506SOL     OW33976   2.572   3.569   7.998 -0.4130 -0.0574  0.2392
 7506SOL    HW133977   2.500   3.515   8.030 -1.5110  0.1640 -1.8714
 7506SOL    HW233978   2.572   3.621   8.079 -1.0800 -2.6003  1.8918
 7507SOL     OW33979   4.431   1.629  17.493  0.1990  0.0607 -0.0011
 7507SOL    HW133980   4.411   1.620  17.586  2.0111 -2.6613  0.1123
 7507SOL    HW233981   4.347   1.637  17.448  0.3485  0.5881 -0.1912
 7508SOL     OW33982   0.640   0.642   4.638  0.0508  0.5340  0.6012
 7508SOL    HW133983   0.701   0.572   4.617 -1.1844  0.0850 -1.4585
 7508SOL    HW233984   0.714   0.701   4.652 -0.8067  1.2948  1.9041
 7509SOL     OW33985   3.645   1.370  13.145  0.5250 -0.0725 -0.6875
 7509SOL    HW133986   3.735   1.348  13.170  0.4945  0.5158 -0.0369
 7509SOL    HW233987   3.607   1.292  13.104  0.6661 -0.0582 -0.8434
 7510SOL     OW33988   3.828   3.783   5.011  0.1105  0.3232 -0.4908
 7510SOL    HW133989   3.807   3.845   4.941  1.9201 -0.2669 -1.5604
 7510SOL    HW233990   3.829   3.837   5.090 -0.1484 -1.0132  0.4208
 7511SOL     OW33991   2.138   3.237   4.437  0.0954 -0.1620 -0.0084
 7511SOL    HW133992   2.211   3.268   4.384  0.3688 -0.3193  0.2736
 7511SOL    HW233993   2.140   3.142   4.449  0.2538  0.0153  1.3277
 7512SOL     OW33994   2.237   0.764   2.379  0.4004  0.2232 -0.0184
 7512SOL    HW133995   2.177   0.711   2.432 -0.6401  1.9765  0.5443
 7512SOL    HW233996   2.187   0.845   2.373  2.3492  1.4073 -0.2006
 7513SOL     OW33997   2.138   1.982   5.949 -0.0282  0.0900  0.6192
 7513SOL    HW133998   2.150   1.934   6.032  1.4628 -1.7960 -0.6920
 7513SOL    HW233999   2.146   2.070   5.986  1.4928 -0.3255  1.3075
 7514SOL     OW34000   3.319   0.128   5.630 -0.4094 -0.4400 -0.4564
 7514SOL    HW134001   3.410   0.103   5.615 -0.8781 -0.8941 -2.6486
 7514SOL    HW234002   3.341   0.199   5.690 -1.2756 -1.7222  1.3676
 7515SOL     OW34003   1.996   1.022   9.207  0.0851 -0.1016 -0.4127
 7515SOL    HW134004   1.930   0.994   9.271 -0.3141  1.5186 -0.1376
 7515SOL    HW234005   1.974   1.115   9.210 -2.1343 -0.5182 -3.4396
 7516SOL     OW34006   3.644   0.898   9.166  0.2877 -0.3935  0.1712
 7516SOL    HW134007   3.607   0.986   9.161  3.7070  0.9682 -1.4446
 7516SOL    HW234008   3.729   0.915   9.208  1.7353 -0.3888 -2.7744
 7517SOL     OW34009   0.529   2.931   7.508 -0.0808 -0.0897  0.4587
 7517SOL    HW134010   0.446   2.977   7.499  0.3930  0.4952 -0.8993
 7517SOL    HW234011   0.568   2.984   7.577  1.5067  3.5154 -3.2722
 7518SOL     OW34012   1.857   1.670   5.076  0.5920 -0.4190  0.2443
 7518SOL    HW134013   1.886   1.644   5.164 -0.3398 -0.6492  0.4862
 7518SOL    HW234014   1.765   1.692   5.090  0.5084 -0.7182  0.1622
 7519SOL     OW34015   2.043   2.123   7.134  0.4936 -0.7374 -0.5199
 7519SOL    HW134016   2.028   2.208   7.092 -0.5443  0.0897  1.5023
 7519SOL    HW234017   1.989   2.066   7.080  1.7286 -2.3051 -0.0919
 7520SOL     OW34018   3.270   2.678  14.630 -0.1909  0.5181 -0.0498
 7520SOL    HW134019   3.293   2.770  14.623  0.9478  0.2216 -0.3584
 7520SOL    HW234020   3.222   2.661  14.548 -2.0420 -0.5022  1.2422
 7521SOL     OW34021   2.984   1.586  15.780  0.0766  0.0198  0.9079
 7521SOL    HW134022   2.952   1.670  15.813 -2.1945 -1.0298  1.3967
 7521SOL    HW234023   2.931   1.528  15.835 -0.8476 -0.2731 -0.2946
 7522SOL     OW34024   1.300   3.538   6.992 -0.2518  0.0356 -0.6140
 7522SOL    HW134025   1.301   3.634   6.983 -0.5179  0.1572  0.5664
 7522SOL    HW234026   1.388   3.505   6.977 -1.0762 -0.9376 -3.2231
 7523SOL     OW34027   0.528   2.802   5.201  0.3922 -0.6783  1.0115
 7523SOL    HW134028   0.591   2.856   5.250  1.2019  1.7001 -2.6247
 7523SOL    HW234029   0.467   2.792   5.275  0.6092  1.0051  1.4331
 7524SOL     OW34030   2.133   3.698   2.162 -0.3233  0.1612  0.0005
 7524SOL    HW134031   2.180   3.770   2.119  2.1961 -0.8104  1.1376
 7524SOL    HW234032   2.203   3.651   2.207 -1.6407 -0.7852  1.0645
 7525SOL     OW34033   1.365   2.391   5.208  0.2480 -0.2458  0.0432
 7525SOL    HW134034   1.397   2.443   5.282 -0.3446 -1.1359  0.9163
 7525SOL    HW234035   1.415   2.438   5.140 -0.3150  2.0734  1.2189
 7526SOL     OW34036   2.069   4.102   5.178 -0.2929  0.1299 -0.4141
 7526SOL    HW134037   2.137   4.068   5.237 -0.5400 -0.3362 -0.4036
 7526SOL    HW234038   2.052   4.186   5.221 -1.6680 -0.2313 -0.2480
 7527SOL     OW34039   1.482   3.730  17.556  0.6099  0.4064  0.1069
 7527SOL    HW134040   1.471   3.791  17.629 -1.6879 -0.3985  0.4403
 7527SOL    HW234041   1.473   3.788  17.481  0.4234  2.0056  1.3760
 7528SOL     OW34042   1.620   1.665  16.360  0.5561  0.4941 -0.1866
 7528SOL    HW134043   1.697   1.608  16.357 -0.4531 -0.7905 -1.7448
 7528SOL    HW234044   1.566   1.590  16.385  2.0250 -0.3660  0.4155
 7529SOL     OW34045   3.651   4.266   2.491  0.8074 -0.2481 -0.8199
 7529SOL    HW134046   3.559   4.245   2.472  0.1319  1.9713  0.0021
 7529SOL    HW234047   3.661   4.361   2.482  1.3874 -0.3001 -0.7115
 7530SOL     OW34048   4.543   1.240   7.097 -0.1136  0.7138  0.1505
 7530SOL    HW134049   4.608   1.280   7.039 -0.4920  1.8710  0.5243
 7530SOL    HW234050   4.506   1.306   7.156  2.1717  2.4164 -0.3018
 7531SOL     OW34051   3.096   1.928   4.292  0.3780  0.1537 -0.1656
 7531SOL    HW134052   3.108   1.833   4.285 -1.8015 -0.0520 -1.1469
 7531SOL    HW234053   3.179   1.956   4.254  0.1685  2.3872  1.0254
 7532SOL     OW34054   1.335   0.514   3.217  0.2934  0.5809  0.2754
 7532SOL    HW134055   1.278   0.466   3.276 -0.9045 -0.0499 -1.3850
 7532SOL    HW234056   1.389   0.446   3.176 -0.1129  0.2444  0.2914
 7533SOL     OW34057   4.389   4.210   7.755 -0.2109 -0.3144  0.2745
 7533SOL    HW134058   4.426   4.238   7.839 -2.0208  0.5556  0.7821
 7533SOL    HW234059   4.312   4.266   7.747  0.6340  0.6691 -0.9727
 7534SOL     OW34060   1.891   1.239  16.206  0.2819 -0.1141  0.1608
 7534SOL    HW134061   1.962   1.204  16.261  0.2347  0.4816  0.6040
 7534SOL    HW234062   1.822   1.185  16.245  0.1655  0.0516  0.1868
 7535SOL     OW34063   2.051   4.118   6.301 -0.1226  0.1945 -0.3604
 7535SOL    HW134064   2.141   4.092   6.319  0.3951  3.3797  1.5279
 7535SOL    HW234065   2.054   4.203   6.344  1.2212 -0.1617  0.2360
 7536SOL     OW34066   0.449   3.230   7.967 -0.7543 -0.0757 -0.0684
 7536SOL    HW134067   0.374   3.177   7.940  0.7442 -1.5325 -1.4062
 7536SOL    HW234068   0.421   3.321   7.971 -0.7367 -0.0057 -1.5334
 7537SOL     OW34069   4.129   2.499  11.288 -0.4706 -0.4888  0.4460
 7537SOL    HW134070   4.054   2.558  11.276 -1.7451 -1.7654  2.0480
 7537SOL    HW234071   4.138   2.462  11.200  0.9579  0.1749  0.3264
 7538SOL     OW34072   0.589   3.396  12.153 -0.3986 -0.7647  0.7761
 7538SOL    HW134073   0.523   3.435  12.096  0.9133  2.0454  1.2057
 7538SOL    HW234074   0.533   3.370  12.226 -0.3371 -1.2216  0.6640
 7539SOL     OW34075   1.320   4.127  17.450  0.0310 -0.5171  0.2187
 7539SOL    HW134076   1.389   4.187  17.478 -2.2801  0.7907  3.1990
 7539SOL    HW234077   1.258   4.151  17.519 -0.2626 -2.6073  0.6698
 7540SOL     OW34078   0.102   0.869   4.604 -0.2114 -0.6527  0.4874
 7540SOL    HW134079   0.054   0.948   4.630 -0.5647 -0.1409 -1.7696
 7540SOL    HW234080   0.126   0.835   4.691 -0.9157  0.4413  1.1156
 7541SOL     OW34081   0.867   2.916  13.745  0.5874  0.2637  0.7514
 7541SOL    HW134082   0.809   2.904  13.820  0.5964 -1.8791  0.4162
 7541SOL    HW234083   0.943   2.957  13.787  0.5414  1.3974 -0.2466
 7542SOL     OW34084   2.704   2.972   6.735  0.0749 -0.4458 -0.4273
 7542SOL    HW134085   2.781   2.940   6.782 -0.7308  1.1211  1.9713
 7542SOL    HW234086   2.644   2.898   6.735  1.5316 -1.6383  1.9248
 7543SOL     OW34087   3.483   4.233   0.446 -0.0264 -0.5623  0.0176
 7543SOL    HW134088   3.394   4.239   0.413  0.2953 -0.7493 -0.8899
 7543SOL    HW234089   3.543   4.210   0.375  1.5685  0.3987  1.0383
 7544SOL     OW34090   0.858   2.554  11.158  0.3131  0.2805 -0.3526
 7544SOL    HW134091   0.792   2.533  11.224  0.8858  1.2034  0.5057
 7544SOL    HW234092   0.869   2.467  11.119 -3.5709 -1.1053  1.5987
 7545SOL     OW34093   3.322   0.643   3.820  0.3522  0.0627 -0.3704
 7545SOL    HW134094   3.408   0.625   3.858  1.3379 -1.2019 -3.1828
 7545SOL    HW234095   3.288   0.699   3.890 -1.9047  0.1813 -1.5486
 7546SOL     OW34096   3.501   2.991  11.221 -0.4079  0.2069  0.4090
 7546SOL    HW134097   3.579   2.936  11.230 -1.3551 -1.2822 -0.3272
 7546SOL    HW234098   3.497   2.996  11.125  1.5918  4.3541  0.5835
 7547SOL     OW34099   0.885   1.824   3.464  0.4336 -0.1570  0.1881
 7547SOL    HW134100   0.821   1.765   3.425 -1.8727  0.6300  2.7306
 7547SOL    HW234101   0.907   1.880   3.390  0.3052  0.5242  0.6679
 7548SOL     OW34102   1.987   1.558  10.426 -0.8767 -0.0285 -0.6321
 7548SOL    HW134103   2.017   1.468  10.413 -1.9438 -0.5878  0.7049
 7548SOL    HW234104   2.042   1.579  10.502 -0.5725  0.1205 -0.8984
 7549SOL     OW34105   1.922   2.658   3.618  0.3715 -0.3986  0.1294
 7549SOL    HW134106   1.885   2.635   3.703  0.7817 -1.7452 -0.0502
 7549SOL    HW234107   1.999   2.702   3.652  0.2158  0.1822 -0.2766
 7550SOL     OW34108   2.487   2.050   5.652  0.4871 -1.0703  0.2871
 7550SOL    HW134109   2.527   2.127   5.691 -1.9409 -0.6748  1.9877
 7550SOL    HW234110   2.554   2.038   5.585 -1.9275  1.3636 -2.5434
 7551SOL     OW34111   1.682   1.959   3.678  0.3855 -0.0687  0.3145
 7551SOL    HW134112   1.617   1.934   3.744  0.5779 -0.6588  0.2868
 7551SOL    HW234113   1.715   1.871   3.657 -2.9772 -1.1677 -0.4567
 7552SOL     OW34114   1.446   3.925   5.532  0.3860  0.0307 -0.1249
 7552SOL    HW134115   1.505   3.937   5.606 -0.2712 -0.7748  0.5273
 7552SOL    HW234116   1.474   3.836   5.510 -1.5365  0.2193 -3.4043
 7553SOL     OW34117   2.574   3.460   1.427 -0.1616 -0.0110  0.8196
 7553SOL    HW134118   2.647   3.487   1.371 -0.4197 -1.9139 -0.4439
 7553SOL    HW234119   2.588   3.367   1.407 -2.2895 -0.4917  1.6346
 7554SOL     OW34120   0.680   0.853   1.958  0.4666  0.2887 -0.1057
 7554SOL    HW134121   0.687   0.882   1.867  0.5921  1.9838  0.4442
 7554SOL    HW234122   0.675   0.938   2.002 -0.3645  0.9225 -1.4326
 7555SOL     OW34123   2.666   0.567   8.735  0.3402  0.6634 -0.5671
 7555SOL    HW134124   2.724   0.597   8.806 -2.9564  1.5829  1.7396
 7555SOL    HW234125   2.673   0.631   8.664  0.8384 -3.0713 -3.8746
 7556SOL     OW34126   4.177   2.278  16.037 -0.5097  0.1055  0.2772
 7556SOL    HW134127   4.244   2.284  16.105 -1.7291 -1.7436  1.6734
 7556SOL    HW234128   4.171   2.371  16.014 -0.7425  0.8406  3.2355
 7557SOL     OW34129   1.204   2.518  16.448  0.1037 -0.1204  0.1476
 7557SOL    HW134130   1.142   2.446  16.436  0.9453 -0.9947  1.1157
 7557SOL    HW234131   1.246   2.520  16.362 -2.2728 -0.2121 -1.0184
 7558SOL     OW34132   1.066   0.823  14.345 -0.4673  0.8027  0.3575
 7558SOL    HW134133   0.974   0.829  14.371 -1.1479 -0.2127 -1.8186
 7558SOL    HW234134   1.060   0.769  14.266  1.4962 -1.0299  1.4743
 7559SOL     OW34135   1.342   4.048   6.548 -0.4865  0.7404  0.1137
 7559SOL    HW134136   1.281   4.056   6.474 -1.1722  0.8364  0.6828
 7559SOL    HW234137   1.372   3.960   6.524  3.5284  2.1545  0.1146
 7560SOL     OW34138   3.890   0.854  13.766 -0.1140 -0.1987 -0.3959
 7560SOL    HW134139   3.860   0.873  13.855  0.1709 -0.6238 -0.2110
 7560SOL    HW234140   3.904   0.760  13.762 -1.3894 -0.4529  1.3362
 7561SOL     OW34141   2.694   2.021   9.072  0.5514 -0.5452  0.1189
 7561SOL    HW134142   2.764   2.010   9.137 -0.4680  0.6613  1.4047
 7561SOL    HW234143   2.638   2.071   9.132  0.2477 -1.7113  0.7929
 7562SOL     OW34144   3.438   2.221   6.772  0.1512  0.9504  0.0749
 7562SOL    HW134145   3.391   2.138   6.780 -1.5096  2.0057  1.3500
 7562SOL    HW234146   3.461   2.224   6.679 -0.6945 -0.5850 -0.1801
 7563SOL     OW34147   2.094   3.740   3.960  0.6228  0.0906 -0.1823
 7563SOL    HW134148   2.051   3.667   3.915  2.2381 -1.3968  0.7151
 7563SOL    HW234149   2.185   3.711   3.967  0.5661  0.5078  2.2257
 7564SOL     OW34150   1.360   1.357   5.548 -0.5267  0.1594 -0.0493
 7564SOL    HW134151   1.327   1.390   5.465 -0.7390 -0.7407 -0.3260
 7564SOL    HW234152   1.353   1.263   5.531  2.5976 -0.5619  2.5064
 7565SOL     OW34153   0.027   1.970   3.542  0.2202  0.0164  0.2887
 7565SOL    HW134154   0.100   2.007   3.493 -1.9879 -1.1115 -3.8477
 7565SOL    HW234155   4.710   1.918   3.470  0.6115 -1.8043  1.3993
 7566SOL     OW34156   1.995   2.638   2.254 -0.2835 -0.0182 -0.1275
 7566SOL    HW134157   2.017   2.560   2.306  2.7935  1.3453  0.6120
 7566SOL    HW234158   2.021   2.599   2.170 -0.3143 -1.0431  0.3414
 7567SOL     OW34159   2.851   3.124   4.581  0.9709  0.0893  0.2410
 7567SOL    HW134160   2.820   3.210   4.611 -0.7487  0.1000 -1.5630
 7567SOL    HW234161   2.871   3.134   4.488  0.4647 -1.5347 -0.0240
 7568SOL     OW34162   1.950   2.632   8.143 -0.4534  0.3028 -0.8341
 7568SOL    HW134163   1.892   2.592   8.207 -1.8002  1.9078 -1.0761
 7568SOL    HW234164   1.895   2.703   8.111 -1.1672  0.3853  0.5705
 7569SOL     OW34165   1.318   1.828   3.391 -0.4975  0.0275 -0.0888
 7569SOL    HW134166   1.340   1.769   3.319 -0.8235  1.0291 -0.9970
 7569SOL    HW234167   1.327   1.770   3.467  2.0574 -0.9254 -1.1012
 7570SOL     OW34168   1.263   2.906   6.259  0.8285 -0.9498 -0.0086
 7570SOL    HW134169   1.291   2.997   6.264 -1.7380 -0.0806 -1.5774
 7570SOL    HW234170   1.297   2.880   6.173  1.0906 -1.0276  0.1184
 7571SOL     OW34171   1.630   0.499  14.339  0.2798  0.8191  0.9030
 7571SOL    HW134172   1.685   0.575  14.323 -0.1301  0.9270  0.0135
 7571SOL    HW234173   1.552   0.533  14.296  0.2608 -0.6063 -0.1902
 7572SOL     OW34174   0.157   2.829   8.510 -0.2147  0.3116  0.5110
 7572SOL    HW134175   0.156   2.921   8.538 -0.6687  0.0638  1.3144
 7572SOL    HW234176   0.087   2.831   8.445 -0.6497 -2.3603  0.9240
 7573SOL     OW34177   1.392   1.320   8.938 -0.5902 -0.2354  0.3885
 7573SOL    HW134178   1.366   1.228   8.941  0.2483 -0.4457  1.2051
 7573SOL    HW234179   1.487   1.321   8.929 -0.3661 -2.8814  2.3649
 7574SOL     OW34180   1.514   1.032   6.831  0.1611 -0.2213  0.2403
 7574SOL    HW134181   1.560   1.113   6.807  1.2695 -0.5190  1.3753
 7574SOL    HW234182   1.423   1.060   6.844  0.3411  0.4542  0.0784
 7575SOL     OW34183   0.660   4.113   0.547  1.2045  0.7999 -0.0366
 7575SOL    HW134184   0.642   4.191   0.494  0.4489  1.0801  0.6364
 7575SOL    HW234185   0.588   4.051   0.537 -0.3356  2.2048  2.5150
 7576SOL     OW34186   3.183   4.054  13.679  0.7768  0.5317  0.2485
 7576SOL    HW134187   3.189   4.150  13.670  3.0998  0.6492  3.0290
 7576SOL    HW234188   3.126   4.033  13.605  0.9796 -2.0204  0.8182
 7577SOL     OW34189   2.078   3.166  10.657 -0.5444  0.2096 -0.2873
 7577SOL    HW134190   2.004   3.139  10.712 -1.4509  1.5668 -0.8595
 7577SOL    HW234191   2.079   3.261  10.671  0.6234  0.1126  0.2953
 7578SOL     OW34192   2.025   1.974  12.702  0.6383  0.6510 -0.6264
 7578SOL    HW134193   1.941   1.930  12.688  0.5759  1.3557 -2.3609
 7578SOL    HW234194   2.024   2.028  12.623 -0.2457  2.9291  0.9532
 7579SOL     OW34195   3.932   4.264   6.215  0.3378 -0.5484  0.2149
 7579SOL    HW134196   4.016   4.304   6.193 -0.9727  2.2266  0.2764
 7579SOL    HW234197   3.942   4.227   6.303 -2.6299  1.2590  1.2882
 7580SOL     OW34198   0.948   0.683  13.426 -0.2511 -0.0835 -0.7903
 7580SOL    HW134199   0.935   0.681  13.331  0.5963  0.1226 -0.9159
 7580SOL    HW234200   0.897   0.761  13.448  0.5318 -0.4899  2.4743
 7581SOL     OW34201   0.265   2.297  15.968  0.4662 -0.4468 -0.1038
 7581SOL    HW134202   0.289   2.205  15.953  0.6525 -0.3138 -0.6383
 7581SOL    HW234203   0.284   2.301  16.061  1.3333  0.2485 -0.3145
 7582SOL     OW34204   3.787   0.230  10.772  0.4505 -0.8205 -0.5774
 7582SOL    HW134205   3.733   0.266  10.701  2.3071  0.2974 -1.4303
 7582SOL    HW234206   3.878   0.229  10.742  0.7797 -0.0413  0.3783
 7583SOL     OW34207   0.213   2.564  12.365 -0.5054  0.1469 -0.2550
 7583SOL    HW134208   0.168   2.605  12.291  1.0801  1.1239 -0.6679
 7583SOL    HW234209   0.282   2.516  12.319 -0.0663  0.9472 -0.4233
 7584SOL     OW34210   4.487   4.479   2.948  0.7708  0.3648 -0.3682
 7584SOL    HW134211   4.558   4.423   2.981 -1.6741 -2.2159  0.5059
 7584SOL    HW234212   4.526   4.493   2.862  0.0681 -1.6787 -1.0109
 7585SOL     OW34213   0.331   2.684   4.083 -0.3273 -0.4546  0.1934
 7585SOL    HW134214   0.382   2.606   4.104  0.1769 -0.6776 -1.8522
 7585SOL    HW234215   0.328   2.672   3.988 -1.7105 -1.4196  0.3649
 7586SOL     OW34216   2.443   0.304   7.178 -0.1948  0.4044  0.0713
 7586SOL    HW134217   2.533   0.327   7.198 -1.2194  2.2596  2.6121
 7586SOL    HW234218   2.420   0.256   7.258 -0.7330  0.9019  0.2208
 7587SOL     OW34219   1.444   1.571   1.189 -0.0662 -0.0102 -0.1382
 7587SOL    HW134220   1.422   1.571   1.282  1.7543  1.9164  0.3156
 7587SOL    HW234221   1.512   1.504   1.181  0.7713  0.9057 -0.7096
 7588SOL     OW34222   2.345   3.538   9.124  0.0092 -0.2081 -0.2636
 7588SOL    HW134223   2.433   3.568   9.148  0.2794 -0.3650 -1.0696
 7588SOL    HW234224   2.330   3.603   9.056  2.3555 -1.4461 -1.9587
 7589SOL     OW34225   0.198   4.047  13.539  1.0096 -0.1397 -0.6799
 7589SOL    HW134226   0.290   4.060  13.513  0.8658 -0.0104 -1.1173
 7589SOL    HW234227   0.211   3.967  13.591  0.5123  0.7449  0.7787
 7590SOL     OW34228   2.933   3.072  13.358 -0.5925  0.0389  0.1204
 7590SOL    HW134229   2.984   3.131  13.414  0.3023 -0.1649 -0.4725
 7590SOL    HW234230   2.983   3.072  13.276  0.1835 -0.0951  0.5964
 7591SOL     OW34231   3.280   2.351   2.191  0.1188 -0.4243  0.1931
 7591SOL    HW134232   3.257   2.295   2.116 -2.4034  1.6695 -0.5800
 7591SOL    HW234233   3.325   2.291   2.251  0.6362  0.6773  0.8964
 7592SOL     OW34234   2.644   1.158   5.173  0.1731 -0.5799 -0.0015
 7592SOL    HW134235   2.550   1.143   5.186  0.5502 -3.0170 -0.1573
 7592SOL    HW234236   2.661   1.112   5.091 -1.2570  0.4126 -0.8586
 7593SOL     OW34237   2.258   0.241   8.050 -0.6189 -0.0933  0.2127
 7593SOL    HW134238   2.348   0.211   8.032 -0.7732 -0.2513 -0.2952
 7593SOL    HW234239   2.291   0.327   8.076 -2.6592  0.7977 -0.2049
 7594SOL     OW34240   1.618   1.344   7.577 -0.5911 -0.0389  0.4427
 7594SOL    HW134241   1.592   1.282   7.645 -1.7216  0.3926  0.3852
 7594SOL    HW234242   1.696   1.378   7.622 -2.4065  1.9000  2.0906
 7595SOL     OW34243   2.290   4.606   1.404 -0.0417  0.2833  0.2219
 7595SOL    HW134244   2.327   4.672   1.345  1.2283 -0.8149 -0.2262
 7595SOL    HW234245   2.368   4.571   1.446  0.2443  0.0809 -0.4707
 7596SOL     OW34246   0.495   2.657   9.257 -0.4606 -0.8283  0.3897
 7596SOL    HW134247   0.442   2.722   9.211  2.7597  1.5363 -0.0036
 7596SOL    HW234248   0.529   2.603   9.187 -2.5096 -1.6751  0.0633
 7597SOL     OW34249   0.946   4.418   4.404  0.0150 -0.2132  0.1234
 7597SOL    HW134250   0.884   4.435   4.333  0.3824  0.2901 -0.0783
 7597SOL    HW234251   0.955   4.322   4.402 -0.4012 -0.2908  1.6127
 7598SOL     OW34252   3.426   4.510   1.693  0.2183  0.1341 -0.5438
 7598SOL    HW134253   3.388   4.549   1.614  0.7014  1.2597 -0.2167
 7598SOL    HW234254   3.443   4.423   1.656 -1.4172 -0.6146  0.4524
 7599SOL     OW34255   2.699   1.054   1.992  0.6871 -0.2039 -0.1818
 7599SOL    HW134256   2.639   0.979   1.990  1.9499 -1.3002  2.2498
 7599SOL    HW234257   2.782   1.008   1.988  1.2486  0.7720  0.3211
 7600SOL     OW34258   2.738   1.981   8.382  0.3342 -0.3965  0.0304
 7600SOL    HW134259   2.715   1.928   8.459 -0.9439 -2.0814 -1.5256
 7600SOL    HW234260   2.805   2.035   8.423  1.2587 -0.7319 -1.0396
 7601SOL     OW34261   4.720   4.509   6.726  0.1695  0.1179 -0.1575
 7601SOL    HW134262   0.043   4.427   6.750  3.1151  1.1534 -1.9363
 7601SOL    HW234263   4.718   4.489   6.632 -0.0500 -0.7905  0.0343
 7602SOL     OW34264   3.964   1.197   8.375 -0.2288 -0.0776  0.2226
 7602SOL    HW134265   4.015   1.116   8.375  1.3994  0.9419 -5.4123
 7602SOL    HW234266   4.025   1.271   8.373  2.2552 -2.1900 -1.5612
 7603SOL     OW34267   0.924   4.576   1.861 -0.3969 -0.0022  0.5208
 7603SOL    HW134268   1.005   4.527   1.877  0.4273  0.4408 -2.2628
 7603SOL    HW234269   0.961   4.659   1.831 -1.1805  0.2062  0.1234
 7604SOL     OW34270   1.897   4.097   5.841  0.4999  0.3740 -0.0841
 7604SOL    HW134271   1.867   4.011   5.814  2.4289  0.6988 -3.2728
 7604SOL    HW234272   1.980   4.087   5.793 -0.4708  0.9981 -1.8880
 7605SOL     OW34273   4.531   4.445   9.730 -0.3604  0.7281  0.8013
 7605SOL    HW134274   4.467   4.444   9.659  2.5898  0.0847 -1.8553
 7605SOL    HW234275   4.589   4.503   9.681 -0.0093 -0.1575  0.1705
 7606SOL     OW34276   1.446   2.824   2.326  0.1347  0.2625  0.0300
 7606SOL    HW134277   1.482   2.819   2.414 -0.2994 -0.6649  0.1568
 7606SOL    HW234278   1.524   2.819   2.270  0.9061 -0.0614  1.1384
 7607SOL     OW34279   0.979   0.177   2.633 -0.4534 -0.0254 -0.1416
 7607SOL    HW134280   1.031   0.109   2.676  1.2079  0.7497 -0.9164
 7607SOL    HW234281   0.899   0.128   2.652 -1.0167  0.3769 -1.4434
 7608SOL     OW34282   0.822   2.449   2.986 -0.2678  0.0866  0.6805
 7608SOL    HW134283   0.838   2.541   3.007  0.0395  0.2136 -0.1064
 7608SOL    HW234284   0.891   2.406   3.038 -1.0561  2.0199  3.3258
 7609SOL     OW34285   0.622   2.343  10.773  0.1159  0.5638 -0.4241
 7609SOL    HW134286   0.694   2.351  10.836  1.4668 -1.7564 -1.6485
 7609SOL    HW234287   0.648   2.264  10.726  2.4965  0.8303  0.4055
 7610SOL     OW34288   3.786   3.190   5.508  0.4948 -0.4571  0.1126
 7610SOL    HW134289   3.786   3.145   5.423  0.5553  0.0850 -0.1749
 7610SOL    HW234290   3.797   3.275   5.466 -2.6829 -1.0942 -2.0613
 7611SOL     OW34291   4.548   3.401  15.017  0.4113 -0.2961  0.1485
 7611SOL    HW134292   4.482   3.372  15.081 -2.1085  0.6397 -2.0009
 7611SOL    HW234293   4.590   3.322  14.985 -0.2928  0.1966 -2.0246
 7612SOL     OW34294   3.135   0.495   5.702 -0.2440  0.0628  0.3403
 7612SOL    HW134295   3.062   0.525   5.757  1.6994  1.9173  1.8728
 7612SOL    HW234296   3.077   0.493   5.626 -0.3763 -0.1233  0.4475
 7613SOL     OW34297   2.310   0.589   8.903  0.2805 -0.2766 -0.5151
 7613SOL    HW134298   2.335   0.679   8.883  2.3043 -0.9220 -0.7929
 7613SOL    HW234299   2.242   0.568   8.839  0.6454 -1.8275 -0.3971
 7614SOL     OW34300   3.847   2.994   5.233  0.4972 -0.1687 -0.1334
 7614SOL    HW134301   3.888   3.017   5.150  3.2837 -0.0674  1.2774
 7614SOL    HW234302   3.917   2.951   5.282 -0.1670 -0.8661  0.2093
 7615SOL     OW34303   4.257   1.485   0.701  0.3040 -0.2312  0.1625
 7615SOL    HW134304   4.192   1.491   0.631  2.7768  2.6483 -1.8962
 7615SOL    HW234305   4.238   1.395   0.727 -1.6888 -0.4388 -2.0187
 7616SOL     OW34306   3.983   4.362  14.540  0.3025 -0.0164  0.7908
 7616SOL    HW134307   4.000   4.281  14.491 -0.8250 -0.8744  1.8006
 7616SOL    HW234308   3.949   4.339  14.627 -1.4511  2.9195  0.8733
 7617SOL     OW34309   2.485   3.789  15.928  0.4118  0.2288  0.1729
 7617SOL    HW134310   2.460   3.831  15.845 -0.6381  1.2976  1.0406
 7617SOL    HW234311   2.466   3.859  15.989  0.7523  0.0623  0.4700
 7618SOL     OW34312   1.919   0.790   0.942 -0.4264 -0.0251  0.0021
 7618SOL    HW134313   1.824   0.787   0.951 -0.4033 -1.7740 -0.3299
 7618SOL    HW234314   1.939   0.697   0.952  2.7578  0.9929  3.1588
 7619SOL     OW34315   0.790   4.305   8.003  0.7614  0.0336 -0.3920
 7619SOL    HW134316   0.722   4.254   8.047  0.4526  1.2356  0.5330
 7619SOL    HW234317   0.765   4.310   7.911  1.0831 -0.8068 -0.5267
 7620SOL     OW34318   1.784   4.240  13.338  0.3799 -0.2562  0.0611
 7620SOL    HW134319   1.702   4.289  13.337 -1.7075 -3.8635 -2.0396
 7620SOL    HW234320   1.808   4.262  13.428 -0.0695  0.9685 -0.1242
 7621SOL     OW34321   1.515   4.665   6.155  0.1913  0.6238  0.2056
 7621SOL    HW134322   1.503   4.613   6.076 -0.3462 -1.5972  1.7188
 7621SOL    HW234323   1.592   4.712   6.126 -0.2793  0.0786 -1.8886
 7622SOL     OW34324   3.462   3.612   8.281 -0.1591  0.1864  0.5163
 7622SOL    HW134325   3.437   3.692   8.327 -0.0707  1.2351 -1.2836
 7622SOL    HW234326   3.424   3.623   8.194  2.9545  0.2940 -0.8312
 7623SOL     OW34327   1.460   2.636   5.357  0.3211  0.0185  0.3554
 7623SOL    HW134328   1.405   2.668   5.429 -1.9594  2.3178 -2.4410
 7623SOL    HW234329   1.511   2.715   5.340  0.2842 -0.0942 -0.2703
 7624SOL     OW34330   3.547   0.518   6.081 -0.1234  0.2908  0.2292
 7624SOL    HW134331   3.505   0.603   6.074  0.7465  0.9696  3.2000
 7624SOL    HW234332   3.472   0.459   6.073  0.9392 -1.3570  2.1214
 7625SOL     OW34333   1.131   0.222  16.028 -0.2741  0.5623  0.1179
 7625SOL    HW134334   1.220   0.229  16.062 -0.2071 -0.9371  0.2372
 7625SOL    HW234335   1.081   0.242  16.107  0.0603 -1.2150  0.7744
 7626SOL     OW34336   2.198   2.348   0.138 -0.1924 -0.1333 -0.4862
 7626SOL    HW134337   2.192   2.394   0.222  2.1119  0.3010 -0.5545
 7626SOL    HW234338   2.156   2.266   0.165  1.5246 -1.1112 -0.7577
 7627SOL     OW34339   3.719   3.137   8.372  0.0305 -0.1005  0.3485
 7627SOL    HW134340   3.736   3.136   8.466  1.2513 -1.4686  0.1095
 7627SOL    HW234341   3.696   3.230   8.370  0.2547 -0.0641 -0.4752
 7628SOL     OW34342   1.756   3.001   2.447 -0.1329 -0.4966 -0.3427
 7628SOL    HW134343   1.672   3.031   2.480 -0.3128 -0.5735 -0.7287
 7628SOL    HW234344   1.820   3.030   2.512 -0.8091 -0.5677  0.3484
 7629SOL     OW34345   0.782   2.938   7.196 -0.0570  0.2414 -0.0094
 7629SOL    HW134346   0.809   2.983   7.276 -0.5154 -1.1822  0.9511
 7629SOL    HW234347   0.737   2.856   7.217  0.7781 -0.7013 -1.9118
 7630SOL     OW34348   0.819   4.135   6.309  0.1541  0.7289  0.0456
 7630SOL    HW134349   0.806   4.046   6.278  0.7465  0.0935  1.6223
 7630SOL    HW234350   0.754   4.130   6.380  1.3459  2.1458  1.2310
 7631SOL     OW34351   0.822   1.497  14.224 -0.5479  0.1327 -0.1496
 7631SOL    HW134352   0.867   1.453  14.297 -2.5911 -0.4765  0.7404
 7631SOL    HW234353   0.879   1.474  14.150  1.1801 -0.0399  1.2514
 7632SOL     OW34354   1.454   0.662   7.876  0.1841 -0.3568 -0.0520
 7632SOL    HW134355   1.368   0.644   7.914  0.4519 -0.8098  0.3387
 7632SOL    HW234356   1.499   0.596   7.929  1.3304 -0.2120 -0.8349
 7633SOL     OW34357   2.753   2.897   7.045  0.3255  0.3607 -0.2828
 7633SOL    HW134358   2.738   2.935   7.132  0.7596 -0.8032  0.2974
 7633SOL    HW234359   2.737   2.803   7.040 -0.9801  0.5315  0.7149
 7634SOL     OW34360   4.480   3.358  11.282  0.1804  0.5001  0.5443
 7634SOL    HW134361   4.447   3.381  11.195  0.1404  0.5177  0.5641
 7634SOL    HW234362   4.447   3.431  11.335  2.5978  1.3956  0.8128
 7635SOL     OW34363   1.882   0.729   5.915  0.2046  0.3149 -0.0413
 7635SOL    HW134364   1.851   0.726   6.005  1.8319 -1.9783  0.4567
 7635SOL    HW234365   1.897   0.637   5.893  1.0122  0.6064 -0.7037
 7636SOL     OW34366   4.211   4.206   7.273  0.1042  0.5472 -0.0046
 7636SOL    HW134367   4.268   4.252   7.334  1.1986 -1.2276  0.3058
 7636SOL    HW234368   4.237   4.244   7.189 -0.7537 -0.4702 -0.7331
 7637SOL     OW34369   3.567   2.304   1.502 -0.2079 -0.3051  0.2225
 7637SOL    HW134370   3.608   2.220   1.482 -0.6173 -0.3639 -0.3652
 7637SOL    HW234371   3.484   2.263   1.527 -0.6416  0.5094  0.1261
 7638SOL     OW34372   2.604   4.194   2.721 -0.5154 -0.5125  0.4783
 7638SOL    HW134373   2.577   4.221   2.808 -0.9942  0.5091  0.0084
 7638SOL    HW234374   2.518   4.201   2.681  0.3723 -1.9578 -1.7100
 7639SOL     OW34375   4.446   1.418   6.437 -0.0604  0.1835 -0.2994
 7639SOL    HW134376   4.447   1.503   6.480  2.3544 -0.4041  0.8434
 7639SOL    HW234377   4.377   1.430   6.373  0.5016 -1.6791 -1.2643
 7640SOL     OW34378   1.692   2.230  12.215  0.3102  0.0797  0.0952
 7640SOL    HW134379   1.747   2.270  12.282  0.2104 -0.2108  0.3502
 7640SOL    HW234380   1.631   2.299  12.190  0.4589 -0.9585 -3.1656
 7641SOL     OW34381   2.541   1.729  12.846 -0.0651 -0.2431 -0.4126
 7641SOL    HW134382   2.525   1.737  12.940 -1.3514 -3.4806 -0.3546
 7641SOL    HW234383   2.584   1.812  12.826 -0.0747 -0.8419 -2.9730
 7642SOL     OW34384   2.544   3.517  15.834 -1.0633 -0.6702 -0.9671
 7642SOL    HW134385   2.571   3.558  15.752 -0.5096  1.0457  0.0834
 7642SOL    HW234386   2.503   3.591  15.879 -1.3266 -2.1206  1.1806
 7643SOL     OW34387   0.271   1.887  17.334 -0.1100  0.2907 -0.1892
 7643SOL    HW134388   0.264   1.864  17.427  0.3156  0.0641 -0.2130
 7643SOL    HW234389   0.341   1.825  17.312 -0.6500 -1.3987  2.9029
 7644SOL     OW34390   0.723   4.107   6.033 -0.5092 -0.5799  0.3757
 7644SOL    HW134391   0.706   4.031   6.090  1.4795 -0.3158  1.3442
 7644SOL    HW234392   0.772   4.158   6.098 -1.5847 -0.4253  1.0716
 7645SOL     OW34393   0.325   3.387  10.153 -0.0499  0.7444  0.0962
 7645SOL    HW134394   0.396   3.393  10.217  0.9171 -2.7681 -0.6280
 7645SOL    HW234395   0.332   3.476  10.118 -1.6549  0.6527 -0.4733
 7646SOL     OW34396   3.315   1.104   5.578  0.2895 -0.0505 -0.2162
 7646SOL    HW134397   3.332   1.019   5.537 -2.7582  0.0550 -1.6973
 7646SOL    HW234398   3.402   1.136   5.602  0.7013 -0.9711 -0.4741
 7647SOL     OW34399   1.114   3.507   7.235 -0.0472 -0.2776 -0.0197
 7647SOL    HW134400   1.207   3.532   7.228 -0.3769  0.4836 -1.6385
 7647SOL    HW234401   1.113   3.434   7.172  0.0714 -1.4259  1.3173
 7648SOL     OW34402   4.114   1.232   0.719 -0.5786  0.2384  0.4490
 7648SOL    HW134403   4.053   1.181   0.773 -0.8539 -1.4426 -1.4886
 7648SOL    HW234404   4.094   1.196   0.633  0.7455  0.4485  0.0502
 7649SOL     OW34405   1.153   0.326   4.814  0.1258 -0.5400  0.6466
 7649SOL    HW134406   1.131   0.239   4.780  1.3323 -1.3739  1.9946
 7649SOL    HW234407   1.100   0.319   4.893 -1.2488  0.1817 -0.2260
 7650SOL     OW34408   2.448   3.432   7.495  0.0949  1.0636 -0.2233
 7650SOL    HW134409   2.538   3.438   7.529 -0.6238  0.5073  1.7525
 7650SOL    HW234410   2.405   3.496   7.551  3.2851  1.0173  2.2481
 7651SOL     OW34411   2.266   3.069   5.191  0.2055  0.6019  0.0149
 7651SOL    HW134412   2.195   3.085   5.130 -0.4635  2.7529  1.3722
 7651SOL    HW234413   2.327   3.026   5.131 -1.2178 -0.7947 -0.4332
 7652SOL     OW34414   3.779   3.712  10.371 -0.0935 -0.1895  0.3817
 7652SOL    HW134415   3.865   3.671  10.359 -0.5867 -0.3430 -2.5016
 7652SOL    HW234416   3.797   3.785  10.430 -2.3837  0.3041  0.4666
 7653SOL     OW34417   3.715   2.588   4.443  0.0043 -0.0004 -0.1047
 7653SOL    HW134418   3.771   2.588   4.521 -0.1437 -1.7718 -0.0025
 7653SOL    HW234419   3.648   2.646   4.480 -1.8825 -1.1205 -1.7553
 7654SOL     OW34420   4.065   3.342  11.378 -0.5802  0.2158 -0.3068
 7654SOL    HW134421   4.034   3.252  11.381  1.1436 -0.2845  2.0867
 7654SOL    HW234422   4.145   3.327  11.427 -0.8558  0.3085  0.1741
 7655SOL     OW34423   3.919   0.525   3.167  0.2048  0.1549 -0.0839
 7655SOL    HW134424   3.843   0.528   3.109  1.4342  0.7987 -1.6630
 7655SOL    HW234425   3.897   0.605   3.214  1.6842  1.4102 -1.5154
 7656SOL     OW34426   3.787   3.701   1.791 -0.5955  0.8327 -0.2205
 7656SOL    HW134427   3.824   3.672   1.874 -1.7904 -0.7145 -0.2357
 7656SOL    HW234428   3.708   3.648   1.794 -0.3469  0.5039  0.4217
 7657SOL     OW34429   1.004   2.397   4.821  0.0307  0.4475 -0.3162
 7657SOL    HW134430   0.952   2.349   4.885 -0.4603 -0.6106 -1.5180
 7657SOL    HW234431   0.935   2.448   4.778 -0.5895  1.7044  2.1588
 7658SOL     OW34432   2.277   3.495   8.687 -0.2704 -0.4668  0.4003
 7658SOL    HW134433   2.313   3.411   8.657  1.0569 -0.0554  0.8345
 7658SOL    HW234434   2.265   3.532   8.600  0.1842  0.6058  0.7945
 7659SOL     OW34435   0.731   2.606  14.450  0.5119 -0.1352  0.0641
 7659SOL    HW134436   0.728   2.644  14.538 -1.8998 -0.1230 -0.0094
 7659SOL    HW234437   0.823   2.584  14.464 -0.2612 -1.8355  2.3701
 7660SOL     OW34438   2.749   3.849   5.540  0.2740  0.1886  0.0425
 7660SOL    HW134439   2.790   3.790   5.477  2.1614 -1.3413  2.6988
 7660SOL    HW234440   2.687   3.781   5.566  0.2974 -0.9497 -2.8936
 7661SOL     OW34441   3.352   3.843  11.024 -0.3962  0.0293  0.4373
 7661SOL    HW134442   3.288   3.843  11.095 -1.5282  1.2635 -0.5845
 7661SOL    HW234443   3.356   3.748  11.011  0.7950  0.2464 -0.7715
 7662SOL     OW34444   4.481   3.418   4.572  0.1268  0.2245  0.3690
 7662SOL    HW134445   4.450   3.480   4.506  1.1969  0.5205  0.1411
 7662SOL    HW234446   4.407   3.425   4.633 -0.5774 -0.6119 -0.3808
 7663SOL     OW34447   2.064   2.275  16.466 -0.1323 -0.4891 -0.1893
 7663SOL    HW134448   2.077   2.197  16.412 -2.6558 -0.5077 -0.7526
 7663SOL    HW234449   2.034   2.244  16.552  2.0542  0.2900  0.8652
 7664SOL     OW34450   2.959   2.760  15.283 -0.3498 -0.6429  0.1159
 7664SOL    HW134451   2.999   2.788  15.200 -1.5652  1.4292  0.2279
 7664SOL    HW234452   3.033   2.717  15.324  1.7437 -0.9083 -3.8970
 7665SOL     OW34453   1.791   3.294   7.327 -0.0814 -0.1284 -0.1358
 7665SOL    HW134454   1.783   3.292   7.422 -1.2534  0.5954 -0.2108
 7665SOL    HW234455   1.701   3.303   7.295 -0.2211  2.8573  1.1061
 7666SOL     OW34456   0.824   2.070   6.553  0.3046  0.5377  0.2032
 7666SOL    HW134457   0.740   2.110   6.573  0.5627  1.7476 -1.1138
 7666SOL    HW234458   0.861   2.122   6.481 -1.2508 -0.9467 -1.6760
 7667SOL     OW34459   1.390   2.477   7.892  0.6009  0.6666  0.2689
 7667SOL    HW134460   1.357   2.553   7.940 -0.5046 -0.1567  0.7778
 7667SOL    HW234461   1.478   2.470   7.929  0.9010  0.5488 -0.4659
 7668SOL     OW34462   3.084   1.410   5.654  0.5085 -0.5967 -0.4139
 7668SOL    HW134463   3.030   1.393   5.732 -1.2437  2.9905 -0.8280
 7668SOL    HW234464   3.154   1.468   5.685 -0.2088  1.6060 -2.9176
 7669SOL     OW34465   3.000   3.473   3.329 -0.1141  0.0599 -0.0181
 7669SOL    HW134466   3.081   3.436   3.293 -0.1278 -0.4125  0.4352
 7669SOL    HW234467   2.937   3.416   3.285  0.3031  0.4321 -1.1142
 7670SOL     OW34468   4.538   4.706  15.172 -0.2368  0.0668  0.3207
 7670SOL    HW134469   4.594   4.635  15.204  0.1923  0.1465 -0.2669
 7670SOL    HW234470   4.460   4.660  15.141 -0.0936 -1.0883  1.6257
 7671SOL     OW34471   1.200   2.919   8.634  0.3392 -0.0733 -0.2689
 7671SOL    HW134472   1.160   2.897   8.718 -0.2686  0.7601 -0.3447
 7671SOL    HW234473   1.259   2.847   8.610  2.2590  2.2283 -2.5592
 7672SOL     OW34474   1.514   4.250  17.608 -0.5599 -0.1550 -0.1499
 7672SOL    HW134475   1.544   4.341  17.601  1.9788 -1.2917 -4.2485
 7672SOL    HW234476   1.516   4.240   0.022  1.7031  0.4407 -0.1334
 7673SOL     OW34477   2.746   2.490   1.646  0.4280  0.1554  0.5560
 7673SOL    HW134478   2.726   2.557   1.581  2.1125  0.8459  0.7592
 7673SOL    HW234479   2.668   2.477   1.700  0.4158  2.8609  1.1615
 7674SOL     OW34480   0.925   2.475  11.506  0.8835 -0.0148  0.1986
 7674SOL    HW134481   0.966   2.562  11.505  0.5257  0.1439 -1.0406
 7674SOL    HW234482   0.963   2.433  11.583 -1.0777 -0.2722  1.0301
 7675SOL     OW34483   0.898   2.054   6.956  0.4082  0.0117  0.2690
 7675SOL    HW134484   0.887   2.096   7.041  0.4863  2.7414 -1.0561
 7675SOL    HW234485   0.830   2.108   6.915 -0.2990 -0.6917  0.5086
 7676SOL     OW34486   3.266   0.211   6.780 -0.1219  0.7588  1.0151
 7676SOL    HW134487   3.237   0.268   6.851  1.1803  2.7024 -0.0207
 7676SOL    HW234488   3.355   0.243   6.795  0.9452 -1.3849 -0.8137
 7677SOL     OW34489   1.401   1.370   9.241  0.3395  0.3323 -0.3861
 7677SOL    HW134490   1.414   1.357   9.147  2.9051  1.0533 -0.1385
 7677SOL    HW234491   1.484   1.408   9.270 -0.4301  2.7248 -1.3559
 7678SOL     OW34492   1.837   3.169   4.659 -0.2779  0.4983  0.5494
 7678SOL    HW134493   1.875   3.110   4.594  0.6783 -0.1711  1.6984
 7678SOL    HW234494   1.883   3.252   4.646  0.1459  0.0914 -0.5525
 7679SOL     OW34495   1.668   1.963   7.483 -0.1773 -0.2808  0.0211
 7679SOL    HW134496   1.617   1.965   7.564  0.0808 -3.0134  0.2752
 7679SOL    HW234497   1.758   1.950   7.513  0.5942  0.5089 -1.9029
 7680SOL     OW34498   4.330   4.059  15.855  0.0768  0.5828  0.2694
 7680SOL    HW134499   4.262   4.086  15.916  1.5526 -0.0468  2.2146
 7680SOL    HW234500   4.300   4.086  15.769 -0.2156 -2.0173 -0.4270
 7681SOL     OW34501   4.150   3.530  15.589 -0.4856  0.0132  0.0901
 7681SOL    HW134502   4.168   3.619  15.616  0.4282 -0.2709  0.4307
 7681SOL    HW234503   4.239   3.495  15.589 -1.5951 -2.8623 -1.3090
 7682SOL     OW34504   4.573   2.605   6.793 -0.3495  0.2835  0.3130
 7682SOL    HW134505   4.549   2.611   6.885 -1.6253  1.6151 -0.1018
 7682SOL    HW234506   4.549   2.692   6.761  1.3237  0.2477 -1.0233
 7683SOL     OW34507   3.592   0.629   3.225 -0.7207  0.6356  0.3962
 7683SOL    HW134508   3.545   0.706   3.193 -0.6975  0.8197  0.8081
 7683SOL    HW234509   3.658   0.620   3.156  0.0274 -1.2150  1.3829
 7684SOL     OW34510   4.706   1.349   6.887 -0.4014  0.4279  0.2789
 7684SOL    HW134511   0.044   1.425   6.887 -2.2061  1.8282  2.6396
 7684SOL    HW234512   0.043   1.282   6.851  0.4986 -0.1915  2.8243
 7685SOL     OW34513   2.593   2.362   5.332  0.4032  0.5134  0.0654
 7685SOL    HW134514   2.532   2.362   5.406 -0.8896  1.3991 -1.0063
 7685SOL    HW234515   2.649   2.438   5.352  0.2448  0.2191  1.6171
 7686SOL     OW34516   0.972   2.545   2.335 -0.3874 -0.5081  0.0159
 7686SOL    HW134517   0.934   2.568   2.420  2.0191  1.9224  0.4339
 7686SOL    HW234518   1.013   2.629   2.314  0.9384 -1.2566 -0.3888
 7687SOL     OW34519   3.483   0.071  12.116  0.1546 -0.4650 -0.0720
 7687SOL    HW134520   3.529   4.717  12.076  3.9483  0.7511  2.1449
 7687SOL    HW234521   3.520   0.145  12.067 -2.3039  0.0033 -1.2536
 7688SOL     OW34522   4.571   3.017  12.329  0.8294 -0.5123 -0.4506
 7688SOL    HW134523   4.575   2.947  12.395 -0.1210 -1.6933 -1.6431
 7688SOL    HW234524   4.528   2.982  12.251 -0.0031  1.0614 -0.7037
 7689SOL     OW34525   4.148   3.854   5.239 -0.4041  0.6204  0.1937
 7689SOL    HW134526   4.166   3.894   5.154 -0.6904 -1.1634 -0.6874
 7689SOL    HW234527   4.217   3.885   5.298  0.4858 -1.4284  0.2204
 7690SOL     OW34528   2.802   1.248   7.427  0.0955  0.1546 -0.3834
 7690SOL    HW134529   2.788   1.153   7.426 -0.8262  0.2948 -0.8951
 7690SOL    HW234530   2.716   1.275   7.460  0.4787 -0.2472  0.9502
 7691SOL     OW34531   2.533   1.695   5.859  0.0525 -0.8753  0.0890
 7691SOL    HW134532   2.443   1.726   5.849  0.7618  1.0830 -0.2018
 7691SOL    HW234533   2.541   1.633   5.931  0.9442 -1.4941 -0.5436
 7692SOL     OW34534   3.821   2.311   5.275  0.4886  0.2591  0.4433
 7692SOL    HW134535   3.879   2.307   5.351  0.9227 -2.3901 -0.0076
 7692SOL    HW234536   3.740   2.290   5.321  0.7492  1.4486  1.4203
 7693SOL     OW34537   1.574   4.367   6.843  0.2052  0.5235  0.3503
 7693SOL    HW134538   1.627   4.357   6.922  3.1318  0.7674 -1.6036
 7693SOL    HW234539   1.527   4.450   6.858 -2.1098 -0.7159  0.0378
 7694SOL     OW34540   4.015   0.927   8.287 -0.3398 -0.9961  0.0402
 7694SOL    HW134541   3.949   0.861   8.309 -1.3218 -0.5657 -1.6335
 7694SOL    HW234542   4.069   0.911   8.365  1.2358  0.7310 -0.7018
 7695SOL     OW34543   0.819   0.723  17.408 -0.5268  0.5449 -0.7123
 7695SOL    HW134544   0.772   0.786  17.462  2.9123  0.6452  2.1945
 7695SOL    HW234545   0.844   0.787  17.342  0.9682  0.6208 -0.0686
 7696SOL     OW34546   0.443   2.131   2.504  0.7853  0.4237  0.5117
 7696SOL    HW134547   0.366   2.078   2.524  1.5969 -1.0040 -0.1072
 7696SOL    HW234548   0.441   2.196   2.574 -0.6092 -0.2053  1.0392
 7697SOL     OW34549   1.881   3.701  10.489 -0.5365 -0.2961  0.2188
 7697SOL    HW134550   1.864   3.736  10.402  1.2567  1.5584  0.6251
 7697SOL    HW234551   1.902   3.611  10.462  1.3279  0.9678 -2.6216
 7698SOL     OW34552   2.882   2.083   0.900  0.4015  0.7713  0.0437
 7698SOL    HW134553   2.946   2.081   0.829 -0.6318 -0.2464 -0.8452
 7698SOL    HW234554   2.816   2.140   0.861 -0.7020 -0.1125  0.6407
 7699SOL     OW34555   4.716   1.636  12.518 -0.3585  0.2799  0.0356
 7699SOL    HW134556   0.052   1.623  12.441 -0.8911  0.4986 -0.3944
 7699SOL    HW234557   0.040   1.579  12.580  0.5738  0.9903  0.0376
 7700SOL     OW34558   3.198   0.299  13.299 -0.0952  0.0675  0.7097
 7700SOL    HW134559   3.143   0.344  13.364  1.7468  1.7701  1.1128
 7700SOL    HW234560   3.286   0.323  13.330  0.1251 -0.5049  0.5183
 7701SOL     OW34561   2.556   1.928   3.826  0.0004  0.6757  0.2257
 7701SOL    HW134562   2.615   1.884   3.764  0.6124  0.0240  1.2701
 7701SOL    HW234563   2.616   1.985   3.872  0.0495  0.0804  0.8927
 7702SOL     OW34564   2.193   0.465   7.304  0.7524 -0.1281 -0.5040
 7702SOL    HW134565   2.172   0.441   7.213 -0.1076  3.3406 -1.2307
 7702SOL    HW234566   2.287   0.481   7.301  0.4677  1.5500 -0.5143
 7703SOL     OW34567   4.233   1.549   8.718 -0.3262  0.0069  0.2760
 7703SOL    HW134568   4.253   1.486   8.788  0.7019 -0.9138 -0.8543
 7703SOL    HW234569   4.203   1.623   8.771  2.3670  0.8483  0.5878
 7704SOL     OW34570   0.518   2.467   4.147 -0.0126 -0.0115 -0.0896
 7704SOL    HW134571   0.457   2.394   4.145 -1.2256  1.0173 -0.5211
 7704SOL    HW234572   0.579   2.427   4.209 -1.0509 -1.3715  0.0296
 7705SOL     OW34573   4.451   3.687   7.416  0.4449  0.1748 -0.0076
 7705SOL    HW134574   4.408   3.605   7.438 -1.0145  1.2502  1.1810
 7705SOL    HW234575   4.404   3.707   7.335 -0.9472  0.1597  0.7793
 7706SOL     OW34576   3.384   1.231   8.308  0.0704  0.4215  0.2966
 7706SOL    HW134577   3.326   1.293   8.263  0.6658 -0.0913 -1.2056
 7706SOL    HW234578   3.373   1.149   8.259 -1.5259  0.0135  1.3585
 7707SOL     OW34579   2.904   3.259   1.403  0.0650  0.1714  0.5444
 7707SOL    HW134580   2.929   3.205   1.328  1.9299  0.0049  1.2826
 7707SOL    HW234581   2.906   3.350   1.371 -1.9526  0.5472  1.5117
 7708SOL     OW34582   3.128   4.192  17.491  0.7881  0.4708  0.0480
 7708SOL    HW134583   3.189   4.144  17.547  0.1145 -0.5983 -0.1168
 7708SOL    HW234584   3.052   4.146  17.528  0.9002  0.2781  0.0389
 7709SOL     OW34585   1.992   1.972  10.113 -0.0586  0.2155  0.2707
 7709SOL    HW134586   1.982   1.890  10.162  0.5907  0.3805  0.6716
 7709SOL    HW234587   2.065   2.013  10.158  0.0141 -0.6656  0.9528
 7710SOL     OW34588   3.906   0.113   1.304  0.4797 -0.4453  0.2623
 7710SOL    HW134589   3.815   0.139   1.313  0.6514  1.2247 -2.8929
 7710SOL    HW234590   3.942   0.202   1.307 -2.5245  0.7519  0.0564
 7711SOL     OW34591   4.197   0.503   7.539 -0.6919 -0.0207 -0.1668
 7711SOL    HW134592   4.136   0.553   7.484 -0.1424  3.1872  2.1670
 7711SOL    HW234593   4.241   0.455   7.469  0.7057  2.5148 -0.9966
 7712SOL     OW34594   4.402   0.792   9.126 -0.3101 -0.0499  0.2309
 7712SOL    HW134595   4.384   0.704   9.158  0.8099 -1.2727 -2.5411
 7712SOL    HW234596   4.429   0.835   9.207 -0.3412 -1.2325  0.8633
 7713SOL     OW34597   1.515   3.921   5.154  0.1750  0.0652  0.0504
 7713SOL    HW134598   1.531   3.849   5.214  0.7625 -0.6560 -0.9675
 7713SOL    HW234599   1.508   3.875   5.070  1.5373 -1.7687  0.9562
 7714SOL     OW34600   3.952   2.578   5.084  0.0164  0.6069 -0.3382
 7714SOL    HW134601   3.863   2.610   5.099  0.3118  1.2895 -0.0751
 7714SOL    HW234602   4.008   2.623   5.146 -0.6594  0.5584  0.3073
 7715SOL     OW34603   4.382   0.042   9.621  0.6347 -0.4953  0.5924
 7715SOL    HW134604   4.330   4.681   9.618 -1.5495  0.9341  0.6413
 7715SOL    HW234605   4.463   0.011   9.580  0.5338  0.7783 -0.5689
 7716SOL     OW34606   1.132   0.501   9.383 -0.1834 -0.2151  0.6339
 7716SOL    HW134607   1.060   0.563   9.394 -0.0285 -0.0921  0.9458
 7716SOL    HW234608   1.194   0.559   9.339 -0.0254 -0.4426  0.5582
 7717SOL     OW34609   1.574   2.505   9.826 -0.0587 -0.3120 -0.2596
 7717SOL    HW134610   1.540   2.477   9.911 -1.5210 -0.7682 -0.9984
 7717SOL    HW234611   1.510   2.460   9.771 -0.4948  1.5247 -1.2435
 7718SOL     OW34612   2.322   4.531   6.547  0.3094 -0.0206 -0.1155
 7718SOL    HW134613   2.358   4.608   6.504  1.6791  0.2689  1.5462
 7718SOL    HW234614   2.246   4.555   6.601  0.5917 -0.2398  0.3759
 7719SOL     OW34615   2.696   3.593   6.682 -0.8118 -0.4016  0.1829
 7719SOL    HW134616   2.635   3.536   6.635  0.9568 -1.5086 -0.8036
 7719SOL    HW234617   2.773   3.546   6.649 -1.1218 -1.5236  1.0698
 7720SOL     OW34618   3.682   1.868   4.774  0.2168 -0.0047 -0.3581
 7720SOL    HW134619   3.687   1.811   4.851  0.0464  0.3649 -0.0754
 7720SOL    HW234620   3.612   1.927   4.801 -0.9687 -1.5111 -0.1528
 7721SOL     OW34621   0.347   1.777   6.452  0.0289  0.1623  0.0665
 7721SOL    HW134622   0.392   1.738   6.376 -0.4699  0.5027 -0.4077
 7721SOL    HW234623   0.295   1.700   6.473  0.2102  0.2484  0.8286
 7722SOL     OW34624   4.335   0.745   2.853 -0.4637  0.4378  0.1735
 7722SOL    HW134625   4.401   0.720   2.917  1.2467 -0.5158 -1.9628
 7722SOL    HW234626   4.276   0.669   2.853  1.2360 -0.8630  3.9240
 7723SOL     OW34627   0.462   3.784   5.178  0.5967  0.3019  0.3237
 7723SOL    HW134628   0.412   3.789   5.260 -0.7350  1.2984 -0.5334
 7723SOL    HW234629   0.510   3.867   5.184 -0.6425  1.2099 -2.0784
 7724SOL     OW34630   1.936   2.840   6.054 -0.6362  0.5233 -0.4838
 7724SOL    HW134631   1.940   2.797   5.969 -1.5641  0.1862 -0.3657
 7724SOL    HW234632   2.023   2.879   6.057 -0.4659 -0.1027  3.7664
 7725SOL     OW34633   0.240   0.817   7.661 -0.0199 -0.2809  0.3557
 7725SOL    HW134634   0.254   0.764   7.583 -1.3708 -0.1850  0.0511
 7725SOL    HW234635   0.154   0.857   7.651  0.0169 -0.2325  0.2376
 7726SOL     OW34636   3.470   3.147   8.871 -0.3706 -0.2736  0.2744
 7726SOL    HW134637   3.415   3.147   8.949 -1.0823  0.9130 -0.2228
 7726SOL    HW234638   3.502   3.237   8.877  0.3842 -0.6370  1.7580
 7727SOL     OW34639   3.737   2.894  12.790  0.5240  0.8448 -0.4151
 7727SOL    HW134640   3.683   2.893  12.869  0.4026  2.2662 -0.4812
 7727SOL    HW234641   3.710   2.975  12.747 -0.0282  1.3124  0.8192
 7728SOL     OW34642   0.285   1.657   4.992 -0.2262 -0.2228 -0.2908
 7728SOL    HW134643   0.350   1.597   5.028 -0.5747 -0.2743  0.2493
 7728SOL    HW234644   0.288   1.729   5.055 -2.1781  0.5636 -1.0964
 7729SOL     OW34645   0.633   0.986   7.091  0.4436 -0.7796  0.0791
 7729SOL    HW134646   0.710   0.931   7.081  2.0640  1.2661  1.3323
 7729SOL    HW234647   0.621   1.023   7.004 -0.3554 -1.8154 -0.2497
 7730SOL     OW34648   1.872   3.514   1.281  0.2787 -0.4247 -0.0476
 7730SOL    HW134649   1.816   3.524   1.204  1.8179  0.6529 -1.0177
 7730SOL    HW234650   1.939   3.579   1.262 -0.2783 -0.0800 -0.8274
 7731SOL     OW34651   3.223   4.694   2.419 -0.1508  0.5279  0.0764
 7731SOL    HW134652   3.316   4.717   2.427  0.1884 -0.9057  0.3097
 7731SOL    HW234653   3.190   0.063   2.406 -0.3873  0.4764  0.3247
 7732SOL     OW34654   1.711   1.238   2.354 -0.0496  0.0452  0.4872
 7732SOL    HW134655   1.717   1.165   2.291  0.0813  0.6781 -0.2342
 7732SOL    HW234656   1.652   1.306   2.323 -0.9058 -0.5051  0.8966
 7733SOL     OW34657   1.688   0.021   8.776  0.4500  0.1387 -0.2380
 7733SOL    HW134658   1.626   0.091   8.754 -1.1723 -1.6595 -1.3921
 7733SOL    HW234659   1.699   4.691   8.695  1.6891 -1.4314  0.8832
 7734SOL     OW34660   4.157   2.318   7.528 -0.0893  0.2673  0.0321
 7734SOL    HW134661   4.227   2.378   7.555 -0.4116  0.7624 -0.2467
 7734SOL    HW234662   4.193   2.237   7.565 -1.4003  0.1312  1.0092
 7735SOL     OW34663   2.955   4.699  11.921 -0.1969  0.5350  1.2151
 7735SOL    HW134664   2.959   0.065  11.878  0.2716  0.2551  0.6956
 7735SOL    HW234665   2.890   4.716  11.988 -0.4822 -1.2956  1.4144
 7736SOL     OW34666   0.389   4.351   5.720 -0.1089  0.1498 -0.8239
 7736SOL    HW134667   0.347   4.363   5.805  0.7115 -1.3544 -0.2104
 7736SOL    HW234668   0.436   4.268   5.722 -1.0987 -0.4277 -1.3726
 7737SOL     OW34669   2.775   0.278  11.469 -0.4167 -0.0091  0.7455
 7737SOL    HW134670   2.715   0.321  11.408 -1.6449 -1.8111  0.6850
 7737SOL    HW234671   2.842   0.345  11.483 -0.1665 -0.0155 -0.4017
 7738SOL     OW34672   3.240   4.074   2.421 -0.3502  0.3138 -1.0795
 7738SOL    HW134673   3.310   4.022   2.383 -0.5740 -0.4051 -0.4894
 7738SOL    HW234674   3.195   4.003   2.465  0.1457  0.8978  0.3510
 7739SOL     OW34675   0.062   1.786  12.761 -0.2816 -0.7166  0.6124
 7739SOL    HW134676   0.041   1.774  12.668 -0.1974  2.9047  0.1499
 7739SOL    HW234677   0.150   1.821  12.754 -1.0659  1.1144 -0.2015
 7740SOL     OW34678   2.469   1.984  13.883  0.4796 -0.3857  0.1415
 7740SOL    HW134679   2.386   1.938  13.893 -0.6610  1.5848 -0.3955
 7740SOL    HW234680   2.488   1.979  13.790  1.8074  2.3994  0.2753
 7741SOL     OW34681   0.161   3.999   5.565 -0.2522 -0.0492  0.0468
 7741SOL    HW134682   0.158   4.086   5.523 -0.0370 -0.5383 -0.9825
 7741SOL    HW234683   0.068   3.977   5.566  0.2040 -2.0667 -1.0505
 7742SOL     OW34684   0.499   0.614  17.144 -0.3691  0.2938  0.2271
 7742SOL    HW134685   0.479   0.523  17.121 -2.0009  0.4063  1.1590
 7742SOL    HW234686   0.573   0.635  17.088 -0.9044  0.5261 -0.3999
 7743SOL     OW34687   0.116   2.245   3.294 -0.1640 -0.2922 -0.5138
 7743SOL    HW134688   0.151   2.330   3.319 -2.4135  0.6488 -0.6150
 7743SOL    HW234689   0.178   2.189   3.341 -0.7529  0.2748  0.9487
 7744SOL     OW34690   0.133   0.025  12.466 -0.6373 -0.0244 -0.1305
 7744SOL    HW134691   0.132   0.112  12.425 -0.4822 -0.1109 -0.3172
 7744SOL    HW234692   0.203   0.039  12.530 -0.5331  1.3894 -0.5662
 7745SOL     OW34693   0.133   4.665   2.954  0.5163 -0.2677 -0.6487
 7745SOL    HW134694   0.123   4.680   2.860 -2.0699  0.7868 -0.2134
 7745SOL    HW234695   0.126   0.032   2.994  1.4137 -0.6304  0.2759
 7746SOL     OW34696   4.309   2.454   3.796  0.2155 -0.2623 -1.2057
 7746SOL    HW134697   4.237   2.512   3.819  1.4438 -0.3503  2.8444
 7746SOL    HW234698   4.343   2.486   3.712 -1.3121  3.9795 -0.2062
 7747SOL     OW34699   0.390   2.800   1.657 -0.1047 -0.1035 -0.2274
 7747SOL    HW134700   0.403   2.895   1.651 -0.3154 -0.0435  0.2553
 7747SOL    HW234701   0.303   2.789   1.619 -0.1723  0.4264 -0.2192
 7748SOL     OW34702   1.906   2.746   4.440  0.2054  0.2547 -0.1188
 7748SOL    HW134703   1.845   2.730   4.367  1.4571  0.1361 -1.1305
 7748SOL    HW234704   1.973   2.679   4.427  0.5796  0.3798  1.1681
 7749SOL     OW34705   4.661   0.615   7.048 -0.0891 -0.5769  0.4790
 7749SOL    HW134706   0.002   0.555   7.005  1.9820  1.4243  0.6187
 7749SOL    HW234707   4.627   0.555   7.114  1.5175  0.0014  1.8443
 7750SOL     OW34708   2.659   2.276   7.692  0.4652 -0.1842 -0.4283
 7750SOL    HW134709   2.666   2.205   7.756  2.3065 -1.7803 -2.4080
 7750SOL    HW234710   2.572   2.260   7.655 -0.5977  2.0777  1.0533
 7751SOL     OW34711   4.022   4.385   8.637  0.3821  0.6195 -0.2326
 7751SOL    HW134712   3.999   4.323   8.567 -0.8591  0.2520  0.5075
 7751SOL    HW234713   4.099   4.337   8.668 -0.9292 -0.3031  1.6483
 7752SOL     OW34714   3.699   2.967  15.862 -0.0570  0.2438  0.1465
 7752SOL    HW134715   3.778   3.022  15.862  0.9757 -1.2380  0.6018
 7752SOL    HW234716   3.736   2.881  15.882  1.7559  1.1116  0.4856
 7753SOL     OW34717   3.308   0.993   7.906 -0.2359 -0.4643  0.8932
 7753SOL    HW134718   3.341   0.906   7.929 -1.5944 -1.3821 -0.6166
 7753SOL    HW234719   3.315   0.989   7.811  3.2920 -2.4147  1.2690
 7754SOL     OW34720   1.146   4.554   8.781  0.2005 -0.1834  0.0974
 7754SOL    HW134721   1.225   4.562   8.727  0.0064 -1.6034 -0.3953
 7754SOL    HW234722   1.128   4.642   8.815 -0.1762  0.4892 -1.8388
 7755SOL     OW34723   2.393   1.495   9.121 -0.5418 -0.2980 -0.2839
 7755SOL    HW134724   2.354   1.414   9.152 -2.5574  1.0325  0.6753
 7755SOL    HW234725   2.427   1.472   9.034 -0.0751  0.9099 -0.4204
 7756SOL     OW34726   0.130   0.132   9.195  0.6214  0.5103 -0.3434
 7756SOL    HW134727   0.151   0.215   9.153 -0.2889  0.7931 -0.2241
 7756SOL    HW234728   0.175   0.077   9.130  0.5548 -2.7544  2.4018
 7757SOL     OW34729   3.932   1.834   1.664  0.2332 -0.0151  0.4531
 7757SOL    HW134730   3.994   1.789   1.720  0.4642 -3.0683 -2.3088
 7757SOL    HW234731   3.861   1.860   1.723  1.5839 -0.4030  2.2347
 7758SOL     OW34732   4.191   3.768   0.009  0.6642 -0.2901 -0.0579
 7758SOL    HW134733   4.264   3.729   0.057  1.5507  2.1926  0.5739
 7758SOL    HW234734   4.195   3.855   0.047 -0.9868 -0.3917  0.3240
 7759SOL     OW34735   4.639   1.479   2.085  0.4647 -0.5071  0.5625
 7759SOL    HW134736   4.638   1.387   2.058 -1.8376 -0.4550  0.4103
 7759SOL    HW234737   4.573   1.517   2.026  1.5036 -0.1626 -0.3677
 7760SOL     OW34738   2.936   2.394   2.770 -0.1112 -0.2445  0.1593
 7760SOL    HW134739   2.991   2.358   2.840 -0.7757  2.3783  2.0340
 7760SOL    HW234740   2.951   2.488   2.778 -0.5922  0.0321 -2.2619
 7761SOL     OW34741   2.055   3.529   3.786  0.0570  0.3062 -0.2123
 7761SOL    HW134742   2.150   3.517   3.783  0.1980  1.6404 -1.1530
 7761SOL    HW234743   2.016   3.442   3.782  1.9141 -0.5504  0.3520
 7762SOL     OW34744   1.501   0.945   2.258  0.1221 -0.3906  0.1124
 7762SOL    HW134745   1.425   0.889   2.275 -0.1585 -0.7261 -2.2002
 7762SOL    HW234746   1.509   0.984   2.345  3.9967 -0.7001 -0.1049
 7763SOL     OW34747   2.332   2.560   2.180 -0.4681  0.0908  0.2180
 7763SOL    HW134748   2.383   2.482   2.155  0.6495  0.9573 -0.2077
 7763SOL    HW234749   2.322   2.536   2.272 -1.1327  0.1509  0.1581
 7764SOL     OW34750   0.437   2.182   4.433  0.8271  0.3335  0.4599
 7764SOL    HW134751   0.413   2.216   4.347  1.2448  0.0145  0.2172
 7764SOL    HW234752   0.493   2.107   4.413 -0.0013 -0.0506 -0.4231
 7765SOL     OW34753   3.856   0.786   4.817 -0.8440  0.2184 -0.1038
 7765SOL    HW134754   3.805   0.709   4.843 -1.0187  1.1516  2.3526
 7765SOL    HW234755   3.882   0.802   4.908  0.3348  1.5954 -0.6862
 7766SOL     OW34756   4.286   4.601   1.068 -0.7896 -0.5483  0.0792
 7766SOL    HW134757   4.197   4.634   1.074 -0.4211  0.7801 -1.5015
 7766SOL    HW234758   4.311   4.662   0.998  0.2128 -0.7547  0.2547
 7767SOL     OW34759   1.214   1.241   2.978  0.5942 -0.4573  0.2176
 7767SOL    HW134760   1.142   1.179   2.969  1.0170 -1.2390  2.2514
 7767SOL    HW234761   1.288   1.184   2.957  0.1593 -1.1475  0.5429
 7768SOL     OW34762   1.018   3.838   2.579 -0.0714 -0.4470 -0.0807
 7768SOL    HW134763   1.064   3.914   2.545  1.2727 -0.3916  1.8399
 7768SOL    HW234764   0.927   3.863   2.566 -0.4136 -1.5078  0.2805
 7769SOL     OW34765   0.060   2.580   8.570 -0.4228  0.5601  0.3886
 7769SOL    HW134766   0.105   2.658   8.537 -1.6400  0.8879 -0.5013
 7769SOL    HW234767   0.119   2.516   8.531  0.3765  1.6332 -0.1789
 7770SOL     OW34768   4.115   0.542  15.786 -0.2201  0.1731 -0.3959
 7770SOL    HW134769   4.170   0.467  15.812 -1.1443  0.0045  1.0416
 7770SOL    HW234770   4.169   0.565  15.710 -2.0044  0.1358 -1.6503
 7771SOL     OW34771   0.020   1.551   5.371 -0.4584 -0.4492  0.2041
 7771SOL    HW134772   0.076   1.529   5.446  2.0652  0.1022 -1.5036
 7771SOL    HW234773   0.034   1.646   5.361  0.1175 -0.4990  0.5299
 7772SOL     OW34774   4.262   0.691   5.978  0.0215 -0.7035  0.4460
 7772SOL    HW134775   4.309   0.749   6.038 -2.5726  1.7426  0.0945
 7772SOL    HW234776   4.329   0.625   5.961 -1.7002 -1.6497 -2.5889
 7773SOL     OW34777   0.881   0.352   7.780 -0.2035  0.4879  0.0059
 7773SOL    HW134778   0.918   0.349   7.692 -0.3201 -1.9210  0.0267
 7773SOL    HW234779   0.794   0.316   7.762 -0.4708  0.2218  1.8249
 7774SOL     OW34780   4.589   3.968   5.008  0.1896  0.2473  0.0771
 7774SOL    HW134781   4.540   3.890   4.983 -1.4534  0.6268  2.0987
 7774SOL    HW234782   4.524   4.028   5.044 -1.2060 -0.3518 -1.4345
 7775SOL     OW34783   0.920   1.760   7.436  0.0622  0.3642  0.0161
 7775SOL    HW134784   0.996   1.806   7.469  0.1550  1.1409 -1.2876
 7775SOL    HW234785   0.957   1.678   7.402  0.9278 -0.2991  2.5718
 7776SOL     OW34786   3.047   3.082   7.946 -0.1965  0.6821 -0.3599
 7776SOL    HW134787   3.100   3.156   7.976  2.4042 -1.3126 -0.0303
 7776SOL    HW234788   2.963   3.127   7.937 -0.8690 -0.4091  0.3917
 7777SOL     OW34789   2.389   0.825  17.073 -0.1354 -0.8146  0.0869
 7777SOL    HW134790   2.406   0.795  17.162  0.8365  2.2891  0.9261
 7777SOL    HW234791   2.432   0.910  17.076 -0.9343 -0.3769 -0.7668
 7778SOL     OW34792   4.584   0.017   3.168 -0.7366 -0.5212  0.8075
 7778SOL    HW134793   4.600   4.663   3.227 -1.6709 -2.3450 -1.2639
 7778SOL    HW234794   4.519   4.699   3.109  0.4296 -0.7507 -0.3120
 7779SOL     OW34795   3.937   3.662  14.542 -0.0854 -0.1577 -0.2083
 7779SOL    HW134796   3.862   3.658  14.602  1.5095  0.9134  1.8768
 7779SOL    HW234797   3.929   3.756  14.527  2.0485 -0.1345 -1.2025
 7780SOL     OW34798   0.354   3.428   6.703 -0.1460 -0.0510 -0.2109
 7780SOL    HW134799   0.382   3.368   6.634 -0.0143  2.1627 -2.0521
 7780SOL    HW234800   0.262   3.424   6.677  0.2732 -1.2300 -1.4865
 7781SOL     OW34801   0.997   1.622   7.811  0.2096 -0.5020  0.6030
 7781SOL    HW134802   0.971   1.681   7.740  1.1762 -1.8028 -0.8309
 7781SOL    HW234803   0.925   1.641   7.870 -1.0006 -0.5372 -0.8443
 7782SOL     OW34804   2.182   0.736   3.528 -0.2630 -0.0668  0.2592
 7782SOL    HW134805   2.103   0.685   3.543 -0.7701  0.4214 -0.8069
 7782SOL    HW234806   2.176   0.759   3.436  4.4298  0.5962  0.1225
 7783SOL     OW34807   0.514   1.035   4.773 -0.1904 -0.0575 -0.2595
 7783SOL    HW134808   0.509   1.069   4.862  1.8418 -0.7901  0.1549
 7783SOL    HW234809   0.589   1.083   4.737  0.1152  0.5906  1.2388
 7784SOL     OW34810   1.541   2.597   1.014 -0.3718 -0.1175 -0.2832
 7784SOL    HW134811   1.502   2.636   0.936  0.1614  0.1261 -0.4347
 7784SOL    HW234812   1.506   2.508   1.013 -1.0611  0.2136 -5.4431
 7785SOL     OW34813   3.693   4.521   5.749  0.0819 -0.5166  0.2444
 7785SOL    HW134814   3.725   4.543   5.662  2.4179 -0.5431  1.0688
 7785SOL    HW234815   3.746   4.581   5.802  3.1921 -0.5867 -2.7720
 7786SOL     OW34816   3.000   2.373   3.616 -0.5825 -0.0944 -0.6114
 7786SOL    HW134817   2.932   2.427   3.575 -0.7360  1.3188  1.5265
 7786SOL    HW234818   3.042   2.337   3.538 -0.1001 -1.9275  0.5075
 7787SOL     OW34819   1.856   0.257   5.190 -0.3624  0.6869 -0.4178
 7787SOL    HW134820   1.826   0.305   5.113 -0.9226 -0.4286 -0.8956
 7787SOL    HW234821   1.784   0.277   5.251 -1.0529 -0.9120 -0.7143
 7788SOL     OW34822   1.039   2.801  13.240  0.5569  0.2386  0.3856
 7788SOL    HW134823   1.093   2.809  13.318  0.6008 -2.1337  0.6011
 7788SOL    HW234824   1.053   2.887  13.200 -1.7097 -0.2058 -1.4117
 7789SOL     OW34825   2.489   1.746   5.570  0.3783 -0.5886  0.2032
 7789SOL    HW134826   2.464   1.832   5.605  0.0746 -0.7662  0.4215
 7789SOL    HW234827   2.532   1.706   5.646  2.2220 -0.1919 -0.6435
 7790SOL     OW34828   4.701   4.533   5.467  0.4825  0.4720 -0.0510
 7790SOL    HW134829   4.653   4.573   5.539  0.8917 -2.6294  1.9599
 7790SOL    HW234830   0.067   4.550   5.507  0.5916  1.9067 -0.8962
 7791SOL     OW34831   2.610   0.986   6.429  0.0416  0.0416  0.0134
 7791SOL    HW134832   2.543   0.933   6.474  1.1597 -2.0212 -0.7280
 7791SOL    HW234833   2.685   0.939   6.467  0.4171  0.1698 -0.5634
 7792SOL     OW34834   2.082   4.230   2.203  0.0757 -0.2486  0.0558
 7792SOL    HW134835   2.092   4.171   2.128 -1.5489 -0.8769  0.3301
 7792SOL    HW234836   2.169   4.265   2.224  0.0925  0.8128 -1.7660
 7793SOL     OW34837   3.781   0.911   0.744 -0.3046 -0.1393  0.1620
 7793SOL    HW134838   3.790   0.816   0.738  1.2782 -0.0091  0.6752
 7793SOL    HW234839   3.695   0.921   0.702 -0.2496  2.6352  0.7312
 7794SOL     OW34840   1.232   4.503  13.985  0.0891 -0.0828 -0.0274
 7794SOL    HW134841   1.310   4.519  14.038 -0.0844 -1.0894  0.5262
 7794SOL    HW234842   1.206   4.593  13.966 -0.6701 -0.1954  0.4816
 7795SOL     OW34843   0.400   2.522   4.415  0.0948 -0.5054 -0.0500
 7795SOL    HW134844   0.358   2.595   4.370 -0.0824  0.7008  2.0826
 7795SOL    HW234845   0.342   2.510   4.490  0.7162  1.4664  0.7568
 7796SOL     OW34846   2.810   0.570  12.048 -0.3736  0.1892  0.0838
 7796SOL    HW134847   2.807   0.607  12.137  0.0952 -0.8327  0.5229
 7796SOL    HW234848   2.900   0.591  12.024 -0.2888  1.3295  1.3832
 7797SOL     OW34849   3.101   1.250  17.564 -0.0003 -0.4839  0.1848
 7797SOL    HW134850   3.173   1.232  17.625  0.4201  0.4197 -0.0384
 7797SOL    HW234851   3.021   1.257  17.617  0.9403 -0.5555  1.6276
 7798SOL     OW34852   3.379   1.928   4.683  0.4016  0.2794  0.2797
 7798SOL    HW134853   3.330   2.007   4.663 -0.1166 -0.1406 -0.1224
 7798SOL    HW234854   3.383   1.931   4.778  2.9975  1.7959  0.1200
 7799SOL     OW34855   4.493   1.087   4.905  0.4584 -0.0558  1.4526
 7799SOL    HW134856   4.542   1.005   4.906  2.0081  0.8206 -1.7545
 7799SOL    HW234857   4.407   1.053   4.929 -0.0221 -1.8011 -2.7467
 7800SOL     OW34858   2.263   1.219  13.329  0.2434  0.2956  0.6437
 7800SOL    HW134859   2.232   1.309  13.319 -2.4238 -0.7888 -1.1954
 7800SOL    HW234860   2.194   1.172  13.281  0.4275 -0.5054  1.1576
 7801SOL     OW34861   3.716   0.503   8.966 -0.0340 -0.2210  0.0247
 7801SOL    HW134862   3.746   0.470   9.050  0.3391  1.4975  0.5625
 7801SOL    HW234863   3.795   0.548   8.936  1.4955 -3.6122 -1.0055
 7802SOL     OW34864   1.241   3.621   8.279  0.4297  0.0791 -0.0440
 7802SOL    HW134865   1.213   3.568   8.354  0.5270  1.4178  0.9301
 7802SOL    HW234866   1.201   3.705   8.301  0.4617  0.1160 -0.1282
 7803SOL     OW34867   1.149   1.269   6.526  0.0063 -0.3092 -0.3340
 7803SOL    HW134868   1.100   1.343   6.563 -1.5647 -1.4164 -0.1836
 7803SOL    HW234869   1.120   1.253   6.436 -0.9503  0.9861 -0.2643
 7804SOL     OW34870   3.210   0.633   2.187  0.2705 -0.3361  0.4653
 7804SOL    HW134871   3.222   0.724   2.215  0.7233 -0.6166  1.1708
 7804SOL    HW234872   3.302   0.609   2.187  0.3171 -0.1549  0.6654
 7805SOL     OW34873   3.411   2.049   5.089  0.2607  0.5082 -0.1987
 7805SOL    HW134874   3.468   2.119   5.118 -0.4323  1.1965 -0.5102
 7805SOL    HW234875   3.390   2.070   4.998  2.0700  1.8742 -0.2932
 7806SOL     OW34876   1.816   1.139   5.451 -0.4056  0.0280  0.0623
 7806SOL    HW134877   1.759   1.184   5.389 -0.9428  0.8829  1.1767
 7806SOL    HW234878   1.779   1.173   5.533  2.0047 -1.4981  1.7907
 7807SOL     OW34879   3.724   3.485  11.578  0.0550  0.3361 -0.8864
 7807SOL    HW134880   3.693   3.557  11.522  1.8355  1.9171  0.1779
 7807SOL    HW234881   3.687   3.511  11.663  0.7103  1.9871 -1.1056
 7808SOL     OW34882   1.307   2.990   5.953 -0.1954 -0.5074  0.3880
 7808SOL    HW134883   1.296   2.994   5.858 -0.0934 -0.8632  0.3605
 7808SOL    HW234884   1.243   3.050   5.990 -1.3100  0.1298 -2.6043
 7809SOL     OW34885   3.047   0.853   8.867 -0.3080 -0.0121  0.6945
 7809SOL    HW134886   3.036   0.884   8.957  1.7898  0.4732  0.7784
 7809SOL    HW234887   3.133   0.812   8.881 -1.0642 -1.1546  1.9726
 7810SOL     OW34888   4.502   3.047   2.492  0.4950  0.1760 -0.2348
 7810SOL    HW134889   4.592   3.036   2.525  0.1365 -0.4936  0.5321
 7810SOL    HW234890   4.488   2.953   2.487 -2.1557  0.7124 -2.6292
 7811SOL     OW34891   3.898   4.619   9.057  0.2598 -0.8634  0.0705
 7811SOL    HW134892   3.859   4.703   9.034  2.2215 -0.3532 -1.3345
 7811SOL    HW234893   3.906   4.583   8.969  1.9808  1.0413 -0.5521
 7812SOL     OW34894   0.408   2.274   9.926  0.1196  0.4009  0.8018
 7812SOL    HW134895   0.333   2.230   9.966 -0.5612 -1.2026 -2.1798
 7812SOL    HW234896   0.474   2.205   9.923 -0.2292  0.1041 -0.2947
 7813SOL     OW34897   3.663   3.978   4.815 -0.4916 -0.5341  0.5457
 7813SOL    HW134898   3.579   4.008   4.782  1.1660  0.9122 -2.4135
 7813SOL    HW234899   3.647   3.997   4.907 -1.5687 -1.4532  0.5570
 7814SOL     OW34900   3.369   2.874  13.731 -0.6146 -0.3207 -0.1624
 7814SOL    HW134901   3.349   2.832  13.815 -0.3299 -0.0318  0.0493
 7814SOL    HW234902   3.458   2.905  13.745 -0.4259 -1.0670  0.2779
 7815SOL     OW34903   2.224   4.394   4.714 -0.0017 -0.1043 -0.2739
 7815SOL    HW134904   2.180   4.478   4.699  2.3576  1.1567  0.0042
 7815SOL    HW234905   2.152   4.352   4.762  0.2958 -2.2855 -1.7260
 7816SOL     OW34906   0.309   4.667   7.514  0.5105 -0.4325 -0.3632
 7816SOL    HW134907   0.248   4.689   7.583  0.5876 -0.7115 -0.2088
 7816SOL    HW234908   0.356   0.030   7.508  1.0300 -0.6660  0.4913
 7817SOL     OW34909   1.720   0.122   0.103 -0.0924 -0.4584  0.4187
 7817SOL    HW134910   1.633   0.156   0.080  0.2446 -0.5805 -0.9782
 7817SOL    HW234911   1.748   0.081   0.022  1.5109 -0.9207  1.2029
 7818SOL     OW34912   2.886   1.328   3.932  0.1821 -0.0911 -0.4113
 7818SOL    HW134913   2.806   1.331   3.879 -0.5593 -1.4950  0.6228
 7818SOL    HW234914   2.941   1.389   3.883 -2.1049  1.0965 -1.4955
 7819SOL     OW34915   2.509   0.848   5.288  0.1340 -0.4682  0.6707
 7819SOL    HW134916   2.543   0.778   5.233  0.3623  1.4154 -1.5516
 7819SOL    HW234917   2.567   0.838   5.363 -1.3449  0.2290  1.9199
 7820SOL     OW34918   4.112   2.323   6.914 -0.4607 -0.2711  0.1046
 7820SOL    HW134919   4.049   2.383   6.873 -0.9337 -1.7964 -1.3799
 7820SOL    HW234920   4.052   2.260   6.954 -0.3000 -0.3349  0.2437
 7821SOL     OW34921   0.539   2.377   2.924  0.0433 -0.7190 -0.3825
 7821SOL    HW134922   0.526   2.381   2.830  0.1437  1.3656 -0.2910
 7821SOL    HW234923   0.616   2.434   2.928 -3.1878  3.6208 -0.3978
 7822SOL     OW34924   4.049   3.572  16.296  0.4970  0.2022 -0.1368
 7822SOL    HW134925   4.115   3.511  16.328 -1.6102 -1.6010  0.7924
 7822SOL    HW234926   4.012   3.599  16.380 -1.5726 -1.8433 -0.3770
 7823SOL     OW34927   1.980   1.551   6.143 -0.2226  0.0846  0.2307
 7823SOL    HW134928   1.912   1.506   6.193  0.0838 -0.4003  0.2122
 7823SOL    HW234929   1.938   1.630   6.109  0.4766  1.0512  1.6175
 7824SOL     OW34930   4.034   2.765   4.088  0.6311  0.1880  0.0129
 7824SOL    HW134931   4.046   2.750   3.994 -1.6881 -1.1065 -0.0630
 7824SOL    HW234932   4.058   2.858   4.086  0.4842  0.2579  2.0410
 7825SOL     OW34933   1.928   1.958   8.695  0.5907  0.3448  0.5130
 7825SOL    HW134934   1.839   1.986   8.675  1.2478  1.7107 -0.5313
 7825SOL    HW234935   1.920   1.864   8.711  1.1251  0.2359  0.1687
 7826SOL     OW34936   0.007   2.300   1.817 -0.1117  0.1226 -0.1768
 7826SOL    HW134937   0.097   2.271   1.806  0.3524  0.0810  3.6575
 7826SOL    HW234938   0.005   2.347   1.900  4.4148  0.0844 -0.0311
 7827SOL     OW34939   2.670   4.129   9.392 -0.1086 -0.3740 -0.6632
 7827SOL    HW134940   2.734   4.195   9.415  1.4969 -1.9227 -0.6678
 7827SOL    HW234941   2.600   4.155   9.452 -1.3086  0.2899 -2.3409
 7828SOL     OW34942   3.791   1.262   3.070  0.1673  0.6745 -0.3952
 7828SOL    HW134943   3.848   1.296   3.139  1.1008 -0.6330 -0.5273
 7828SOL    HW234944   3.736   1.196   3.112 -0.9144  1.1753 -1.0211
 7829SOL     OW34945   1.151   4.474   5.050  0.6989  0.4007  0.4410
 7829SOL    HW134946   1.117   4.529   5.121  3.5139 -0.9807  2.8182
 7829SOL    HW234947   1.217   4.428   5.101  0.3077 -0.3736  0.2533
 7830SOL     OW34948   3.488   0.786  14.815  0.5239  0.4318  0.1808
 7830SOL    HW134949   3.581   0.775  14.834  0.3507 -2.8584 -0.9204
 7830SOL    HW234950   3.495   0.807  14.722  1.1912  0.6559  0.2853
 7831SOL     OW34951   2.043   1.231  15.011 -0.1330 -0.3569  0.0368
 7831SOL    HW134952   2.101   1.232  14.935  0.2159 -0.3329  0.3054
 7831SOL    HW234953   2.010   1.321  15.000  0.5551 -0.0946  0.1365
 7832SOL     OW34954   4.626   3.462  15.795 -0.7648  0.4747  0.6054
 7832SOL    HW134955   4.542   3.507  15.787 -0.5853  0.2962 -2.5593
 7832SOL    HW234956   4.613   3.426  15.882  0.3962 -0.3841  0.4232
 7833SOL     OW34957   0.802   0.903   8.478 -0.7096  0.6205 -0.0152
 7833SOL    HW134958   0.824   0.934   8.390 -0.2310  0.2877 -0.0140
 7833SOL    HW234959   0.872   0.838   8.486 -0.6233  0.3600 -3.0041
 7834SOL     OW34960   2.085   4.240   3.973 -0.5645  0.1457  0.0501
 7834SOL    HW134961   2.139   4.284   3.907 -1.3260 -0.7836 -1.1895
 7834SOL    HW234962   2.017   4.191   3.927 -0.2171 -2.0167  1.8569
 7835SOL     OW34963   1.230   1.838   0.290 -0.3977  0.4146 -0.1630
 7835SOL    HW134964   1.188   1.832   0.376  2.7766  0.0767  1.3652
 7835SOL    HW234965   1.196   1.921   0.257  1.3999  0.9160 -0.7326
 7836SOL     OW34966   4.204   2.088   8.893 -0.8711 -0.0159 -0.3756
 7836SOL    HW134967   4.168   2.115   8.977 -0.8612 -0.8467 -0.0971
 7836SOL    HW234968   4.299   2.082   8.904 -0.7217  0.6125 -1.4003
 7837SOL     OW34969   3.749   1.141   4.347  0.3778  0.2077 -0.6036
 7837SOL    HW134970   3.822   1.158   4.406  0.2952  0.7071 -0.6498
 7837SOL    HW234971   3.726   1.226   4.310 -0.4164 -0.1301 -0.8828
 7838SOL     OW34972   0.270   3.625   7.769 -0.5175  0.4916  0.3918
 7838SOL    HW134973   0.352   3.672   7.753  0.6506 -2.2897 -1.7423
 7838SOL    HW234974   0.299   3.549   7.819  0.3889  1.5180  1.4095
 7839SOL     OW34975   4.231   1.376   1.961  0.3813  0.6406  0.1511
 7839SOL    HW134976   4.232   1.280   1.963 -3.6455  0.5385 -2.6153
 7839SOL    HW234977   4.220   1.389   2.055 -2.4745 -0.3840 -0.0337
 7840SOL     OW34978   4.332   0.607  17.464  0.0118 -0.6412 -0.2608
 7840SOL    HW134979   4.401   0.597  17.398  1.4281 -2.1633  1.4671
 7840SOL    HW234980   4.371   0.566  17.541  0.1887  1.3940  0.7314
 7841SOL     OW34981   0.921   2.275  11.333  0.1337  0.5210  0.2403
 7841SOL    HW134982   0.945   2.343  11.395  0.5987  0.3378  0.2603
 7841SOL    HW234983   0.919   2.201  11.394 -2.2874  0.0213 -0.4285
 7842SOL     OW34984   3.104   3.946   2.819 -0.3778  0.2976  0.4872
 7842SOL    HW134985   3.145   3.871   2.860 -0.6673  0.5673  1.2711
 7842SOL    HW234986   3.126   3.908   2.734 -2.3252  0.1721  0.0263
 7843SOL     OW34987   0.225   0.602   0.763  0.2998 -0.2745  0.3197
 7843SOL    HW134988   0.149   0.603   0.821 -0.0766 -0.7525 -0.1581
 7843SOL    HW234989   0.297   0.621   0.822 -1.3673 -1.0592  2.5977
 7844SOL     OW34990   3.250   3.359  17.235 -0.4117 -0.2565 -0.0995
 7844SOL    HW134991   3.291   3.438  17.269  0.1982 -1.4339  1.8498
 7844SOL    HW234992   3.272   3.368  17.142 -0.8082 -0.8444 -0.2569
 7845SOL     OW34993   4.289   1.355  12.625  0.0879 -0.3230 -0.0570
 7845SOL    HW134994   4.327   1.271  12.597  0.9594  0.1734 -0.3632
 7845SOL    HW234995   4.196   1.340  12.610  0.6012 -2.1572 -1.4150
 7846SOL     OW34996   2.432   3.937   5.577 -0.4968 -0.6919 -0.1717
 7846SOL    HW134997   2.381   3.883   5.636  0.3003 -1.8117 -0.5098
 7846SOL    HW234998   2.501   3.873   5.562 -1.1209 -1.1764 -0.9892
 7847SOL     OW34999   1.235   3.113   4.626  0.1426  0.2640 -0.5266
 7847SOL    HW135000   1.259   3.065   4.704 -1.8340  0.9449  0.5198
 7847SOL    HW235001   1.316   3.113   4.576  1.8035 -1.4453  2.2015
 7848SOL     OW35002   3.014   1.942  17.270  0.5017  0.6096 -0.3369
 7848SOL    HW135003   2.978   1.871  17.323  0.7750  1.3724  0.8732
 7848SOL    HW235004   3.044   2.008  17.332  1.6437 -1.6946  1.5605
 7849SOL     OW35005   0.698   0.507  13.318  0.1006 -0.0144  0.0924
 7849SOL    HW135006   0.776   0.538  13.272 -0.6084  0.8315 -0.5417
 7849SOL    HW235007   0.666   0.583  13.367 -2.2534 -2.3622  2.2224
 7850SOL     OW35008   3.909   1.306   2.398 -0.1723  0.0850  0.2126
 7850SOL    HW135009   3.884   1.350   2.479 -1.0432  0.2102 -0.1247
 7850SOL    HW235010   3.827   1.259   2.382  1.4063 -2.3701 -0.7011
 7851SOL     OW35011   3.581   1.248   5.104 -0.0649 -0.6115 -0.0120
 7851SOL    HW135012   3.501   1.300   5.100  0.4356  0.0703 -0.9360
 7851SOL    HW235013   3.646   1.299   5.151  1.1149  0.2641 -2.6220
 7852SOL     OW35014   0.767   4.048  13.690 -0.1603 -0.5353  0.4985
 7852SOL    HW135015   0.831   4.108  13.728 -0.7126 -0.7826  1.8181
 7852SOL    HW235016   0.790   4.068  13.600 -0.5898  0.0026  0.5058
 7853SOL     OW35017   1.233   3.745   5.642  0.4559  0.3006  0.0465
 7853SOL    HW135018   1.252   3.814   5.579 -0.9829  0.7548  0.1162
 7853SOL    HW235019   1.267   3.781   5.724  2.0120 -1.8768  0.3734
 7854SOL     OW35020   3.805   2.284   4.691 -0.6279  0.0959  0.0243
 7854SOL    HW135021   3.804   2.375   4.662 -0.7389 -0.9057 -3.1806
 7854SOL    HW235022   3.897   2.265   4.673 -0.2489  1.1749  0.8732
 7855SOL     OW35023   0.169   4.506   9.537  0.2448  0.8010  0.4443
 7855SOL    HW135024   0.161   4.527   9.443 -2.1279 -1.1962  0.2031
 7855SOL    HW235025   0.263   4.495   9.551  0.0110 -2.1522 -0.2987
 7856SOL     OW35026   2.503   2.829   1.629  0.3525  0.1467  0.0022
 7856SOL    HW135027   2.509   2.847   1.723  0.8641  0.4508 -0.0909
 7856SOL    HW235028   2.426   2.772   1.626  1.1301 -0.9591  0.8374
 7857SOL     OW35029   0.780   0.317   8.456 -0.0391  0.0686  0.0892
 7857SOL    HW135030   0.828   0.248   8.409 -1.0322 -0.2514 -0.4567
 7857SOL    HW235031   0.754   0.377   8.386  0.5501 -0.5857 -0.6886
 7858SOL     OW35032   3.913   4.371   3.282 -0.0208  0.2670  0.2811
 7858SOL    HW135033   3.941   4.454   3.321 -0.6783  2.0682 -3.0147
 7858SOL    HW235034   3.853   4.409   3.217  0.4808  1.0928  0.3059
 7859SOL     OW35035   1.609   2.098   1.764  0.5850  0.5232  0.5235
 7859SOL    HW135036   1.703   2.103   1.746  0.4052 -0.6454 -0.7119
 7859SOL    HW235037   1.604   2.167   1.830  0.5776  0.2836  0.7704
 7860SOL     OW35038   2.969   4.287   0.395  0.1756 -0.1172  0.4675
 7860SOL    HW135039   2.952   4.377   0.423  1.3669  0.6442 -1.2701
 7860SOL    HW235040   3.052   4.266   0.438  0.2522 -2.1593 -0.7012
 7861SOL     OW35041   3.251   3.333  17.599 -0.7110 -0.2386  0.4895
 7861SOL    HW135042   3.228   3.311  17.509 -0.0992  1.3322 -0.0542
 7861SOL    HW235043   3.170   3.313  17.646 -1.2470 -0.5392 -0.5798
 7862SOL     OW35044   0.140   0.952   3.805  0.0785  0.4067  0.3264
 7862SOL    HW135045   0.091   0.990   3.878 -1.2360  1.0133 -0.8807
 7862SOL    HW235046   0.127   0.866   3.845 -0.1659 -0.4141 -1.5481
 7863SOL     OW35047   0.734   1.675   3.313 -0.5985 -0.3768  0.5651
 7863SOL    HW135048   0.667   1.743   3.304  1.4471  1.3413 -1.5288
 7863SOL    HW235049   0.680   1.597   3.326 -1.1980 -0.0430  0.1122
 7864SOL     OW35050   0.114   2.716   0.533 -0.3311 -0.0656 -0.6901
 7864SOL    HW135051   0.095   2.687   0.622 -0.4332  0.2681 -0.6027
 7864SOL    HW235052   0.028   2.690   0.502 -0.3960 -1.3822  0.6099
 7865SOL     OW35053   2.286   0.597   5.663 -0.6021  0.2837  0.8652
 7865SOL    HW135054   2.229   0.600   5.586  2.0584 -1.0233 -1.1236
 7865SOL    HW235055   2.266   0.680   5.708 -1.4408  0.6377 -0.1724
 7866SOL     OW35056   2.649   3.045   7.249 -0.1395 -0.1089  0.0192
 7866SOL    HW135057   2.639   3.084   7.335  1.3740  1.2882 -0.4353
 7866SOL    HW235058   2.585   3.098   7.201 -0.5846  0.0296  0.7779
 7867SOL     OW35059   2.452   1.194   5.656  0.4756 -0.0681  0.0550
 7867SOL    HW135060   2.395   1.204   5.733  0.8267 -0.6064  0.3820
 7867SOL    HW235061   2.439   1.101   5.640  0.7696  0.2528 -2.0798
 7868SOL     OW35062   4.267   1.760   0.018 -0.2873 -0.8616  0.0872
 7868SOL    HW135063   4.330   1.829  17.678  1.4104 -2.7480 -0.8825
 7868SOL    HW235064   4.197   1.817   0.051 -0.0444 -0.1467 -0.6118
 7869SOL     OW35065   2.164   3.871   5.344  0.8804 -0.2258 -0.1490
 7869SOL    HW135066   2.129   3.794   5.299 -0.7584  1.8479 -2.4270
 7869SOL    HW235067   2.156   3.848   5.436  0.8537  0.8944  0.1271
 7870SOL     OW35068   1.205   2.563  15.407  0.5099  0.0883 -0.5843
 7870SOL    HW135069   1.242   2.646  15.438 -0.3084 -0.2271  1.2326
 7870SOL    HW235070   1.287   2.523  15.380  0.6811 -1.5953  2.5150
 7871SOL     OW35071   0.163   0.669   5.906  0.0194  0.0437  0.3920
 7871SOL    HW135072   0.120   0.754   5.897  1.7911  0.7880 -1.1347
 7871SOL    HW235073   0.216   0.696   5.981  2.4867 -0.1166 -1.2801
 7872SOL     OW35074   3.064   4.014   4.946 -0.7401  0.1481 -0.0542
 7872SOL    HW135075   3.098   4.099   4.971  0.4924 -0.3089 -0.1540
 7872SOL    HW235076   3.005   4.042   4.876 -0.1157 -0.3657 -0.7808
 7873SOL     OW35077   4.248   3.492   7.452 -0.3092 -0.3499  0.1599
 7873SOL    HW135078   4.252   3.412   7.400 -0.5130 -1.2744  1.5761
 7873SOL    HW235079   4.171   3.477   7.507  0.8755 -0.7868  1.7063
 7874SOL     OW35080   2.680   1.960   8.742 -0.1821  0.4686 -0.1642
 7874SOL    HW135081   2.611   1.990   8.801  0.7042  0.1014  1.0529
 7874SOL    HW235082   2.744   2.030   8.753 -0.0711  0.4889 -0.9124
 7875SOL     OW35083   2.463   2.496   4.652 -0.1843 -0.5165 -0.7177
 7875SOL    HW135084   2.534   2.529   4.708 -1.4196  1.4448 -0.3053
 7875SOL    HW235085   2.480   2.536   4.567  0.7791  0.8892  0.1181
 7876SOL     OW35086   2.343   0.505   8.479  0.6841  0.3389  0.2296
 7876SOL    HW135087   2.428   0.538   8.451  0.6634  0.9711  0.9008
 7876SOL    HW235088   2.369   0.473   8.565  2.2736  1.6590  0.2528
 7877SOL     OW35089   1.445   4.350   2.045 -0.3654  0.2887 -0.0256
 7877SOL    HW135090   1.492   4.274   2.012 -1.9358 -0.4071 -0.6638
 7877SOL    HW235091   1.387   4.316   2.112  1.5354 -1.8569  0.5023
 7878SOL     OW35092   1.457   4.242   7.617 -0.0117  0.3733 -0.0790
 7878SOL    HW135093   1.424   4.162   7.576  2.4301 -0.4887 -0.3787
 7878SOL    HW235094   1.438   4.213   7.706  2.1017  3.7321  1.4553
 7879SOL     OW35095   0.532   1.010  14.671 -0.3493 -0.1348 -0.0106
 7879SOL    HW135096   0.575   0.990  14.754 -1.9514  0.0245  0.8395
 7879SOL    HW235097   0.525   1.104  14.682  0.6787 -0.0084 -0.3595
 7880SOL     OW35098   0.947   1.454   6.903  0.0941  0.4745 -0.3630
 7880SOL    HW135099   1.035   1.482   6.880  1.0337 -2.1178  0.0913
 7880SOL    HW235100   0.961   1.416   6.990  1.3827  1.5900 -0.0844
 7881SOL     OW35101   1.869   3.523   7.144 -0.0314 -0.6842 -0.8143
 7881SOL    HW135102   1.858   3.450   7.204  4.0933 -1.0966 -0.5808
 7881SOL    HW235103   1.953   3.556   7.176 -0.0732 -1.4770  0.1122
 7882SOL     OW35104   1.361   1.081   5.541  0.5318 -0.2076  0.1663
 7882SOL    HW135105   1.433   1.070   5.604 -1.2417 -1.3131  1.9855
 7882SOL    HW235106   1.408   1.093   5.458 -0.7127 -0.8594 -0.6259
 7883SOL     OW35107   4.220   1.018   1.617  0.1626 -0.3757 -0.4819
 7883SOL    HW135108   4.207   0.941   1.562 -1.1149 -0.1858 -0.4426
 7883SOL    HW235109   4.265   0.976   1.690 -0.1510 -0.3385 -0.2655
 7884SOL     OW35110   3.967   3.691  14.047  0.1418  0.4878 -0.1292
 7884SOL    HW135111   3.872   3.704  14.043 -0.0518 -1.1810 -0.8953
 7884SOL    HW235112   3.996   3.700  13.957 -1.5418  1.4053 -0.5940
 7885SOL     OW35113   0.465   3.462   2.807 -0.0585 -0.0389 -0.1762
 7885SOL    HW135114   0.524   3.537   2.811 -1.5313  1.0008  1.9191
 7885SOL    HW235115   0.503   3.397   2.867 -0.2959 -1.5355 -1.6233
 7886SOL     OW35116   3.430   2.982   4.486  0.2972 -0.0435  0.4376
 7886SOL    HW135117   3.446   3.043   4.558  3.1058  0.1355 -0.3386
 7886SOL    HW235118   3.456   3.043   4.417 -0.7446  0.7256  0.7280
 7887SOL     OW35119   2.320   2.078   1.534  0.4556  0.2256  0.4124
 7887SOL    HW135120   2.274   2.133   1.596 -1.0651  1.4498 -1.8105
 7887SOL    HW235121   2.279   2.100   1.450  1.1708 -2.4142 -0.6283
 7888SOL     OW35122   4.667   2.951  13.727  0.4945  0.5431  0.8121
 7888SOL    HW135123   4.711   3.035  13.739 -0.4134  1.0878  0.3492
 7888SOL    HW235124   0.014   2.891  13.693  1.2376 -0.0244  3.2542
 7889SOL     OW35125   2.936   4.634   0.158  0.2433 -0.0939 -0.1685
 7889SOL    HW135126   2.975   4.547   0.150 -0.0151 -0.2632  0.4579
 7889SOL    HW235127   2.967   4.669   0.074 -1.4300 -1.1431 -1.2204
 7890SOL     OW35128   2.963   4.591   6.116  0.0658  0.3392  0.1499
 7890SOL    HW135129   2.880   4.581   6.069  0.6756 -1.2606 -0.5761
 7890SOL    HW235130   3.002   4.516   6.073 -0.8554  1.2665 -2.2760
 7891SOL     OW35131   1.835   2.452   2.406  0.1754  0.6521  0.0689
 7891SOL    HW135132   1.803   2.541   2.419  1.5408  1.1694 -0.1492
 7891SOL    HW235133   1.849   2.418   2.494 -0.6111 -3.5424 -1.4118
 7892SOL     OW35134   2.049   0.951  14.711  0.7525 -0.4333  0.2248
 7892SOL    HW135135   2.132   0.997  14.724  1.5262 -1.1902 -2.1887
 7892SOL    HW235136   1.994   1.009  14.658  1.7355 -0.5105 -0.8569
 7893SOL     OW35137   0.249   0.121  16.766 -0.1470 -0.1351 -0.5583
 7893SOL    HW135138   0.295   0.044  16.800  1.5229  1.9811  2.0137
 7893SOL    HW235139   0.159   0.093  16.782 -0.9106  1.6043 -1.8536
 7894SOL     OW35140   4.318   3.430   8.533 -0.1264  0.0341  0.0842
 7894SOL    HW135141   4.353   3.357   8.585 -0.7278 -0.1837  0.1835
 7894SOL    HW235142   4.242   3.385   8.497  1.8100 -0.6979 -3.0329
 7895SOL     OW35143   3.180   0.318   4.679  0.0632  0.0683  0.0411
 7895SOL    HW135144   3.217   0.315   4.767  2.9378  0.5062 -1.1623
 7895SOL    HW235145   3.262   0.311   4.631  0.3875 -0.4310  0.6799
 7896SOL     OW35146   3.100   0.340   1.079 -0.0369 -1.0019 -0.1354
 7896SOL    HW135147   3.015   0.378   1.054  0.3016  0.4108  0.8537
 7896SOL    HW235148   3.071   0.268   1.135 -1.1290  0.9431  1.7889
 7897SOL     OW35149   3.708   0.677  12.352  0.6707  0.2334  0.1805
 7897SOL    HW135150   3.801   0.693  12.337  0.3957  0.3608 -1.3943
 7897SOL    HW235151   3.676   0.767  12.349  1.2911  0.4258 -0.9757
 7898SOL     OW35152   3.630   0.979   1.586  0.5279 -1.0183 -0.5104
 7898SOL    HW135153   3.681   0.997   1.506 -1.2363  0.8422 -1.2293
 7898SOL    HW235154   3.612   1.070   1.611  1.8701 -0.9852  0.3414
 7899SOL     OW35155   4.089   1.312   4.397  0.1540  0.6206  0.1044
 7899SOL    HW135156   4.072   1.234   4.344  0.2994  1.1077 -0.6695
 7899SOL    HW235157   4.179   1.299   4.427  0.6246 -0.5941 -1.8242
 7900SOL     OW35158   4.100   3.073   8.424 -0.2287 -0.0279  0.6948
 7900SOL    HW135159   4.068   3.001   8.478 -2.4499 -1.9462 -3.1296
 7900SOL    HW235160   4.170   3.030   8.375  0.7098  0.7539  1.3425
 7901SOL     OW35161   1.282   0.688   5.972  0.5461 -0.0318 -0.1947
 7901SOL    HW135162   1.204   0.690   6.028  0.9226  2.2542  0.2541
 7901SOL    HW235163   1.353   0.679   6.037  0.5123  0.9910 -0.0177
 7902SOL     OW35164   0.273   4.582   4.946 -0.0003 -0.0135  0.6990
 7902SOL    HW135165   0.355   4.611   4.987  0.6118 -0.1968 -0.4140
 7902SOL    HW235166   0.301   4.577   4.855 -1.1121  1.7525  0.2595
 7903SOL     OW35167   1.235   2.931   6.598 -0.4553 -0.1704  0.2040
 7903SOL    HW135168   1.226   2.856   6.540  0.9495  0.4302 -0.7855
 7903SOL    HW235169   1.330   2.920   6.599 -0.4591 -0.2860 -2.1132
 7904SOL     OW35170   2.036   0.002   1.934  0.0495 -0.3208  0.3729
 7904SOL    HW135171   2.112   4.691   1.984  1.8921  1.8034 -1.1591
 7904SOL    HW235172   2.029   0.094   1.959 -2.2182 -1.0445  2.4580
 7905SOL     OW35173   0.288   4.407   0.313  0.4877  0.1186 -0.2632
 7905SOL    HW135174   0.333   4.323   0.317  0.1105 -0.1589 -2.1601
 7905SOL    HW235175   0.280   4.417   0.408 -0.3671  0.1299 -0.3386
 7906SOL     OW35176   2.104   0.883   8.786 -0.0511 -0.8942  0.2960
 7906SOL    HW135177   2.128   0.842   8.703 -1.6117 -0.9882 -0.0934
 7906SOL    HW235178   2.185   0.874   8.837 -0.9730  1.0835  2.0729
 7907SOL     OW35179   0.335   3.847  12.602  0.1021  0.2069  0.4209
 7907SOL    HW135180   0.310   3.821  12.691 -1.0822  1.1508  0.3560
 7907SOL    HW235181   0.335   3.757  12.569  1.0917 -0.2527  1.6456
 7908SOL     OW35182   1.771   4.094   9.009 -0.0197  0.4028  0.0902
 7908SOL    HW135183   1.743   4.004   8.994  0.3719  0.2745  0.1302
 7908SOL    HW235184   1.759   4.109   9.102  0.3827  0.7747  0.0858
 7909SOL     OW35185   0.314   4.566   2.563 -0.1934  0.0190 -0.2282
 7909SOL    HW135186   0.378   4.498   2.584  1.2361  2.2093  2.5337
 7909SOL    HW235187   0.345   4.603   2.481  0.7036 -0.8213 -0.2775
 7910SOL     OW35188   4.404   4.328  15.020  0.3702  0.0845 -0.2645
 7910SOL    HW135189   4.337   4.305  14.955 -0.7913  0.7817  0.6938
 7910SOL    HW235190   4.370   4.408  15.059  1.7770  0.4262  0.2723
 7911SOL     OW35191   3.303   1.481   8.127 -0.0832  0.0751 -0.2675
 7911SOL    HW135192   3.223   1.512   8.084  1.5051  1.4890 -2.2447
 7911SOL    HW235193   3.334   1.553   8.182 -2.4681  1.1112 -0.2663
 7912SOL     OW35194   3.110   0.195  13.067 -0.1114  0.4399  0.0337
 7912SOL    HW135195   3.150   0.228  13.147  0.9343 -1.6297  0.3459
 7912SOL    HW235196   3.041   0.137  13.097  0.3399  0.1565  0.5238
 7913SOL     OW35197   1.667   4.541  10.097 -0.5450 -0.3060 -0.1475
 7913SOL    HW135198   1.632   4.578  10.016 -2.2946 -0.0336  0.7440
 7913SOL    HW235199   1.722   4.610  10.133  0.4362 -1.6626  0.9463
 7914SOL     OW35200   4.015   1.553   3.540 -0.1670 -0.2176 -0.1457
 7914SOL    HW135201   4.036   1.568   3.447 -0.4456  0.5346 -0.0935
 7914SOL    HW235202   4.025   1.640   3.579  0.2705 -0.2941 -0.0967
 7915SOL     OW35203   4.497   3.571   2.342 -0.4489 -0.2699  0.4614
 7915SOL    HW135204   4.556   3.579   2.417  1.0742  0.6208 -0.8526
 7915SOL    HW235205   4.503   3.657   2.302 -0.1420 -0.3631  0.3084
 7916SOL     OW35206   0.502   3.993   1.823  0.3350 -0.6205 -0.1383
 7916SOL    HW135207   0.423   3.949   1.852  0.9984 -2.6161 -1.3811
 7916SOL    HW235208   0.525   3.935   1.750 -1.4894 -2.5983  0.8632
 7917SOL     OW35209   2.704   1.141   0.973 -0.0252 -0.6576 -0.8032
 7917SOL    HW135210   2.628   1.195   0.993  0.6390  0.7032 -1.9125
 7917SOL    HW235211   2.759   1.216   0.950  1.9264 -2.0177 -0.6596
 7918SOL     OW35212   1.448   3.518   3.781 -0.2266  0.2705  0.4044
 7918SOL    HW135213   1.445   3.604   3.740 -0.7737 -0.0607 -0.2648
 7918SOL    HW235214   1.414   3.539   3.868 -0.8223  0.3921  0.1484
 7919SOL     OW35215   0.048   2.009   1.726  0.8891  0.0235 -0.0572
 7919SOL    HW135216   4.687   2.044   1.763  1.1022  1.3234 -0.8136
 7919SOL    HW235217   0.017   1.938   1.670  0.8879  0.2524 -0.3453
 7920SOL     OW35218   3.312   3.871   6.980 -0.6137 -0.0330  0.4089
 7920SOL    HW135219   3.265   3.788   6.970 -0.9654  0.0633  1.2163
 7920SOL    HW235220   3.395   3.825   6.994  0.0055  1.2436  0.9248
 7921SOL     OW35221   0.393   4.317   2.231 -0.2182 -0.2805  0.2000
 7921SOL    HW135222   0.315   4.284   2.274 -0.8475  1.7163  0.5821
 7921SOL    HW235223   0.439   4.236   2.205  0.0737 -0.2207  0.5246
 7922SOL     OW35224   1.584   3.234   9.877 -0.7106  0.0280 -0.0678
 7922SOL    HW135225   1.592   3.157   9.934  0.4691  1.0630  1.1501
 7922SOL    HW235226   1.506   3.209   9.828 -0.5638 -0.3398 -0.1161
 7923SOL     OW35227   2.547   2.155   0.715  0.0298 -0.4434  0.0365
 7923SOL    HW135228   2.632   2.197   0.726 -0.3845 -0.0311  1.7374
 7923SOL    HW235229   2.491   2.230   0.735 -0.7835 -1.3383  1.1594
 7924SOL     OW35230   2.516   0.467   1.983  0.0776  0.1171 -0.0682
 7924SOL    HW135231   2.456   0.517   2.038 -1.4903  0.2187 -1.8694
 7924SOL    HW235232   2.606   0.497   1.996 -0.5829  0.9145  2.5534
 7925SOL     OW35233   1.937   3.846  10.249 -0.1215  0.1067  0.1093
 7925SOL    HW135234   2.016   3.897  10.229  1.9339 -2.9721  0.4039
 7925SOL    HW235235   1.924   3.801  10.166  0.5592  0.6034 -0.2752
 7926SOL     OW35236   1.863   0.050   2.973  0.2907 -0.1644  0.1886
 7926SOL    HW135237   1.818   0.134   2.983 -3.1271 -2.2210  2.0381
 7926SOL    HW235238   1.932   0.061   3.038 -1.4831  0.9049  1.8919
 7927SOL     OW35239   4.402   3.952   2.636 -0.4369  0.0891  0.2664
 7927SOL    HW135240   4.420   3.864   2.670 -1.7161 -0.1349  0.3428
 7927SOL    HW235241   4.443   3.943   2.550 -1.2185  1.6499 -0.2580
 7928SOL     OW35242   1.188   0.689  16.603 -0.4635 -0.3560 -0.2360
 7928SOL    HW135243   1.252   0.746  16.644 -0.2737 -1.4536  0.9863
 7928SOL    HW235244   1.177   0.617  16.664  1.7510 -0.0672  0.4861
 7929SOL     OW35245   0.547   2.003   6.346  0.8510 -0.0324  0.0480
 7929SOL    HW135246   0.524   1.913   6.369 -2.5666  0.4332 -1.5025
 7929SOL    HW235247   0.554   2.036   6.435 -0.7730  1.7524 -0.4800
 7930SOL     OW35248   3.175   1.178  13.858  0.2535 -0.0467 -0.2375
 7930SOL    HW135249   3.170   1.135  13.943 -0.9007 -0.4432 -0.5106
 7930SOL    HW235250   3.117   1.254  13.864 -0.0485 -0.4031  1.4317
 7931SOL     OW35251   3.518   2.736   6.890 -0.0098 -0.3179  0.9461
 7931SOL    HW135252   3.522   2.754   6.984 -0.8894  0.5947  0.8023
 7931SOL    HW235253   3.493   2.644   6.905  3.5352 -1.7378 -1.7771
 7932SOL     OW35254   1.508   3.397   3.002  0.8915 -0.3892 -0.2312
 7932SOL    HW135255   1.570   3.460   2.966  0.2190 -0.2456 -1.1374
 7932SOL    HW235256   1.420   3.427   2.981  1.5104 -1.2469 -4.0600
 7933SOL     OW35257   2.375   2.763  16.198 -0.0311 -0.2847  0.3656
 7933SOL    HW135258   2.362   2.697  16.130  2.9760 -2.5311  2.0099
 7933SOL    HW235259   2.430   2.824  16.149  0.6707 -0.8479  0.4610
 7934SOL     OW35260   4.572   1.009   2.173 -0.1953 -0.0667  0.0692
 7934SOL    HW135261   4.657   0.968   2.158  0.0185  0.0195  1.0265
 7934SOL    HW235262   4.517   0.931   2.160  0.9384 -0.7516 -0.6625
 7935SOL     OW35263   0.846   0.929   4.493 -0.7034 -0.4116  0.5347
 7935SOL    HW135264   0.754   0.957   4.487 -0.0697  1.6790  0.6323
 7935SOL    HW235265   0.856   0.892   4.580 -0.0527  1.3464  1.1958
 7936SOL     OW35266   2.606   1.740   6.730 -0.2370  0.3420  0.5712
 7936SOL    HW135267   2.573   1.825   6.701 -1.6394  0.0600  1.2980
 7936SOL    HW235268   2.592   1.678   6.659 -2.2223 -0.5610  1.7506
 7937SOL     OW35269   0.871   4.188  14.857  0.1411 -0.4116  0.1285
 7937SOL    HW135270   0.923   4.172  14.778  1.0708  2.6875  0.1303
 7937SOL    HW235271   0.929   4.178  14.933 -1.4922  0.1299  1.4575
 7938SOL     OW35272   1.448   1.754  11.530 -0.2552  0.7966 -0.7101
 7938SOL    HW135273   1.519   1.729  11.590  1.5717  0.0691 -3.1968
 7938SOL    HW235274   1.489   1.775  11.447  0.1549 -1.4918 -1.0776
 7939SOL     OW35275   4.101   0.747   7.271 -0.2783 -0.3264  0.7653
 7939SOL    HW135276   4.064   0.833   7.250  0.0686 -0.3280  0.1614
 7939SOL    HW235277   4.033   0.687   7.242 -1.1403  1.2616 -0.4838
 7940SOL     OW35278   3.721   2.598   1.887  0.7799 -0.6476  0.2278
 7940SOL    HW135279   3.756   2.578   1.974 -0.6433  2.4848  1.5391
 7940SOL    HW235280   3.659   2.669   1.904 -1.5531 -2.7327  0.3417
 7941SOL     OW35281   2.659   1.258  13.815 -0.0648 -0.4340 -0.1318
 7941SOL    HW135282   2.594   1.314  13.772  0.6638  1.4909  1.2546
 7941SOL    HW235283   2.688   1.315  13.886  2.1338 -0.9150 -0.6480
 7942SOL     OW35284   4.581   0.191  16.269 -0.4055 -0.2708  0.0708
 7942SOL    HW135285   4.639   0.147  16.331 -1.1163 -0.7121  0.4276
 7942SOL    HW235286   4.631   0.253  16.216  2.4838 -2.2921  0.4421
 7943SOL     OW35287   3.404   4.551   5.552 -0.7907  0.0363  0.5084
 7943SOL    HW135288   3.430   4.633   5.595 -1.1299  1.9591 -2.9949
 7943SOL    HW235289   3.476   4.495   5.583 -1.0117  0.1359  1.2097
 7944SOL     OW35290   2.435   1.530   4.574 -0.2729 -0.1552  0.8741
 7944SOL    HW135291   2.444   1.550   4.667 -0.2523  0.3733  0.7598
 7944SOL    HW235292   2.445   1.617   4.536  2.6965 -1.4020 -1.2261
 7945SOL     OW35293   1.556   2.253   2.456 -0.1645  0.1337 -0.4367
 7945SOL    HW135294   1.629   2.293   2.409  1.5672  0.0681  2.2275
 7945SOL    HW235295   1.520   2.325   2.508  0.3329 -0.0429  0.1428
 7946SOL     OW35296   1.898   3.690  15.492  0.5407 -0.6634 -0.2075
 7946SOL    HW135297   1.827   3.689  15.428  3.1401 -1.2088 -3.1218
 7946SOL    HW235298   1.971   3.731  15.447 -0.9438  0.9483 -1.1188
 7947SOL     OW35299   1.179   3.969   2.164 -0.6111  0.2514 -0.4181
 7947SOL    HW135300   1.208   3.883   2.195 -2.1219 -0.0390  0.1815
 7947SOL    HW235301   1.112   3.952   2.098 -1.1272 -1.0899  0.4361
 7948SOL     OW35302   2.749   2.564  12.089 -0.7335  0.2155  0.3308
 7948SOL    HW135303   2.795   2.494  12.136  0.0615  1.0117  0.7363
 7948SOL    HW235304   2.685   2.589  12.155 -1.4568  1.9128 -1.0046
 7949SOL     OW35305   3.442   3.975   3.254  0.4257  0.4586 -0.2570
 7949SOL    HW135306   3.525   4.015   3.282  1.8227 -2.3145 -0.4034
 7949SOL    HW235307   3.441   4.023   3.171  2.3584  3.2211  1.3144
 7950SOL     OW35308   2.933   2.425   5.905 -0.3031  0.2525 -0.6842
 7950SOL    HW135309   2.937   2.345   5.853  0.4757 -0.3447  0.2720
 7950SOL    HW235310   3.010   2.471   5.870  0.9033 -0.7754  0.5803
 7951SOL     OW35311   3.136   0.874  10.980  0.1171  0.2797 -0.3835
 7951SOL    HW135312   3.197   0.820  11.029  1.3922  0.0658 -2.2417
 7951SOL    HW235313   3.190   0.912  10.911 -0.9234  1.7338 -0.4074
 7952SOL     OW35314   4.362   3.302  16.141 -0.6449  0.0399  0.5785
 7952SOL    HW135315   4.300   3.372  16.164 -0.4212  0.4819 -0.1701
 7952SOL    HW235316   4.349   3.278  16.050  2.1429  0.7118  0.0035
 7953SOL     OW35317   0.591   4.614   8.119 -0.4859 -0.2734 -0.4101
 7953SOL    HW135318   0.655   4.555   8.158  0.1009  0.4695 -0.2618
 7953SOL    HW235319   0.559   4.663   8.195  0.7503 -0.5466  0.2873
 7954SOL     OW35320   4.599   4.116   3.807  0.3236 -0.1269 -0.1046
 7954SOL    HW135321   4.664   4.063   3.854 -0.7768 -1.8129 -0.4692
 7954SOL    HW235322   4.523   4.079   3.853 -0.9804  1.7973 -0.7253
 7955SOL     OW35323   4.112   1.907   4.665 -0.1001 -0.2707  0.1162
 7955SOL    HW135324   4.041   1.853   4.699 -0.0083 -0.6127 -0.2435
 7955SOL    HW235325   4.184   1.847   4.684  0.5153  0.2687 -0.5445
 7956SOL     OW35326   0.821   0.675   2.684  0.1990 -0.1219  0.3531
 7956SOL    HW135327   0.732   0.642   2.696  0.5504 -0.3868  2.3357
 7956SOL    HW235328   0.871   0.609   2.732 -0.4398 -0.3076  0.7609
 7957SOL     OW35329   3.324   0.687   7.954  0.4452 -0.1459 -0.1438
 7957SOL    HW135330   3.319   0.635   8.035  3.2865 -0.1716  0.0244
 7957SOL    HW235331   3.408   0.667   7.912  0.1623 -0.3950 -0.5895
 7958SOL     OW35332   1.540   4.425  12.526 -0.4440 -0.2774  0.1067
 7958SOL    HW135333   1.527   4.395  12.616 -1.2610 -2.6793 -0.8095
 7958SOL    HW235334   1.485   4.502  12.514 -2.1256 -1.4790  0.1429
 7959SOL     OW35335   0.267   0.344   1.376  0.0354  0.7839  0.3030
 7959SOL    HW135336   0.355   0.316   1.402  0.9026  1.7561 -1.5479
 7959SOL    HW235337   0.270   0.432   1.413 -0.6714  0.8015  0.3188
 7960SOL     OW35338   1.860   4.216  10.657 -0.4022  0.0272 -0.8203
 7960SOL    HW135339   1.913   4.149  10.614  0.3498 -0.1726  0.4234
 7960SOL    HW235340   1.790   4.227  10.592 -1.0035 -2.1720 -0.5321
 7961SOL     OW35341   0.451   2.437   2.647  0.1831  0.3512  0.4497
 7961SOL    HW135342   0.491   2.421   2.562  1.2388 -3.8674  1.7276
 7961SOL    HW235343   0.355   2.437   2.639  0.4061  0.9555 -2.0934
 7962SOL     OW35344   3.953   4.540   7.489  0.2272 -0.4432 -0.2951
 7962SOL    HW135345   4.004   4.612   7.526 -3.1312  0.4258  2.6497
 7962SOL    HW235346   3.874   4.589   7.469  1.4722  2.4756  1.9123
 7963SOL     OW35347   1.791   0.471   0.239 -0.3869  0.6410  0.3982
 7963SOL    HW135348   1.849   0.402   0.268 -0.0030  0.9177  0.2846
 7963SOL    HW235349   1.846   0.547   0.256  0.0033  0.5167 -0.3156
 7964SOL     OW35350   4.245   4.270   1.066  0.1672 -0.3650  0.0367
 7964SOL    HW135351   4.336   4.300   1.064 -0.4758  1.6724  1.4781
 7964SOL    HW235352   4.269   4.181   1.042  0.6445  0.5061 -2.7264
 7965SOL     OW35353   2.141   2.306   1.103  0.1407  0.2056  0.0127
 7965SOL    HW135354   2.175   2.315   1.014 -0.0688  2.3916  0.1614
 7965SOL    HW235355   2.061   2.257   1.083  1.2251 -1.7451  0.3721
 7966SOL     OW35356   4.418   1.854   0.908  0.0666  0.6288 -0.1206
 7966SOL    HW135357   4.386   1.830   0.821  0.2840  0.2389 -0.0926
 7966SOL    HW235358   4.345   1.817   0.958 -1.1887  0.7374 -1.8665
 7967SOL     OW35359   1.971   2.969  12.819  0.1681  0.2830  0.3799
 7967SOL    HW135360   2.022   3.049  12.828  0.1235  0.3689 -0.1273
 7967SOL    HW235361   1.929   2.973  12.733  0.5344 -1.0290  0.1243
 7968SOL     OW35362   1.053   0.151  11.789  0.1074  0.2729  0.2321
 7968SOL    HW135363   1.063   0.056  11.795  1.4840  0.4246  0.3365
 7968SOL    HW235364   1.016   0.150  11.701  1.5813  1.4176 -0.4080
 7969SOL     OW35365   1.865   3.441   6.861 -0.0135  0.0053 -0.0763
 7969SOL    HW135366   1.852   3.527   6.821  0.2620  0.4113  0.7101
 7969SOL    HW235367   1.860   3.456   6.955  0.1803  1.4846 -0.2873
 7970SOL     OW35368   3.941   0.970  14.738 -0.4031 -0.0231 -0.2647
 7970SOL    HW135369   4.016   0.928  14.780  0.3484  0.5065 -1.0830
 7970SOL    HW235370   3.873   0.958  14.805  1.5040 -0.0401  1.6801
 7971SOL     OW35371   2.881   0.063   1.933  0.4215 -0.4229 -1.1843
 7971SOL    HW135372   2.932   0.136   1.896  0.1115 -1.0285 -2.8060
 7971SOL    HW235373   2.916   4.709   1.883  3.2925  1.1867 -1.5848
 7972SOL     OW35374   0.473   1.105  17.504 -0.0245 -0.2085  0.4311
 7972SOL    HW135375   0.398   1.089  17.447 -0.2401 -0.2248  0.7214
 7972SOL    HW235376   0.436   1.131  17.588 -0.1019 -0.5957  0.5170
 7973SOL     OW35377   1.670   0.775  14.341  0.7120  0.0571  0.1142
 7973SOL    HW135378   1.652   0.837  14.270  0.4700  0.9819  0.9663
 7973SOL    HW235379   1.654   0.831  14.418  0.3830 -1.0848  0.8688
 7974SOL     OW35380   1.927   2.784   5.748  0.7264 -0.2968  0.0734
 7974SOL    HW135381   1.833   2.763   5.748  0.5918  0.3176  0.6013
 7974SOL    HW235382   1.957   2.734   5.671 -0.0028 -0.4878 -0.0862
 7975SOL     OW35383   3.279   2.109   2.341  0.1237  0.6860 -0.2720
 7975SOL    HW135384   3.197   2.113   2.390 -0.0378  0.5673 -0.5304
 7975SOL    HW235385   3.347   2.112   2.408  0.1524 -0.7605 -0.2393
 7976SOL     OW35386   3.470   2.170  12.878  0.0258 -0.1141  0.0614
 7976SOL    HW135387   3.375   2.174  12.876  0.0964  0.9804 -1.3165
 7976SOL    HW235388   3.488   2.223  12.800  0.0898  0.3507  0.3893
 7977SOL     OW35389   2.931   4.229  13.819 -0.2521  0.9495  0.2618
 7977SOL    HW135390   2.955   4.138  13.835 -1.2760  0.7612  0.7717
 7977SOL    HW235391   3.017   4.259  13.791 -0.2381 -0.2636 -0.9905
 7978SOL     OW35392   3.322   0.741   8.904 -0.2672 -0.1968  0.4694
 7978SOL    HW135393   3.337   0.715   8.995  0.0694 -1.9843 -0.1030
 7978SOL    HW235394   3.354   0.830   8.914  0.8580 -0.7634  1.8310
 7979SOL     OW35395   3.730   2.196   3.771 -0.2192 -0.2189  0.0381
 7979SOL    HW135396   3.767   2.273   3.815  0.8974 -0.6094 -0.2343
 7979SOL    HW235397   3.809   2.162   3.729  1.8816  1.3149  2.7325
 7980SOL     OW35398   3.683   4.093   0.946  0.1631 -0.2171 -0.1319
 7980SOL    HW135399   3.724   4.006   0.938  2.7565  1.1918 -2.2177
 7980SOL    HW235400   3.611   4.079   0.884 -0.6608  2.3110  0.2629
 7981SOL     OW35401   0.735   1.118   1.805 -0.3564  0.3712  0.7443
 7981SOL    HW135402   0.827   1.141   1.794 -0.6733  0.8538 -0.9932
 7981SOL    HW235403   0.721   1.109   1.710 -1.7232 -0.1733  0.9872
 7982SOL     OW35404   2.820   1.892   0.184  0.1585 -0.1596 -0.7470
 7982SOL    HW135405   2.731   1.925   0.184  0.1516 -0.1901  0.0223
 7982SOL    HW235406   2.838   1.848   0.267 -1.4565  1.1615  0.3088
 7983SOL     OW35407   3.172   1.467  13.121 -0.1096  0.2739  0.4499
 7983SOL    HW135408   3.200   1.380  13.093 -0.2860 -0.1723  1.6442
 7983SOL    HW235409   3.097   1.446  13.177 -0.8216  1.3254 -0.0972
 7984SOL     OW35410   2.182   3.214   6.991 -0.5343 -0.3797  0.2127
 7984SOL    HW135411   2.139   3.196   6.907 -2.0108  0.5803  0.7573
 7984SOL    HW235412   2.103   3.211   7.045 -2.4270  1.8195 -2.3948
 7985SOL     OW35413   3.604   1.009  10.935 -0.1052 -0.3965 -0.2189
 7985SOL    HW135414   3.559   1.069  10.995  2.9883  2.6106 -0.9034
 7985SOL    HW235415   3.681   0.977  10.981  0.4263  0.6210 -0.3952
 7986SOL     OW35416   0.933   1.662   6.246 -0.0811 -0.2841 -0.4955
 7986SOL    HW135417   0.971   1.750   6.234  0.2516 -0.5328 -1.2629
 7986SOL    HW235418   0.908   1.644   6.156 -1.2395  0.1370 -0.2581
 7987SOL     OW35419   2.688   1.163   1.733  0.4185 -0.1824  0.5125
 7987SOL    HW135420   2.700   1.129   1.822  0.1206 -0.9204  0.2771
 7987SOL    HW235421   2.761   1.224   1.721  0.5207 -0.2089  1.0005
 7988SOL     OW35422   0.433   4.685   9.245  0.2809 -0.1681  0.1338
 7988SOL    HW135423   0.483   0.039   9.209  0.0908 -1.8753 -3.7115
 7988SOL    HW235424   0.503   4.625   9.271  0.3493 -0.4706 -0.7233
 7989SOL     OW35425   3.200   2.913   9.196  0.6833 -0.0828 -0.9346
 7989SOL    HW135426   3.113   2.943   9.220  1.0203  0.7683 -0.7662
 7989SOL    HW235427   3.249   2.996   9.196 -1.8664  1.4204  1.9507
 7990SOL     OW35428   4.681   3.152  14.925  0.7980  0.4609 -0.0959
 7990SOL    HW135429   4.606   3.109  14.966  0.6024  0.6727 -0.2333
 7990SOL    HW235430   0.032   3.101  14.964  1.4254  1.7388  0.3925
 7991SOL     OW35431   1.145   0.464  16.742 -0.7132 -0.1501 -0.1326
 7991SOL    HW135432   1.212   0.396  16.738  0.9813  1.5692 -0.9571
 7991SOL    HW235433   1.072   0.416  16.703 -0.2285 -0.1609 -1.0473
 7992SOL     OW35434   1.369   2.059   5.972 -0.7427  0.0942 -0.3132
 7992SOL    HW135435   1.308   2.019   5.909  0.0084  0.2126 -1.1143
 7992SOL    HW235436   1.455   2.063   5.931 -0.6211  1.4978  0.0873
 7993SOL     OW35437   1.807   3.974   1.661  0.3505  0.5795  0.0836
 7993SOL    HW135438   1.768   3.919   1.729  0.0514  2.9726  1.8657
 7993SOL    HW235439   1.744   4.045   1.648 -1.3050 -1.1373 -1.4199
 7994SOL     OW35440   2.362   1.874  16.905 -0.2696 -0.1005  0.0589
 7994SOL    HW135441   2.376   1.831  16.820 -0.3164  0.1244 -0.0636
 7994SOL    HW235442   2.431   1.849  16.966 -0.8589 -0.4995  0.5661
 7995SOL     OW35443   3.171   3.264   6.774 -0.5646  0.2907 -0.7577
 7995SOL    HW135444   3.238   3.208   6.813 -0.5887  1.7357  1.3495
 7995SOL    HW235445   3.091   3.227   6.811  0.5830 -0.3099  1.1122
 7996SOL     OW35446   4.269   3.587   4.861  0.4998 -0.6477  0.0026
 7996SOL    HW135447   4.218   3.593   4.780 -0.0071 -0.4183  0.3357
 7996SOL    HW235448   4.213   3.564   4.935 -0.0741  0.5167 -0.0851
 7997SOL     OW35449   0.237   2.942   1.954 -0.3041  0.0099  0.0499
 7997SOL    HW135450   0.295   3.010   1.989 -0.3201  0.0113  0.0738
 7997SOL    HW235451   0.275   2.900   1.877 -0.8863  0.3753 -0.4412
 7998SOL     OW35452   0.471   2.684   0.381  0.1784  0.4922 -0.0324
 7998SOL    HW135453   0.441   2.737   0.308  1.1718  1.0234 -0.0491
 7998SOL    HW235454   0.402   2.620   0.397  1.9671 -1.2305  0.8765
 7999SOL     OW35455   3.110   2.596   4.145  0.4557  0.1998 -0.2135
 7999SOL    HW135456   3.177   2.647   4.099  2.6608 -2.5696 -0.0459
 7999SOL    HW235457   3.109   2.518   4.089  0.0920 -0.0770  0.1805
 8000SOL     OW35458   0.901   3.344   4.116 -0.2575 -0.3790 -0.4503
 8000SOL    HW135459   0.971   3.296   4.160  1.2653  1.6073 -0.7220
 8000SOL    HW235460   0.926   3.321   4.026  0.9352  0.9084 -0.4430
 8001SOL     OW35461   1.522   4.022   2.999 -0.0224 -0.0422  0.1267
 8001SOL    HW135462   1.564   4.050   3.080 -0.7626  1.8041 -0.1372
 8001SOL    HW235463   1.448   4.083   2.997  0.1065 -0.0240 -2.7949
 8002SOL     OW35464   2.661   1.715   6.989  0.1969 -0.0908 -0.6993
 8002SOL    HW135465   2.712   1.643   6.951  0.9088  1.1752 -2.1582
 8002SOL    HW235466   2.649   1.773   6.914  2.3995  0.2289 -0.8143
 8003SOL     OW35467   1.187   3.577   1.556  0.4827 -0.0228 -0.0792
 8003SOL    HW135468   1.270   3.545   1.591  1.3528  1.6773 -0.5820
 8003SOL    HW235469   1.211   3.639   1.487 -0.5916  0.4087 -0.0549
 8004SOL     OW35470   4.678   0.217  10.674 -0.0235  0.4975  0.4619
 8004SOL    HW135471   4.689   0.226  10.579 -2.4994 -1.5914 -0.0388
 8004SOL    HW235472   4.703   0.304  10.705  0.4950 -0.1524  1.8700
 8005SOL     OW35473   3.163   4.041   0.166  0.1104 -0.3712 -0.3336
 8005SOL    HW135474   3.177   3.982   0.092  1.4417  1.0294 -1.1875
 8005SOL    HW235475   3.159   3.989   0.246 -3.9524 -1.3960 -1.1785
 8006SOL     OW35476   0.684   2.320   4.347 -0.2364 -0.5248  0.3774
 8006SOL    HW135477   0.615   2.263   4.381 -1.7895  0.7671 -0.6495
 8006SOL    HW235478   0.765   2.275   4.371  0.4662 -1.1398 -3.0628
 8007SOL     OW35479   3.595   4.715   1.064 -0.0207  0.5477 -0.2562
 8007SOL    HW135480   3.647   4.707   0.983 -0.5573 -1.8671 -0.3506
 8007SOL    HW235481   3.574   0.088   1.055 -0.3436  0.5325  0.3810
 8008SOL     OW35482   1.006   4.716   4.243  0.1532 -0.4284 -1.1313
 8008SOL    HW135483   0.976   0.035   4.325  2.2324 -0.3046 -0.4372
 8008SOL    HW235484   0.991   4.622   4.255 -0.8291 -0.2344 -0.8831
 8009SOL     OW35485   0.557   3.378  12.458  0.4011  0.1914  0.5301
 8009SOL    HW135486   0.602   3.371  12.542 -1.7000 -0.1761  1.6289
 8009SOL    HW235487   0.567   3.297  12.409 -2.6262 -0.1352  0.4020
 8010SOL     OW35488   1.452   4.625   8.886  0.8069  0.5032 -0.5103
 8010SOL    HW135489   1.535   4.661   8.856  0.7541  2.3877  1.6178
 8010SOL    HW235490   1.432   4.679   8.963  0.5566 -1.0219  0.4914
 8011SOL     OW35491   2.774   4.042   0.616  0.2036  0.5311  0.0067
 8011SOL    HW135492   2.691   4.077   0.584 -0.0975 -0.7297 -0.6250
 8011SOL    HW235493   2.784   3.956   0.573 -0.5237  0.1482  0.6160
 8012SOL     OW35494   1.038   3.542  15.674  1.1027  0.5864 -0.2482
 8012SOL    HW135495   1.101   3.538  15.746  2.3407 -3.1748 -1.5123
 8012SOL    HW235496   1.089   3.596  15.614  1.1349  0.4259 -0.3646
 8013SOL     OW35497   2.161   2.103  15.889 -0.7021 -0.5760 -0.0386
 8013SOL    HW135498   2.155   2.198  15.899 -1.5710 -0.5313 -0.9334
 8013SOL    HW235499   2.068   2.080  15.896 -0.8027  0.2037  1.0678
 8014SOL     OW35500   4.255   2.379  11.077 -0.1370  0.0651 -0.0194
 8014SOL    HW135501   4.199   2.376  11.000 -0.6955 -0.7685  0.4090
 8014SOL    HW235502   4.334   2.417  11.039 -0.1525 -1.1580 -1.2806
 8015SOL     OW35503   1.598   0.999   0.892 -1.1303  0.5631 -0.3326
 8015SOL    HW135504   1.528   1.063   0.908 -1.1823  0.7170 -1.1812
 8015SOL    HW235505   1.623   1.027   0.804 -0.4173  3.3633  0.7795
 8016SOL     OW35506   1.822   4.288   5.005  0.5077  0.0701  0.3877
 8016SOL    HW135507   1.861   4.268   4.920  1.1277  0.4889  0.5756
 8016SOL    HW235508   1.785   4.372   4.978 -1.2463 -0.5549  0.7808
 8017SOL     OW35509   2.464   3.002   4.369  0.0614  0.2654  0.2243
 8017SOL    HW135510   2.422   3.002   4.455  2.8426 -0.4013  1.5805
 8017SOL    HW235511   2.551   2.964   4.385  0.1829  0.5984  0.3597
 8018SOL     OW35512   2.074   0.658   5.229  0.0040 -0.3447 -0.2058
 8018SOL    HW135513   2.000   0.700   5.185 -1.5500 -1.5735  1.2590
 8018SOL    HW235514   2.145   0.671   5.165 -1.1279 -1.4761 -1.7042
 8019SOL     OW35515   2.768   2.914  13.509  0.0433  0.2291  0.3141
 8019SOL    HW135516   2.791   2.831  13.468 -0.1654 -0.0382  0.7462
 8019SOL    HW235517   2.819   2.975  13.456 -0.1238  0.4985  0.4621
 8020SOL     OW35518   4.555   2.677   6.190  0.1771 -0.1635  0.0727
 8020SOL    HW135519   4.476   2.706   6.235 -0.7025 -0.5533 -1.2083
 8020SOL    HW235520   4.580   2.763   6.155  1.0653 -0.0257  1.0673
 8021SOL     OW35521   3.524   1.150  13.039  0.4312  0.7490  0.1345
 8021SOL    HW135522   3.553   1.067  13.077 -2.6334 -0.3163  0.0923
 8021SOL    HW235523   3.505   1.126  12.948  0.8026 -1.0165  0.5189
 8022SOL     OW35524   2.180   3.447  10.130  0.0993  0.4797 -0.6145
 8022SOL    HW135525   2.135   3.517  10.082  0.7052  1.7343  0.6509
 8022SOL    HW235526   2.258   3.492  10.161 -0.9609  0.7422  1.6592
 8023SOL     OW35527   3.934   0.385  15.614 -0.0131  0.4927  0.5532
 8023SOL    HW135528   3.976   0.452  15.668  0.6315  0.3420  0.2461
 8023SOL    HW235529   3.890   0.437  15.547 -1.1894 -0.3085  0.7067
 8024SOL     OW35530   3.074   1.139   1.248 -0.7953 -0.8462  0.2988
 8024SOL    HW135531   3.116   1.086   1.180 -0.2888 -0.8575  0.6218
 8024SOL    HW235532   3.039   1.071   1.306 -0.5439 -1.5146 -0.3324
 8025SOL     OW35533   3.305   2.364   3.914  0.2050 -0.0769  0.2475
 8025SOL    HW135534   3.344   2.277   3.907  2.3086  0.8588  0.6242
 8025SOL    HW235535   3.371   2.420   3.873 -1.5726  1.5637 -0.3782
 8026SOL     OW35536   4.516   4.211   2.686  0.1345 -0.1369 -0.1796
 8026SOL    HW135537   4.514   4.233   2.593 -0.3253 -2.2760 -0.6890
 8026SOL    HW235538   4.494   4.118   2.677  0.5553 -0.2907  0.3887
 8027SOL     OW35539   3.936   2.428   3.858  0.5394  0.0063 -0.2734
 8027SOL    HW135540   3.984   2.502   3.896 -1.1438  1.2730 -0.5872
 8027SOL    HW235541   3.990   2.400   3.784 -2.1341 -1.1223 -1.7981
 8028SOL     OW35542   4.005   2.049   4.028  0.1174 -0.0202 -0.0358
 8028SOL    HW135543   4.004   2.136   3.988 -1.3796  0.0238  0.0883
 8028SOL    HW235544   4.022   2.079   4.117 -1.8603  1.7003 -0.2345
 8029SOL     OW35545   3.537   0.873   5.598 -0.1397  0.8283  0.2477
 8029SOL    HW135546   3.591   0.940   5.556  1.0845 -0.4998 -0.3039
 8029SOL    HW235547   3.606   0.811   5.623  0.1084  0.7814 -0.5396
 8030SOL     OW35548   1.353   2.266  11.033  0.2005 -0.2274 -0.5327
 8030SOL    HW135549   1.317   2.215  10.960  2.8721 -1.0732 -1.2723
 8030SOL    HW235550   1.322   2.354  11.012  0.3422 -0.1078 -0.2388
 8031SOL     OW35551   1.264   3.708   5.184  0.0617  0.0443 -0.0640
 8031SOL    HW135552   1.231   3.625   5.150  2.4098  0.0285 -2.2974
 8031SOL    HW235553   1.356   3.715   5.158 -0.2613  0.7020 -1.0413
 8032SOL     OW35554   1.998   0.170   8.230 -0.0265  0.1209 -0.3511
 8032SOL    HW135555   2.028   0.226   8.301 -3.1456  2.4167 -0.8673
 8032SOL    HW235556   2.072   0.176   8.169 -0.4927  2.0380 -0.7263
 8033SOL     OW35557   3.168   0.496   8.564  0.1456 -0.4053 -0.2895
 8033SOL    HW135558   3.112   0.564   8.600 -0.0462 -0.8185  0.2066
 8033SOL    HW235559   3.177   0.443   8.644  1.9943  0.0072 -0.2200
 8034SOL     OW35560   2.237   1.339   3.800  0.0297 -0.6002  0.2217
 8034SOL    HW135561   2.247   1.430   3.829 -0.3163 -1.0154  1.6487
 8034SOL    HW235562   2.301   1.294   3.854  0.3673 -1.3730 -0.8116
 8035SOL     OW35563   2.260   1.418  12.973  0.1510  0.2607  0.1232
 8035SOL    HW135564   2.340   1.465  12.950 -0.4805  0.5359 -1.4849
 8035SOL    HW235565   2.194   1.487  12.977  1.5421  1.5785  0.2373
 8036SOL     OW35566   1.725   2.233  16.502 -0.0015 -0.3137  0.6922
 8036SOL    HW135567   1.650   2.176  16.519 -0.0071 -0.5351 -0.0936
 8036SOL    HW235568   1.796   2.171  16.521  0.8295  0.3765 -0.1398
 8037SOL     OW35569   0.395   0.804  17.328  0.1503  0.3207 -0.2692
 8037SOL    HW135570   0.431   0.736  17.272  0.6164  1.0371 -0.8478
 8037SOL    HW235571   0.408   0.766  17.415 -0.7223  1.4957  0.3697
 8038SOL     OW35572   0.557   2.716  16.022  0.1721  0.2746 -0.2461
 8038SOL    HW135573   0.549   2.626  15.990  0.2275 -0.8568  2.9813
 8038SOL    HW235574   0.558   2.770  15.943 -0.2056  1.4156  0.5269
 8039SOL     OW35575   1.007   4.621   4.595  0.3822 -0.1251  0.4856
 8039SOL    HW135576   0.944   4.551   4.578 -0.6772  0.6271  1.3568
 8039SOL    HW235577   1.088   4.576   4.571  0.1446  0.7000 -1.8838
 8040SOL     OW35578   0.021   3.672   3.134  0.1817 -0.4802 -0.1174
 8040SOL    HW135579   0.074   3.593   3.143 -2.3660 -2.3869 -1.7686
 8040SOL    HW235580   4.704   3.657   3.046 -0.0911  1.8769 -0.4082
 8041SOL     OW35581   4.316   3.862   5.813 -0.2481  0.0830 -0.3311
 8041SOL    HW135582   4.374   3.830   5.744  0.9852  2.0596 -0.2122
 8041SOL    HW235583   4.377   3.905   5.873 -0.7191 -0.9437  0.8697
 8042SOL     OW35584   2.108   3.626   7.206  0.0209 -0.6410 -0.0709
 8042SOL    HW135585   2.159   3.639   7.286 -0.5681 -0.6547  0.2991
 8042SOL    HW235586   2.179   3.585   7.157  1.0662  0.1013  0.8170
 8043SOL     OW35587   3.512   3.311   3.996  0.0495  0.3327  0.2189
 8043SOL    HW135588   3.417   3.320   3.985  0.3373  1.4680 -1.5022
 8043SOL    HW235589   3.541   3.280   3.910  1.0140  1.7938  0.0115
 8044SOL     OW35590   2.620   3.323   8.839 -0.1968  0.7518 -0.0849
 8044SOL    HW135591   2.675   3.398   8.862  0.3667 -0.1573  1.5172
 8044SOL    HW235592   2.537   3.369   8.854  0.7730  2.2452  0.6083
 8045SOL     OW35593   2.953   2.104  11.392 -0.0643  0.0282 -0.8222
 8045SOL    HW135594   2.987   2.193  11.404 -0.4520 -0.2804  2.5585
 8045SOL    HW235595   2.955   2.090  11.297 -0.9971 -0.1303 -0.8167
 8046SOL     OW35596   2.953   2.175   3.801 -0.0165  0.0103 -0.0306
 8046SOL    HW135597   2.998   2.223   3.732  0.3210  0.2654  0.3654
 8046SOL    HW235598   2.993   2.089   3.789  0.2242  0.1305 -0.0914
 8047SOL     OW35599   0.285   4.415   7.724 -0.1000 -0.1307  0.6309
 8047SOL    HW135600   0.333   4.431   7.806  0.9173 -2.2834  0.4789
 8047SOL    HW235601   0.305   4.321   7.716 -2.1965 -0.5867  0.9085
 8048SOL     OW35602   1.076   4.163   6.188 -0.6343 -0.3323  0.1436
 8048SOL    HW135603   1.022   4.149   6.266  0.1444 -2.5020  0.2756
 8048SOL    HW235604   1.151   4.105   6.197 -2.5196 -3.0386 -1.6583
 8049SOL     OW35605   3.552   3.892   1.546 -0.3902  0.1492  0.3178
 8049SOL    HW135606   3.501   3.841   1.609  0.5633 -0.4112  0.6453
 8049SOL    HW235607   3.638   3.915   1.581  0.9909 -3.1508 -0.8402
 8050SOL     OW35608   4.192   3.887   3.287  0.3745 -0.4183 -0.2713
 8050SOL    HW135609   4.195   3.909   3.194  1.2175  2.0422  0.3311
 8050SOL    HW235610   4.121   3.948   3.308  2.3846  2.3093 -1.3581
 8051SOL     OW35611   4.240   3.075   6.193  0.0144  0.5693  0.0462
 8051SOL    HW135612   4.285   3.049   6.112  1.6626 -2.9137  2.0660
 8051SOL    HW235613   4.151   3.045   6.176 -0.0566  0.8653 -0.0918
 8052SOL     OW35614   0.872   1.636  13.122 -0.4679 -0.0218  0.0306
 8052SOL    HW135615   0.906   1.638  13.211  0.7312 -0.5888 -0.4093
 8052SOL    HW235616   0.787   1.674  13.145  0.3201  1.0683  1.1310
 8053SOL     OW35617   1.925   4.569   6.908 -0.1719 -1.1227 -0.1579
 8053SOL    HW135618   1.885   4.615   6.982 -0.8782 -0.4522 -0.9553
 8053SOL    HW235619   1.892   4.482   6.931 -2.0384 -0.8265 -1.6855
 8054SOL     OW35620   4.324   3.594  11.632  0.3874 -0.2537  0.0221
 8054SOL    HW135621   4.286   3.606  11.719 -0.7047 -2.8522 -0.1003
 8054SOL    HW235622   4.339   3.686  11.610  0.7704  0.1690  1.9955
 8055SOL     OW35623   1.670   1.967   6.019  0.0320  0.8267 -0.0226
 8055SOL    HW135624   1.715   2.007   6.094 -0.8319  0.2314  0.8163
 8055SOL    HW235625   1.744   1.961   5.959 -2.6059  0.0534 -3.2611
 8056SOL     OW35626   2.873   4.071   0.240 -0.2464 -0.2140  0.3150
 8056SOL    HW135627   2.958   4.110   0.221  0.4895 -2.0505 -0.1640
 8056SOL    HW235628   2.857   4.136   0.308 -1.3543 -1.8629  1.6462
 8057SOL     OW35629   3.651   0.687   3.499  0.7350 -0.0409  0.2210
 8057SOL    HW135630   3.736   0.645   3.493  0.1479 -0.8664 -2.3647
 8057SOL    HW235631   3.622   0.662   3.411 -0.6278 -0.7238  0.8568
 8058SOL     OW35632   2.338   4.570   0.304 -0.2431  0.3968 -0.3211
 8058SOL    HW135633   2.294   4.515   0.368  0.9628 -0.7729 -0.5111
 8058SOL    HW235634   2.418   4.520   0.316  0.0838  0.5125 -1.9552
 8059SOL     OW35635   1.966   1.768   2.572  0.1719 -0.3219 -0.2044
 8059SOL    HW135636   1.979   1.724   2.487 -0.2450 -1.5314  0.3653
 8059SOL    HW235637   1.900   1.707   2.604 -0.5923  0.1146 -0.9230
 8060SOL     OW35638   3.994   4.050   5.466 -0.2354 -0.5755  0.0033
 8060SOL    HW135639   4.028   3.988   5.531  0.4371  1.0245  1.1758
 8060SOL    HW235640   4.023   4.014   5.382  3.2429  1.0764  0.4783
 8061SOL     OW35641   0.570   1.714   2.262  0.1095 -0.0396  0.0609
 8061SOL    HW135642   0.535   1.803   2.256  1.4861  0.5135  0.2523
 8061SOL    HW235643   0.494   1.669   2.225 -0.4572 -1.8672  3.4295
 8062SOL     OW35644   1.986   3.449   6.264 -0.2148 -0.1192  0.0595
 8062SOL    HW135645   2.074   3.480   6.284 -0.2434 -0.3996  0.6440
 8062SOL    HW235646   1.959   3.429   6.354  0.9913 -3.5326 -0.3369
 8063SOL     OW35647   1.955   3.354  11.791 -0.3704 -0.0798  0.4626
 8063SOL    HW135648   2.011   3.289  11.748  0.2879 -0.1358  1.4063
 8063SOL    HW235649   2.031   3.404  11.823 -1.0467  0.4270  1.2558
 8064SOL     OW35650   0.719   4.412   8.325 -0.2499  0.0461  0.7060
 8064SOL    HW135651   0.799   4.453   8.357 -0.6989 -0.1896  2.1140
 8064SOL    HW235652   0.723   4.321   8.353  0.1180  0.1544  1.0111
 8065SOL     OW35653   1.901   3.290   8.087 -0.1449 -0.6118 -0.0119
 8065SOL    HW135654   1.842   3.312   8.159  2.1280  1.2946  1.2931
 8065SOL    HW235655   1.902   3.378   8.049  2.4245  0.4679  2.5094
 8066SOL     OW35656   2.233   2.818   1.840  0.1362 -0.2803 -0.1518
 8066SOL    HW135657   2.240   2.886   1.773  3.3120  1.8126  2.2794
 8066SOL    HW235658   2.208   2.877   1.911  1.3799  0.4837 -0.3516
 8067SOL     OW35659   0.967   3.770   3.537  0.2203  0.6378  0.0350
 8067SOL    HW135660   0.986   3.824   3.461  1.2543  0.4250  0.1381
 8067SOL    HW235661   1.052   3.780   3.582 -0.0061  1.1401  0.3558
 8068SOL     OW35662   3.416   2.129   5.568 -0.4221 -0.1409  0.1388
 8068SOL    HW135663   3.412   2.054   5.508  1.3006 -0.9112  0.9757
 8068SOL    HW235664   3.420   2.090   5.656 -0.8067 -1.8081 -0.5791
 8069SOL     OW35665   4.681   1.577  12.925  0.0330  0.4712 -0.3401
 8069SOL    HW135666   4.598   1.596  12.968  1.3634  2.6748  1.2238
 8069SOL    HW235667   4.682   1.659  12.877  2.5168 -1.8316 -4.2221
 8070SOL     OW35668   0.690   3.036  14.763  0.6119  0.0198 -0.3089
 8070SOL    HW135669   0.633   2.976  14.811 -1.0653  0.4042 -1.8457
 8070SOL    HW235670   0.652   3.017  14.678 -1.6410 -0.5798  0.8264
 8071SOL     OW35671   4.312   0.694  16.467 -0.4170  0.1461 -0.1926
 8071SOL    HW135672   4.373   0.715  16.538 -0.2219 -2.1296  0.3373
 8071SOL    HW235673   4.276   0.609  16.495  3.8298 -1.8908 -0.8698
 8072SOL     OW35674   2.548   1.971   2.547 -0.1098  0.3423 -0.2199
 8072SOL    HW135675   2.455   1.955   2.533  0.2140 -0.8242 -1.0798
 8072SOL    HW235676   2.569   1.882   2.576 -2.1439  0.1775  0.7177
 8073SOL     OW35677   1.917   2.910  16.314  0.0240  0.2680  0.2608
 8073SOL    HW135678   1.959   2.878  16.234  0.7784  1.1874  0.2855
 8073SOL    HW235679   1.981   2.970  16.352 -0.4785  0.1243  1.3201
 8074SOL     OW35680   2.507   1.245   7.832 -0.2242 -0.1062 -0.0181
 8074SOL    HW135681   2.575   1.186   7.801 -0.1601  0.9601 -1.8966
 8074SOL    HW235682   2.458   1.193   7.896  1.0368 -1.2341  0.0325
 8075SOL     OW35683   3.607   4.028   3.622  0.1255 -0.3766  0.1655
 8075SOL    HW135684   3.589   4.122   3.618 -0.1410 -0.3899  1.0812
 8075SOL    HW235685   3.690   4.024   3.575  0.3815  1.3681  0.4620
 8076SOL     OW35686   3.013   3.606   7.472  0.0222 -0.6173 -0.5223
 8076SOL    HW135687   3.015   3.644   7.560 -0.7571 -0.1111 -0.7223
 8076SOL    HW235688   3.056   3.672   7.418 -1.8918  1.0675  0.0467
 8077SOL     OW35689   3.832   0.567   5.305 -0.0569 -0.4082  0.0108
 8077SOL    HW135690   3.845   0.659   5.327 -1.7356 -0.4963  1.4175
 8077SOL    HW235691   3.736   0.564   5.312 -0.0728 -0.1855 -0.1103
 8078SOL     OW35692   0.491   4.039   3.007 -0.3096 -0.3172 -0.0504
 8078SOL    HW135693   0.433   4.114   3.022 -0.9836 -0.5210 -1.7373
 8078SOL    HW235694   0.555   4.082   2.951 -0.6456  0.6667  0.3177
 8079SOL     OW35695   1.915   1.913   6.875  0.1840 -0.2886  0.5010
 8079SOL    HW135696   1.994   1.872   6.909  0.7778 -0.9509 -1.6461
 8079SOL    HW235697   1.947   1.931   6.787 -0.0639 -1.1185  0.2347
 8080SOL     OW35698   3.485   1.681   6.608  0.9357 -0.7040 -0.2300
 8080SOL    HW135699   3.464   1.603   6.660 -0.4506 -1.4189 -1.8669
 8080SOL    HW235700   3.433   1.663   6.530 -0.8980 -1.3442  1.1227
 8081SOL     OW35701   2.636   2.515  10.089 -0.6263  0.2857 -0.2120
 8081SOL    HW135702   2.628   2.438  10.146  1.6482 -1.4285 -2.2132
 8081SOL    HW235703   2.576   2.504  10.015  1.4380 -0.4277 -1.7492
 8082SOL     OW35704   1.777   2.582   8.383  0.3482 -0.3348 -0.4376
 8082SOL    HW135705   1.829   2.662   8.388  1.1307 -0.9436  1.1291
 8082SOL    HW235706   1.778   2.551   8.474 -2.3599  0.6845 -0.0670
 8083SOL     OW35707   2.963   4.559   5.671 -0.1576 -0.3794 -0.4314
 8083SOL    HW135708   2.946   4.618   5.744 -0.9663 -0.1784 -0.7804
 8083SOL    HW235709   3.021   4.495   5.713  0.2420 -0.3216 -0.8858
 8084SOL     OW35710   4.103   2.923   8.762 -0.2373  0.1491 -0.5769
 8084SOL    HW135711   4.199   2.917   8.768 -0.2136  0.7085 -0.4169
 8084SOL    HW235712   4.080   3.008   8.800 -2.1343 -0.0057 -1.3617
 8085SOL     OW35713   1.352   4.611   8.556 -0.3960 -0.3454 -0.6857
 8085SOL    HW135714   1.382   4.523   8.581 -0.6474 -0.3345 -0.3404
 8085SOL    HW235715   1.433   4.654   8.530 -0.3002 -0.4333 -0.5333
 8086SOL     OW35716   0.151   1.576   0.207  1.2480  0.1573 -0.0266
 8086SOL    HW135717   0.214   1.577   0.135  1.8739 -2.2541  0.4851
 8086SOL    HW235718   0.175   1.505   0.266  0.6340  0.7677  0.9612
 8087SOL     OW35719   0.055   4.491   2.412 -0.8830 -0.5467  0.2167
 8087SOL    HW135720   0.109   4.537   2.475 -0.8038 -0.0957 -0.1769
 8087SOL    HW235721   0.037   4.559   2.347  0.5082 -1.8596 -1.5436
 8088SOL     OW35722   0.487   1.401   7.631  0.7522 -0.6733 -0.1558
 8088SOL    HW135723   0.510   1.444   7.714 -0.7188 -0.3399  0.0715
 8088SOL    HW235724   0.567   1.424   7.583  0.2234 -0.5136 -0.9623
 8089SOL     OW35725   0.785   0.688   5.879 -0.0725 -0.2167  0.4429
 8089SOL    HW135726   0.714   0.625   5.890  1.2361 -2.0763 -1.9147
 8089SOL    HW235727   0.729   0.755   5.838  0.2712 -0.9398 -1.1775
 8090SOL     OW35728   2.762   1.315   3.109  0.2198 -0.3674  0.6001
 8090SOL    HW135729   2.833   1.363   3.068 -1.3570  0.8657 -0.6996
 8090SOL    HW235730   2.691   1.361   3.064  0.1962 -0.7154  0.2785
 8091SOL     OW35731   3.836   3.880   7.546 -0.2315  0.2807 -0.0178
 8091SOL    HW135732   3.885   3.960   7.563 -1.4469  0.5965  1.9335
 8091SOL    HW235733   3.850   3.861   7.453  1.2085  0.1228  0.2424
 8092SOL     OW35734   2.072   3.328   4.078  1.0005 -0.3214 -0.1789
 8092SOL    HW135735   2.001   3.309   4.017  1.4995 -2.9919  0.0600
 8092SOL    HW235736   2.146   3.347   4.021  2.2793 -0.8036  1.2900
 8093SOL     OW35737   4.536   1.901  17.486  0.2033 -0.6439  0.4765
 8093SOL    HW135738   4.597   1.900  17.560  0.2384 -1.2035  0.4446
 8093SOL    HW235739   4.491   1.816  17.490 -0.4955 -0.1919  1.9873
 8094SOL     OW35740   1.938   2.439  13.483  0.0060  0.0495  0.3661
 8094SOL    HW135741   1.981   2.524  13.469  0.0467 -0.0440 -0.0786
 8094SOL    HW235742   1.902   2.417  13.397 -2.9166  0.6843  1.4283
 8095SOL     OW35743   1.963   0.667   0.362 -0.0538  0.2871 -0.5462
 8095SOL    HW135744   2.021   0.642   0.434 -0.7080  1.6236  0.4469
 8095SOL    HW235745   1.911   0.730   0.411 -1.5321  0.6805 -2.6390
 8096SOL     OW35746   3.567   0.060  16.626  0.0051  0.2356 -0.0536
 8096SOL    HW135747   3.625   0.015  16.565 -1.8865 -1.7762 -0.4048
 8096SOL    HW235748   3.582   0.007  16.705 -0.5266  0.4004  0.1603
 8097SOL     OW35749   1.706   1.302   2.733 -0.2267 -0.7585 -0.6059
 8097SOL    HW135750   1.727   1.262   2.818  1.1887 -2.6827 -1.8825
 8097SOL    HW235751   1.613   1.281   2.724 -0.1514 -0.2655 -2.5656
 8098SOL     OW35752   2.140   2.694  12.137  0.3630 -0.5178 -0.4964
 8098SOL    HW135753   2.065   2.639  12.113 -0.3419  0.0992  0.3049
 8098SOL    HW235754   2.150   2.739  12.053  0.9026  0.4183  0.0698
 8099SOL     OW35755   4.117   0.635   5.566 -0.4066  0.2700  0.0690
 8099SOL    HW135756   4.135   0.620   5.659  0.2621  2.2168  0.2578
 8099SOL    HW235757   4.205   0.665   5.544 -0.9214  1.7849  0.0317
 8100SOL     OW35758   3.443   0.582  13.825 -0.3564 -0.0995  0.0522
 8100SOL    HW135759   3.382   0.649  13.854  1.3362  1.3099  0.3834
 8100SOL    HW235760   3.440   0.511  13.889  0.7158  0.0081  0.2336
 8101SOL     OW35761   4.110   3.549   3.446 -0.9130 -0.5582  0.4801
 8101SOL    HW135762   4.032   3.525   3.397 -0.7969 -4.4728  2.2583
 8101SOL    HW235763   4.083   3.522   3.533  0.7937  0.3256  1.2797
 8102SOL     OW35764   0.448   2.520   0.928  0.4876 -0.0566  0.3353
 8102SOL    HW135765   0.529   2.503   0.881 -0.3673 -1.2718 -0.6740
 8102SOL    HW235766   0.414   2.597   0.882 -1.5656 -0.0479  1.8126
 8103SOL     OW35767   1.874   2.164   7.833  0.1222 -0.0151  0.1554
 8103SOL    HW135768   1.816   2.240   7.829  1.0979  0.8011  1.5163
 8103SOL    HW235769   1.937   2.196   7.898  0.8719 -0.1937 -0.4789
 8104SOL     OW35770   4.196   0.059   4.858  0.0258  0.1533 -0.4028
 8104SOL    HW135771   4.254   0.104   4.796 -0.1502 -2.1894 -2.2615
 8104SOL    HW235772   4.189   0.124   4.928  1.3271  2.1850 -2.1439
 8105SOL     OW35773   0.740   0.169   1.114  0.4220 -0.0550 -0.3120
 8105SOL    HW135774   0.678   0.232   1.077  1.1333  1.3557  0.9196
 8105SOL    HW235775   0.795   0.155   1.036  0.9465 -0.4234  0.1235
 8106SOL     OW35776   3.008   1.697   1.678  0.3310  0.2988 -0.1145
 8106SOL    HW135777   3.038   1.714   1.768  2.7633 -0.7791 -0.7234
 8106SOL    HW235778   2.965   1.777   1.648  2.0001  0.2531 -2.6201
 8107SOL     OW35779   2.308   1.264   8.745  0.4230  0.7846  0.3487
 8107SOL    HW135780   2.391   1.299   8.779  1.1038 -0.5099 -0.0061
 8107SOL    HW235781   2.248   1.312   8.802  0.5292 -0.1549  1.2417
 8108SOL     OW35782   0.490   4.022   4.304  0.0267  0.3876 -0.6696
 8108SOL    HW135783   0.456   3.933   4.301  0.8923  0.0842 -1.6792
 8108SOL    HW235784   0.410   4.059   4.341  0.0006  0.1300 -0.4759
 8109SOL     OW35785   2.275   0.337   4.844 -0.3619 -0.2758 -0.0114
 8109SOL    HW135786   2.233   0.347   4.930  0.2743 -0.2752  0.2991
 8109SOL    HW235787   2.198   0.322   4.790 -0.7854 -1.3176  0.8847
 8110SOL     OW35788   0.087   1.147  14.049 -0.1032  0.1699 -0.3208
 8110SOL    HW135789   0.078   1.067  14.100 -0.6956  0.1787 -0.4142
 8110SOL    HW235790   0.180   1.156  14.030  0.2650 -1.2290  0.9122
 8111SOL     OW35791   0.597   0.918  15.139 -0.5565  0.7109 -0.1704
 8111SOL    HW135792   0.667   0.862  15.174 -1.5663  0.0765  0.8741
 8111SOL    HW235793   0.588   0.883  15.050 -1.0942 -0.5922  0.3952
 8112SOL     OW35794   3.926   2.622   6.251 -0.4354  0.6369 -0.0680
 8112SOL    HW135795   3.906   2.540   6.207  0.4941 -0.5796  1.7651
 8112SOL    HW235796   3.890   2.680   6.184  0.0755  0.1889 -0.7258
 8113SOL     OW35797   2.892   1.053  15.219  0.1552  0.3839 -0.2660
 8113SOL    HW135798   2.957   1.074  15.286  0.7030 -1.4618 -0.2189
 8113SOL    HW235799   2.818   1.068  15.279 -1.4584  0.2894 -2.2390
 8114SOL     OW35800   2.852   0.089   2.449  0.1945  0.3646  0.3823
 8114SOL    HW135801   2.941   0.119   2.464  0.7170 -0.3796 -1.2665
 8114SOL    HW235802   2.842   0.122   2.359  0.4657 -0.0711  0.1952
 8115SOL     OW35803   0.320   2.866   6.050 -0.0883  0.4749 -0.3121
 8115SOL    HW135804   0.279   2.927   6.111  0.7690  0.8656 -0.1224
 8115SOL    HW235805   0.333   2.790   6.107 -1.6157 -0.4367 -1.1761
 8116SOL     OW35806   4.095   1.063   2.234  0.0905  0.2126 -0.1165
 8116SOL    HW135807   4.000   1.061   2.225  0.1319 -0.4260 -0.4619
 8116SOL    HW235808   4.120   0.979   2.194 -0.0405 -0.4406  1.1700
 8117SOL     OW35809   1.985   0.266  10.182  0.3544 -0.4889 -0.3441
 8117SOL    HW135810   2.079   0.261  10.202 -0.1582  0.4548  2.1873
 8117SOL    HW235811   1.964   0.178  10.149 -1.5104 -0.2191  0.1507
 8118SOL     OW35812   4.687   0.020  12.035  0.4386 -0.2104  0.1441
 8118SOL    HW135813   0.031   4.709  12.100 -0.5427 -0.9113  0.7688
 8118SOL    HW235814   0.024   0.040  11.961  0.2705 -1.4157 -0.3005
 8119SOL     OW35815   0.337   3.355   7.665 -0.3505  0.0741 -0.0317
 8119SOL    HW135816   0.246   3.381   7.653  0.1104  1.1818 -1.0727
 8119SOL    HW235817   0.329   3.269   7.624  0.4983  0.2868 -0.6484
 8120SOL     OW35818   3.958   2.072   1.488  0.0951  0.0930 -0.2179
 8120SOL    HW135819   3.863   2.080   1.494  0.1365 -0.8055  1.5964
 8120SOL    HW235820   3.976   1.994   1.540  1.4752  0.3294 -0.3255
 8121SOL     OW35821   0.607   3.141   8.328 -0.4121 -0.0802  0.2496
 8121SOL    HW135822   0.575   3.231   8.325  0.7109  0.2121 -2.3475
 8121SOL    HW235823   0.702   3.149   8.325 -0.6359  2.2633 -0.4095
 8122SOL     OW35824   0.127   1.303   2.791 -0.7196 -0.2358 -0.2291
 8122SOL    HW135825   0.153   1.234   2.852  0.3455 -1.0434 -1.6145
 8122SOL    HW235826   0.141   1.261   2.707  3.7643 -0.9150  0.8727
 8123SOL     OW35827   0.487   4.531   2.917 -0.2732  0.2362  0.6716
 8123SOL    HW135828   0.458   4.442   2.898  2.7063 -0.5970  0.1161
 8123SOL    HW235829   0.462   4.576   2.836 -0.3238  1.2329  1.2383
 8124SOL     OW35830   2.254   1.343   7.060  0.0124  0.1314  0.0250
 8124SOL    HW135831   2.313   1.408   7.098  0.3495 -0.6947  0.9169
 8124SOL    HW235832   2.198   1.311   7.131 -0.0045  2.0349  0.8610
 8125SOL     OW35833   1.578   4.554  13.005  0.7834 -0.3037 -0.2275
 8125SOL    HW135834   1.631   4.573  13.082  1.8126 -1.3584 -0.6875
 8125SOL    HW235835   1.528   4.636  13.001  1.9114  0.3513 -1.0225
 8126SOL     OW35836   1.427   1.544   1.460 -0.0442 -0.0749 -0.3078
 8126SOL    HW135837   1.509   1.525   1.506  0.1870 -3.0318 -1.9287
 8126SOL    HW235838   1.380   1.469   1.496 -3.2322  0.9987 -2.2757
 8127SOL     OW35839   0.001   3.144   7.478  0.1559  0.1328 -0.4193
 8127SOL    HW135840   4.629   3.145   7.450  0.0764  3.1793 -0.0548
 8127SOL    HW235841   0.048   3.117   7.399  3.4803  0.0338  1.5980
 8128SOL     OW35842   4.469   0.492   5.497  0.2411 -0.2940  0.3341
 8128SOL    HW135843   4.435   0.442   5.571  0.3758  0.5785  0.9861
 8128SOL    HW235844   4.563   0.473   5.497  0.0214 -1.3342 -0.6691
 8129SOL     OW35845   3.335   1.186   7.182  1.1446  0.5450  0.1368
 8129SOL    HW135846   3.377   1.102   7.199 -0.0070 -0.2651 -1.0681
 8129SOL    HW235847   3.249   1.155   7.209 -0.2814  3.1740 -1.4048
 8130SOL     OW35848   4.034   4.551   0.246  0.5094 -0.7300 -0.0150
 8130SOL    HW135849   3.954   4.504   0.223 -0.8706  1.4786  0.2435
 8130SOL    HW235850   4.045   4.618   0.178  1.0641 -0.3730  0.4167
 8131SOL     OW35851   4.383   1.754   2.120 -0.2735  0.6351 -0.7499
 8131SOL    HW135852   4.412   1.688   2.057  1.1048 -0.6498  1.2699
 8131SOL    HW235853   4.297   1.719   2.146 -0.1099 -0.4260 -1.6079
 8132SOL     OW35854   3.954   0.112   8.239 -0.4853  0.8135  0.1803
 8132SOL    HW135855   3.954   0.150   8.151  2.8152 -1.1203 -0.6336
 8132SOL    HW235856   4.030   0.157   8.275  0.5916  0.8692 -2.1523
 8133SOL     OW35857   3.979   4.231   1.216 -0.6231 -0.4947 -0.1217
 8133SOL    HW135858   3.945   4.314   1.250 -2.0220 -0.7032 -0.9969
 8133SOL    HW235859   4.029   4.263   1.141  1.3142 -0.6064  1.1249
 8134SOL     OW35860   1.651   1.495   9.312 -0.3900 -0.1868  0.3095
 8134SOL    HW135861   1.626   1.554   9.383 -1.5078  0.2732 -0.4710
 8134SOL    HW235862   1.734   1.455   9.338 -0.2055 -0.0951 -0.1493
 8135SOL     OW35863   0.977   0.582  15.415 -0.1108 -0.3582  0.0819
 8135SOL    HW135864   0.891   0.624  15.419  0.6728  1.3046 -0.5827
 8135SOL    HW235865   1.003   0.546  15.500  0.1873 -0.0214  0.1319
 8136SOL     OW35866   4.022   2.969  12.657 -0.3162  0.0025 -0.3669
 8136SOL    HW135867   3.966   3.025  12.712 -0.9770 -2.9612  2.0210
 8136SOL    HW235868   3.957   2.930  12.599 -0.4188  1.3812 -1.1615
 8137SOL     OW35869   1.072   1.590   1.294  0.6876  0.3385 -0.6672
 8137SOL    HW135870   1.057   1.554   1.382 -1.0908 -0.9702 -1.5118
 8137SOL    HW235871   1.154   1.636   1.314  0.6926  0.9034 -2.0394
 8138SOL     OW35872   3.004   2.140   6.059 -0.0687  0.1359 -0.0713
 8138SOL    HW135873   3.030   2.231   6.045  1.2092 -0.3327 -0.7705
 8138SOL    HW235874   2.938   2.134   5.990 -0.6526 -3.3004  0.7676
 8139SOL     OW35875   0.533   0.280   0.528 -0.0744  0.3939 -0.4917
 8139SOL    HW135876   0.551   0.214   0.596  1.3952  1.4806  0.1659
 8139SOL    HW235877   0.455   0.321   0.566  0.3144  0.1796  0.5585
 8140SOL     OW35878   2.717   1.661   1.395 -0.3602  0.0214 -0.7434
 8140SOL    HW135879   2.658   1.735   1.411 -0.4270 -0.2859  0.3853
 8140SOL    HW235880   2.791   1.690   1.342 -0.0539  1.5803  0.5590
 8141SOL     OW35881   0.840   0.844   8.885 -0.0459 -0.3061  0.2000
 8141SOL    HW135882   0.915   0.802   8.843 -0.2462 -0.7199  0.2616
 8141SOL    HW235883   0.849   0.936   8.861  2.9351 -1.0212 -1.3893
 8142SOL     OW35884   0.865   2.041   3.632  0.6284  0.6711  0.8063
 8142SOL    HW135885   0.887   1.976   3.565 -3.1036  0.6618 -0.4035
 8142SOL    HW235886   0.807   1.987   3.686  0.4584 -0.4534 -0.4819
 8143SOL     OW35887   0.453   4.314  10.365 -0.2707 -0.3148 -0.0396
 8143SOL    HW135888   0.436   4.371  10.290  0.0623 -0.1335  0.0223
 8143SOL    HW235889   0.508   4.375  10.414  1.0003 -1.1050 -0.4626
 8144SOL     OW35890   0.021   2.936   6.373  0.0496 -0.0369  0.3654
 8144SOL    HW135891   4.673   2.941   6.440 -1.9384  0.5248 -1.6680
 8144SOL    HW235892   4.706   2.874   6.309 -0.9283 -0.6422  1.5090
 8145SOL     OW35893   1.037   3.550   4.817 -0.2514  0.4867  0.0025
 8145SOL    HW135894   1.105   3.606   4.779  1.0302 -0.8194  0.3576
 8145SOL    HW235895   1.038   3.472   4.762  1.1058 -0.9132  2.0103
 8146SOL     OW35896   4.498   3.698   4.951 -0.0237  0.2236  0.1240
 8146SOL    HW135897   4.565   3.632   4.934 -0.2699  0.3419 -1.3096
 8146SOL    HW235898   4.414   3.655   4.934  0.3851  0.1115 -1.6091
 8147SOL     OW35899   0.176   0.908   5.271  0.3177 -0.0349 -0.7470
 8147SOL    HW135900   0.212   0.821   5.284 -0.6678 -0.7969 -3.1066
 8147SOL    HW235901   0.232   0.948   5.204  0.9308 -0.4572 -0.4876
 8148SOL     OW35902   1.295   4.399  12.335 -0.2357  0.3329  0.1904
 8148SOL    HW135903   1.230   4.374  12.402 -0.9907 -1.1985 -1.1231
 8148SOL    HW235904   1.237   4.449  12.278  0.0514 -0.5199 -0.8492
 8149SOL     OW35905   1.062   4.031   6.696 -0.3309  0.2585 -0.3870
 8149SOL    HW135906   1.058   4.110   6.749 -3.1184 -1.3574  1.8187
 8149SOL    HW235907   1.125   3.978   6.745 -0.2530  0.2099 -0.5394
 8150SOL     OW35908   2.898   1.787  15.971  0.4124 -0.3290 -0.2666
 8150SOL    HW135909   2.847   1.836  15.906  0.6873  2.8041  1.8286
 8150SOL    HW235910   2.840   1.787  16.047  0.6772 -2.8756 -0.0820
 8151SOL     OW35911   3.714   1.540   8.337 -0.0170  0.3339 -0.6391
 8151SOL    HW135912   3.630   1.502   8.363  0.8667  0.1158  1.9231
 8151SOL    HW235913   3.738   1.601   8.406  0.7606 -1.2327  0.4882
 8152SOL     OW35914   2.354   2.670   5.393  0.0556  0.2601  0.1168
 8152SOL    HW135915   2.291   2.602   5.418  0.1600 -0.4918 -1.7100
 8152SOL    HW235916   2.366   2.644   5.302 -1.5619 -1.0329  0.2776
 8153SOL     OW35917   0.235   2.174   2.747  0.3176 -0.3172 -0.3172
 8153SOL    HW135918   0.211   2.247   2.691 -0.1408  1.5281  2.2691
 8153SOL    HW235919   0.216   2.099   2.691  0.1066 -0.4453 -0.0729
 8154SOL     OW35920   0.244   2.013  14.819 -0.5976  0.1895 -0.1772
 8154SOL    HW135921   0.208   1.926  14.831 -0.7573  0.3575  0.5647
 8154SOL    HW235922   0.169   2.069  14.801 -0.3337  0.5942 -0.0228
 8155SOL     OW35923   0.872   0.831   1.350 -0.1412  0.0052 -0.5426
 8155SOL    HW135924   0.785   0.862   1.373  0.4269  1.2253 -0.0724
 8155SOL    HW235925   0.902   0.799   1.435 -2.0270  2.4109  1.0182
 8156SOL     OW35926   2.805   3.664  11.183  0.0580 -0.4122  0.2736
 8156SOL    HW135927   2.858   3.635  11.258  1.4906 -1.4315 -1.1382
 8156SOL    HW235928   2.873   3.668  11.116  1.7969  0.9634  2.1087
 8157SOL     OW35929   1.109   2.551   1.825  0.0653 -0.3448  0.1232
 8157SOL    HW135930   1.084   2.535   1.734 -1.0053  0.5211  0.2652
 8157SOL    HW235931   1.199   2.520   1.839  0.0319 -0.0377  1.0376
 8158SOL     OW35932   2.935   2.725   7.805  0.7658 -0.0455  0.1504
 8158SOL    HW135933   2.915   2.739   7.898 -0.5212 -1.7729  0.1401
 8158SOL    HW235934   2.862   2.667   7.783  0.8198 -1.0142  2.5063
 8159SOL     OW35935   4.607   0.909   2.779 -0.2147  0.9887  0.6201
 8159SOL    HW135936   4.604   0.863   2.863 -0.3554 -0.9732 -0.4675
 8159SOL    HW235937   4.514   0.924   2.762 -0.7289  0.2015  2.6759
 8160SOL     OW35938   4.007   2.627   6.858  0.5449  0.0004  0.2292
 8160SOL    HW135939   3.928   2.644   6.807  0.8377  0.4386 -0.0760
 8160SOL    HW235940   3.970   2.587   6.937  0.6048  0.3029  0.4088
 8161SOL     OW35941   0.182   1.439  12.614 -0.0075 -0.6138 -0.4750
 8161SOL    HW135942   0.236   1.487  12.677 -0.6838 -1.5314  0.8013
 8161SOL    HW235943   0.216   1.481  12.535  2.6215  1.3305  1.6974
 8162SOL     OW35944   3.169   1.183   1.661 -0.2355 -0.1155  0.3459
 8162SOL    HW135945   3.115   1.262   1.659  0.2825  0.2142 -0.7983
 8162SOL    HW235946   3.211   1.187   1.575  0.1575 -1.7738  0.4670
 8163SOL     OW35947   0.777   1.160   4.802 -0.1347 -0.5387 -0.0169
 8163SOL    HW135948   0.741   1.163   4.891 -1.2793 -2.0984 -0.4178
 8163SOL    HW235949   0.869   1.136   4.815  0.1427 -0.8252 -2.4039
 8164SOL     OW35950   2.215   1.689   6.385 -0.5139 -0.5112 -0.4845
 8164SOL    HW135951   2.240   1.722   6.471 -0.7266 -1.9456  0.1323
 8164SOL    HW235952   2.277   1.617   6.375 -0.4237 -0.8561  2.6868
 8165SOL     OW35953   4.530   3.480   0.801  0.7849 -0.1475 -0.4161
 8165SOL    HW135954   4.465   3.412   0.781  0.2104  0.9610 -2.3348
 8165SOL    HW235955   4.506   3.552   0.742  1.9101 -0.6432 -1.4766
 8166SOL     OW35956   3.299   2.530   7.278 -0.2167 -0.0221 -0.1223
 8166SOL    HW135957   3.223   2.474   7.262  1.0280 -2.7734  3.5971
 8166SOL    HW235958   3.271   2.607   7.229  1.0067 -1.0291 -2.4586
 8167SOL     OW35959   1.539   4.215   0.187 -0.0396  0.9421  0.2336
 8167SOL    HW135960   1.476   4.206   0.258 -0.2671 -1.6349 -0.2912
 8167SOL    HW235961   1.616   4.231   0.242 -0.3635 -0.2034  1.0009
 8168SOL     OW35962   0.300   4.413   6.006 -0.0300  0.1290  0.3839
 8168SOL    HW135963   0.310   4.486   6.067  1.3092  0.0220  0.2830
 8168SOL    HW235964   0.212   4.432   5.973 -0.1626  0.9607  1.2060
 8169SOL     OW35965   1.315   2.791   5.028 -0.0121  0.4175  0.1792
 8169SOL    HW135966   1.265   2.826   5.101 -1.4956  0.9627 -1.1000
 8169SOL    HW235967   1.379   2.737   5.074 -1.1080 -1.4999 -0.5478
 8170SOL     OW35968   4.452   4.148   5.199 -0.4775 -0.2844  0.5698
 8170SOL    HW135969   4.389   4.210   5.163  0.2704  0.9315  1.3510
 8170SOL    HW235970   4.394   4.085   5.243  1.5412 -1.7354  1.1481
 8171SOL     OW35971   1.316   3.653   2.733 -0.6771  0.5924 -0.5234
 8171SOL    HW135972   1.243   3.644   2.672  0.4793 -0.2614 -1.7841
 8171SOL    HW235973   1.287   3.602   2.809  1.6114 -1.9610 -1.3536
 8172SOL     OW35974   1.231   2.745   4.776 -0.3056  0.1836 -0.5542
 8172SOL    HW135975   1.270   2.814   4.828  2.3417 -1.2031 -0.6786
 8172SOL    HW235976   1.294   2.673   4.781  1.2023  1.4772 -0.7841
 8173SOL     OW35977   0.879   0.097   3.978 -0.4584  0.1283 -0.3850
 8173SOL    HW135978   0.852   0.188   3.990 -0.2022  0.0403  0.8423
 8173SOL    HW235979   0.936   0.086   4.053 -0.6793  0.8902 -0.1051
 8174SOL     OW35980   0.030   1.182  11.268 -0.3669 -0.3286 -0.4001
 8174SOL    HW135981   0.049   1.267  11.229 -3.0389 -0.0495 -1.0498
 8174SOL    HW235982   0.051   1.197  11.361 -3.8761 -1.5844  0.5951
 8175SOL     OW35983   1.754   4.322   5.869  0.4817 -0.2106 -0.0418
 8175SOL    HW135984   1.681   4.278   5.914  0.1985 -1.1830 -1.4662
 8175SOL    HW235985   1.802   4.240   5.859 -0.2527 -0.5250 -0.9574
 8176SOL     OW35986   4.353   3.085   4.011 -0.5257  0.4401  0.0794
 8176SOL    HW135987   4.377   3.075   4.104 -1.7884  0.5475  0.4151
 8176SOL    HW235988   4.390   3.001   3.983 -1.3293  0.1472 -0.1002
 8177SOL     OW35989   3.046   0.188  11.710  0.6348 -0.1026  0.4402
 8177SOL    HW135990   3.046   0.283  11.701 -0.5634 -0.0412  1.0183
 8177SOL    HW235991   2.952   0.169  11.702  0.7661 -1.5566  2.1912
 8178SOL     OW35992   3.289   3.306   7.391  0.5520 -0.3049  0.6105
 8178SOL    HW135993   3.334   3.333   7.470 -0.3271 -1.7936  1.6188
 8178SOL    HW235994   3.218   3.248   7.418 -0.5087  0.2609 -0.9596
 8179SOL     OW35995   0.288   3.706   0.572 -0.8526  0.2235  0.1624
 8179SOL    HW135996   0.310   3.703   0.665  1.6774  0.4955 -0.4155
 8179SOL    HW235997   0.302   3.617   0.539 -1.3991  0.6754 -1.2970
 8180SOL     OW35998   4.638   3.974   6.103  0.2194 -0.4957 -0.3946
 8180SOL    HW135999   4.700   3.937   6.167 -0.9835  0.8241  1.5265
 8180SOL    HW236000   4.596   3.891   6.079 -1.8583  0.3480  0.3940
 8181SOL     OW36001   2.801   0.518   2.270 -0.8131  0.5710  0.0210
 8181SOL    HW136002   2.801   0.578   2.196  1.6547  0.9744  0.3417
 8181SOL    HW236003   2.755   0.443   2.233  0.9239  0.1885 -1.3600
 8182SOL     OW36004   4.636   1.397   0.567  0.0626  0.4527 -0.3563
 8182SOL    HW136005   4.641   1.353   0.482  2.4536  1.0293 -0.5188
 8182SOL    HW236006   4.640   1.321   0.625 -0.4845  1.2346  0.7065
 8183SOL     OW36007   2.715   2.608   7.754  0.0596 -0.1547  0.0501
 8183SOL    HW136008   2.730   2.544   7.685 -1.0795 -2.2693  1.7830
 8183SOL    HW236009   2.619   2.611   7.751  0.0927  1.6042  0.4672
 8184SOL     OW36010   4.491   2.574   2.304 -0.2156 -0.1679 -0.0700
 8184SOL    HW136011   4.415   2.547   2.252 -0.0154  2.9792 -2.0408
 8184SOL    HW236012   4.548   2.612   2.237  1.0095 -2.2154 -0.1803
 8185SOL     OW36013   0.154   4.570   4.377 -0.0951  0.2436 -0.3559
 8185SOL    HW136014   0.064   4.601   4.369 -0.9783 -2.5454 -0.9983
 8185SOL    HW236015   0.195   4.610   4.454  0.0317 -1.0721  0.2573
 8186SOL     OW36016   3.542   4.387   6.443  0.0178  0.1296 -0.4407
 8186SOL    HW136017   3.519   4.425   6.358  0.3718 -2.4000 -1.6835
 8186SOL    HW236018   3.624   4.427   6.471  0.0251 -0.2135  0.0320
 8187SOL     OW36019   3.275   0.933   0.707 -0.2774 -0.0998 -0.1218
 8187SOL    HW136020   3.316   0.902   0.626 -0.2421  1.5703 -0.7427
 8187SOL    HW236021   3.345   0.903   0.764  1.0466 -0.9527 -2.2042
 8188SOL     OW36022   2.863   1.183   7.107  0.3232  0.6827 -0.8116
 8188SOL    HW136023   2.859   1.226   7.193  1.3295 -2.2473  0.6983
 8188SOL    HW236024   2.801   1.112   7.124  2.1070 -0.6205  0.2470
 8189SOL     OW36025   1.645   3.983  12.974 -0.0817  0.4690  0.2780
 8189SOL    HW136026   1.621   3.924  13.046 -0.7050 -1.8949 -1.8915
 8189SOL    HW236027   1.564   4.033  12.971 -0.8768 -0.8865 -0.6148
 8190SOL     OW36028   2.292   4.420   7.401 -0.0589 -0.5293 -0.8250
 8190SOL    HW136029   2.204   4.453   7.385  0.3830  1.4826  0.9741
 8190SOL    HW236030   2.300   4.354   7.331 -1.5294  0.2077 -1.6793
 8191SOL     OW36031   3.315   0.211   6.009 -0.1260  0.6560  0.3581
 8191SOL    HW136032   3.297   0.128   5.964  2.9094  0.4432 -0.4327
 8191SOL    HW236033   3.259   0.189   6.084 -1.1972  1.1413 -0.3059
 8192SOL     OW36034   1.920   3.442   5.251 -0.8614  0.3197  0.3300
 8192SOL    HW136035   1.931   3.353   5.220  0.6563  0.2495  1.0566
 8192SOL    HW236036   1.828   3.456   5.226 -0.3089  1.1630 -1.2066
 8193SOL     OW36037   1.207   4.413   6.408 -0.2479 -0.2878 -0.2805
 8193SOL    HW136038   1.240   4.360   6.336  0.0073 -3.7001  2.3183
 8193SOL    HW236039   1.247   4.370   6.484  2.5320 -1.6675 -2.5410
 8194SOL     OW36040   3.554   2.576  11.076 -0.5575  0.6045  0.1811
 8194SOL    HW136041   3.497   2.633  11.128 -1.2567 -0.3219  0.4284
 8194SOL    HW236042   3.575   2.509  11.141  0.5592  1.3881  0.6372
 8195SOL     OW36043   1.240   0.803   6.332  0.5052 -0.2510  0.0269
 8195SOL    HW136044   1.219   0.856   6.256  0.4238  1.4111  1.2203
 8195SOL    HW236045   1.336   0.797   6.328  0.4172 -0.6613 -1.2656
 8196SOL     OW36046   3.152   2.816   1.499 -0.2287  0.2704  0.5479
 8196SOL    HW136047   3.211   2.745   1.524 -0.8467 -1.0005 -1.5814
 8196SOL    HW236048   3.071   2.785   1.539 -0.1175 -0.3235  0.3133
 8197SOL     OW36049   4.151   0.636   0.399  0.5297 -0.1505  0.5516
 8197SOL    HW136050   4.064   0.595   0.402 -0.3251  1.5448 -0.8187
 8197SOL    HW236051   4.136   0.714   0.453 -0.9706  0.2616 -0.4472
 8198SOL     OW36052   3.456   3.760   1.756  0.2344 -0.3970 -0.2215
 8198SOL    HW136053   3.487   3.676   1.789 -0.3729  0.1246  1.6458
 8198SOL    HW236054   3.395   3.779   1.827 -1.3078 -0.6567 -1.4529
 8199SOL     OW36055   3.200   2.823   2.868  0.6012 -0.3716  0.3809
 8199SOL    HW136056   3.214   2.914   2.840 -1.2208 -0.1816  0.0899
 8199SOL    HW236057   3.177   2.844   2.958 -0.1975  2.0295 -0.3731
 8200SOL     OW36058   2.421   0.831   8.852  1.1497 -0.2133  0.1536
 8200SOL    HW136059   2.480   0.866   8.786 -1.5027  1.2845 -1.4679
 8200SOL    HW236060   2.440   0.882   8.931 -3.1501 -1.5603  2.1082
 8201SOL     OW36061   0.179   2.776  13.693  0.3354 -0.3809 -0.2730
 8201SOL    HW136062   0.252   2.828  13.659  0.4754 -0.0833  0.4665
 8201SOL    HW236063   0.204   2.684  13.682 -0.0381 -0.6611  1.1737
 8202SOL     OW36064   3.505   3.692   4.664 -0.3415  0.3184 -0.4863
 8202SOL    HW136065   3.485   3.606   4.626 -0.0611 -0.9192  2.1649
 8202SOL    HW236066   3.421   3.707   4.709  0.6432  1.1539  1.0659
 8203SOL     OW36067   0.750   3.553   3.292 -0.0138 -0.1729  0.1107
 8203SOL    HW136068   0.794   3.603   3.362  0.7635 -0.4227 -0.1978
 8203SOL    HW236069   0.678   3.514   3.341 -1.2090 -0.7149 -2.0873
 8204SOL     OW36070   1.996   2.844  15.730  0.2068 -0.2771 -0.5167
 8204SOL    HW136071   1.968   2.861  15.820 -0.2435 -0.0460 -0.7012
 8204SOL    HW236072   2.074   2.790  15.742 -0.6986 -1.4161  0.3156
 8205SOL     OW36073   2.271   4.654   4.126  0.5546  0.6488 -0.0985
 8205SOL    HW136074   2.233   0.018   4.098  0.8938  0.5636 -0.8353
 8205SOL    HW236075   2.362   4.679   4.104  1.1048 -3.4128 -2.4125
 8206SOL     OW36076   3.502   4.543   4.924 -0.8164  0.4838 -0.0400
 8206SOL    HW136077   3.511   4.448   4.917  1.8077  0.8107 -1.0823
 8206SOL    HW236078   3.516   4.561   5.017  2.2543 -0.9436 -0.2540
 8207SOL     OW36079   0.474   4.708   3.504  0.1675  0.3295 -0.2187
 8207SOL    HW136080   0.414   0.008   3.576 -0.7924 -0.2192 -0.8675
 8207SOL    HW236081   0.471   4.612   3.497 -1.9197  0.2468  1.6908
 8208SOL     OW36082   4.686   1.636   0.395  0.1603 -0.3617  0.0175
 8208SOL    HW136083   0.019   1.573   0.443 -2.2729 -0.9614  1.8575
 8208SOL    HW236084   0.006   1.644   0.308 -0.4061  0.3930 -0.1768
 8209SOL     OW36085   1.731   1.056   7.143 -0.1710 -0.1402  0.7608
 8209SOL    HW136086   1.698   0.966   7.146 -0.7561  0.1827  3.8256
 8209SOL    HW236087   1.677   1.093   7.212 -2.4345 -1.0649 -0.4951
 8210SOL     OW36088   0.323   2.158   5.858 -0.2935  0.0784 -0.2530
 8210SOL    HW136089   0.283   2.166   5.944  1.4259 -1.2553  0.6690
 8210SOL    HW236090   0.270   2.214   5.801 -1.1703 -1.9724 -1.4649
 8211SOL     OW36091   3.615   1.804  12.043  0.5156  0.0424  0.0506
 8211SOL    HW136092   3.638   1.727  12.095  0.1757 -0.6077 -0.7550
 8211SOL    HW236093   3.528   1.781  12.009  0.2237  1.6606 -0.2793
 8212SOL     OW36094   1.356   2.746   7.606  0.1271  0.3445 -0.3701
 8212SOL    HW136095   1.440   2.784   7.581 -0.7171  0.8143 -2.5552
 8212SOL    HW236096   1.375   2.658   7.576 -1.2617 -0.3778  0.8931
 8213SOL     OW36097   2.080   2.816   6.590 -0.2522  0.3839 -0.5351
 8213SOL    HW136098   2.005   2.874   6.598  0.4485  1.1594  0.4027
 8213SOL    HW236099   2.082   2.819   6.494 -2.0370  4.0444 -0.4634
 8214SOL     OW36100   2.786   2.022   3.474 -0.2298  0.0794  0.0419
 8214SOL    HW136101   2.761   1.961   3.544  2.5511  0.3140  1.2294
 8214SOL    HW236102   2.744   2.104   3.499 -0.2248  0.2070 -0.3741
 8215SOL     OW36103   3.907   2.099   3.594 -0.1786  0.3644  0.2808
 8215SOL    HW136104   3.998   2.070   3.601 -0.7590 -1.5409 -0.2933
 8215SOL    HW236105   3.910   2.159   3.520  0.0443  2.2281  1.7827
 8216SOL     OW36106   2.477   1.337   9.476  0.6795  0.0941 -0.2771
 8216SOL    HW136107   2.449   1.254   9.440  1.5900 -0.2976 -0.0979
 8216SOL    HW236108   2.399   1.373   9.518  1.2578  1.0465 -0.0025
 8217SOL     OW36109   3.651   3.318   2.589 -0.2497  0.1883  0.1131
 8217SOL    HW136110   3.703   3.248   2.550 -0.2397 -0.3176  1.0264
 8217SOL    HW236111   3.605   3.272   2.659 -1.7184  1.8826  0.2524
 8218SOL     OW36112   1.943   3.142  10.069  0.0623  0.1994  0.0462
 8218SOL    HW136113   1.927   3.167   9.978  0.5166 -0.3656 -0.1889
 8218SOL    HW236114   2.031   3.105  10.069  0.1107  0.3132  0.7516
 8219SOL     OW36115   0.784   4.252   9.122 -0.0949  0.1502  0.0512
 8219SOL    HW136116   0.872   4.225   9.149  0.4981  0.4196 -1.6240
 8219SOL    HW236117   0.742   4.166   9.125 -0.8224  0.4903 -0.3509
 8220SOL     OW36118   1.067   3.457  17.459  0.0298  0.5275 -0.3257
 8220SOL    HW136119   1.108   3.537  17.425  1.4385  0.6624  1.6873
 8220SOL    HW236120   1.124   3.390  17.421  0.4056 -0.6613  2.3227
 8221SOL     OW36121   3.689   1.229  15.284 -0.5663 -0.1803  0.2865
 8221SOL    HW136122   3.617   1.202  15.227 -0.0449 -0.5063 -0.2192
 8221SOL    HW236123   3.663   1.321  15.290 -0.3945 -0.1694  0.8562
 8222SOL     OW36124   4.657   3.389  13.907  0.0422 -0.1438  0.2071
 8222SOL    HW136125   4.595   3.368  13.837 -0.8023 -3.3569  1.9093
 8222SOL    HW236126   4.646   3.301  13.945 -1.1862 -0.4990 -0.9387
 8223SOL     OW36127   2.226   2.338   5.707 -0.1055 -0.0661  0.0166
 8223SOL    HW136128   2.143   2.369   5.672 -0.3670 -0.4500  0.2988
 8223SOL    HW236129   2.215   2.245   5.685 -0.9033 -0.1437  0.7806
 8224SOL     OW36130   3.504   1.944   0.880 -0.0726 -0.2645  0.0924
 8224SOL    HW136131   3.494   1.880   0.951 -0.2751 -0.2061  0.1181
 8224SOL    HW236132   3.443   2.013   0.909  2.8789  1.9525  1.0321
 8225SOL     OW36133   4.694   1.002   7.104  0.0269  0.7630  0.0931
 8225SOL    HW136134   0.051   1.047   7.141 -0.4982  0.9660  0.9240
 8225SOL    HW236135   4.629   1.070   7.092  0.0981  0.8300  0.0860
 8226SOL     OW36136   3.246   0.451  12.043 -0.1908 -0.0361 -0.0437
 8226SOL    HW136137   3.204   0.384  12.097 -1.8646  1.0360 -0.0013
 8226SOL    HW236138   3.305   0.495  12.103  2.0163 -0.5051 -1.8692
 8227SOL     OW36139   1.576   4.590   2.165  0.5066  0.2156 -0.5537
 8227SOL    HW136140   1.535   4.560   2.084 -0.4125 -1.6361  0.5781
 8227SOL    HW236141   1.541   4.538   2.238 -0.1601  0.1717 -0.9057
 8228SOL     OW36142   2.608   2.574  12.495 -0.6672 -0.5749 -0.1481
 8228SOL    HW136143   2.531   2.610  12.541 -0.1393  0.3057  0.0489
 8228SOL    HW236144   2.667   2.559  12.568 -1.7662  2.1876  1.3122
 8229SOL     OW36145   3.622   0.196   8.796  0.1812 -0.2681 -0.0412
 8229SOL    HW136146   3.559   0.194   8.724 -0.2283  1.2830  0.2814
 8229SOL    HW236147   3.703   0.190   8.745  0.0288  1.3301 -0.4518
 8230SOL     OW36148   3.782   4.469   2.194  0.1735 -0.0970 -0.2004
 8230SOL    HW136149   3.702   4.483   2.245  1.2750 -2.6687  2.2459
 8230SOL    HW236150   3.815   4.558   2.180 -0.4503 -0.0189 -1.1464
 8231SOL     OW36151   3.402   3.136   7.180  0.6735  0.1557  0.4573
 8231SOL    HW136152   3.495   3.160   7.182  0.8093 -0.4193  0.9231
 8231SOL    HW236153   3.369   3.191   7.252 -0.6783 -1.2730  0.9230
 8232SOL     OW36154   0.718   4.584   3.036 -0.1185 -0.3423  0.6804
 8232SOL    HW136155   0.640   4.561   2.987  2.6265 -0.3157 -3.7745
 8232SOL    HW236156   0.688   4.610   3.123 -0.5562 -3.3731  1.4326
 8233SOL     OW36157   3.969   2.539  11.897 -0.1914 -0.9776 -0.1367
 8233SOL    HW136158   3.894   2.479  11.893 -1.0407 -0.0320  1.9525
 8233SOL    HW236159   4.036   2.482  11.934 -0.1404  0.2535  1.6605
 8234SOL     OW36160   3.977   0.570  13.787  0.0149  0.4007 -0.0812
 8234SOL    HW136161   3.884   0.579  13.808  0.0423  1.5158 -0.4446
 8234SOL    HW236162   3.981   0.476  13.803 -0.4465  0.7910  2.3673
 8235SOL     OW36163   0.221   4.594   3.434  1.2051 -0.1115  0.2196
 8235SOL    HW136164   0.158   4.533   3.396  1.8066  0.3614 -1.5362
 8235SOL    HW236165   0.165   4.658   3.478  1.0488  0.3652 -0.6731
 8236SOL     OW36166   0.652   3.258   4.743  0.5157  0.2071  0.0130
 8236SOL    HW136167   0.699   3.337   4.772  1.4142  0.3458 -1.8093
 8236SOL    HW236168   0.710   3.193   4.783  2.2625  1.3941 -0.5654
 8237SOL     OW36169   3.095   1.887   7.118  0.0110 -0.0325  1.0132
 8237SOL    HW136170   3.145   1.806   7.111 -3.0192 -2.1973  4.0171
 8237SOL    HW236171   3.121   1.918   7.205  0.8909  0.5526  0.5336
 8238SOL     OW36172   3.434   3.375  10.233 -0.3235 -0.7614  0.6815
 8238SOL    HW136173   3.505   3.415  10.183 -0.1969  0.1076  1.5520
 8238SOL    HW236174   3.364   3.371  10.168 -1.7516 -1.6606  2.2483
 8239SOL     OW36175   4.605   3.854  13.510  0.2297  0.5719  0.0454
 8239SOL    HW136176   4.679   3.794  13.504  0.5887  1.1478 -1.1479
 8239SOL    HW236177   4.634   3.917  13.575  1.0719 -1.1756  1.3594
 8240SOL     OW36178   0.201   3.275   5.443 -0.0807 -0.3834 -0.1620
 8240SOL    HW136179   0.204   3.210   5.372 -0.5136  0.3763 -0.8759
 8240SOL    HW236180   0.217   3.217   5.517 -0.8960 -0.6012 -0.1487
 8241SOL     OW36181   3.615   4.174   1.766 -0.9131 -0.5225  0.5427
 8241SOL    HW136182   3.547   4.225   1.722  1.4698  0.2564 -2.2312
 8241SOL    HW236183   3.683   4.179   1.700 -0.5291  0.7648  1.0442
 8242SOL     OW36184   0.366   0.229   0.905  0.2158 -0.1535  0.6013
 8242SOL    HW136185   0.356   0.252   0.812  1.2398  1.8907  0.9878
 8242SOL    HW236186   0.292   0.277   0.941 -0.7972 -0.5845 -0.8905
 8243SOL     OW36187   1.420   3.571   7.253  0.4242 -0.1195  0.2138
 8243SOL    HW136188   1.441   3.497   7.196 -0.8574  0.3383 -0.8288
 8243SOL    HW236189   1.456   3.543   7.337  3.3980  0.0862 -0.9968
 8244SOL     OW36190   2.232   3.087  13.126 -0.0881 -0.3409  0.3223
 8244SOL    HW136191   2.221   2.993  13.134  1.4569 -0.4908  0.7241
 8244SOL    HW236192   2.222   3.107  13.033 -0.4251 -1.2552  0.1650
 8245SOL     OW36193   3.513   2.673   6.324 -0.0810  0.1476  0.2082
 8245SOL    HW136194   3.550   2.622   6.252  1.3775 -0.2595  1.2421
 8245SOL    HW236195   3.440   2.723   6.288  0.6158  1.1448  0.2023
 8246SOL     OW36196   0.554   4.527   7.544  0.4258  0.3918  0.2448
 8246SOL    HW136197   0.474   4.549   7.593 -0.3110 -2.4793  0.3228
 8246SOL    HW236198   0.537   4.438   7.516 -1.3415 -0.5750  4.4304
 8247SOL     OW36199   3.273   1.656   3.600 -0.0539 -0.0881  0.6396
 8247SOL    HW136200   3.288   1.621   3.688 -1.2771 -0.0415  0.8617
 8247SOL    HW236201   3.303   1.580   3.549  0.1452 -1.7142  3.1498
 8248SOL     OW36202   0.501   0.606   8.564 -0.3044 -1.0129  0.0796
 8248SOL    HW136203   0.583   0.616   8.611 -0.9666  1.0242  0.7748
 8248SOL    HW236204   0.463   0.526   8.600  0.0424 -1.3274 -0.2514
 8249SOL     OW36205   0.262   3.192   4.001  0.6350 -0.0684  0.0188
 8249SOL    HW136206   0.302   3.278   4.013 -1.1493  0.9535 -1.2139
 8249SOL    HW236207   0.188   3.230   3.953 -0.4218  0.5057  2.1032
 8250SOL     OW36208   4.707   2.353  14.274 -0.5536  0.9709 -0.0402
 8250SOL    HW136209   4.624   2.400  14.261 -1.2072 -0.8517 -2.4221
 8250SOL    HW236210   0.049   2.426  14.277  0.2673  0.2647  0.2982
 8251SOL     OW36211   1.632   1.244   6.750  0.4205 -0.0594 -0.3711
 8251SOL    HW136212   1.555   1.282   6.708 -1.0958 -1.4462  1.2222
 8251SOL    HW236213   1.675   1.316   6.795  0.3697 -0.1561 -0.1709
 8252SOL     OW36214   0.034   2.218   6.434  0.4114 -0.0092  0.4463
 8252SOL    HW136215   0.052   2.278   6.507  0.2525  0.7868 -0.1691
 8252SOL    HW236216   0.120   2.204   6.395 -0.5318 -1.0263 -1.2409
 8253SOL     OW36217   4.094   4.107  14.426 -0.3407  0.2522  0.3094
 8253SOL    HW136218   4.185   4.114  14.395  0.1714  1.3771  2.0347
 8253SOL    HW236219   4.059   4.077  14.343  0.0038  0.0968  0.2231
 8254SOL     OW36220   1.649   2.326  14.095 -0.3312  0.0415  0.1558
 8254SOL    HW136221   1.595   2.249  14.115  0.3630 -0.5198 -0.1181
 8254SOL    HW236222   1.620   2.359  14.010 -2.6774 -0.5715  0.6919
 8255SOL     OW36223   3.832   1.454  10.807  0.9575  0.2705  0.3336
 8255SOL    HW136224   3.820   1.549  10.806 -0.6999  0.0428 -0.0975
 8255SOL    HW236225   3.760   1.427  10.864 -0.1811  0.9287 -0.8133
 8256SOL     OW36226   3.010   1.470   1.039 -0.2088 -0.0975  0.5958
 8256SOL    HW136227   2.991   1.383   1.002  1.5736  0.7777 -2.3222
 8256SOL    HW236228   2.989   1.451   1.131  2.8729  0.6083  1.4351
 8257SOL     OW36229   4.327   2.072   2.214 -0.2137 -0.6271  0.3734
 8257SOL    HW136230   4.409   2.093   2.169 -0.3356 -0.3450  0.2830
 8257SOL    HW236231   4.363   2.004   2.272  2.4223  0.8767  0.5243
 8258SOL     OW36232   4.206   1.991   6.272 -0.0181 -0.5068  0.1921
 8258SOL    HW136233   4.286   2.041   6.258 -0.2891  0.1166  0.8588
 8258SOL    HW236234   4.228   1.902   6.244  0.0228 -0.5909  0.4893
 8259SOL     OW36235   2.723   3.022   9.445 -0.4389 -0.2535  0.9042
 8259SOL    HW136236   2.665   2.974   9.504 -0.0337 -3.4945 -1.3239
 8259SOL    HW236237   2.652   3.072   9.404  1.5256  1.6263 -0.1268
 8260SOL     OW36238   1.869   3.254   7.750 -0.5353 -0.1355 -0.0408
 8260SOL    HW136239   1.902   3.332   7.706  1.4748  1.7284  4.7785
 8260SOL    HW236240   1.814   3.302   7.812  0.7854  2.1425 -0.6366
 8261SOL     OW36241   4.224   2.235   3.002 -0.6278 -0.2504 -0.2292
 8261SOL    HW136242   4.175   2.238   2.921 -0.2298 -2.4805 -0.5541
 8261SOL    HW236243   4.312   2.245   2.966 -0.3524 -0.6835  0.3212
 8262SOL     OW36244   0.175   3.287  14.051  0.0419  0.3242 -0.2230
 8262SOL    HW136245   0.186   3.297  13.956 -1.9174  2.1339 -0.2586
 8262SOL    HW236246   0.225   3.366  14.072  2.3346 -0.5102 -2.5875
 8263SOL     OW36247   4.267   4.155  10.104 -0.0300 -0.4110 -0.2776
 8263SOL    HW136248   4.228   4.199  10.029 -0.5116 -1.2142 -0.5088
 8263SOL    HW236249   4.221   4.203  10.173  2.1668  0.3765  0.6035
 8264SOL     OW36250   2.589   0.301  13.046  0.2150  0.1165 -0.1999
 8264SOL    HW136251   2.671   0.288  13.093  0.2485  0.0640 -0.2736
 8264SOL    HW236252   2.550   0.214  13.038  2.1443 -0.5612 -2.1120
 8265SOL     OW36253   3.424   4.565   2.910 -0.4536  0.3091 -0.4223
 8265SOL    HW136254   3.348   4.584   2.855 -0.0374  0.5906 -0.9024
 8265SOL    HW236255   3.494   4.611   2.863  0.5029  0.1721  0.8603
 8266SOL     OW36256   1.236   0.827  17.260 -0.3041  0.1195 -0.2366
 8266SOL    HW136257   1.200   0.769  17.327  1.3820 -0.6380  0.0306
 8266SOL    HW236258   1.260   0.906  17.308  0.7435  0.0367 -0.6116
 8267SOL     OW36259   3.507   2.529   9.024  0.0475 -0.1346 -0.2250
 8267SOL    HW136260   3.588   2.559   8.982  0.2278  1.4623  1.2569
 8267SOL    HW236261   3.479   2.616   9.052 -0.1701 -0.4592  0.5626
 8268SOL     OW36262   0.054   2.600   0.084  0.0264 -0.2025  0.8694
 8268SOL    HW136263   0.085   2.622   0.171  1.4946  1.6703 -0.1233
 8268SOL    HW236264   0.057   2.684   0.037 -1.4236 -1.2749 -1.1646
 8269SOL     OW36265   2.556   4.700  15.929  0.2869 -0.4333  0.3038
 8269SOL    HW136266   2.607   0.014  16.002  1.5154 -1.2311 -0.1847
 8269SOL    HW236267   2.613   4.626  15.908  0.5752 -0.8175  2.4353
 8270SOL     OW36268   3.056   0.445  15.502  0.2974 -0.7326 -0.6032
 8270SOL    HW136269   3.114   0.416  15.432 -0.7821 -1.7253 -1.0902
 8270SOL    HW236270   3.067   0.368  15.558 -0.9470  0.0235  0.7019
 8271SOL     OW36271   0.329   0.725   6.114  0.1097 -0.0260  0.5610
 8271SOL    HW136272   0.312   0.748   6.205 -0.0755 -0.8618  0.7406
 8271SOL    HW236273   0.390   0.653   6.130 -1.7314 -1.7233  0.1054
 8272SOL     OW36274   0.348   1.428   2.602 -0.1611 -0.0432 -0.4301
 8272SOL    HW136275   0.407   1.502   2.617 -1.3298  0.4469  1.7580
 8272SOL    HW236276   0.285   1.454   2.669 -0.2711 -1.7649  0.1358
 8273SOL     OW36277   3.545   3.959  16.811 -0.1888  0.0487 -0.4946
 8273SOL    HW136278   3.513   3.952  16.721  0.7931  1.4056 -0.9341
 8273SOL    HW236279   3.499   3.885  16.852  1.2453  1.0727  2.9829
 8274SOL     OW36280   1.370   4.070   4.376  0.1803  0.1402 -0.5807
 8274SOL    HW136281   1.296   4.089   4.318  1.1630  1.4002 -1.4190
 8274SOL    HW236282   1.330   4.027   4.452  0.9220  0.2899 -0.1110
 8275SOL     OW36283   0.878   2.467   5.820  0.6734  0.0535 -0.2698
 8275SOL    HW136284   0.948   2.460   5.755  0.2115  2.4622 -1.0177
 8275SOL    HW236285   0.803   2.422   5.781  0.0570  0.2897  0.6565
 8276SOL     OW36286   0.252   1.756   4.072  0.1279 -0.0530  0.0452
 8276SOL    HW136287   0.281   1.665   4.059  0.1783 -0.0832  0.3728
 8276SOL    HW236288   0.175   1.754   4.015 -0.5819  3.4298  0.8771
 8277SOL     OW36289   2.920   1.027  14.960 -0.1821 -0.3520 -0.6107
 8277SOL    HW136290   2.927   1.006  15.054  2.5726 -0.7255 -0.9002
 8277SOL    HW236291   2.956   1.115  14.960 -1.9773  0.3734 -0.6800
 8278SOL     OW36292   3.954   3.404   9.656  0.4386 -0.1540  0.3374
 8278SOL    HW136293   4.032   3.440   9.613 -0.9297  1.0578 -1.0999
 8278SOL    HW236294   3.958   3.454   9.738 -0.1715 -0.7973  0.7655
 8279SOL     OW36295   2.536   0.929   6.142 -0.3234 -0.4495 -0.6331
 8279SOL    HW136296   2.498   1.017   6.135  2.6013  1.0376  2.4959
 8279SOL    HW236297   2.580   0.944   6.226  0.6415  0.6668 -1.3369
 8280SOL     OW36298   3.852   0.906   2.991  0.1086  0.3994  0.6773
 8280SOL    HW136299   3.934   0.956   2.990 -0.4533  1.2906 -0.8536
 8280SOL    HW236300   3.797   0.953   2.928  0.9184  0.8812  0.3255
 8281SOL     OW36301   1.285   4.154   2.627 -0.1621 -0.6256 -0.7175
 8281SOL    HW136302   1.296   4.095   2.702 -0.5203  0.3913  0.1427
 8281SOL    HW236303   1.204   4.124   2.587  0.1029 -0.3942 -1.4354
 8282SOL     OW36304   3.615   0.335  12.034 -0.5151  0.2297  0.3459
 8282SOL    HW136305   3.700   0.313  12.073 -1.4746 -3.1852  0.5140
 8282SOL    HW236306   3.586   0.399  12.099 -1.2846 -0.3825  0.5907
 8283SOL     OW36307   1.593   3.814   1.795 -0.0916  0.2094 -0.5772
 8283SOL    HW136308   1.602   3.754   1.721 -0.0214  1.5120 -1.6406
 8283SOL    HW236309   1.512   3.775   1.828  0.4740 -1.1566 -0.8051
 8284SOL     OW36310   0.220   0.369   0.221 -0.4711  0.5420 -0.2105
 8284SOL    HW136311   0.273   0.304   0.176  0.1239 -0.4737  1.9549
 8284SOL    HW236312   0.203   0.316   0.299  0.0682  0.9045  0.1496
 8285SOL     OW36313   3.202   3.726   2.984  0.0827  0.0467 -0.0194
 8285SOL    HW136314   3.232   3.647   2.939  0.3069  0.4646 -0.5975
 8285SOL    HW236315   3.222   3.708   3.076 -2.4435 -0.1739  0.4835
 8286SOL     OW36316   3.241   0.974   8.557  0.1105 -0.4493  0.2569
 8286SOL    HW136317   3.208   1.063   8.541 -1.2860 -0.9574  0.2945
 8286SOL    HW236318   3.327   0.983   8.598  0.1338  0.1477  0.0791
 8287SOL     OW36319   2.394   1.268   2.745 -0.3443 -0.3615  0.4017
 8287SOL    HW136320   2.381   1.322   2.822  0.3250  1.7084 -0.9359
 8287SOL    HW236321   2.466   1.209   2.768 -0.4081 -0.7846 -0.4450
 8288SOL     OW36322   0.928   3.999   5.619 -0.1345  0.7100  0.0566
 8288SOL    HW136323   1.010   4.045   5.631  0.1340  0.6397 -1.4711
 8288SOL    HW236324   0.945   3.940   5.545 -3.0451  0.7887 -0.6917
 8289SOL     OW36325   4.555   0.751  14.435  0.9182  0.3196  0.5355
 8289SOL    HW136326   4.593   0.713  14.356 -0.1670  0.2637  0.0395
 8289SOL    HW236327   4.512   0.674  14.471  0.3345  0.8909  1.0722
 8290SOL     OW36328   1.818   4.151   9.903  0.0453  0.4419  0.8884
 8290SOL    HW136329   1.899   4.197   9.880 -0.3788  0.2980 -0.9048
 8290SOL    HW236330   1.814   4.099   9.823  0.1115 -0.3362  1.3907
 8291SOL     OW36331   3.338   0.549   5.529 -0.0169  0.1168  0.0253
 8291SOL    HW136332   3.266   0.503   5.572  0.2721 -0.4847 -0.1187
 8291SOL    HW236333   3.336   0.630   5.579 -0.7573  0.8359 -1.1670
 8292SOL     OW36334   3.256   0.403   7.526  0.0920  0.0380  0.1771
 8292SOL    HW136335   3.319   0.399   7.598  1.3042 -0.4332 -0.9307
 8292SOL    HW236336   3.192   0.466   7.560 -0.6257 -0.8069  0.3851
 8293SOL     OW36337   2.181   4.345   1.333  0.4349  0.4808  0.5445
 8293SOL    HW136338   2.110   4.375   1.277 -1.9876 -2.2435  2.1657
 8293SOL    HW236339   2.230   4.421   1.364  2.4951 -0.8423  0.5379
 8294SOL     OW36340   3.708   1.384   4.486 -0.2523  0.6191  0.9271
 8294SOL    HW136341   3.780   1.402   4.546  0.6030  1.8050 -0.4560
 8294SOL    HW236342   3.653   1.332   4.545  0.4806 -0.7118  0.4295
 8295SOL     OW36343   2.041   0.588  13.481  0.1995 -0.3505  0.2303
 8295SOL    HW136344   1.979   0.515  13.488  1.1962 -1.1367  0.7391
 8295SOL    HW236345   2.025   0.612  13.390 -0.5359 -1.4770  0.0560
 8296SOL     OW36346   4.551   3.400   4.084  0.0158 -0.6214 -0.3896
 8296SOL    HW136347   4.494   3.472   4.058 -2.2740 -1.8236  1.3364
 8296SOL    HW236348   4.629   3.402   4.028  0.5162 -1.5316  0.2621
 8297SOL     OW36349   2.908   1.353   0.403 -0.0846  0.1762  0.2631
 8297SOL    HW136350   2.904   1.405   0.323 -2.5672 -0.2699  0.0965
 8297SOL    HW236351   2.992   1.376   0.443  1.0869 -2.4240 -0.7128
 8298SOL     OW36352   4.118   2.040   5.261 -0.1270  0.2375  0.4628
 8298SOL    HW136353   4.207   2.054   5.293  0.6673  0.3501 -1.7728
 8298SOL    HW236354   4.093   2.132   5.257  1.1336  0.5848  0.5154
 8299SOL     OW36355   0.521   0.183  10.907  0.5352 -0.6042  0.0423
 8299SOL    HW136356   0.462   0.125  10.955  2.0781 -1.4413  0.9325
 8299SOL    HW236357   0.461   0.256  10.922  0.9822 -0.4576  1.0681
 8300SOL     OW36358   2.648   2.613   3.045  0.1763 -0.6051  0.7109
 8300SOL    HW136359   2.621   2.555   3.116  1.9054 -0.6993  1.3101
 8300SOL    HW236360   2.604   2.568   2.973  0.6868 -2.5194  1.5856
 8301SOL     OW36361   0.700   2.127   7.251 -0.0169 -0.2596 -0.3584
 8301SOL    HW136362   0.716   2.052   7.308  0.5113 -0.1288 -0.3375
 8301SOL    HW236363   0.667   2.181   7.324 -1.3961 -1.0211 -0.4174
 8302SOL     OW36364   1.766   0.872   5.367 -0.1297  0.0248  0.0430
 8302SOL    HW136365   1.792   0.958   5.399  3.2069 -0.7142 -0.6814
 8302SOL    HW236366   1.702   0.851   5.436  0.2359  2.1054  1.0005
 8303SOL     OW36367   1.052   1.668   8.670 -0.2715 -0.1607 -0.1266
 8303SOL    HW136368   1.125   1.724   8.695 -0.0331 -0.6612  0.3009
 8303SOL    HW236369   1.094   1.596   8.622 -0.2877 -0.5577  0.4577
 8304SOL     OW36370   3.237   0.104   6.239  0.4864 -0.3507 -0.0381
 8304SOL    HW136371   3.185   0.025   6.225  0.5725 -0.7124  1.6361
 8304SOL    HW236372   3.319   0.064   6.269  0.2923  0.6718  1.8465
 8305SOL     OW36373   2.712   0.944   8.901  0.2738 -0.2026  0.5265
 8305SOL    HW136374   2.768   1.021   8.890  0.2558 -0.1647  0.7079
 8305SOL    HW236375   2.675   0.957   8.988 -0.1082  0.4408  0.2729
 8306SOL     OW36376   2.171   2.336   1.350  0.1415 -0.1215 -0.2704
 8306SOL    HW136377   2.161   2.339   1.255 -1.9632  0.8099 -0.0241
 8306SOL    HW236378   2.125   2.255   1.371 -0.2028 -0.4190 -2.1210
 8307SOL     OW36379   1.981   1.232   7.531 -0.2908 -0.7058 -0.0131
 8307SOL    HW136380   1.935   1.158   7.492 -1.5264 -0.2806  0.6258
 8307SOL    HW236381   1.906   1.281   7.565  0.0884  2.0616 -3.2372
 8308SOL     OW36382   3.057   3.212   2.466 -0.4273 -0.1424  0.0520
 8308SOL    HW136383   2.980   3.202   2.409 -0.5068  1.8813 -0.1967
 8308SOL    HW236384   3.125   3.247   2.408  1.5254 -1.6233  1.4450
 8309SOL     OW36385   2.758   3.148   6.497 -0.1374  0.6254 -0.4850
 8309SOL    HW136386   2.734   3.103   6.577 -0.4845 -0.6002 -1.2841
 8309SOL    HW236387   2.676   3.196   6.483  0.5817  2.1770  0.6068
 8310SOL     OW36388   3.258   3.356  10.472  0.1620  0.1473  0.2980
 8310SOL    HW136389   3.310   3.421  10.425 -1.0356 -0.0213 -1.2749
 8310SOL    HW236390   3.260   3.272  10.427  1.1030 -0.8323  2.1994
 8311SOL     OW36391   2.205   4.465  13.864  0.6815  0.1998 -0.0837
 8311SOL    HW136392   2.264   4.531  13.827  0.5482 -0.3512 -1.2833
 8311SOL    HW236393   2.256   4.390  13.835  0.2898  0.3710 -1.2323
 8312SOL     OW36394   3.320   3.617   3.507  0.0688  0.1275 -0.4334
 8312SOL    HW136395   3.353   3.571   3.583  1.0948  1.1294 -0.2735
 8312SOL    HW236396   3.355   3.706   3.513  0.1203 -0.0171  1.3728
 8313SOL     OW36397   0.185   3.727  12.811 -0.1340 -0.8437 -0.2730
 8313SOL    HW136398   0.114   3.701  12.752  0.5912  1.1200 -2.0139
 8313SOL    HW236399   0.148   3.771  12.888 -1.3397 -2.5767  0.1410
 8314SOL     OW36400   0.008   0.701   1.641 -0.0101 -0.1506 -0.2356
 8314SOL    HW136401   0.002   0.775   1.581 -2.0736 -0.5492 -0.5389
 8314SOL    HW236402   4.644   0.720   1.684  1.6806  2.1739  2.0872
 8315SOL     OW36403   3.126   0.958   2.215  0.1993 -0.7169  0.3882
 8315SOL    HW136404   3.168   1.039   2.244  2.6381 -1.3701 -1.2936
 8315SOL    HW236405   3.048   0.964   2.270 -0.1312 -0.1945 -0.1447
 8316SOL     OW36406   2.105   1.406   3.359  0.8327 -0.1740 -0.1636
 8316SOL    HW136407   2.187   1.369   3.327  2.1295  2.8824 -0.3864
 8316SOL    HW236408   2.113   1.386   3.452  0.7622  0.0175 -0.1166
 8317SOL     OW36409   0.598   3.453   2.526 -0.1141  0.3933  0.4114
 8317SOL    HW136410   0.609   3.390   2.597  1.0259 -1.2641 -1.2397
 8317SOL    HW236411   0.559   3.530   2.567  1.6170  1.7212 -0.4689
 8318SOL     OW36412   2.770   4.214   9.162  0.0767  0.5923 -0.1642
 8318SOL    HW136413   2.737   4.180   9.245 -0.3891  1.7660  0.1314
 8318SOL    HW236414   2.800   4.305   9.164  3.2716 -0.4425 -1.1305
 8319SOL     OW36415   0.693   0.100   9.407 -0.1863 -0.0386  0.4198
 8319SOL    HW136416   0.626   0.103   9.476 -0.1732  0.9006  0.3919
 8319SOL    HW236417   0.690   0.009   9.378 -2.3271 -0.1530  0.9643
 8320SOL     OW36418   2.261   0.005   7.286 -0.1042  0.2801 -0.4349
 8320SOL    HW136419   2.226   0.020   7.198 -1.1366 -0.1267 -0.0976
 8320SOL    HW236420   2.278   4.631   7.284 -0.8929  0.1073  0.6463
 8321SOL     OW36421   0.201   4.062   0.209  0.6311 -0.0570 -0.8212
 8321SOL    HW136422   0.287   4.069   0.250  0.8651  0.3630 -1.3841
 8321SOL    HW236423   0.159   4.022   0.285  2.2088  0.3406  0.2577
 8322SOL     OW36424   0.039   4.047   2.028  0.4650  0.1982  0.6313
 8322SOL    HW136425   0.060   3.983   1.960  0.5684 -2.5429  3.2624
 8322SOL    HW236426   0.074   4.002   2.105  3.4476  1.6780  0.1549
 8323SOL     OW36427   0.983   2.267   3.571 -0.2901 -0.4148 -0.7440
 8323SOL    HW136428   0.978   2.265   3.476 -1.6438  0.9779 -0.7073
 8323SOL    HW236429   0.940   2.184   3.591 -1.5094  0.3208 -0.3454
 8324SOL     OW36430   1.778   1.594   2.129 -0.1190  0.2082  0.3833
 8324SOL    HW136431   1.838   1.521   2.114 -0.9705 -0.5697  0.7515
 8324SOL    HW236432   1.697   1.543   2.125 -1.4338  2.2896  0.1338
 8325SOL     OW36433   2.749   1.794   1.774  0.6017 -0.2720 -0.2137
 8325SOL    HW136434   2.739   1.708   1.817 -1.8085 -0.5823 -1.4170
 8325SOL    HW236435   2.830   1.788   1.723 -0.9333  1.0144 -2.7880
 8326SOL     OW36436   4.643   3.028   5.612 -0.6340  0.5021  0.1181
 8326SOL    HW136437   4.681   3.082   5.543  1.3868  0.2299  1.0421
 8326SOL    HW236438   4.551   3.032   5.585 -0.6525 -0.5093  0.0066
 8327SOL     OW36439   0.981   0.761   2.001 -0.0214 -0.5047 -0.2254
 8327SOL    HW136440   0.893   0.744   2.035  1.0238 -0.5800  2.4917
 8327SOL    HW236441   0.988   0.715   1.917  1.5354  0.6979 -0.7676
 8328SOL     OW36442   2.597   4.150   8.356 -0.2999 -0.2307  0.1436
 8328SOL    HW136443   2.564   4.061   8.364 -0.8849 -0.1339 -1.1078
 8328SOL    HW236444   2.529   4.190   8.410  1.4077  2.4002  0.3972
 8329SOL     OW36445   2.315   4.483   9.483 -0.5510  0.5027 -0.3103
 8329SOL    HW136446   2.231   4.439   9.473 -0.5752  0.0743  1.7365
 8329SOL    HW236447   2.369   4.408   9.508 -2.1881 -0.2994  0.7795
 8330SOL     OW36448   3.213   4.151   6.870 -0.5116 -0.1769 -0.5238
 8330SOL    HW136449   3.255   4.194   6.795 -0.1270  0.7835  0.2481
 8330SOL    HW236450   3.134   4.114   6.832 -0.6056 -0.2257 -0.2769
 8331SOL     OW36451   2.123   1.933   1.764  0.4151 -0.3577  0.2382
 8331SOL    HW136452   2.147   1.861   1.823 -0.3602  0.5603  1.6653
 8331SOL    HW236453   2.191   1.927   1.697 -0.1207 -1.3789 -0.2176
 8332SOL     OW36454   1.286   0.285  11.664 -0.1126 -0.3727  0.3101
 8332SOL    HW136455   1.205   0.257  11.707  0.9247  0.7111  2.9440
 8332SOL    HW236456   1.346   0.302  11.736 -1.4959  1.7603  0.9331
 8333SOL     OW36457   0.421   3.755   3.280 -0.1509 -0.0568 -0.2558
 8333SOL    HW136458   0.505   3.800   3.271  0.2122 -0.8735 -0.9483
 8333SOL    HW236459   0.426   3.680   3.221  1.1100 -0.2399  0.0724
 8334SOL     OW36460   0.732   3.197  15.626 -0.6252 -0.7749 -0.2882
 8334SOL    HW136461   0.653   3.248  15.643  0.9067  0.7826  2.1912
 8334SOL    HW236462   0.712   3.108  15.656  0.5875 -0.2163  2.2156
 8335SOL     OW36463   3.060   2.840  15.537  0.0653  0.0148  0.3059
 8335SOL    HW136464   2.986   2.837  15.477 -0.6566  0.1799  1.1790
 8335SOL    HW236465   3.082   2.930  15.512 -1.2834 -0.2112 -1.6680
 8336SOL     OW36466   1.927   3.730   4.817  0.0427  0.3062 -0.2715
 8336SOL    HW136467   1.949   3.645   4.856  0.1142  0.2889 -0.3478
 8336SOL    HW236468   2.012   3.747   4.778 -0.2848 -0.1380 -1.1840
 8337SOL     OW36469   3.060   3.487   7.850 -0.8432 -0.0635 -0.0368
 8337SOL    HW136470   3.101   3.424   7.791 -2.0020 -0.5690 -0.2881
 8337SOL    HW236471   3.063   3.443   7.935  3.7225 -0.4153 -0.3534
 8338SOL     OW36472   2.177   3.559  11.455  0.0978 -0.7457 -0.4420
 8338SOL    HW136473   2.150   3.651  11.453  0.4755 -0.6935 -2.9692
 8338SOL    HW236474   2.271   3.570  11.470 -0.6295  3.5786  1.0795
 8339SOL     OW36475   0.882   1.088   9.259 -0.0026  0.2695 -0.1586
 8339SOL    HW136476   0.855   0.999   9.236  0.5578 -0.2761  1.2936
 8339SOL    HW236477   0.809   1.127   9.307 -0.0635 -0.5847  0.4266
 8340SOL     OW36478   0.710   3.991   8.117  0.2646  0.0939 -0.2151
 8340SOL    HW136479   0.788   4.009   8.169  0.1118  3.1886 -1.0100
 8340SOL    HW236480   0.663   4.075   8.124  0.3729  0.1936 -0.6513
 8341SOL     OW36481   1.798   4.501   7.291  0.1214 -0.3875  0.1589
 8341SOL    HW136482   1.877   4.448   7.289  1.3188  1.4084 -0.4577
 8341SOL    HW236483   1.743   4.479   7.366  0.9358  0.3968  0.9810
 8342SOL     OW36484   3.655   4.507  10.598 -0.0362  0.7115 -0.3389
 8342SOL    HW136485   3.689   4.483  10.684 -3.6333  1.9182  1.3862
 8342SOL    HW236486   3.602   4.430  10.579  0.5841  0.2553 -0.2376
 8343SOL     OW36487   3.703   1.288  14.889  0.0815  0.4908  0.3417
 8343SOL    HW136488   3.785   1.272  14.843 -0.0993 -0.6495  0.4228
 8343SOL    HW236489   3.648   1.242  14.825 -0.3833  2.1803 -0.4717
 8344SOL     OW36490   0.732   4.468   4.227  0.4071  0.4921  0.4152
 8344SOL    HW136491   0.721   4.519   4.147 -1.3940  1.4083  1.2620
 8344SOL    HW236492   0.644   4.435   4.242  0.5020  0.1615  0.2408
 8345SOL     OW36493   1.793   2.569  16.645  0.2327  0.3236 -0.2568
 8345SOL    HW136494   1.755   2.535  16.726 -1.0727 -0.6465 -1.2788
 8345SOL    HW236495   1.807   2.662  16.660  2.2504 -0.0614  0.1832
 8346SOL     OW36496   0.013   3.089   0.160  0.8251 -0.3935  0.0593
 8346SOL    HW136497   0.029   2.998   0.136 -0.6912 -1.2168  2.1764
 8346SOL    HW236498   0.051   3.100   0.247 -0.2850 -1.3212  0.6570
 8347SOL     OW36499   2.533   2.293   7.999  0.3797  0.6042  0.4252
 8347SOL    HW136500   2.535   2.263   8.090 -0.4068 -1.0573 -0.1009
 8347SOL    HW236501   2.615   2.260   7.964 -0.4087 -1.4106  0.4437
 8348SOL     OW36502   4.287   1.545  16.945 -0.5675  0.0676 -0.4625
 8348SOL    HW136503   4.295   1.541  16.850  5.2148  1.5384 -0.0598
 8348SOL    HW236504   4.369   1.591  16.962  0.1615 -1.3724 -0.0876
 8349SOL     OW36505   2.794   3.508   1.289  0.2434  0.3577 -0.1711
 8349SOL    HW136506   2.879   3.505   1.244 -1.5983 -0.0260 -3.5585
 8349SOL    HW236507   2.822   3.561   1.364  0.3665 -0.7029  0.5271
 8350SOL     OW36508   0.287   1.507   3.998 -0.5599 -0.1228  0.0397
 8350SOL    HW136509   0.341   1.428   3.997  0.9348  0.8262  3.5659
 8350SOL    HW236510   0.231   1.492   3.922 -0.9381  2.0374 -0.1123
 8351SOL     OW36511   1.593   1.307   5.912 -0.1927 -0.6306 -0.6204
 8351SOL    HW136512   1.647   1.315   5.991  0.6638  2.3643 -1.5047
 8351SOL    HW236513   1.553   1.223   5.934 -0.6830 -0.1047  0.4790
 8352SOL     OW36514   2.353   2.534   8.474  0.4344  0.5312 -0.0395
 8352SOL    HW136515   2.438   2.491   8.464  0.5448  1.4338 -2.9585
 8352SOL    HW236516   2.340   2.495   8.561 -1.4503 -0.1763 -0.6489
 8353SOL     OW36517   1.024   1.944   8.466 -0.0674  0.1296 -0.1306
 8353SOL    HW136518   1.023   1.856   8.503 -1.2456  0.8667  1.5838
 8353SOL    HW236519   1.100   1.948   8.407 -0.0196  0.1591 -0.0663
 8354SOL     OW36520   0.215   2.504   9.314  0.2462 -0.1450  0.1539
 8354SOL    HW136521   0.189   2.540   9.229 -0.8392  0.6396  0.8169
 8354SOL    HW236522   0.213   2.410   9.299  0.6745  0.2512 -2.2815
 8355SOL     OW36523   3.458   3.045  14.989  0.5288 -0.6469  0.2098
 8355SOL    HW136524   3.527   3.008  15.044  0.6847 -1.6272 -0.6468
 8355SOL    HW236525   3.390   3.076  15.049  1.6538 -1.0374  1.7024
 8356SOL     OW36526   0.271   2.610   9.654 -0.1590  0.0267 -0.1372
 8356SOL    HW136527   0.207   2.655   9.710  1.5716  1.1234  0.9968
 8356SOL    HW236528   0.307   2.555   9.724 -0.0978  0.6227  0.3031
 8357SOL     OW36529   3.312   2.095   1.550 -0.1679 -0.4605  0.7245
 8357SOL    HW136530   3.277   2.134   1.630  2.5016  1.4115  0.9754
 8357SOL    HW236531   3.266   2.144   1.482 -0.6786  0.4266  1.7169
 8358SOL     OW36532   1.855   0.812   0.670  0.0694  0.0275  0.1172
 8358SOL    HW136533   1.857   0.821   0.766 -2.5834 -0.4165  0.2347
 8358SOL    HW236534   1.941   0.782   0.643  0.0940  0.0430  0.1788
 8359SOL     OW36535   4.141   4.237  10.753  0.9094 -0.0023 -0.1727
 8359SOL    HW136536   4.113   4.326  10.735  0.8286 -0.5276 -2.6525
 8359SOL    HW236537   4.212   4.232  10.689  0.2663  0.0827 -0.8916
 8360SOL     OW36538   2.660   2.548   4.829 -0.1153  0.8287  0.0203
 8360SOL    HW136539   2.742   2.571   4.785 -0.6055 -0.4042 -1.5111
 8360SOL    HW236540   2.698   2.475   4.879  0.7408  1.8413  0.8658
 8361SOL     OW36541   2.104   0.069   7.902 -0.0654  0.4215  0.3450
 8361SOL    HW136542   2.166   0.123   7.951  0.7439 -0.8422  0.7131
 8361SOL    HW236543   2.166   0.036   7.837 -1.8912 -3.6617  0.6702
 8362SOL     OW36544   1.230   2.299   0.213 -0.3110 -0.2771  0.0746
 8362SOL    HW136545   1.313   2.325   0.252 -0.0664 -0.0841 -0.5639
 8362SOL    HW236546   1.163   2.354   0.255 -0.0474 -0.3355  0.5638
 8363SOL     OW36547   0.875   3.942   4.074 -0.1674 -0.3118  0.5369
 8363SOL    HW136548   0.786   3.932   4.040 -1.6623 -0.6457  4.4820
 8363SOL    HW236549   0.899   4.026   4.035  2.8082 -1.1331  0.6534
 8364SOL     OW36550   1.798   2.093   8.252 -0.3382  0.0704 -0.2212
 8364SOL    HW136551   1.843   2.162   8.301  2.3021 -1.4486 -0.5490
 8364SOL    HW236552   1.875   2.039   8.237 -0.8084 -0.6538  0.0215
 8365SOL     OW36553   2.763   1.236   8.941 -0.1605 -0.3522  0.0823
 8365SOL    HW136554   2.782   1.207   9.031 -0.2262 -0.6735 -0.0065
 8365SOL    HW236555   2.768   1.331   8.943 -2.0850 -0.2497 -0.0658
 8366SOL     OW36556   3.925   0.803   6.300  0.4044 -0.3659  0.0211
 8366SOL    HW136557   3.884   0.875   6.253  0.1531  0.6389  1.7974
 8366SOL    HW236558   3.941   0.743   6.227 -0.9508  0.7878 -1.2329
 8367SOL     OW36559   0.724   0.066   2.641 -0.5528  0.2454 -0.2368
 8367SOL    HW136560   0.700   4.698   2.609 -0.0580 -0.6460  1.8478
 8367SOL    HW236561   0.638   0.104   2.659 -1.0439 -0.9429 -0.0542
 8368SOL     OW36562   0.055   1.557   8.907  0.5455  0.0033 -0.7927
 8368SOL    HW136563   0.148   1.555   8.886  0.6679 -0.4124 -0.1933
 8368SOL    HW236564   0.049   1.635   8.962  0.0260 -1.0205  0.5759
 8369SOL     OW36565   3.357   1.021   8.915  0.0553  0.0869 -0.1101
 8369SOL    HW136566   3.417   1.072   8.969  0.3270 -1.1253  0.7342
 8369SOL    HW236567   3.285   1.079   8.889  0.2268  0.2420 -0.2439
 8370SOL     OW36568   4.030   0.687   5.855  0.0715  0.6115 -0.3930
 8370SOL    HW136569   4.112   0.710   5.900 -0.1976  2.4834 -0.8583
 8370SOL    HW236570   3.998   0.635   5.928  0.4564 -0.5565 -1.0403
 8371SOL     OW36571   1.813   4.698   7.560 -0.0590  0.0043 -0.5996
 8371SOL    HW136572   1.856   4.614   7.571 -0.0651 -0.0744 -1.1673
 8371SOL    HW236573   1.876   0.043   7.592  1.6058 -1.8947 -0.0914
 8372SOL     OW36574   2.239   0.924   5.299 -0.2082 -0.5588 -0.2058
 8372SOL    HW136575   2.204   0.837   5.282  1.1847 -1.4663  1.5417
 8372SOL    HW236576   2.332   0.901   5.310 -0.5226 -2.1819 -0.9581
 8373SOL     OW36577   3.923   4.562   3.602 -0.4637 -0.5733 -0.9042
 8373SOL    HW136578   3.866   4.620   3.652  1.3443  3.4145 -3.3885
 8373SOL    HW236579   3.970   4.524   3.676  0.9303  1.5559 -0.6784
 8374SOL     OW36580   2.898   4.110   0.862  0.1332 -0.0953 -0.2606
 8374SOL    HW136581   2.830   4.100   0.930  1.6490 -1.9892  0.9936
 8374SOL    HW236582   2.843   4.109   0.783  0.5009  1.6013 -0.5250
 8375SOL     OW36583   4.545   0.499   6.322 -0.2976 -0.4053 -0.0673
 8375SOL    HW136584   4.460   0.525   6.286 -0.0370 -0.2862 -0.5994
 8375SOL    HW236585   4.556   0.576   6.377 -2.2570 -2.2877  2.9781
 8376SOL     OW36586   3.950   2.714   8.879 -0.2776  0.3704  0.8086
 8376SOL    HW136587   3.979   2.641   8.826  1.2077  1.3483  0.2703
 8376SOL    HW236588   4.018   2.771   8.843  0.8570 -0.4973  1.5978
 8377SOL     OW36589   0.976   4.210  13.774 -0.2402  0.1070  0.2088
 8377SOL    HW136590   1.040   4.190  13.706  0.2508 -0.2737  0.7780
 8377SOL    HW236591   0.983   4.305  13.765 -2.3409  0.2245 -0.2168
 8378SOL     OW36592   4.492   2.661  11.165  0.2302 -0.0113 -0.0790
 8378SOL    HW136593   4.560   2.621  11.111 -0.1441 -1.7440  0.7400
 8378SOL    HW236594   4.539   2.739  11.195  1.3506 -0.8371  0.3054
 8379SOL     OW36595   2.732   0.992   1.518 -0.2260  0.8380 -0.6256
 8379SOL    HW136596   2.721   1.036   1.602  0.0363  0.9223 -0.6355
 8379SOL    HW236597   2.689   1.059   1.464 -1.2243  0.8740  0.2049
 8380SOL     OW36598   3.804   3.545   0.262  0.2260 -0.0656  0.0510
 8380SOL    HW136599   3.831   3.472   0.206 -0.8712 -0.4541  0.0171
 8380SOL    HW236600   3.729   3.584   0.216  0.9176  0.8283 -0.3186
 8381SOL     OW36601   3.394   1.451   2.868  0.2794 -0.7469 -0.4030
 8381SOL    HW136602   3.380   1.525   2.927  1.8547 -2.7671  2.5467
 8381SOL    HW236603   3.488   1.445   2.887  0.5696  1.4008 -1.1628
 8382SOL     OW36604   0.270   2.786   2.194  0.2375  0.7594 -0.8729
 8382SOL    HW136605   0.269   2.830   2.108 -1.8063  0.6300 -0.9099
 8382SOL    HW236606   0.366   2.779   2.196  0.1014 -1.0643 -0.9572
 8383SOL     OW36607   0.997   0.709   6.654  0.8030 -0.4222  0.1031
 8383SOL    HW136608   0.941   0.753   6.590  0.1455  0.0116  0.9691
 8383SOL    HW236609   0.933   0.681   6.720  0.1177 -2.1560 -1.2882
 8384SOL     OW36610   4.386   2.491  11.407  0.6367 -0.0352  0.0254
 8384SOL    HW136611   4.295   2.515  11.390  0.7435 -0.4852 -1.1653
 8384SOL    HW236612   4.422   2.506  11.320  0.6116 -0.4650 -0.0611
 8385SOL     OW36613   2.642   2.824  14.026 -0.0980  0.3251 -1.0385
 8385SOL    HW136614   2.682   2.894  14.078  1.8867 -1.3434 -0.3226
 8385SOL    HW236615   2.658   2.859  13.938 -0.9082 -2.9509 -2.4864
 8386SOL     OW36616   1.128   4.694   8.353  0.5125  0.1878 -0.2515
 8386SOL    HW136617   1.200   4.692   8.415  1.2819  2.3050 -1.0859
 8386SOL    HW236618   1.079   4.613   8.368 -0.1025  0.7836  1.0021
 8387SOL     OW36619   1.331   3.377   5.725 -0.1031 -0.6094  0.0922
 8387SOL    HW136620   1.283   3.428   5.659  1.1665  2.4634  1.5529
 8387SOL    HW236621   1.362   3.308   5.666 -0.4747 -0.4503 -0.2930
 8388SOL     OW36622   4.633   0.834   6.877 -0.3492  0.4945 -0.6822
 8388SOL    HW136623   4.657   0.900   6.942  1.0542  0.9077 -1.6145
 8388SOL    HW236624   4.648   0.760   6.936  0.5537  1.0452 -0.2188
 8389SOL     OW36625   2.448   1.370   2.206 -0.1563  0.1549  0.1184
 8389SOL    HW136626   2.400   1.290   2.183  0.7185 -0.1351 -0.7067
 8389SOL    HW236627   2.449   1.374   2.301  0.1609  1.3909  0.0546
 8390SOL     OW36628   1.489   3.323  17.610 -0.5700  0.2582 -0.5252
 8390SOL    HW136629   1.574   3.367  17.611 -1.8179  2.6033  2.3084
 8390SOL    HW236630   1.497   3.286  17.522 -2.4949 -0.2495 -0.4709
 8391SOL     OW36631   0.215   4.229   3.914 -0.4688 -0.1404  0.5371
 8391SOL    HW136632   0.169   4.288   3.975 -0.6249 -1.3866  1.6177
 8391SOL    HW236633   0.161   4.151   3.922  0.1687 -0.7475 -1.1261
 8392SOL     OW36634   2.485   4.711   5.258  0.3916 -0.6356 -0.2329
 8392SOL    HW136635   2.488   4.648   5.330  1.1878 -0.3836 -0.0372
 8392SOL    HW236636   2.570   4.707   5.215  1.3635 -1.0902  1.7364
 8393SOL     OW36637   3.299   1.985   9.656  0.2014 -0.7611  0.8039
 8393SOL    HW136638   3.216   2.000   9.610  0.3427 -0.6458  0.5840
 8393SOL    HW236639   3.271   2.033   9.734  1.1550  1.5177 -0.2379
 8394SOL     OW36640   3.361   3.418  16.942 -0.4397  0.8138 -0.4385
 8394SOL    HW136641   3.363   3.491  17.004  2.2528 -1.8395  2.5825
 8394SOL    HW236642   3.418   3.455  16.875 -0.8153  2.1363 -0.0277
 8395SOL     OW36643   3.966   3.491   5.921 -0.2472 -0.0875  0.1084
 8395SOL    HW136644   3.984   3.407   5.878 -0.9472 -0.3157  0.2640
 8395SOL    HW236645   3.941   3.547   5.847 -0.0928 -0.3726 -0.1598
 8396SOL     OW36646   4.515   1.494   0.773  0.5497  0.0549  0.3156
 8396SOL    HW136647   4.427   1.483   0.736  0.2061 -0.2987  1.2140
 8396SOL    HW236648   4.566   1.487   0.693 -2.1465 -1.0836 -1.3173
 8397SOL     OW36649   3.781   0.766  11.346 -0.2153 -0.3085  0.5176
 8397SOL    HW136650   3.800   0.747  11.254 -1.8602 -1.3182  0.3927
 8397SOL    HW236651   3.688   0.791  11.348 -0.7085 -2.4201  2.8623
 8398SOL     OW36652   0.132   0.653  12.810 -0.3703  0.5437  0.4447
 8398SOL    HW136653   0.042   0.640  12.778  0.9128  0.4741 -3.1140
 8398SOL    HW236654   0.123   0.745  12.834  0.4975  0.8907 -0.5665
 8399SOL     OW36655   3.780   0.745  14.848  0.1480 -0.3736 -0.0564
 8399SOL    HW136656   3.859   0.692  14.852  0.5029  0.0634 -1.3183
 8399SOL    HW236657   3.783   0.797  14.927  1.5373 -0.6568  0.0702
 8400SOL     OW36658   2.332   2.748   3.943 -0.0189 -0.5794 -0.2132
 8400SOL    HW136659   2.408   2.806   3.947  0.3190 -1.0539  0.3416
 8400SOL    HW236660   2.381   2.666   3.932 -1.2092 -1.3226  0.0678
 8401SOL     OW36661   2.271   3.484   3.601  0.3194 -0.1177 -0.7449
 8401SOL    HW136662   2.360   3.500   3.568  1.6723 -2.6362  1.6374
 8401SOL    HW236663   2.217   3.527   3.535  2.1187  2.5178 -0.4954
 8402SOL     OW36664   1.566   2.099  12.007  0.4704 -0.5978  0.5054
 8402SOL    HW136665   1.624   2.157  12.056  1.6141 -1.6280  0.3596
 8402SOL    HW236666   1.544   2.034  12.074 -0.3096 -0.1109  0.7194
 8403SOL     OW36667   0.990   2.310   7.387 -0.0038 -0.5018  0.2159
 8403SOL    HW136668   1.061   2.251   7.413  0.4214 -0.1377 -0.1189
 8403SOL    HW236669   0.985   2.348   7.475  2.0734  1.5752 -0.5674
 8404SOL     OW36670   1.924   4.264   4.285 -0.1831 -0.4704  0.4051
 8404SOL    HW136671   1.906   4.345   4.333  0.8082 -0.3345  0.5407
 8404SOL    HW236672   1.873   4.279   4.205  1.5928  1.8865 -0.2963
 8405SOL     OW36673   3.294   0.426   0.624  0.2021 -0.0536  1.1283
 8405SOL    HW136674   3.245   0.377   0.557  0.9961  0.5126  0.1260
 8405SOL    HW236675   3.224   0.464   0.676 -0.7825 -0.9258  0.4353
 8406SOL     OW36676   0.324   0.042   9.699 -0.0690 -0.0374 -0.4546
 8406SOL    HW136677   0.250   0.022   9.756 -2.1106 -0.5439 -3.2898
 8406SOL    HW236678   0.280   0.055   9.615  1.8586 -3.5427 -2.0364
 8407SOL     OW36679   4.194   2.314   4.507 -0.3588  0.8028 -0.4033
 8407SOL    HW136680   4.248   2.237   4.493  1.6222  1.6541  2.5364
 8407SOL    HW236681   4.136   2.286   4.577 -1.6847 -0.6312 -2.0958
 8408SOL     OW36682   2.452   3.704   2.838 -0.7095 -0.1463 -0.7189
 8408SOL    HW136683   2.378   3.659   2.878 -0.4637 -0.3135 -0.4498
 8408SOL    HW236684   2.486   3.633   2.784 -0.3046  0.2688 -1.0201
 8409SOL     OW36685   0.069   0.946   0.711 -0.4648 -0.0929 -0.4089
 8409SOL    HW136686   0.157   0.982   0.698 -0.1781 -0.5615  0.2851
 8409SOL    HW236687   0.088   0.898   0.791 -0.2517  0.8134  0.0772
 8410SOL     OW36688   0.322   0.279   5.096 -0.4763 -0.0664  0.5283
 8410SOL    HW136689   0.241   0.232   5.114  0.9827 -2.9146 -0.1656
 8410SOL    HW236690   0.345   0.249   5.008  2.1726  1.0616  0.8174
 8411SOL     OW36691   0.411   0.480   5.712 -0.3732  0.1610 -0.5842
 8411SOL    HW136692   0.460   0.515   5.786 -2.1731  0.3540  0.5020
 8411SOL    HW236693   0.384   0.562   5.670 -1.9485 -0.4867 -0.8092
 8412SOL     OW36694   4.586   4.248  12.949 -0.0086 -0.0839 -0.3962
 8412SOL    HW136695   4.628   4.163  12.959 -1.8901 -0.9314  0.4381
 8412SOL    HW236696   4.632   4.285  12.874 -2.6380  2.3272 -0.8145
 8413SOL     OW36697   2.555   1.399   7.609 -0.1974 -0.1187 -0.3283
 8413SOL    HW136698   2.611   1.471   7.638 -0.6004 -0.7962  2.1362
 8413SOL    HW236699   2.512   1.359   7.685  1.1575 -1.7711 -0.4199
 8414SOL     OW36700   2.417   1.190   3.968  0.7987  0.4464 -0.5157
 8414SOL    HW136701   2.406   1.099   3.941  1.0217  0.1582  0.3642
 8414SOL    HW236702   2.423   1.188   4.064  0.9712 -0.1301 -0.5407
 8415SOL     OW36703   4.255   3.142  14.622 -0.0205  0.0268  0.0727
 8415SOL    HW136704   4.212   3.058  14.641  1.0995 -0.8921 -1.4410
 8415SOL    HW236705   4.333   3.138  14.676 -0.2044 -2.2758  0.1884
 8416SOL     OW36706   3.660   1.314   1.040  0.2514 -0.6181 -0.3291
 8416SOL    HW136707   3.701   1.242   1.087 -2.1703 -2.3355 -0.8330
 8416SOL    HW236708   3.660   1.270   0.955 -1.2489 -1.6526  0.2066
 8417SOL     OW36709   1.369   1.957   2.973 -0.2409  0.0524 -0.1006
 8417SOL    HW136710   1.361   1.888   2.907  2.0971 -0.3208  0.0160
 8417SOL    HW236711   1.464   1.967   2.970 -0.0122 -2.5008 -1.7542
 8418SOL     OW36712   1.908   3.987  16.867  0.0589  0.6721  0.6056
 8418SOL    HW136713   1.874   4.073  16.841  1.9878  1.2688  0.0206
 8418SOL    HW236714   1.925   4.001  16.960 -1.3509  0.0822  0.9446
 8419SOL     OW36715   2.129   3.891   7.971 -0.0399  0.6024 -0.3918
 8419SOL    HW136716   2.051   3.934   8.007  1.4008 -0.1603  3.6218
 8419SOL    HW236717   2.178   3.969   7.945 -0.7239  0.6766 -1.4864
 8420SOL     OW36718   4.280   2.707   6.845  0.2852  0.0854 -0.0054
 8420SOL    HW136719   4.325   2.686   6.926  0.3849  1.2318  0.2429
 8420SOL    HW236720   4.193   2.672   6.862  0.6089 -0.5144  0.4208
 8421SOL     OW36721   3.403   1.095   4.494 -0.0008  0.1348 -0.4220
 8421SOL    HW136722   3.483   1.123   4.540 -0.2604  0.6535 -0.2867
 8421SOL    HW236723   3.399   1.182   4.454 -2.0270 -0.1839 -0.8920
 8422SOL     OW36724   3.543   2.113   4.831  0.4342  0.6927 -0.5818
 8422SOL    HW136725   3.571   2.193   4.875  1.1579 -0.5296  1.2185
 8422SOL    HW236726   3.542   2.140   4.739  1.8522  0.6960 -0.5994
 8423SOL     OW36727   3.928   0.209   2.814  0.1052 -0.0209 -0.8650
 8423SOL    HW136728   3.981   0.248   2.884  0.1431 -1.0072 -0.3516
 8423SOL    HW236729   3.972   0.243   2.737 -1.5110 -0.4987 -2.0119
 8424SOL     OW36730   0.870   1.819   4.896 -0.0941 -0.3977  0.1608
 8424SOL    HW136731   0.926   1.897   4.894  1.8458 -1.8193 -1.0834
 8424SOL    HW236732   0.817   1.831   4.817 -0.1709  1.4532  0.4777
 8425SOL     OW36733   1.643   2.248   3.813  0.0131 -0.3253 -0.1726
 8425SOL    HW136734   1.703   2.244   3.738 -0.2780  0.9701 -0.4700
 8425SOL    HW236735   1.565   2.219   3.766  0.6668 -0.5206 -1.1324
 8426SOL     OW36736   3.470   2.400  16.472 -0.7481  0.0712  0.1555
 8426SOL    HW136737   3.505   2.489  16.486  0.0405 -0.1554 -0.3806
 8426SOL    HW236738   3.379   2.419  16.496 -1.0460  0.0126 -0.9308
 8427SOL     OW36739   4.556   1.615  14.949 -0.6382 -0.1839 -0.4708
 8427SOL    HW136740   4.626   1.629  14.886  0.6416  0.6063  1.1135
 8427SOL    HW236741   4.576   1.529  14.988 -1.2573 -0.9853 -1.9477
 8428SOL     OW36742   0.003   2.414  11.822  0.2424 -0.1102 -0.4618
 8428SOL    HW136743   4.628   2.403  11.815 -0.1136  2.2625  0.4898
 8428SOL    HW236744   0.031   2.325  11.803  0.0186 -0.3365  0.2702
 8429SOL     OW36745   3.268   4.667  16.678  0.0176 -0.1209  0.2404
 8429SOL    HW136746   3.323   4.701  16.607  1.5624  0.2202  1.6046
 8429SOL    HW236747   3.305   4.579  16.692  1.0786  0.4817  1.1831
 8430SOL     OW36748   3.307   0.203   8.286 -0.0738 -0.1810 -0.0550
 8430SOL    HW136749   3.264   0.119   8.299  2.0663 -1.5062 -1.4555
 8430SOL    HW236750   3.344   0.205   8.197  0.0615 -0.2369  0.0005
 8431SOL     OW36751   0.027   2.903  15.609 -0.3665 -0.9004 -0.1871
 8431SOL    HW136752   4.709   2.854  15.536 -1.6532  1.5369 -1.1657
 8431SOL    HW236753   0.014   2.996  15.587  1.0371 -0.5583  0.4195
 8432SOL     OW36754   2.605   4.622   3.530 -0.2048 -0.5708 -0.8700
 8432SOL    HW136755   2.652   4.539   3.519  2.3556  0.7388 -0.0465
 8432SOL    HW236756   2.555   4.612   3.611  1.9853 -1.8061  0.3475
 8433SOL     OW36757   0.342   1.545   2.309  0.2736 -0.0333 -0.8004
 8433SOL    HW136758   0.258   1.505   2.285  0.0042 -1.7861  3.0498
 8433SOL    HW236759   0.366   1.505   2.393  1.2913 -2.3992 -2.2100
 8434SOL     OW36760   3.520   3.179   4.668  0.2707  0.3910  0.0003
 8434SOL    HW136761   3.557   3.154   4.752 -1.6868  1.4724  1.1896
 8434SOL    HW236762   3.465   3.246   4.709  1.3442  0.3845  1.4446
 8435SOL     OW36763   4.382   2.836  15.628 -0.1118 -0.5323  0.1312
 8435SOL    HW136764   4.347   2.845  15.539 -0.5426 -2.8693  0.0587
 8435SOL    HW236765   4.474   2.858  15.614 -0.1810 -0.5971 -0.4221
 8436SOL     OW36766   1.529   3.014   7.218  0.1339  0.3278 -0.2551
 8436SOL    HW136767   1.608   2.964   7.197  2.1305  3.1954  0.4485
 8436SOL    HW236768   1.469   2.950   7.178  0.5779 -2.0227  2.8182
 8437SOL     OW36769   1.958   0.894   2.619 -0.1006 -0.0639  0.7546
 8437SOL    HW136770   1.962   0.810   2.574  0.3890 -0.1462  0.9551
 8437SOL    HW236771   1.864   0.887   2.637  0.0542 -0.3188  1.4754
 8438SOL     OW36772   0.163   0.520  16.361  0.0154 -0.8796  0.6141
 8438SOL    HW136773   0.178   0.436  16.317 -1.8909 -0.4402 -0.8864
 8438SOL    HW236774   0.136   0.569  16.283 -0.3873 -2.5190 -0.2941
 8439SOL     OW36775   3.740   1.423   0.082 -0.1238 -0.1937 -0.3783
 8439SOL    HW136776   3.808   1.453   0.021 -1.1859  2.5982 -0.1684
 8439SOL    HW236777   3.675   1.492   0.089 -0.1822  0.1250 -3.7019
 8440SOL     OW36778   3.266   4.007   3.451 -0.2433 -0.5680 -0.7237
 8440SOL    HW136779   3.184   3.995   3.404 -1.2655  1.6869  0.4855
 8440SOL    HW236780   3.332   3.981   3.387  0.5277 -3.0166  1.0147
 8441SOL     OW36781   3.897   0.856   8.001  0.2328 -0.2665 -0.1656
 8441SOL    HW136782   3.858   0.882   8.084  1.7539 -0.8197  0.7219
 8441SOL    HW236783   3.855   0.925   7.950 -1.7097  2.2774  4.8252
 8442SOL     OW36784   0.333   0.329   4.153 -0.3313  0.0167 -0.0217
 8442SOL    HW136785   0.281   0.260   4.112  0.7617  0.0125 -1.4030
 8442SOL    HW236786   0.283   0.333   4.235 -1.2570 -0.8611 -0.5449
 8443SOL     OW36787   4.208   3.198   6.999  0.4074 -0.6610  0.1544
 8443SOL    HW136788   4.294   3.240   6.996  0.2130 -0.3578 -1.0421
 8443SOL    HW236789   4.193   3.156   6.915 -2.2354  0.6131  0.0039
 8444SOL     OW36790   0.146   1.428   3.754 -0.3387 -0.3647 -0.4337
 8444SOL    HW136791   0.221   1.393   3.707  1.2120  0.9066  1.1041
 8444SOL    HW236792   0.082   1.362   3.729 -0.8344 -1.4296  3.6314
 8445SOL     OW36793   1.975   0.214   7.643 -0.4457  0.5852 -0.1623
 8445SOL    HW136794   2.021   0.201   7.560 -2.1216  2.3787 -1.3718
 8445SOL    HW236795   2.041   0.252   7.701  2.2045 -0.0982 -2.7274
 8446SOL     OW36796   4.446   0.357  16.502 -0.6221  0.1422  0.5343
 8446SOL    HW136797   4.505   0.339  16.428 -1.4591 -1.8814  0.3686
 8446SOL    HW236798   4.472   0.443  16.536 -1.2819  0.5881 -0.0833
 8447SOL     OW36799   1.783   4.334   9.641 -0.7954  0.0874  0.3743
 8447SOL    HW136800   1.805   4.284   9.562  1.1185  1.8967 -0.2592
 8447SOL    HW236801   1.869   4.375   9.656 -0.6708 -0.3824  0.8999
 8448SOL     OW36802   2.651   4.712   7.501 -0.2971  0.2323  0.2481
 8448SOL    HW136803   2.732   4.667   7.479  0.4603  1.3739  0.7118
 8448SOL    HW236804   2.601   4.652   7.558 -0.4457  0.8706  0.7893
 8449SOL     OW36805   2.744   4.643   3.233  0.3213 -0.3862 -0.5834
 8449SOL    HW136806   2.770   4.568   3.286  0.4794 -2.3614 -3.4232
 8449SOL    HW236807   2.769   4.719   3.285  1.4826 -1.0144 -0.2154
 8450SOL     OW36808   4.098   2.304   1.579  0.4566  0.7201  0.0444
 8450SOL    HW136809   4.068   2.216   1.557  1.8096  0.5497 -1.1076
 8450SOL    HW236810   4.078   2.354   1.500 -0.8361 -0.4471 -0.3581
 8451SOL     OW36811   2.271   4.401   8.855 -0.5047 -0.1305 -0.2103
 8451SOL    HW136812   2.195   4.432   8.905  2.0657  0.8579  3.0967
 8451SOL    HW236813   2.324   4.371   8.929 -0.6702 -0.6484 -0.3004
 8452SOL     OW36814   1.729   0.311   4.936 -0.1768 -0.3965 -0.0110
 8452SOL    HW136815   1.649   0.259   4.944 -0.8457  0.5532 -0.5062
 8452SOL    HW236816   1.712   0.356   4.853 -1.7917  0.0077  0.5434
 8453SOL     OW36817   2.004   0.147  11.044  0.4550 -0.3814  0.2842
 8453SOL    HW136818   1.961   0.153  10.958  0.9164  0.7042  0.1284
 8453SOL    HW236819   2.005   0.239  11.070 -2.3032  0.0610 -1.0608
 8454SOL     OW36820   4.414   1.624   9.773  0.5345  0.2296 -0.2903
 8454SOL    HW136821   4.338   1.568   9.783  1.4181 -1.0965 -1.0332
 8454SOL    HW236822   4.469   1.568   9.718  0.9136  1.9545 -1.6829
 8455SOL     OW36823   1.565   0.682   4.427 -0.1965  0.0084 -0.2143
 8455SOL    HW136824   1.561   0.728   4.343 -3.5747 -0.8132 -0.4797
 8455SOL    HW236825   1.622   0.742   4.476 -0.0593 -0.1078 -0.2336
 8456SOL     OW36826   0.043   4.353   6.518 -0.0650 -0.3683  0.0973
 8456SOL    HW136827   4.677   4.330   6.553  0.1077  0.0811  0.8205
 8456SOL    HW236828   0.090   4.270   6.517  0.0426 -0.3001 -0.5391
 8457SOL     OW36829   3.793   4.612  11.229  0.5843  0.2099 -1.1554
 8457SOL    HW136830   3.776   4.520  11.208 -0.8370  0.1851  0.0716
 8457SOL    HW236831   3.816   4.598  11.320 -1.5551  1.9230 -0.3452
 8458SOL     OW36832   2.028   3.444   8.971 -0.1732 -0.2678 -0.0671
 8458SOL    HW136833   1.944   3.402   8.985 -0.3628  0.5747  1.2709
 8458SOL    HW236834   2.068   3.433   9.057 -0.6550 -1.7886 -0.0403
 8459SOL     OW36835   2.075   3.384   7.521 -0.1146  0.1111  0.3960
 8459SOL    HW136836   2.161   3.413   7.553 -0.1842  0.3592  0.3548
 8459SOL    HW236837   2.097   3.334   7.443 -0.1689  1.1709 -0.2903
 8460SOL     OW36838   2.990   3.466   6.904 -0.3669 -0.0254 -0.4808
 8460SOL    HW136839   2.995   3.478   6.809  2.3908  2.0744 -0.0301
 8460SOL    HW236840   2.972   3.372   6.910  0.6253 -0.2050 -0.4387
 8461SOL     OW36841   3.155   0.158  12.814  0.2211 -0.3569 -0.6464
 8461SOL    HW136842   3.128   0.168  12.905  0.8483 -0.7306 -0.4254
 8461SOL    HW236843   3.187   0.245  12.790  2.0983 -0.6963  0.6897
 8462SOL     OW36844   1.804   2.371  14.311  0.0644 -0.0936 -0.5566
 8462SOL    HW136845   1.770   2.354  14.224 -0.9652  1.7459 -0.5093
 8462SOL    HW236846   1.742   2.439  14.338  0.1542 -1.0496  2.0235
 8463SOL     OW36847   2.866   1.763  14.070  0.1497 -0.2382 -0.3867
 8463SOL    HW136848   2.818   1.846  14.076  3.0243  1.3868  0.5426
 8463SOL    HW236849   2.867   1.752  13.975 -2.4458 -0.2763 -0.4085
 8464SOL     OW36850   3.488   3.868   1.000  0.4056  0.6385 -0.3502
 8464SOL    HW136851   3.572   3.833   0.969 -0.0110  0.2744 -1.0688
 8464SOL    HW236852   3.498   3.866   1.095  4.3096 -2.2132 -0.8226
 8465SOL     OW36853   3.188   3.025  10.555  0.0959 -0.5945 -0.4523
 8465SOL    HW136854   3.274   3.054  10.523 -0.6354  0.9779 -0.9699
 8465SOL    HW236855   3.126   3.046  10.485 -1.6020 -2.9552  0.3888
 8466SOL     OW36856   2.619   1.602   5.368 -0.2311  0.1622 -0.0862
 8466SOL    HW136857   2.659   1.533   5.421 -0.2122 -0.9697 -1.5702
 8466SOL    HW236858   2.565   1.660   5.421 -0.3019  0.0020  0.0181
 8467SOL     OW36859   2.684   3.507   7.200  0.0782 -0.4570 -0.2022
 8467SOL    HW136860   2.744   3.495   7.274  0.2522  1.2444 -0.0520
 8467SOL    HW236861   2.726   3.571   7.143 -0.8855  0.9633  0.6554
 8468SOL     OW36862   2.952   3.928   7.524 -0.1771  0.2453  0.2758
 8468SOL    HW136863   2.973   3.857   7.585  1.1324 -0.2924 -0.7998
 8468SOL    HW236864   2.948   3.881   7.440  4.0220  2.5876 -1.2086
 8469SOL     OW36865   0.704   1.133   0.134 -0.1036  0.1132  0.0052
 8469SOL    HW136866   0.766   1.105   0.201  0.6732 -1.0303 -1.1938
 8469SOL    HW236867   0.748   1.121   0.049 -0.2544 -0.2337 -0.0267
 8470SOL     OW36868   3.718   3.654  13.697  0.2308  0.3967 -0.2265
 8470SOL    HW136869   3.725   3.611  13.612  2.2291  1.3447 -0.5323
 8470SOL    HW236870   3.685   3.743  13.682 -2.1057 -0.0465  2.2293
 8471SOL     OW36871   3.652   4.605   1.281 -0.0361 -0.0606 -0.2969
 8471SOL    HW136872   3.613   4.615   1.195  0.5242  0.5964 -0.4702
 8471SOL    HW236873   3.687   4.693   1.288  0.8177 -0.4500  0.3334
 8472SOL     OW36874   1.732   0.780  12.447  0.0033 -0.4164 -0.1057
 8472SOL    HW136875   1.739   0.692  12.410  1.3518  0.0727 -1.0367
 8472SOL    HW236876   1.786   0.832  12.388 -1.9506  0.8683 -0.7666
 8473SOL     OW36877   2.725   2.463   5.693 -0.5538 -0.1103  0.1227
 8473SOL    HW136878   2.766   2.499   5.615 -2.4204  1.4779 -0.1400
 8473SOL    HW236879   2.767   2.508   5.767  1.4096  2.0084 -2.2939
 8474SOL     OW36880   3.422   4.633   4.028 -0.3687  0.2091 -0.0266
 8474SOL    HW136881   3.435   4.540   4.007  3.1870  0.8045 -0.3316
 8474SOL    HW236882   3.455   4.665   3.944 -1.1392  2.8153  0.6775
 8475SOL     OW36883   1.513   2.293   4.252  0.3297  0.1211 -0.6278
 8475SOL    HW136884   1.428   2.252   4.265 -0.0515  1.2723  0.4974
 8475SOL    HW236885   1.559   2.242   4.185  1.5261  1.4256 -0.8128
 8476SOL     OW36886   3.012   2.051   1.782  0.4703  0.8268  0.6649
 8476SOL    HW136887   2.967   2.004   1.712 -0.9223  0.8624  1.5329
 8476SOL    HW236888   3.036   1.973   1.833  0.1320  0.2090 -0.1066
 8477SOL     OW36889   1.771   1.741   1.895  1.0614 -0.6855 -0.4339
 8477SOL    HW136890   1.805   1.678   1.833  0.7286 -0.9253 -0.3719
 8477SOL    HW236891   1.741   1.682   1.964 -1.7054  1.4891  0.2412
 8478SOL     OW36892   0.074   2.343   4.100  0.0841  0.7198 -0.0316
 8478SOL    HW136893   0.069   2.424   4.151 -1.9783  0.1345  0.6852
 8478SOL    HW236894   0.038   2.372   4.016 -0.1885 -1.9421 -0.8639
 8479SOL     OW36895   4.359   2.435   1.482  0.2287 -0.0638  0.3950
 8479SOL    HW136896   4.342   2.443   1.388 -0.9083  0.2056  0.6278
 8479SOL    HW236897   4.296   2.367   1.507  1.3222 -1.0168  0.5985
 8480SOL     OW36898   2.135   3.026  14.003  0.0470  0.1583 -0.3589
 8480SOL    HW136899   2.161   2.940  13.971  2.7206  0.9694 -0.3139
 8480SOL    HW236900   2.053   3.001  14.045  0.6429  1.1236  1.3749
 8481SOL     OW36901   1.609   2.517   1.428  0.1091 -0.2240 -0.1445
 8481SOL    HW136902   1.520   2.501   1.397  0.1464 -2.0770  0.7087
 8481SOL    HW236903   1.653   2.433   1.414  0.6068 -0.0200  0.1945
 8482SOL     OW36904   4.717   2.092   7.480  0.0328  0.1899 -0.0116
 8482SOL    HW136905   0.092   2.086   7.487  0.1911  3.1906  0.3835
 8482SOL    HW236906   4.710   2.059   7.390 -0.2196 -0.0674  0.1008
 8483SOL     OW36907   1.067   2.368  11.751  0.1244 -0.2282  0.4461
 8483SOL    HW136908   1.132   2.437  11.760 -0.6620  0.4683  0.7829
 8483SOL    HW236909   1.102   2.298  11.806  0.2905  0.6028  1.4020
 8484SOL     OW36910   0.906   3.549   7.789  0.6069  0.0228  0.1799
 8484SOL    HW136911   0.865   3.468   7.760  0.8666 -0.4764  1.1949
 8484SOL    HW236912   0.936   3.526   7.877  0.8974 -2.4765 -0.5675
 8485SOL     OW36913   2.518   1.670  16.432  0.4141 -0.3493 -0.5967
 8485SOL    HW136914   2.482   1.582  16.424  1.6259 -0.9159  0.3611
 8485SOL    HW236915   2.438   1.721  16.447  1.8377  1.7543 -0.1743
 8486SOL     OW36916   3.574   0.669   4.180 -0.1748 -0.2739  0.0302
 8486SOL    HW136917   3.577   0.664   4.085 -1.7015 -0.7846  0.0060
 8486SOL    HW236918   3.607   0.756   4.204 -0.8750 -0.4481  1.6375
 8487SOL     OW36919   3.029   3.224   9.137 -0.4514  0.2097  0.2041
 8487SOL    HW136920   3.103   3.279   9.160 -0.0823 -0.4902  0.6953
 8487SOL    HW236921   3.042   3.225   9.042 -2.1352 -0.4530 -0.0413
 8488SOL     OW36922   2.212   0.644  16.458  0.4071  0.3561  0.6595
 8488SOL    HW136923   2.245   0.591  16.530 -2.1694 -0.4541  1.2444
 8488SOL    HW236924   2.171   0.573  16.409 -0.7052  0.4847  1.3869
 8489SOL     OW36925   2.758   1.770   7.990  0.1149 -0.1723 -0.4934
 8489SOL    HW136926   2.808   1.731   8.061  1.2966  0.4121 -0.9976
 8489SOL    HW236927   2.671   1.759   8.028  1.0650 -1.5065  1.2887
 8490SOL     OW36928   3.366   1.974   4.221 -0.3310 -0.7104  0.2518
 8490SOL    HW136929   3.386   2.068   4.218 -0.1448 -0.8618 -2.9961
 8490SOL    HW236930   3.428   1.934   4.282  2.5009  1.0793 -1.4387
 8491SOL     OW36931   1.827   2.472  11.275  0.6633  0.0160  0.1139
 8491SOL    HW136932   1.740   2.434  11.289  0.6892 -1.0660 -2.6622
 8491SOL    HW236933   1.788   2.543  11.223 -0.0069  0.3511  1.0750
 8492SOL     OW36934   0.873   0.141   6.164  0.0481  0.6695 -0.0372
 8492SOL    HW136935   0.934   0.068   6.156 -1.6984 -0.7960  0.0335
 8492SOL    HW236936   0.934   0.197   6.212  0.8613  0.1729 -0.4972
 8493SOL     OW36937   3.047   2.711   2.256  0.1677 -0.0217 -0.3685
 8493SOL    HW136938   2.955   2.730   2.274 -0.3677 -1.9909 -1.0202
 8493SOL    HW236939   3.047   2.640   2.192 -1.2921  1.4922 -2.0557
 8494SOL     OW36940   0.153   0.186   3.195 -0.1373 -0.0315  0.0080
 8494SOL    HW136941   0.237   0.161   3.234  0.5882 -1.0624 -2.2198
 8494SOL    HW236942   0.164   0.281   3.187 -0.7347 -0.2077 -3.0245
 8495SOL     OW36943   2.651   4.192   4.990 -0.1691 -0.5466 -0.3292
 8495SOL    HW136944   2.701   4.120   4.952  2.0288  0.7345  0.1781
 8495SOL    HW236945   2.705   4.268   4.972  0.6797 -1.3251 -1.0759
 8496SOL     OW36946   2.318   0.157   4.416 -0.3680 -0.0369 -0.2085
 8496SOL    HW136947   2.264   0.173   4.339  0.5320  1.1509 -0.6016
 8496SOL    HW236948   2.345   0.245   4.442 -0.2725 -0.1699  0.1473
 8497SOL     OW36949   4.302   1.941   2.884 -0.4069  0.1564  0.0297
 8497SOL    HW136950   4.349   2.024   2.897 -3.4711  1.8247  0.4536
 8497SOL    HW236951   4.303   1.937   2.789  2.7154  0.1285  0.0566
 8498SOL     OW36952   4.065   3.500   6.856  0.0525 -0.0766  0.8199
 8498SOL    HW136953   4.006   3.533   6.788  1.6080  0.2348 -0.3619
 8498SOL    HW236954   4.148   3.497   6.809 -0.4109 -4.0852  0.2354
 8499SOL     OW36955   3.418   4.614   7.893  0.0876 -0.7950  0.7433
 8499SOL    HW136956   3.465   4.532   7.902 -0.1869 -0.9551  0.7337
 8499SOL    HW236957   3.373   4.616   7.977  0.8572 -2.0045  1.1820
 8500SOL     OW36958   1.739   1.434   1.457  0.1781 -0.7955 -0.4884
 8500SOL    HW136959   1.724   1.397   1.370 -0.7725 -1.2905 -0.1197
 8500SOL    HW236960   1.690   1.372   1.511 -0.1031 -1.6117 -1.6879
 8501SOL     OW36961   1.379   0.462   6.648  0.1365 -0.1935  0.2075
 8501SOL    HW136962   1.471   0.488   6.656 -0.1135  0.4287  1.0136
 8501SOL    HW236963   1.346   0.550   6.631 -1.5275 -1.0654 -1.0619
 8502SOL     OW36964   3.938   4.309   6.993 -0.0993  1.0986 -0.5592
 8502SOL    HW136965   3.856   4.347   6.959 -0.8562  1.3045  1.4802
 8502SOL    HW236966   3.908   4.219   7.009  1.1366  0.7775 -0.0860
 8503SOL     OW36967   2.936   3.626  15.767 -0.0909  0.6694 -0.1140
 8503SOL    HW136968   3.001   3.572  15.723  0.2782  1.1159 -0.1180
 8503SOL    HW236969   2.896   3.564  15.828 -1.4492  0.0659 -1.6195
 8504SOL     OW36970   2.523   1.896   1.454 -0.2774  0.2555 -0.5728
 8504SOL    HW136971   2.549   1.952   1.527 -2.1553 -2.7613  2.3994
 8504SOL    HW236972   2.437   1.934   1.437 -0.3045  0.7786  0.8090
 8505SOL     OW36973   2.940   2.031   0.593 -0.0155  0.1746 -0.1015
 8505SOL    HW136974   2.884   1.965   0.633  0.9543 -1.0415 -0.7767
 8505SOL    HW236975   2.945   2.025   0.498 -3.3070  1.8513 -0.4009
 8506SOL     OW36976   1.401   0.065   3.224 -0.2517 -0.2792 -0.0325
 8506SOL    HW136977   1.374   0.008   3.296 -1.1731 -0.4899 -0.5532
 8506SOL    HW236978   1.340   0.035   3.157  0.0421 -0.0591 -0.3978
 8507SOL     OW36979   1.516   0.303   3.210 -0.3034  0.1215 -0.6561
 8507SOL    HW136980   1.531   0.318   3.304 -2.4901  0.3439 -0.3433
 8507SOL    HW236981   1.464   0.223   3.214 -0.1094 -0.0217 -1.0482
 8508SOL     OW36982   4.637   0.413   2.382 -0.6522 -0.4066  0.1343
 8508SOL    HW136983   0.004   0.377   2.361 -0.2478  1.5116 -1.4097
 8508SOL    HW236984   4.627   0.386   2.474  2.4570  0.7405  0.8182
 8509SOL     OW36985   1.038   2.432   1.583 -0.6557 -0.4127  0.6746
 8509SOL    HW136986   1.002   2.386   1.659 -0.7180 -0.2143  0.7656
 8509SOL    HW236987   1.103   2.370   1.550  0.5854  0.3528  1.6760
 8510SOL     OW36988   4.657   1.254   6.510  0.1649 -0.5169  0.0010
 8510SOL    HW136989   4.654   1.232   6.417 -3.0653 -1.8268  0.4353
 8510SOL    HW236990   4.584   1.315   6.514  0.7575  0.2094 -0.2709
 8511SOL     OW36991   1.255   4.251   7.322  0.1844  0.0264  0.0332
 8511SOL    HW136992   1.190   4.316   7.295 -0.9110 -0.7190  0.8884
 8511SOL    HW236993   1.332   4.309   7.319 -0.0852  0.5688  3.3229
 8512SOL     OW36994   3.966   4.396  11.736  0.2622 -0.1408  0.4477
 8512SOL    HW136995   3.884   4.357  11.767  0.3469  2.2674  3.7111
 8512SOL    HW236996   4.036   4.355  11.787 -1.1506 -2.7606  0.2785
 8513SOL     OW36997   0.673   3.697   4.056  0.2880 -0.4056 -0.4008
 8513SOL    HW136998   0.594   3.650   4.080 -0.1635 -0.0589 -1.1773
 8513SOL    HW236999   0.647   3.789   4.049 -0.7614 -0.7093 -0.4374
 8514SOL     OW37000   0.305   4.239   3.078 -0.4202  0.0630 -0.1124
 8514SOL    HW137001   0.337   4.224   3.167 -2.6382 -1.6580  0.4077
 8514SOL    HW237002   0.301   4.334   3.077 -2.0877 -0.0068  0.7957
 8515SOL     OW37003   3.877   1.076   2.713  0.3114  0.4179  0.2900
 8515SOL    HW137004   3.800   1.103   2.764  1.9161  3.9464  0.8589
 8515SOL    HW237005   3.840   1.013   2.651 -1.4177  0.8490  0.8603
 8516SOL     OW37006   3.730   0.116   6.792 -0.0882  0.1741 -0.8927
 8516SOL    HW137007   3.819   0.085   6.807 -0.4450 -0.7424 -0.6624
 8516SOL    HW237008   3.755   0.201   6.756  0.1574 -0.2539 -1.7343
 8517SOL     OW37009   0.301   1.878   5.715  0.2062  0.0537  0.0775
 8517SOL    HW137010   0.388   1.840   5.716  0.9320  1.7198  0.0071
 8517SOL    HW237011   0.313   1.968   5.747 -1.3788  0.4731 -0.4914
 8518SOL     OW37012   3.100   3.013   1.697  0.6674 -0.2909  0.1143
 8518SOL    HW137013   3.130   2.949   1.762  0.1886 -0.4896  0.1381
 8518SOL    HW237014   3.130   2.964   1.621  1.2789 -1.8293  1.3311
 8519SOL     OW37015   0.437   4.533   5.353  0.4232  0.1668 -0.4523
 8519SOL    HW137016   0.497   4.463   5.329 -1.6224 -1.8488  0.3317
 8519SOL    HW237017   0.467   4.600   5.292 -1.4865 -1.0771 -2.7670
 8520SOL     OW37018   4.454   4.651  17.119  0.2141 -0.4955 -0.0360
 8520SOL    HW137019   4.469   4.565  17.080  0.2206  0.5017 -2.1746
 8520SOL    HW237020   4.486   4.647  17.210  2.3044  0.0299 -0.7583
 8521SOL     OW37021   3.004   3.922   3.678 -0.1669  0.1653  0.4822
 8521SOL    HW137022   3.098   3.940   3.688 -0.6216  2.7352  0.1860
 8521SOL    HW237023   2.997   3.859   3.607 -0.1916 -0.0302  0.6585
 8522SOL     OW37024   4.690   4.392  16.849  0.1696  0.1830 -0.5927
 8522SOL    HW137025   0.027   4.424  16.778  0.6297 -1.1493 -0.8204
 8522SOL    HW237026   0.036   4.404  16.918 -2.4512 -0.0489  1.9137
 8523SOL     OW37027   3.954   0.236   4.462  0.1023 -0.5854 -0.3083
 8523SOL    HW137028   3.934   0.161   4.518  0.1472  0.1270  0.6751
 8523SOL    HW237029   4.043   0.258   4.493  0.2615  0.4566 -1.5190
 8524SOL     OW37030   2.904   2.256  13.105 -0.1926 -0.2367  1.0000
 8524SOL    HW137031   2.995   2.257  13.135 -0.0977  1.5730  0.5971
 8524SOL    HW237032   2.896   2.349  13.085  1.1155 -0.7635 -1.9522
 8525SOL     OW37033   4.349   0.890   6.165 -0.5742 -0.3039 -0.4239
 8525SOL    HW137034   4.303   0.925   6.241  1.4692 -0.2871  0.8052
 8525SOL    HW237035   4.372   0.973   6.124 -0.0084 -0.1780  0.1618
 8526SOL     OW37036   1.141   1.157  10.235  0.3272 -0.2039  0.0619
 8526SOL    HW137037   1.065   1.197  10.192  2.0841  0.4749 -2.4040
 8526SOL    HW237038   1.194   1.133  10.159  2.1738  1.8746  0.6834
 8527SOL     OW37039   1.424   3.211   4.239 -0.6666  0.1721  0.1815
 8527SOL    HW137040   1.372   3.133   4.219  1.0478 -0.8233 -0.2968
 8527SOL    HW237041   1.413   3.257   4.156 -0.6081  0.2603  0.2221
 8528SOL     OW37042   3.870   0.968  15.007 -0.5987  0.3390 -0.0643
 8528SOL    HW137043   3.868   0.971  15.103  1.0551  0.1866 -0.0242
 8528SOL    HW237044   3.904   1.055  14.987  1.8151 -0.3135  1.1247
 8529SOL     OW37045   0.953   3.277  15.033  0.1839  0.2453 -0.5473
 8529SOL    HW137046   0.879   3.309  14.982  1.3395 -0.3496 -2.6180
 8529SOL    HW237047   0.978   3.355  15.083  0.1825  0.4907 -0.9356
 8530SOL     OW37048   0.915   1.401  14.446  0.3777 -0.3060 -0.2296
 8530SOL    HW137049   0.928   1.319  14.493  2.2377  0.3368  0.3852
 8530SOL    HW237050   0.939   1.468  14.510 -0.8066 -0.0592 -0.0454
 8531SOL     OW37051   2.336   3.269   5.949 -0.1454  0.0660  0.5180
 8531SOL    HW137052   2.409   3.300   6.003 -0.9815  0.7457  1.2388
 8531SOL    HW237053   2.265   3.333   5.953 -2.5927 -2.7972  1.9925
 8532SOL     OW37054   0.670   1.619  14.851  0.0893  0.4290  0.1274
 8532SOL    HW137055   0.658   1.708  14.818  0.2455  0.3287 -0.1924
 8532SOL    HW237056   0.650   1.636  14.943  0.0355 -1.1130  0.3944
 8533SOL     OW37057   0.702   2.706  11.640  0.1335  0.0570  0.4547
 8533SOL    HW137058   0.613   2.730  11.668  0.2438  1.9364 -0.8141
 8533SOL    HW237059   0.741   2.787  11.608  2.1629 -1.6160 -1.2650
 8534SOL     OW37060   3.148   0.528   1.682  0.1963 -0.1611 -0.1034
 8534SOL    HW137061   3.229   0.558   1.724 -0.2580 -1.2892  1.6050
 8534SOL    HW237062   3.140   0.586   1.606 -1.1544 -1.1423 -0.6979
 8535SOL     OW37063   2.446   1.142  15.673 -0.0262 -0.0273 -0.1862
 8535SOL    HW137064   2.381   1.204  15.639  1.2120  1.7709  0.7414
 8535SOL    HW237065   2.418   1.075  15.611 -1.1854 -1.8098  2.2713
 8536SOL     OW37066   2.886   4.450  10.639  0.0291  0.4832  0.5332
 8536SOL    HW137067   2.879   4.358  10.615 -1.4961  0.2299  1.9597
 8536SOL    HW237068   2.913   4.452  10.730 -1.9474  1.2441  1.1162
 8537SOL     OW37069   4.601   0.453   9.526  0.9150  0.2214 -0.2214
 8537SOL    HW137070   4.652   0.373   9.515 -0.5954 -0.7743 -0.0046
 8537SOL    HW237071   4.521   0.424   9.571  1.5181  1.6537  1.7261
 8538SOL     OW37072   2.669   0.261   6.870  0.8767  0.0009 -0.5249
 8538SOL    HW137073   2.714   0.240   6.788 -0.9308  0.3151 -1.5970
 8538SOL    HW237074   2.731   0.242   6.941  0.4885  1.0690  0.0866
 8539SOL     OW37075   3.160   2.694   4.765  0.5185 -0.4100  0.4447
 8539SOL    HW137076   3.206   2.762   4.814 -0.7715 -1.5879  3.3034
 8539SOL    HW237077   3.205   2.615   4.794  0.1441 -0.6848  0.2710
 8540SOL     OW37078   2.598   1.309   4.527  0.2422  0.4634  0.1361
 8540SOL    HW137079   2.662   1.300   4.599 -1.6312  1.4197  1.9281
 8540SOL    HW237080   2.536   1.379   4.548 -0.2602  0.3058 -0.8410
 8541SOL     OW37081   2.261   3.695   7.867  0.0533  0.1676 -0.0894
 8541SOL    HW137082   2.215   3.753   7.928 -0.5648 -0.3308 -0.0753
 8541SOL    HW237083   2.320   3.761   7.831  0.4518  0.1277  0.4974
 8542SOL     OW37084   3.063   3.790   0.629  0.0225  0.1489  0.2883
 8542SOL    HW137085   3.009   3.735   0.685 -1.1877  2.7572  1.6752
 8542SOL    HW237086   3.108   3.838   0.698  0.7345 -0.8845  0.5326
 8543SOL     OW37087   3.646   0.681  10.423  0.1260 -0.3871 -0.4922
 8543SOL    HW137088   3.618   0.590  10.433 -0.4832 -0.0355  0.9603
 8543SOL    HW237089   3.740   0.666  10.417 -0.0234 -0.2019 -3.3678
 8544SOL     OW37090   3.036   4.162   4.116 -0.6304 -0.0104 -0.1314
 8544SOL    HW137091   2.969   4.220   4.150 -0.6386 -0.8533  1.3046
 8544SOL    HW237092   2.993   4.118   4.043 -0.5741 -0.5852  0.1843
 8545SOL     OW37093   3.659   2.745   8.440 -0.5836  0.1978  0.1320
 8545SOL    HW137094   3.661   2.801   8.362  3.0507 -1.2959 -0.8517
 8545SOL    HW237095   3.743   2.700   8.429 -0.2087  0.6814  0.9941
 8546SOL     OW37096   0.216   3.832   8.971 -0.1005 -0.7946  0.1639
 8546SOL    HW137097   0.155   3.876   8.912  0.9166  2.4384  1.5348
 8546SOL    HW237098   0.155   3.835   9.045 -0.6064  1.7610 -0.3660
 8547SOL     OW37099   2.435   0.419   8.726 -0.0111  0.6331 -0.1657
 8547SOL    HW137100   2.514   0.470   8.741  0.7969 -1.1582  1.6338
 8547SOL    HW237101   2.386   0.465   8.794 -0.1141 -1.7699  1.3924
 8548SOL     OW37102   3.891   2.594  14.022 -0.4073 -0.3113 -0.1708
 8548SOL    HW137103   3.891   2.507  13.981 -2.1682 -1.3340  2.0117
 8548SOL    HW237104   3.966   2.588  14.081  0.1600 -0.9469 -0.9533
 8549SOL     OW37105   0.545   0.562   1.294  0.3132  0.2571  0.1595
 8549SOL    HW137106   0.568   0.484   1.244  1.0016  0.4365  0.1967
 8549SOL    HW237107   0.634   0.595   1.305  0.9693 -1.1890 -0.9297
 8550SOL     OW37108   1.082   2.811   3.161 -0.4630  0.6624  0.7358
 8550SOL    HW137109   1.030   2.837   3.237 -0.7205 -0.2665  0.8845
 8550SOL    HW237110   1.166   2.857   3.172 -0.7051  0.6570  2.6345
 8551SOL     OW37111   2.157   2.604   4.406 -0.2283  0.0851  0.5428
 8551SOL    HW137112   2.230   2.639   4.354 -0.4978  0.2742  0.2950
 8551SOL    HW237113   2.164   2.668   4.478 -1.1172 -0.9109  1.5079
 8552SOL     OW37114   1.911   3.568   8.670 -0.0605 -0.3119  0.2409
 8552SOL    HW137115   1.852   3.643   8.670 -2.2937 -2.0906 -2.7873
 8552SOL    HW237116   1.859   3.497   8.633 -2.0061  0.7582  0.9292
 8553SOL     OW37117   3.275   1.118   3.578  0.2111 -0.4342  0.1259
 8553SOL    HW137118   3.359   1.086   3.546  0.2579 -1.2275  1.0583
 8553SOL    HW237119   3.232   1.041   3.614  0.4797 -0.2405  0.8488
 8554SOL     OW37120   3.190   3.736   5.993  0.1321 -0.6238 -0.3587
 8554SOL    HW137121   3.108   3.751   6.039  0.0068 -1.2269 -0.3907
 8554SOL    HW237122   3.248   3.705   6.063 -0.8633 -2.8974 -0.5605
 8555SOL     OW37123   3.533   2.857   4.866  0.1832  0.0569  0.3012
 8555SOL    HW137124   3.548   2.952   4.866 -1.2236  0.2903  1.5476
 8555SOL    HW237125   3.449   2.865   4.911  0.5943 -2.4419  1.4804
 8556SOL     OW37126   2.073   4.422  15.090  0.2993  0.0180 -0.2806
 8556SOL    HW137127   2.115   4.339  15.069  1.3906  0.3485  0.5708
 8556SOL    HW237128   2.136   4.464  15.149  1.2866 -1.8663 -0.0128
 8557SOL     OW37129   3.061   3.614   0.974 -0.3613  0.0270  0.4640
 8557SOL    HW137130   2.992   3.593   0.911 -0.0748 -1.4591  0.6473
 8557SOL    HW237131   3.110   3.681   0.925 -1.5874  1.1598  0.7998
 8558SOL     OW37132   3.454   3.138  13.958  0.1219  0.0365 -0.4692
 8558SOL    HW137133   3.359   3.127  13.949  0.7017 -4.2448 -1.5439
 8558SOL    HW237134   3.464   3.212  14.018 -0.8794 -1.1155  1.1403
 8559SOL     OW37135   0.754   0.414   2.020  0.6813  0.2823  0.1774
 8559SOL    HW137136   0.727   0.371   2.102  0.7089 -1.8380 -0.9281
 8559SOL    HW237137   0.790   0.341   1.971  1.0418 -0.0876  0.9879
 8560SOL     OW37138   0.231   1.929   0.551 -0.7904 -0.1228 -0.5698
 8560SOL    HW137139   0.234   1.840   0.587  1.3409  0.4263  0.5972
 8560SOL    HW237140   0.254   1.912   0.460  0.3995 -2.8926  0.2595
 8561SOL     OW37141   3.260   3.538   6.786 -0.2198  0.0497  0.3442
 8561SOL    HW137142   3.309   3.505   6.861 -0.4754  1.2280  1.0345
 8561SOL    HW237143   3.214   3.459   6.758  2.2591 -0.3751 -2.6066
 8562SOL     OW37144   3.348   3.257  10.758  0.0982 -1.1139  0.0182
 8562SOL    HW137145   3.420   3.196  10.742 -0.1825 -2.3149  3.3648
 8562SOL    HW237146   3.372   3.331  10.702  2.6124 -0.5963  1.7843
 8563SOL     OW37147   1.872   0.516   9.085 -0.2501  0.2809 -0.0339
 8563SOL    HW137148   1.795   0.526   9.142 -1.7027  0.9488 -2.1323
 8563SOL    HW237149   1.926   0.585   9.122 -1.6496  1.6817 -0.6066
 8564SOL     OW37150   1.927   3.138   6.226  0.6227  0.6022  0.1545
 8564SOL    HW137151   1.989   3.210   6.221  0.0215  1.1501  0.5738
 8564SOL    HW237152   1.975   3.066   6.268 -0.2694  0.7815  1.5156
 8565SOL     OW37153   4.178   2.530   2.355 -0.1774  0.0088 -0.2145
 8565SOL    HW137154   4.199   2.437   2.368  2.4941  0.5605 -0.6974
 8565SOL    HW237155   4.195   2.573   2.438  1.4756 -0.6114 -0.2373
 8566SOL     OW37156   3.633   0.832   6.227 -0.0211 -0.3307 -0.5444
 8566SOL    HW137157   3.609   0.922   6.250  1.4489  0.4645 -2.0440
 8566SOL    HW237158   3.643   0.827   6.132  0.0459  1.4974 -0.6425
 8567SOL     OW37159   3.474   4.471   7.528  0.5968  0.2825  0.1164
 8567SOL    HW137160   3.458   4.423   7.609  3.1804  0.2994  0.6387
 8567SOL    HW237161   3.391   4.447   7.488  1.5151 -3.2170  0.2829
 8568SOL     OW37162   0.801   0.800   6.490  0.8810  0.2135 -0.4462
 8568SOL    HW137163   0.715   0.842   6.496 -0.1176 -1.7410 -1.3054
 8568SOL    HW237164   0.791   0.775   6.398 -1.6397 -0.8317  0.1051
 8569SOL     OW37165   1.983   2.745  12.414  0.4118 -0.1124 -0.2782
 8569SOL    HW137166   1.959   2.757  12.322 -2.3407 -0.1703  0.4219
 8569SOL    HW237167   2.062   2.798  12.418 -0.6652  1.4308  0.6111
 8570SOL     OW37168   2.607   4.534   0.649 -0.4705 -0.1743  0.2567
 8570SOL    HW137169   2.514   4.520   0.631 -0.2465 -1.2632 -0.0833
 8570SOL    HW237170   2.623   4.459   0.706 -0.3960 -0.4836 -0.1642
 8571SOL     OW37171   0.181   1.571   1.548 -0.4318 -0.0528 -0.0773
 8571SOL    HW137172   0.207   1.537   1.634  2.1747  2.6402  0.1969
 8571SOL    HW237173   0.185   1.495   1.489 -3.8898 -1.6257  1.7564
 8572SOL     OW37174   3.169   2.171   2.624  0.0575 -0.1938 -0.7689
 8572SOL    HW137175   3.239   2.158   2.689  0.4697  1.9806 -0.7840
 8572SOL    HW237176   3.165   2.266   2.614 -1.5203 -0.1506  0.3607
 8573SOL     OW37177   1.885   0.719  15.895 -0.1273  0.3291 -0.1767
 8573SOL    HW137178   1.923   0.709  15.982 -1.1721 -1.2186  0.0844
 8573SOL    HW237179   1.819   0.785  15.916 -0.2528  0.1784 -0.1002
 8574SOL     OW37180   2.750   4.697   8.537  0.0176 -0.5867  0.5952
 8574SOL    HW137181   2.690   4.714   8.609 -1.0029  0.1163 -0.4088
 8574SOL    HW237182   2.777   0.067   8.515 -3.1457 -0.3873 -2.4590
 8575SOL     OW37183   3.688   1.409   8.091 -0.2916 -0.0084  0.6860
 8575SOL    HW137184   3.706   1.446   8.178  0.0598 -0.2276  0.7068
 8575SOL    HW237185   3.748   1.335   8.085  1.2550  1.3011  0.0389
 8576SOL     OW37186   2.964   0.238   9.751 -0.1043 -0.3796  0.3487
 8576SOL    HW137187   2.912   0.204   9.824 -0.7853  1.4771  0.7254
 8576SOL    HW237188   3.045   0.188   9.762 -2.1299 -3.3439  1.6698
 8577SOL     OW37189   2.954   2.739  17.459  0.2426  0.0069 -0.0529
 8577SOL    HW137190   2.893   2.689  17.404  1.3792 -0.0375 -1.2698
 8577SOL    HW237191   2.975   2.802  17.389 -1.1059  1.1641  0.5771
 8578SOL     OW37192   3.775   1.645  12.251  0.3784  0.6450  0.7683
 8578SOL    HW137193   3.847   1.654  12.189  2.3595 -0.1039  2.9454
 8578SOL    HW237194   3.797   1.706  12.321 -1.2390  0.4814  1.4019
 8579SOL     OW37195   2.736   4.467  15.407 -0.0585  0.0886 -0.1708
 8579SOL    HW137196   2.695   4.465  15.321 -0.1753 -0.9222 -0.0939
 8579SOL    HW237197   2.726   4.372  15.416  0.1853  0.0472 -0.3301
 8580SOL     OW37198   3.356   1.965   3.813 -0.0384  0.0253 -0.3761
 8580SOL    HW137199   3.363   1.886   3.867 -1.2099 -0.1168 -0.4429
 8580SOL    HW237200   3.409   2.024   3.867  0.6548 -2.5271  1.7431
 8581SOL     OW37201   1.099   1.257   4.701  0.2894 -0.7800  0.0951
 8581SOL    HW137202   1.195   1.262   4.698  0.1202  2.2820 -0.1506
 8581SOL    HW237203   1.085   1.199   4.776  0.4528  0.3248  0.9730
 8582SOL     OW37204   2.641   1.063  15.401  0.0549  0.1609 -0.4161
 8582SOL    HW137205   2.574   1.119  15.362  0.2958  0.8304  0.1501
 8582SOL    HW237206   2.585   1.005  15.453  3.6081 -1.6809  1.3792
 8583SOL     OW37207   0.162   2.814  13.393  0.1438  0.0517 -0.5250
 8583SOL    HW137208   0.214   2.883  13.435 -0.0202  0.1645 -0.5104
 8583SOL    HW237209   0.092   2.873  13.366  1.5779  2.7041  1.6202
 8584SOL     OW37210   2.844   3.871  15.495 -0.0393 -0.1011  0.2539
 8584SOL    HW137211   2.856   3.844  15.404 -1.5116  1.6045 -0.4675
 8584SOL    HW237212   2.875   3.958  15.468  0.3949 -1.1019 -2.4815
 8585SOL     OW37213   0.974   4.643   7.623  0.6917 -0.1782 -0.1477
 8585SOL    HW137214   0.935   4.614   7.540 -0.4716  1.9093 -0.3169
 8585SOL    HW237215   0.903   4.640   7.687  0.2095  1.1672 -0.6157
 8586SOL     OW37216   3.192   1.143   6.272 -0.4526 -0.2947 -0.3900
 8586SOL    HW137217   3.270   1.125   6.219  0.4751 -0.6891  1.1107
 8586SOL    HW237218   3.193   1.238   6.277 -0.9565 -0.3782  1.3843
 8587SOL     OW37219   1.913   2.300   6.831 -0.8645 -0.3759 -0.5847
 8587SOL    HW137220   1.857   2.264   6.901 -0.1963  1.4375  0.8664
 8587SOL    HW237221   1.993   2.315   6.880 -1.1999 -1.8804  0.4537
 8588SOL     OW37222   2.467   4.296   9.036 -0.1668 -0.3424 -0.1095
 8588SOL    HW137223   2.534   4.363   9.049  1.6388 -2.0647 -0.5574
 8588SOL    HW237224   2.450   4.285   9.130 -0.9821  5.0119  0.3373
 8589SOL     OW37225   2.904   0.343   5.299  0.1847  0.2088  0.5784
 8589SOL    HW137226   2.970   0.275   5.308 -0.8097 -0.8527 -0.1916
 8589SOL    HW237227   2.916   0.365   5.207  2.1592  0.3708  0.8602
 8590SOL     OW37228   3.596   0.819  13.115  0.0388  0.4340 -0.2354
 8590SOL    HW137229   3.622   0.733  13.147 -1.9800 -0.7163 -1.7257
 8590SOL    HW237230   3.501   0.810  13.125 -0.1094  0.7521 -1.4294
 8591SOL     OW37231   2.661   3.864   2.081  0.6572  0.1075  0.2264
 8591SOL    HW137232   2.670   3.846   2.174  1.1457  0.9414  0.3435
 8591SOL    HW237233   2.723   3.803   2.042  1.1046  0.5522  0.2337
 8592SOL     OW37234   2.032   4.356   7.228 -0.1269  0.0033  0.1210
 8592SOL    HW137235   2.060   4.265   7.234  0.1596  0.1221  0.6253
 8592SOL    HW237236   2.067   4.381   7.143  1.6557  0.7060  1.0519
 8593SOL     OW37237   3.901   1.433   2.710 -0.7770 -0.4440 -0.7260
 8593SOL    HW137238   3.907   1.515   2.660 -1.4781  0.0375 -0.0334
 8593SOL    HW237239   3.878   1.460   2.799  0.9617  0.3352 -0.5220
 8594SOL     OW37240   3.591   2.398   2.406 -0.2881  0.2821 -0.7463
 8594SOL    HW137241   3.582   2.446   2.324  0.8531 -2.3946 -2.4248
 8594SOL    HW237242   3.644   2.455   2.461 -0.4531 -0.1898 -0.0977
 8595SOL     OW37243   2.408   2.301   4.478  0.1927 -0.3889  0.1840
 8595SOL    HW137244   2.416   2.371   4.544  0.7232 -0.1475 -0.1377
 8595SOL    HW237245   2.417   2.216   4.521 -0.4807  0.4172  1.9520
 8596SOL     OW37246   3.197   2.574  10.939  0.0879  0.5194 -0.2173
 8596SOL    HW137247   3.141   2.520  10.883  1.1855 -0.8378 -0.0033
 8596SOL    HW237248   3.176   2.545  11.028 -1.0876  0.7765 -0.4036
 8597SOL     OW37249   3.088   1.086  15.406 -0.0056 -0.3705  0.2438
 8597SOL    HW137250   3.125   1.000  15.389  1.8145  0.2446  1.0599
 8597SOL    HW237251   3.084   1.077  15.501  3.4933  0.9189  0.5028
 8598SOL     OW37252   3.272   4.674   5.952 -0.5056 -0.3108 -0.2886
 8598SOL    HW137253   3.207   4.632   5.895  1.1738 -1.1084 -1.6294
 8598SOL    HW237254   3.349   4.619   5.936 -0.9778 -1.2019  0.4804
 8599SOL     OW37255   1.246   3.328  17.302  0.4353  0.1098 -0.1793
 8599SOL    HW137256   1.332   3.292  17.326 -1.1919 -1.9482  2.4698
 8599SOL    HW237257   1.190   3.251  17.295 -0.8368  0.9972  0.4074
 8600SOL     OW37258   3.251   3.333   3.936 -0.2771 -0.3101  0.1203
 8600SOL    HW137259   3.246   3.407   3.875 -1.3620 -0.5019 -0.0158
 8600SOL    HW237260   3.218   3.259   3.885  0.6629 -1.3049  0.9535
 8601SOL     OW37261   4.419   2.707   5.025 -0.0078  0.1906  0.5411
 8601SOL    HW137262   4.346   2.649   5.003 -1.3821  2.2113 -0.1905
 8601SOL    HW237263   4.486   2.683   4.961  1.8266 -3.3717  3.7413
 8602SOL     OW37264   2.578   1.715   8.865  0.1572  0.2500  0.2729
 8602SOL    HW137265   2.625   1.735   8.946  0.2847  0.6025  0.1126
 8602SOL    HW237266   2.593   1.793   8.811  0.1126  0.7497  0.9758
 8603SOL     OW37267   1.067   4.551   9.298 -0.3451 -0.4182  0.0249
 8603SOL    HW137268   1.038   4.517   9.214 -0.8565 -2.4324  1.0276
 8603SOL    HW237269   1.035   4.483   9.358 -2.3004  1.3017  0.9361
 8604SOL     OW37270   1.163   0.568   2.883  0.3075  0.3479 -0.2740
 8604SOL    HW137271   1.079   0.524   2.869  1.2970 -1.5919 -0.0967
 8604SOL    HW237272   1.213   0.488   2.899 -1.0713 -0.7797 -1.5237
 8605SOL     OW37273   3.141   3.894   0.394  0.5801 -0.3224  0.5238
 8605SOL    HW137274   3.103   3.840   0.463 -0.8986 -2.1861 -1.7578
 8605SOL    HW237275   3.123   3.972   0.445 -2.2140 -0.1149 -0.7945
 8606SOL     OW37276   1.877   2.105   1.767 -0.3154  0.6717 -0.3463
 8606SOL    HW137277   1.958   2.056   1.755 -0.1941  0.7605  0.1068
 8606SOL    HW237278   1.897   2.181   1.714  3.6913 -0.9800 -1.2273
 8607SOL     OW37279   4.574   1.429  11.749 -0.2158 -0.1274 -0.4199
 8607SOL    HW137280   4.559   1.427  11.844 -0.7845 -0.5581 -0.5211
 8607SOL    HW237281   4.550   1.338  11.731 -1.5578 -0.5444  3.3142
 8608SOL     OW37282   2.400   0.922   4.003  0.2172 -0.0986  0.2300
 8608SOL    HW137283   2.483   0.874   4.007  0.2615  0.1502  2.2047
 8608SOL    HW237284   2.348   0.860   3.952  1.1601 -0.4491 -0.3186
 8609SOL     OW37285   1.515   3.097   5.140 -0.2853  0.7394  0.4025
 8609SOL    HW137286   1.437   3.045   5.160 -0.6662  0.7978 -0.9089
 8609SOL    HW237287   1.560   3.033   5.085 -1.1825  0.9062 -0.5334
 8610SOL     OW37288   3.939   4.245  15.124 -0.0739  0.2958  0.1404
 8610SOL    HW137289   3.872   4.302  15.086 -1.3712 -1.2219  0.1796
 8610SOL    HW237290   3.975   4.311  15.184  1.5397  0.0043 -0.5131
 8611SOL     OW37291   2.743   0.652   1.967 -0.5717  0.0761 -0.0910
 8611SOL    HW137292   2.670   0.691   1.921 -0.6969  0.1873  0.2017
 8611SOL    HW237293   2.802   0.727   1.966  0.2649 -0.5234  2.9025
 8612SOL     OW37294   1.543   1.970   2.623  0.2289  0.4046 -0.8124
 8612SOL    HW137295   1.550   2.052   2.671  2.1619  0.9165 -1.9646
 8612SOL    HW237296   1.605   2.000   2.556  1.8643  0.4023  0.7174
 8613SOL     OW37297   0.149   4.492   0.049  0.2109 -0.1026 -0.0099
 8613SOL    HW137298   0.119   4.446   0.128  0.6513  0.5550  0.5506
 8613SOL    HW237299   0.244   4.489   0.066  0.5621  1.5390 -1.7243
 8614SOL     OW37300   4.688   3.531   8.711 -0.1199 -0.7447  0.2044
 8614SOL    HW137301   4.654   3.534   8.801  1.1426 -1.5747  0.7093
 8614SOL    HW237302   4.610   3.559   8.663 -0.0798 -1.2224 -0.1336
 8615SOL     OW37303   1.960   3.783   8.417  0.2927 -0.1477  0.1973
 8615SOL    HW137304   1.898   3.804   8.487  0.0782  0.6493 -0.2258
 8615SOL    HW237305   2.024   3.735   8.469 -1.3472 -1.5660  0.9137
 8616SOL     OW37306   2.230   3.986   2.425 -0.1816 -0.7309  0.2809
 8616SOL    HW137307   2.265   3.905   2.463  1.9502  0.2409  0.4235
 8616SOL    HW237308   2.270   3.990   2.337  1.6475  1.6260  1.2177
 8617SOL     OW37309   1.851   1.469   4.218  0.4762 -0.3582  0.0290
 8617SOL    HW137310   1.921   1.417   4.258  0.1105 -0.8176  0.0623
 8617SOL    HW237311   1.884   1.465   4.128 -0.1683  0.9976 -0.2723
 8618SOL     OW37312   1.656   2.769   2.094 -0.1670  0.2854 -0.5681
 8618SOL    HW137313   1.742   2.755   2.133 -0.6680 -1.0587  0.0237
 8618SOL    HW237314   1.658   2.836   2.025 -2.5643  0.8174 -0.1341
 8619SOL     OW37315   3.143   4.019   8.068  0.7148  0.5642 -0.5454
 8619SOL    HW137316   3.163   3.935   8.109  0.7282  0.2105 -1.2789
 8619SOL    HW237317   3.048   4.022   8.070  0.7103 -1.5625  2.0053
 8620SOL     OW37318   2.980   0.295   3.285  0.3744  0.4787 -0.3008
 8620SOL    HW137319   2.903   0.297   3.227  1.6020  0.1203 -1.9334
 8620SOL    HW237320   3.027   0.225   3.240  0.3018  0.1461  0.1383
 8621SOL     OW37321   2.158   2.946   1.101  0.2230 -0.5013 -0.4685
 8621SOL    HW137322   2.085   2.915   1.154  1.7809 -0.3515  1.7702
 8621SOL    HW237323   2.123   3.029   1.069 -0.6900 -0.6580  0.1105
 8622SOL     OW37324   0.199   1.172   6.859  0.0529 -0.1617 -0.1932
 8622SOL    HW137325   0.220   1.212   6.944 -1.9573 -1.5550  0.9345
 8622SOL    HW237326   0.228   1.083   6.878  2.3741  0.2328 -1.8204
 8623SOL     OW37327   4.284   1.401   7.948  0.4699  0.6969  0.7213
 8623SOL    HW137328   4.204   1.352   7.966 -0.2878  0.9857 -1.8868
 8623SOL    HW237329   4.348   1.330   7.957 -1.3833 -1.1578 -0.8490
 8624SOL     OW37330   3.245   2.630   9.201 -0.1811 -0.1886 -0.4605
 8624SOL    HW137331   3.326   2.625   9.252 -1.2030  3.0744  1.5188
 8624SOL    HW237332   3.226   2.724   9.208 -1.9280 -0.5830  0.2636
 8625SOL     OW37333   3.089   3.149   4.733  0.3618 -0.3923  0.7274
 8625SOL    HW137334   3.126   3.160   4.646  0.7814 -3.0482  0.5715
 8625SOL    HW237335   2.997   3.129   4.714 -0.1047  1.3086  1.1339
 8626SOL     OW37336   2.982   2.389   1.876  0.4280 -0.5225  0.0571
 8626SOL    HW137337   2.911   2.344   1.831 -0.5458  1.6068 -0.5770
 8626SOL    HW237338   3.042   2.404   1.803  1.0406 -1.1727  0.4318
 8627SOL     OW37339   2.168   4.309  13.419 -0.0619  0.0216 -0.5664
 8627SOL    HW137340   2.188   4.398  13.449  1.6308 -0.8535  0.8895
 8627SOL    HW237341   2.141   4.270  13.503  2.0402 -1.4594 -0.5624
 8628SOL     OW37342   3.704   4.313  11.859 -0.7425  0.5346  0.5258
 8628SOL    HW137343   3.627   4.282  11.906  0.1155 -0.9217  0.9596
 8628SOL    HW237344   3.759   4.236  11.846 -1.5425  0.2267 -1.0484
 8629SOL     OW37345   3.139   2.165   0.727  0.0153  0.0249 -0.9239
 8629SOL    HW137346   3.142   2.257   0.699 -0.8474 -0.3435 -2.1866
 8629SOL    HW237347   3.089   2.122   0.658  2.4001  0.7978 -3.1478
 8630SOL     OW37348   0.591   4.456   5.976 -0.1560 -0.0289  0.0214
 8630SOL    HW137349   0.609   4.370   5.938 -0.1702  1.2183 -2.8417
 8630SOL    HW237350   0.498   4.456   5.998  0.6489  0.9216  3.4535
 8631SOL     OW37351   0.928   2.573  15.318  0.0740 -0.1998  0.7982
 8631SOL    HW137352   1.022   2.561  15.333  0.2186  2.6660  2.1544
 8631SOL    HW237353   0.923   2.665  15.293  2.8269  0.1149  1.3749
 8632SOL     OW37354   2.879   3.664   7.066  0.1250  0.3409  0.8984
 8632SOL    HW137355   2.859   3.706   6.983 -1.0012 -0.4278  0.7842
 8632SOL    HW237356   2.917   3.586   7.025  1.3156  1.7979 -0.7904
 8633SOL     OW37357   4.182   4.135  14.714  0.2057  0.1195 -0.2504
 8633SOL    HW137358   4.222   4.048  14.715 -0.4059 -0.1721 -1.5475
 8633SOL    HW237359   4.174   4.149  14.620  1.6142 -1.3666 -0.5864
 8634SOL     OW37360   4.574   2.506  10.710  0.2817 -0.0773  0.3029
 8634SOL    HW137361   4.666   2.479  10.707  0.5846  0.8439  1.3654
 8634SOL    HW237362   4.546   2.476  10.624  0.2082 -0.1513  0.3529
 8635SOL     OW37363   0.743   0.327  12.520  0.5186 -0.6034  0.0807
 8635SOL    HW137364   0.696   0.384  12.581  0.3614 -0.5864 -0.0574
 8635SOL    HW237365   0.788   0.385  12.460  0.5968  0.3108  1.0175
 8636SOL     OW37366   1.019   1.086  10.716  0.1931 -0.3116 -0.5766
 8636SOL    HW137367   0.960   1.151  10.678  0.2659 -0.6243 -1.2214
 8636SOL    HW237368   1.044   1.027  10.645 -1.7569 -0.6950 -0.9390
 8637SOL     OW37369   2.689   4.591   5.646  0.0211  0.3728 -0.3588
 8637SOL    HW137370   2.785   4.582   5.645 -0.1651 -1.7838  1.2363
 8637SOL    HW237371   2.660   4.539   5.571 -0.0979 -1.6415  1.1056
 8638SOL     OW37372   4.422   3.507   1.073 -0.3890 -0.4988  0.8116
 8638SOL    HW137373   4.386   3.420   1.089  1.6696 -1.3809  0.6455
 8638SOL    HW237374   4.440   3.507   0.979 -1.6462 -1.7591  0.5682
 8639SOL     OW37375   0.679   0.142   1.948  0.2111  0.4913  1.3992
 8639SOL    HW137376   0.642   0.071   1.895 -0.1215 -0.7174  3.2771
 8639SOL    HW237377   0.762   0.152   1.900  0.8716  1.1893  2.6756
 8640SOL     OW37378   0.938   3.614   4.128  0.4586  0.1540 -0.4765
 8640SOL    HW137379   0.860   3.655   4.089  0.7844  1.3911  0.1696
 8640SOL    HW237380   0.909   3.523   4.128 -1.7941  0.8687  0.7307
 8641SOL     OW37381   1.324   2.756   5.563  0.2341 -0.0109 -0.4565
 8641SOL    HW137382   1.340   2.749   5.657  0.1682 -1.0067 -0.5247
 8641SOL    HW237383   1.271   2.836   5.554 -1.7468 -1.1447  1.3004
 8642SOL     OW37384   0.800   1.565   6.034  0.2695 -0.6557  0.0547
 8642SOL    HW137385   0.718   1.589   5.992 -0.6965  0.4687  2.5465
 8642SOL    HW237386   0.780   1.474   6.058  1.2863 -0.7868  0.4262
 8643SOL     OW37387   1.623   4.412   1.833  0.2928 -0.2862 -0.0249
 8643SOL    HW137388   1.682   4.479   1.868  0.5196  0.1767 -1.3227
 8643SOL    HW237389   1.549   4.411   1.893  0.2298 -0.9224 -0.1070
 8644SOL     OW37390   4.089   3.470   8.194 -0.2000  0.3488 -0.3814
 8644SOL    HW137391   4.114   3.413   8.266 -0.2284  0.5926 -0.1797
 8644SOL    HW237392   4.148   3.545   8.202 -2.2976  2.0015 -0.4286
 8645SOL     OW37393   1.880   0.889  10.905 -0.2502 -0.4583  0.0650
 8645SOL    HW137394   1.924   0.859  10.985  0.5717 -0.9904 -0.6014
 8645SOL    HW237395   1.945   0.872  10.838  1.7381  2.3250  1.2779
 8646SOL     OW37396   3.662   3.083   2.968  0.0547 -0.5837  0.1939
 8646SOL    HW137397   3.750   3.119   2.977 -0.8981  2.2307 -1.8949
 8646SOL    HW237398   3.682   2.989   2.964 -0.8590 -0.8724  2.3560
 8647SOL     OW37399   4.607   2.394   7.459 -0.0416  0.1987 -0.1611
 8647SOL    HW137400   4.631   2.304   7.477  0.2452  0.3822  0.3754
 8647SOL    HW237401   4.624   2.388   7.365  1.2420 -1.6387  0.1985
 8648SOL     OW37402   3.097   1.509   7.451 -0.1623 -0.1592 -0.0958
 8648SOL    HW137403   3.034   1.525   7.381 -0.6119  1.4116  0.6554
 8648SOL    HW237404   3.164   1.575   7.433  0.5428 -0.5085  1.2674
 8649SOL     OW37405   3.294   4.255  12.818 -0.4089  0.4789  0.4182
 8649SOL    HW137406   3.363   4.258  12.753 -0.1672  0.5401  0.6787
 8649SOL    HW237407   3.313   4.325  12.882  1.4610 -0.1031  0.4905
 8650SOL     OW37408   1.228   2.430  10.749  0.2109 -0.0341  0.2267
 8650SOL    HW137409   1.320   2.458  10.756  0.0022  0.4565  0.9743
 8650SOL    HW237410   1.249   2.337  10.741 -0.3024 -0.1636  0.4099
 8651SOL     OW37411   3.973   3.043   7.143 -0.2420  0.1805  0.2188
 8651SOL    HW137412   3.986   3.023   7.051  0.0228  0.6288  0.1589
 8651SOL    HW237413   3.994   2.956   7.179  2.0751  0.0344 -1.4962
 8652SOL     OW37414   3.240   2.487  11.248  0.3094 -0.2565 -0.1528
 8652SOL    HW137415   3.333   2.476  11.230  0.5125  0.9452  0.2238
 8652SOL    HW237416   3.246   2.516  11.339  0.0947  0.4854 -0.3768
 8653SOL     OW37417   2.702   0.797  15.529 -0.3972  0.5471 -0.4625
 8653SOL    HW137418   2.653   0.805  15.610 -0.4422  1.0355 -0.5377
 8653SOL    HW237419   2.771   0.733  15.549 -2.2248 -1.8151 -1.6310
 8654SOL     OW37420   0.125   3.995   4.415 -0.3789  0.0817 -0.3281
 8654SOL    HW137421   0.154   3.934   4.482 -1.2312 -1.1674 -1.0985
 8654SOL    HW237422   0.086   4.062   4.471  0.0812  0.0472  0.0352
 8655SOL     OW37423   0.753   0.734   2.358  0.0897  0.5198  0.3651
 8655SOL    HW137424   0.730   0.714   2.267  2.6218 -0.7201 -0.0046
 8655SOL    HW237425   0.680   0.685   2.394 -0.2465 -0.3590 -1.4994
 8656SOL     OW37426   2.273   0.271   5.693 -0.0489 -0.4516  0.4521
 8656SOL    HW137427   2.206   0.242   5.755 -1.4522  0.6896 -0.5465
 8656SOL    HW237428   2.296   0.358   5.726 -1.3104  0.5010 -1.1983
 8657SOL     OW37429   3.356   1.334   6.579 -0.0911 -0.1621 -0.0410
 8657SOL    HW137430   3.374   1.242   6.600  0.6807 -0.4837 -2.1254
 8657SOL    HW237431   3.362   1.375   6.665 -0.9157 -2.8117  1.2809
 8658SOL     OW37432   3.326   1.525   1.963  0.0228  0.1993  0.1052
 8658SOL    HW137433   3.370   1.443   1.943  0.0809  0.1771  0.3176
 8658SOL    HW237434   3.343   1.570   1.880  2.8456 -1.9872 -0.5014
 8659SOL     OW37435   1.939   1.235   6.284 -0.7186 -0.2206 -0.0771
 8659SOL    HW137436   2.019   1.238   6.232 -1.1700  2.1657 -0.6814
 8659SOL    HW237437   1.975   1.273   6.364  1.7080  1.4341 -1.9554
 8660SOL     OW37438   0.747   1.413   1.846  0.6312 -0.2939 -0.3467
 8660SOL    HW137439   0.819   1.474   1.832  1.6028 -1.4088 -0.2182
 8660SOL    HW237440   0.787   1.327   1.864 -2.0388 -1.6729 -0.9802
 8661SOL     OW37441   4.318   3.173   7.967 -0.4591 -0.3854 -0.0129
 8661SOL    HW137442   4.273   3.258   7.968  0.5818  0.1640 -0.6644
 8661SOL    HW237443   4.353   3.172   7.878 -0.1445 -1.2765  0.1316
 8662SOL     OW37444   2.588   1.073   2.840  0.2567 -0.4734 -0.3194
 8662SOL    HW137445   2.580   1.039   2.929  1.0295 -1.1601 -0.5112
 8662SOL    HW237446   2.662   1.023   2.805 -1.5450 -2.4051 -1.4108
 8663SOL     OW37447   1.697   3.554   4.963 -0.0464 -0.6729 -0.2791
 8663SOL    HW137448   1.692   3.558   5.059  0.3554 -0.7425 -0.2527
 8663SOL    HW237449   1.648   3.634   4.945 -1.3919 -1.1749  1.2257
 8664SOL     OW37450   3.099   4.292   3.567 -0.3898  0.1540 -0.1196
 8664SOL    HW137451   3.062   4.375   3.598 -0.5917  0.1792 -0.4338
 8664SOL    HW237452   3.166   4.290   3.635  2.2583  1.0581 -2.7256
 8665SOL     OW37453   1.200   0.128   6.973 -0.1531  0.3459 -0.2361
 8665SOL    HW137454   1.252   0.081   6.908  0.5106 -1.1856  1.4082
 8665SOL    HW237455   1.249   0.210   6.971  1.0573 -0.3649  0.4205
 8666SOL     OW37456   0.006   1.532   3.460 -0.3199 -0.1759  0.3110
 8666SOL    HW137457   4.651   1.584   3.490  1.8680  2.3712  1.3765
 8666SOL    HW237458   0.009   1.447   3.503 -0.1439 -0.1355  0.3805
 8667SOL     OW37459   3.840   1.051   7.779 -1.0392 -0.1523 -0.0163
 8667SOL    HW137460   3.763   1.107   7.766 -0.5741  0.5225  0.1486
 8667SOL    HW237461   3.917   1.106   7.763 -0.3641 -1.5801 -1.6634
 8668SOL     OW37462   0.599   1.512  14.388 -0.8383  0.2066  0.9837
 8668SOL    HW137463   0.671   1.497  14.326 -3.4991  1.3986 -2.4447
 8668SOL    HW237464   0.638   1.462  14.459  0.0996  1.5844  1.4273
 8669SOL     OW37465   1.407   2.734  16.779 -0.6844  0.0881  0.5540
 8669SOL    HW137466   1.469   2.797  16.742  1.3177 -1.5416  1.1294
 8669SOL    HW237467   1.436   2.658  16.728  1.4488  0.3210  1.3964
 8670SOL     OW37468   0.251   4.569   3.914 -0.1939 -0.6086 -0.1714
 8670SOL    HW137469   0.322   4.539   3.971 -0.2274 -3.2612 -1.5125
 8670SOL    HW237470   0.291   4.601   3.833 -0.9504  1.4284  0.2598
 8671SOL     OW37471   4.401   4.506  10.122  0.1887 -0.2821 -0.2690
 8671SOL    HW137472   4.431   4.424  10.080 -2.6107 -1.2876 -0.2967
 8671SOL    HW237473   4.410   4.557  10.041  3.6376 -0.2106  0.1477
 8672SOL     OW37474   2.649   3.641  16.081 -0.0033  0.0819 -0.1127
 8672SOL    HW137475   2.647   3.571  16.016 -0.4075 -0.1748  0.1760
 8672SOL    HW237476   2.584   3.701  16.044  2.0187  1.8024 -0.9063
 8673SOL     OW37477   2.694   2.143   7.359  0.0818  0.6858 -0.2627
 8673SOL    HW137478   2.689   2.146   7.455  1.7235 -0.8092 -0.1278
 8673SOL    HW237479   2.755   2.071   7.344 -2.1636 -1.3072  0.1685
 8674SOL     OW37480   1.769   2.906   2.974  0.0180 -0.1714 -0.8820
 8674SOL    HW137481   1.822   2.956   3.035  1.3617  0.3393 -2.4623
 8674SOL    HW237482   1.751   2.819   3.012 -0.8282 -1.1900 -3.5907
 8675SOL     OW37483   1.271   0.575   5.708 -0.6403 -0.6172 -0.1737
 8675SOL    HW137484   1.321   0.610   5.782  1.0360 -1.3282 -0.9721
 8675SOL    HW237485   1.198   0.529   5.749 -0.2216 -0.6575  0.5177
 8676SOL     OW37486   3.672   0.546  10.674 -0.1480  0.0300  0.2457
 8676SOL    HW137487   3.690   0.465  10.625 -2.4211  0.6180 -1.5593
 8676SOL    HW237488   3.590   0.510  10.708 -0.3213 -2.0872 -2.3759
 8677SOL     OW37489   4.506   1.357   4.992 -0.1169  0.2265  0.3077
 8677SOL    HW137490   4.433   1.368   5.053 -0.3941 -0.9626  0.1916
 8677SOL    HW237491   4.500   1.268   4.958  2.2549  0.0866  0.2773
 8678SOL     OW37492   4.401   1.674   6.593  0.4378 -0.4961  0.2021
 8678SOL    HW137493   4.404   1.640   6.682 -3.2063 -0.5673  0.3069
 8678SOL    HW237494   4.441   1.761   6.586  0.6136 -0.3742  2.7661
 8679SOL     OW37495   4.469   1.740   2.946 -0.0050  0.1801 -0.2926
 8679SOL    HW137496   4.421   1.811   2.903 -1.3110  0.0200  0.8954
 8679SOL    HW237497   4.499   1.695   2.867 -1.3926  0.5800 -1.0526
 8680SOL     OW37498   0.501   1.311  10.817  0.0546 -0.1568  0.1797
 8680SOL    HW137499   0.526   1.316  10.909  2.6897 -0.7238 -0.5010
 8680SOL    HW237500   0.552   1.239  10.780 -0.2095  0.2961 -1.0625
 8681SOL     OW37501   3.696   1.065   4.653 -0.4776 -0.1318 -0.9986
 8681SOL    HW137502   3.696   1.000   4.583  0.2942 -1.2712  0.0613
 8681SOL    HW237503   3.712   1.015   4.733 -0.3283  3.7659  1.4033
 8682SOL     OW37504   0.467   4.326   2.593  0.4246 -0.2774  0.0024
 8682SOL    HW137505   0.556   4.290   2.592  0.3024 -0.5926  1.7524
 8682SOL    HW237506   0.406   4.262   2.556  0.3301  0.1436 -0.5812
 8683SOL     OW37507   3.113   3.976   4.558 -0.1434  0.2333 -0.5441
 8683SOL    HW137508   3.056   3.915   4.512 -0.3427  1.5245 -1.9716
 8683SOL    HW237509   3.156   4.020   4.485  0.1845 -0.5958 -0.8431
 8684SOL     OW37510   1.755   4.384   3.757  0.5840 -0.3909 -0.0203
 8684SOL    HW137511   1.824   4.445   3.782  1.1903 -0.1287 -2.3024
 8684SOL    HW237512   1.802   4.308   3.723  1.8126  0.0055  0.8226
 8685SOL     OW37513   4.004   0.517   8.861 -0.4376  0.6826 -0.0394
 8685SOL    HW137514   4.010   0.426   8.889  0.5780  1.1345  1.2013
 8685SOL    HW237515   3.926   0.515   8.805 -1.2160 -0.2004  1.0789
 8686SOL     OW37516   4.342   3.143   5.164  0.7875 -0.5651  0.6799
 8686SOL    HW137517   4.280   3.082   5.124  0.0913  0.4735  0.1665
 8686SOL    HW237518   4.280   3.190   5.220  0.5793 -0.1605  0.1170
 8687SOL     OW37519   0.150   3.126   3.392 -0.5085 -0.2069 -0.0243
 8687SOL    HW137520   0.128   3.213   3.425 -1.7309 -0.6314  0.2689
 8687SOL    HW237521   0.065   3.087   3.413 -0.5696  0.2969  0.6814
 8688SOL     OW37522   0.290   2.617   8.207 -0.1192 -0.3600 -0.4948
 8688SOL    HW137523   0.252   2.695   8.166  2.6751  0.1514 -2.0964
 8688SOL    HW237524   0.368   2.612   8.152  0.5690 -0.3934  0.4861
 8689SOL     OW37525   0.230   4.496   3.152  0.3869  0.0384 -0.2896
 8689SOL    HW137526   0.168   4.506   3.224 -0.0841  2.7419 -1.0684
 8689SOL    HW237527   0.201   4.554   3.082  0.1868  1.3730  0.8983
 8690SOL     OW37528   2.610   2.810   8.644 -0.2719  0.2146 -0.1401
 8690SOL    HW137529   2.625   2.905   8.639 -0.0505  0.2380  1.1294
 8690SOL    HW237530   2.601   2.793   8.738  0.7567 -3.4257 -0.7085
 8691SOL     OW37531   2.344   1.841   3.523  0.2861 -0.1215 -0.4729
 8691SOL    HW137532   2.263   1.833   3.473 -1.1842 -1.6199  2.1615
 8691SOL    HW237533   2.308   1.876   3.605 -0.8490  1.5970 -1.7098
 8692SOL     OW37534   3.296   2.619   4.349 -0.3183 -0.1149  0.1207
 8692SOL    HW137535   3.234   2.575   4.292  0.0024  2.2208 -2.0175
 8692SOL    HW237536   3.243   2.686   4.392 -0.7295 -0.9223  0.8734
 8693SOL     OW37537   0.467   3.508   3.122  0.2292 -0.1861  0.1781
 8693SOL    HW137538   0.497   3.424   3.157 -1.2220 -0.1527  1.4918
 8693SOL    HW237539   0.550   3.538   3.086  0.1953 -0.5704 -0.2295
 8694SOL     OW37540   0.256   4.529   6.538 -0.0276 -0.2135  0.0765
 8694SOL    HW137541   0.206   4.610   6.543  0.7555  0.2023  1.0930
 8694SOL    HW237542   0.180   4.470   6.538 -0.8463  0.8447 -0.1175
 8695SOL     OW37543   1.573   3.152   4.747 -0.3588  0.1657  0.1659
 8695SOL    HW137544   1.542   3.159   4.656 -0.1667 -3.4318 -0.2071
 8695SOL    HW237545   1.667   3.149   4.729 -0.5196 -0.0772 -0.6346
 8696SOL     OW37546   2.883   1.870  11.803 -0.9006  0.1760 -0.1597
 8696SOL    HW137547   2.966   1.917  11.807  0.8561 -2.9089  0.1293
 8696SOL    HW237548   2.849   1.892  11.716 -0.6531  1.6692  0.1358
 8697SOL     OW37549   3.098   3.160  10.784 -0.0949 -0.1984  0.2193
 8697SOL    HW137550   3.182   3.200  10.807 -0.2915  0.3953 -0.0994
 8697SOL    HW237551   3.130   3.108  10.710  0.9311  1.4726 -0.5111
 8698SOL     OW37552   4.221   0.761   3.800 -0.2265  0.2461 -0.0293
 8698SOL    HW137553   4.157   0.786   3.733 -0.3034  1.4916  0.5122
 8698SOL    HW237554   4.185   0.678   3.834 -0.8874  0.1466 -0.9797
 8699SOL     OW37555   2.746   2.303   6.814  0.1896  0.1372 -0.2479
 8699SOL    HW137556   2.821   2.363   6.815 -1.6740  2.5221 -1.4649
 8699SOL    HW237557   2.793   2.228   6.850 -0.5428 -0.2422 -0.0619
 8700SOL     OW37558   3.464   4.463   8.724  0.1530  0.2802  0.0128
 8700SOL    HW137559   3.437   4.540   8.773  0.7562 -0.5726  1.6711
 8700SOL    HW237560   3.523   4.508   8.663 -0.8006  1.0416 -0.3489
 8701SOL     OW37561   0.081   0.784   2.187  0.0401  1.0634  0.5556
 8701SOL    HW137562   0.142   0.809   2.118 -1.7355  2.2563 -0.5711
 8701SOL    HW237563   0.043   0.704   2.150  1.7764  0.2141  0.6126
 8702SOL     OW37564   2.202   1.316  14.797 -0.2555 -0.5572 -0.1427
 8702SOL    HW137565   2.292   1.284  14.792  0.4142  1.0592  1.6098
 8702SOL    HW237566   2.220   1.400  14.755 -0.7856  1.9454  4.6653
 8703SOL     OW37567   3.496   3.887   8.272 -0.0978  0.1523 -0.4951
 8703SOL    HW137568   3.489   3.921   8.183  0.3761  1.4308 -0.0504
 8703SOL    HW237569   3.578   3.838   8.277  0.6420  1.0797 -3.6704
 8704SOL     OW37570   3.417   3.430   7.864  0.6870  0.0428 -0.1449
 8704SOL    HW137571   3.441   3.422   7.772 -2.0982 -0.6113 -0.8310
 8704SOL    HW237572   3.506   3.443   7.897  0.7915  2.0728 -1.2666
 8705SOL     OW37573   4.616   0.236   2.897 -0.1897  0.4393 -0.3603
 8705SOL    HW137574   4.708   0.211   2.891  0.0048  0.9942  0.3258
 8705SOL    HW237575   4.640   0.304   2.960 -0.3860 -0.0542  0.2493
 8706SOL     OW37576   1.621   4.546   5.182  0.0658  0.3988 -0.2144
 8706SOL    HW137577   1.710   4.572   5.207 -0.7034  4.6950 -1.7787
 8706SOL    HW237578   1.602   4.599   5.104  2.8005  0.1290 -1.0764
 8707SOL     OW37579   4.337   1.481   7.544  0.1930  0.0482  0.8122
 8707SOL    HW137580   4.427   1.449   7.545 -0.0321 -0.5992  0.3646
 8707SOL    HW237581   4.276   1.409   7.523  1.6204 -0.5782 -1.2700
 8708SOL     OW37582   3.266   2.652   8.098  0.3581  0.5421  0.2939
 8708SOL    HW137583   3.214   2.673   8.176  0.4406 -1.7511  0.9494
 8708SOL    HW237584   3.262   2.557   8.103 -1.2602  0.5873  0.1322
 8709SOL     OW37585   2.435   0.957   3.589 -0.4404 -0.5032 -0.1294
 8709SOL    HW137586   2.351   0.947   3.634 -0.8301 -2.9713 -1.3970
 8709SOL    HW237587   2.425   1.051   3.575 -0.7935 -0.1584  2.5342
 8710SOL     OW37588   1.764   1.260   1.995  0.1423 -0.4776 -0.3457
 8710SOL    HW137589   1.822   1.321   2.041  1.9090 -0.8336 -2.0935
 8710SOL    HW237590   1.719   1.310   1.927 -1.3005 -1.3433 -0.0228
 8711SOL     OW37591   1.981   3.396   4.604  0.2907 -0.4587  0.3003
 8711SOL    HW137592   1.934   3.455   4.546 -1.7688 -1.7943  0.5833
 8711SOL    HW237593   2.035   3.344   4.544  0.4448  1.8182 -1.5211
 8712SOL     OW37594   3.053   3.975   8.740  0.4357 -0.1792 -0.4408
 8712SOL    HW137595   3.092   4.049   8.787  0.2536 -0.5195  0.2474
 8712SOL    HW237596   2.959   3.989   8.753  0.4579 -1.3276  1.0684
 8713SOL     OW37597   0.632   2.964  16.949 -0.0080  0.5010 -0.3061
 8713SOL    HW137598   0.570   2.902  16.910 -0.5456  0.8354  0.0062
 8713SOL    HW237599   0.625   3.038  16.889 -0.6648  0.3610 -0.3995
 8714SOL     OW37600   4.624   0.444   8.209  0.2059 -0.2128 -0.3281
 8714SOL    HW137601   4.675   0.368   8.237 -1.3020 -1.2735 -0.4756
 8714SOL    HW237602   4.642   0.435   8.115  0.1425  0.7293 -0.4318
 8715SOL     OW37603   2.792   0.002  11.359 -0.5087 -0.7446  0.4746
 8715SOL    HW137604   2.821   4.719  11.451  0.1139  1.4788  0.3385
 8715SOL    HW237605   2.815   0.094  11.348 -2.6444 -0.4262 -1.1223
 8716SOL     OW37606   4.512   0.115   7.238  0.2090 -0.1007  0.1989
 8716SOL    HW137607   4.526   0.059   7.162  3.7513 -1.3454  1.7480
 8716SOL    HW237608   4.471   0.047   7.292 -3.0798  1.5508 -0.1902
 8717SOL     OW37609   3.950   3.942   2.814  0.4367  0.1350 -0.1127
 8717SOL    HW137610   3.878   3.985   2.768  0.1416  0.4838  0.6808
 8717SOL    HW237611   3.899   3.895   2.880 -0.6388  0.0648 -0.9957
 8718SOL     OW37612   4.563   0.129   8.734 -0.2769  0.0420  0.1985
 8718SOL    HW137613   4.546   0.222   8.749 -2.3438  0.0447 -2.1529
 8718SOL    HW237614   4.653   0.120   8.767  0.6204  0.8506 -2.0157
 8719SOL     OW37615   2.167   4.306   6.816  0.9421  0.2293 -0.2957
 8719SOL    HW137616   2.119   4.380   6.780  0.4147 -0.5564 -1.2107
 8719SOL    HW237617   2.234   4.292   6.749 -1.0942 -1.7905 -1.9284
 8720SOL     OW37618   3.658   3.975   2.190  0.7181 -0.3559  0.2682
 8720SOL    HW137619   3.636   4.068   2.182  0.4153 -0.2305  2.5440
 8720SOL    HW237620   3.645   3.953   2.097  0.8392 -3.1812  0.9345
 8721SOL     OW37621   4.086   1.478  13.666  0.0889  0.5830  0.5925
 8721SOL    HW137622   4.074   1.440  13.579  0.8114  1.1533  0.2467
 8721SOL    HW237623   3.995   1.508  13.672 -1.0325 -2.6486  0.1367
 8722SOL     OW37624   1.717   3.794   3.984  0.3216  0.6247  0.3052
 8722SOL    HW137625   1.665   3.842   4.048 -0.0236 -1.9686  1.9579
 8722SOL    HW237626   1.795   3.798   4.040  0.1597 -0.1422  0.5837
 8723SOL     OW37627   1.460   4.496   2.438 -0.4422  0.4527  0.3874
 8723SOL    HW137628   1.500   4.507   2.524 -1.5091  3.0719  0.5794
 8723SOL    HW237629   1.411   4.578   2.428 -2.1563 -0.3510  2.2064
 8724SOL     OW37630   3.385   3.563  15.207  0.2632 -0.1764 -0.0576
 8724SOL    HW137631   3.370   3.657  15.219  0.5733 -0.0536 -0.6611
 8724SOL    HW237632   3.301   3.550  15.163 -0.4740 -0.8975  1.5609
 8725SOL     OW37633   3.949   1.684  11.114 -0.2062  0.2224  0.0126
 8725SOL    HW137634   3.896   1.630  11.173  1.3515 -1.6864 -0.3442
 8725SOL    HW237635   3.895   1.679  11.035 -0.0953 -2.9298  0.1252
 8726SOL     OW37636   4.076   3.040   3.963  0.5821  0.9714 -0.5014
 8726SOL    HW137637   4.162   3.059   3.999  0.3110 -0.6337  1.0069
 8726SOL    HW237638   4.027   3.087   4.032  1.5877  1.5551 -0.1905
 8727SOL     OW37639   4.210   2.765   1.305 -0.0529  0.1790  0.8112
 8727SOL    HW137640   4.182   2.728   1.389 -0.8523  1.2324  1.0084
 8727SOL    HW237641   4.250   2.689   1.262 -0.8840  0.2866 -0.1388
 8728SOL     OW37642   1.621   2.692   7.278 -0.3473 -0.1488  0.0354
 8728SOL    HW137643   1.552   2.626   7.268 -0.6133  0.4153 -1.8951
 8728SOL    HW237644   1.696   2.657   7.229  0.8979  2.7205 -0.0821
 8729SOL     OW37645   0.626   4.430   2.336  0.3388 -0.4368 -0.1219
 8729SOL    HW137646   0.651   4.469   2.252 -0.3781  0.1161 -0.0823
 8729SOL    HW237647   0.532   4.419   2.322  0.6427 -1.7484 -1.1310
 8730SOL     OW37648   4.287   0.497   8.753 -0.5130  0.0426  0.2204
 8730SOL    HW137649   4.265   0.572   8.699 -2.8846 -0.3736  0.6165
 8730SOL    HW237650   4.249   0.527   8.836 -0.7473  0.7142 -0.1325
 8731SOL     OW37651   1.257   0.458  16.422 -0.6788  0.5738 -0.0386
 8731SOL    HW137652   1.273   0.511  16.345 -0.0166  0.9835  0.3780
 8731SOL    HW237653   1.259   0.531  16.484 -1.7017  0.2559  0.3779
 8732SOL     OW37654   2.188   3.987  11.621  0.1561 -0.1119 -0.0194
 8732SOL    HW137655   2.200   3.942  11.705  1.2204  1.2501  0.5821
 8732SOL    HW237656   2.273   4.032  11.620 -0.0858  0.3176 -1.2157
 8733SOL     OW37657   2.628   4.467   2.034  0.1697 -0.0861  0.5984
 8733SOL    HW137658   2.614   4.373   2.021 -2.0461  0.3460 -0.2590
 8733SOL    HW237659   2.630   4.498   1.943  2.5209 -0.2629  0.6132
 8734SOL     OW37660   3.320   0.913   2.490 -0.4944  0.0685 -0.4750
 8734SOL    HW137661   3.369   0.905   2.408  2.2237 -0.4775  1.2149
 8734SOL    HW237662   3.266   0.988   2.466  0.3611  0.3517 -1.5428
 8735SOL     OW37663   0.922   4.617  12.507 -0.6844 -0.1600 -0.0470
 8735SOL    HW137664   0.907   4.531  12.468  0.8956  0.4478 -1.9983
 8735SOL    HW237665   0.844   4.668  12.486 -0.7367  0.2387  1.1578
 8736SOL     OW37666   2.949   3.726   3.496  0.5419  0.4642  0.1880
 8736SOL    HW137667   2.979   3.675   3.420  0.2485  0.7689 -0.1321
 8736SOL    HW237668   2.857   3.733   3.471  0.9724  0.1190 -1.4647
 8737SOL     OW37669   4.527   1.176   8.337  0.5161 -0.5218  0.1898
 8737SOL    HW137670   4.512   1.215   8.423 -0.3014  0.4393 -0.3983
 8737SOL    HW237671   4.542   1.257   8.289 -0.5797 -0.3330  0.1746
 8738SOL     OW37672   0.199   1.566   8.481  0.5635 -0.1865  0.3132
 8738SOL    HW137673   0.107   1.560   8.508  0.5075  1.4953  0.5369
 8738SOL    HW237674   0.225   1.644   8.530  1.5713  1.5596 -3.0075
 8739SOL     OW37675   0.651   3.579   5.275  0.6684  0.1944  0.4232
 8739SOL    HW137676   0.577   3.598   5.218  1.8891  1.9398 -0.5750
 8739SOL    HW237677   0.633   3.490   5.306 -1.2598  0.3547 -0.2462
 8740SOL     OW37678   4.467   3.008  15.952  0.4500  0.3987  0.0015
 8740SOL    HW137679   4.397   3.069  15.931  0.1628 -0.6648 -2.1018
 8740SOL    HW237680   4.546   3.060  15.937  0.0071  1.5462  1.5857
 8741SOL     OW37681   2.483   1.297   8.948 -0.2834  0.1195  0.0853
 8741SOL    HW137682   2.570   1.258   8.939  0.4410  1.6036  0.7312
 8741SOL    HW237683   2.438   1.231   9.000  1.0056  0.4214  1.5572
 8742SOL     OW37684   3.628   2.002   3.542 -0.2482  0.3915  0.1365
 8742SOL    HW137685   3.709   2.041   3.574 -0.2829  0.8536 -0.3238
 8742SOL    HW237686   3.563   2.040   3.601  0.3825  1.5068  0.1226
 8743SOL     OW37687   1.577   1.711   5.066  0.2850 -0.5315 -0.1563
 8743SOL    HW137688   1.517   1.653   5.021 -0.6302 -0.3122  0.7882
 8743SOL    HW237689   1.517   1.784   5.080 -1.8915 -1.9068 -2.3986
 8744SOL     OW37690   0.784   3.550  11.861  0.3704  0.6017  0.5560
 8744SOL    HW137691   0.847   3.607  11.905  0.6604 -0.6449  1.7289
 8744SOL    HW237692   0.740   3.610  11.800 -0.5979  1.1051  1.7485
 8745SOL     OW37693   2.449   4.577   3.140 -0.0483  0.5125 -0.4954
 8745SOL    HW137694   2.502   4.501   3.164 -1.1159  0.3584  1.3648
 8745SOL    HW237695   2.384   4.541   3.080 -1.5108 -0.8041  1.8960
 8746SOL     OW37696   3.882   1.632   8.863 -0.1987  0.6560 -0.1128
 8746SOL    HW137697   3.936   1.629   8.785  0.2869 -0.5243  0.2666
 8746SOL    HW237698   3.841   1.718   8.858  1.1675  1.2700 -0.5947
 8747SOL     OW37699   2.387   1.142   2.464  0.2712 -0.1292 -0.7377
 8747SOL    HW137700   2.303   1.107   2.433 -0.3228 -0.9123  1.7382
 8747SOL    HW237701   2.369   1.128   2.556 -2.6921  0.9029 -1.1667
 8748SOL     OW37702   3.554   4.457   0.592  0.4102  0.3367  0.3495
 8748SOL    HW137703   3.472   4.504   0.604 -0.8578 -1.8291  0.1499
 8748SOL    HW237704   3.519   4.387   0.538 -0.1716  0.8261  0.0894
 8749SOL     OW37705   3.691   3.803   6.617  0.0831  0.3647  0.1773
 8749SOL    HW137706   3.636   3.875   6.646  1.3632  1.0704  0.8469
 8749SOL    HW237707   3.674   3.799   6.523 -2.7613 -2.6632  0.8207
 8750SOL     OW37708   1.420   4.015   7.989 -0.6976  0.1507 -0.1701
 8750SOL    HW137709   1.431   3.926   7.955 -2.6149 -0.8839  1.9190
 8750SOL    HW237710   1.339   4.039   7.944 -1.4009  0.4758  1.2717
 8751SOL     OW37711   4.296   1.535   5.976  0.3132 -0.4628 -0.7568
 8751SOL    HW137712   4.383   1.554   5.941  1.2190 -0.5012  1.4627
 8751SOL    HW237713   4.256   1.487   5.903 -2.8814  0.7884  0.1645
 8752SOL     OW37714   2.917   3.667  12.846 -0.1283 -0.0552  0.3953
 8752SOL    HW137715   3.007   3.697  12.860  1.1811 -2.2873 -3.1345
 8752SOL    HW237716   2.860   3.730  12.891  3.4350  2.8998  0.7611
 8753SOL     OW37717   4.369   4.188   6.375 -0.9279  0.3357  0.4790
 8753SOL    HW137718   4.349   4.244   6.450 -1.0667 -1.7283  1.9577
 8753SOL    HW237719   4.431   4.120   6.400 -0.7914 -0.1879 -1.2583
 8754SOL     OW37720   3.503   1.842   9.617 -0.1313  0.1565 -0.2464
 8754SOL    HW137721   3.522   1.816   9.707 -1.2677  1.1282  0.2771
 8754SOL    HW237722   3.414   1.878   9.623  0.6373  1.9609  0.1336
 8755SOL     OW37723   3.392   3.618   8.844 -0.2189  0.2816  0.2866
 8755SOL    HW137724   3.315   3.645   8.793  0.0509  2.4256  0.9972
 8755SOL    HW237725   3.456   3.681   8.812 -0.6522  1.0006  0.8278
 8756SOL     OW37726   3.416   3.572  17.513 -0.1829 -0.1847  0.2303
 8756SOL    HW137727   3.366   3.498  17.547  1.7620 -0.8722  1.5616
 8756SOL    HW237728   3.498   3.530  17.488 -1.9892 -1.6376 -3.2964
 8757SOL     OW37729   2.802   4.245   6.831  0.3253  0.0737  0.5747
 8757SOL    HW137730   2.716   4.204   6.820  0.4662 -0.1308  0.2587
 8757SOL    HW237731   2.860   4.190   6.779 -0.9642 -0.2698 -0.5123
 8758SOL     OW37732   1.743   3.847   2.197 -0.4812 -0.4247  0.2537
 8758SOL    HW137733   1.650   3.836   2.179 -0.1408  1.9904 -3.0655
 8758SOL    HW237734   1.758   3.790   2.272  1.8616  0.5695  0.5238
 8759SOL     OW37735   3.764   1.689   7.748 -0.1357  0.4687  0.0641
 8759SOL    HW137736   3.780   1.776   7.713  0.8409  0.5287  0.6663
 8759SOL    HW237737   3.847   1.673   7.794 -0.7163  1.2969  1.4206
 8760SOL     OW37738   4.610   0.977   3.146 -0.2718 -0.4333  0.4151
 8760SOL    HW137739   4.596   1.055   3.199  0.2929 -0.8539  1.1882
 8760SOL    HW237740   4.533   0.966   3.091  0.9806 -1.4717 -1.1501
 8761SOL     OW37741   3.153   1.416   6.278 -0.3296 -0.4191 -0.4544
 8761SOL    HW137742   3.125   1.431   6.188  1.7471 -1.0470 -1.2040
 8761SOL    HW237743   3.210   1.493   6.281  1.8270 -2.0346 -0.1924
 8762SOL     OW37744   4.071   0.928   4.774  0.6650  0.4610 -0.0299
 8762SOL    HW137745   4.004   0.861   4.777  1.9094 -0.7105  1.1595
 8762SOL    HW237746   4.023   1.003   4.737  0.0526  1.0471  1.9634
 8763SOL     OW37747   4.658   2.544   4.924  0.1320 -0.2329  0.3205
 8763SOL    HW137748   4.717   2.485   4.877  0.3093 -1.4102  2.0147
 8763SOL    HW237749   4.691   2.631   4.902 -1.0809  0.0871 -0.2027
 8764SOL     OW37750   4.626   2.210   4.722  0.6505  0.2644  0.4720
 8764SOL    HW137751   4.623   2.287   4.665 -0.9738 -0.0458  0.1514
 8764SOL    HW237752   4.628   2.141   4.655  1.0647 -0.9597  1.7360
 8765SOL     OW37753   1.892   2.532  17.364 -0.0055  0.2746  0.2939
 8765SOL    HW137754   1.808   2.578  17.366  0.2462  0.7252  0.3383
 8765SOL    HW237755   1.954   2.598  17.394  0.2012 -0.6081  1.8376
 8766SOL     OW37756   0.535   2.528   9.009  0.2461  0.2078 -0.7116
 8766SOL    HW137757   0.441   2.514   9.000  0.3409 -0.7450 -0.2132
 8766SOL    HW237758   0.554   2.514   8.916  1.0650  0.2263 -0.5512
 8767SOL     OW37759   0.666   4.345  14.937  0.2872  0.6234 -0.6849
 8767SOL    HW137760   0.634   4.350  14.847 -0.5975  1.2041 -0.3286
 8767SOL    HW237761   0.750   4.305  14.912 -0.1804 -0.2394 -0.8835
 8768SOL     OW37762   0.823   1.128  13.351  0.0552 -0.4782  0.1256
 8768SOL    HW137763   0.733   1.136  13.382  0.1176 -3.3395  1.0656
 8768SOL    HW237764   0.827   1.207  13.298 -0.4005  0.3057  1.2809
 8769SOL     OW37765   3.015   0.872  15.821  0.2975 -0.1730 -0.1487
 8769SOL    HW137766   2.987   0.906  15.736  3.2266  0.1463 -0.9730
 8769SOL    HW237767   3.002   0.955  15.867 -1.2276 -1.0001  0.9170
 8770SOL     OW37768   1.955   0.873   5.695 -0.2488  0.1411 -0.5306
 8770SOL    HW137769   1.907   0.945   5.736 -1.6155 -0.9334 -0.2626
 8770SOL    HW237770   1.951   0.819   5.773 -1.5108  0.1898 -0.5621
 8771SOL     OW37771   0.964   0.621  17.600  0.3374 -0.4272  0.1131
 8771SOL    HW137772   0.922   0.655  17.521 -1.2203 -0.3249  0.9947
 8771SOL    HW237773   0.911   0.541  17.603 -0.0534 -0.1542  0.3717
 8772SOL     OW37774   2.735   4.534   2.767  0.1738  0.0583 -0.3346
 8772SOL    HW137775   2.800   4.491   2.711 -0.7950 -0.5305 -1.0028
 8772SOL    HW237776   2.656   4.525   2.714  0.0023  2.2919 -0.4670
 8773SOL     OW37777   4.573   1.219   2.005  0.7676  0.2328  0.0581
 8773SOL    HW137778   4.492   1.191   1.962  0.7389  0.3198  0.0539
 8773SOL    HW237779   4.590   1.142   2.058 -0.9924 -0.6700 -0.6791
 8774SOL     OW37780   2.599   2.803   2.774 -0.0097 -0.2491 -0.2334
 8774SOL    HW137781   2.551   2.886   2.769  1.2194  0.5689  1.4629
 8774SOL    HW237782   2.577   2.770   2.861  1.5565  1.6159  0.8777
 8775SOL     OW37783   1.110   0.693   0.376  0.1301  0.3199  0.0059
 8775SOL    HW137784   1.167   0.676   0.301  0.3382  0.5082  0.1217
 8775SOL    HW237785   1.154   0.772   0.407  0.4870  0.0203  0.2611
 8776SOL     OW37786   3.646   3.193   7.380  0.4648  0.1880  0.6168
 8776SOL    HW137787   3.734   3.178   7.415  0.0605  0.4680  1.7667
 8776SOL    HW237788   3.656   3.263   7.315  0.8150 -0.0697  0.3908
 8777SOL     OW37789   4.133   4.393  17.089 -0.1251 -0.1803 -0.1960
 8777SOL    HW137790   4.180   4.335  17.029 -0.0758  0.6750 -0.9840
 8777SOL    HW237791   4.191   4.469  17.089  1.3360 -1.2783  2.1294
 8778SOL     OW37792   1.985   0.002  11.272  0.2175 -0.6548 -0.2561
 8778SOL    HW137793   1.920   4.654  11.253  0.7921 -1.0796 -0.7322
 8778SOL    HW237794   1.971   0.070  11.205 -0.2363  1.4675  2.0092
 8779SOL     OW37795   2.745   4.140   7.599  0.2807 -0.0918  0.4508
 8779SOL    HW137796   2.768   4.088   7.521  0.9022 -1.0308  1.2479
 8779SOL    HW237797   2.678   4.198   7.564 -2.3411 -2.3983  1.6737
 8780SOL     OW37798   1.440   1.417   2.866  0.1386  0.1841 -0.1886
 8780SOL    HW137799   1.357   1.378   2.892 -0.2528  0.9424 -0.3235
 8780SOL    HW237800   1.413   1.477   2.797  1.1472  0.0907 -0.6692
 8781SOL     OW37801   3.779   3.756  11.786 -0.5017 -0.0809 -0.1479
 8781SOL    HW137802   3.777   3.660  11.793  1.2989 -0.1107 -0.0431
 8781SOL    HW237803   3.714   3.790  11.848 -0.9153 -0.3591 -0.4262
 8782SOL     OW37804   2.611   2.222   2.492 -0.3911 -0.3569 -0.0110
 8782SOL    HW137805   2.573   2.138   2.518 -0.9571  0.4418  1.6998
 8782SOL    HW237806   2.706   2.212   2.497 -0.2135  1.7128  0.8490
 8783SOL     OW37807   4.047   4.697   1.112 -0.4813  0.0448 -0.2954
 8783SOL    HW137808   4.015   4.612   1.142 -0.0034 -0.1996 -0.4709
 8783SOL    HW237809   4.034   0.028   1.192  0.0076  0.1640 -0.2924
 8784SOL     OW37810   1.596   3.404   6.199 -0.5360  0.2383 -0.1345
 8784SOL    HW137811   1.606   3.324   6.251 -0.7114 -0.6537 -1.4670
 8784SOL    HW237812   1.657   3.461   6.245 -0.3283  0.3111 -0.4981
 8785SOL     OW37813   1.794   3.227   1.774 -0.1215 -0.4225 -0.2918
 8785SOL    HW137814   1.850   3.150   1.787  2.1291  1.0067 -1.4505
 8785SOL    HW237815   1.739   3.200   1.700 -0.6895  2.4340 -0.9010
 8786SOL     OW37816   4.480   2.863  11.835  0.0496 -0.0110  0.0625
 8786SOL    HW137817   4.496   2.929  11.768 -1.3060 -1.6173 -1.8715
 8786SOL    HW237818   4.542   2.796  11.804  0.7018  1.7948 -2.5080
 8787SOL     OW37819   2.261   3.962   7.133 -0.1389  0.3474 -0.6582
 8787SOL    HW137820   2.205   3.990   7.060 -0.2512 -0.8608 -1.0412
 8787SOL    HW237821   2.204   3.969   7.209  1.6217  2.0325  0.4919
 8788SOL     OW37822   2.839   1.360  14.039  0.0259  0.1837 -0.3088
 8788SOL    HW137823   2.914   1.403  13.998  0.6010 -0.7061 -0.1973
 8788SOL    HW237824   2.823   1.408  14.120 -1.1147 -0.1490 -0.3293
 8789SOL     OW37825   1.604   2.275   8.225  0.3206  0.2424 -0.1934
 8789SOL    HW137826   1.557   2.237   8.299  0.5464  1.9433  0.8459
 8789SOL    HW237827   1.681   2.218   8.225 -0.4525 -0.7913  1.3802
 8790SOL     OW37828   2.901   2.659   8.083 -0.0285 -0.3678 -0.0312
 8790SOL    HW137829   2.942   2.656   8.170 -1.2317  1.6679  0.6325
 8790SOL    HW237830   2.849   2.579   8.086  0.4523 -0.6748  0.1746
 8791SOL     OW37831   1.665   2.911   5.010  0.1152 -0.7139 -0.2183
 8791SOL    HW137832   1.738   2.936   4.953  1.5140 -4.6144 -0.1392
 8791SOL    HW237833   1.683   2.817   4.999  0.5056 -0.5627 -0.9215
 8792SOL     OW37834   2.216   2.034   0.637 -0.1694  0.4501 -0.1816
 8792SOL    HW137835   2.151   1.990   0.692  0.3220 -1.8591 -1.4811
 8792SOL    HW237836   2.262   1.960   0.597 -2.7573 -0.4493 -1.5245
 8793SOL     OW37837   4.517   3.063   3.678 -0.3833  0.0522  0.6279
 8793SOL    HW137838   4.506   3.158   3.665  0.9817  0.1527  0.1882
 8793SOL    HW237839   4.573   3.063   3.755  2.0470  0.1346 -1.1499
 8794SOL     OW37840   0.657   2.061  17.207 -0.4315  0.5371 -0.3360
 8794SOL    HW137841   0.650   2.147  17.248  1.6980  0.6230 -0.1547
 8794SOL    HW237842   0.678   2.001  17.278 -1.1339  0.9043  0.1875
 8795SOL     OW37843   0.312   1.861  14.348  0.2240 -0.0878 -0.0234
 8795SOL    HW137844   0.290   1.900  14.264  0.4041 -1.5895 -0.7613
 8795SOL    HW237845   0.317   1.933  14.411 -0.8897 -0.6786  0.7262
 8796SOL     OW37846   1.059   0.066   0.442  0.8448 -0.3990 -0.4406
 8796SOL    HW137847   1.013   0.141   0.405  2.4948 -0.3827 -2.4910
 8796SOL    HW237848   1.075   0.095   0.531 -3.3139 -1.6569  0.6831
 8797SOL     OW37849   1.374   0.418   2.416  0.0551 -0.2715 -0.3360
 8797SOL    HW137850   1.283   0.397   2.434  0.0037  0.2297 -0.0054
 8797SOL    HW237851   1.383   0.489   2.479  3.2450 -1.9502  1.1160
 8798SOL     OW37852   1.367   3.206   6.243 -0.2067 -0.4151 -0.2759
 8798SOL    HW137853   1.456   3.173   6.253 -0.7898 -2.5251 -1.8898
 8798SOL    HW237854   1.379   3.259   6.165 -0.6390  0.3181  0.1514
 8799SOL     OW37855   2.827   0.327   2.834 -0.1799 -0.3061  0.2208
 8799SOL    HW137856   2.905   0.357   2.787 -0.8014  1.7649  0.5210
 8799SOL    HW237857   2.811   0.243   2.792 -0.1552 -0.6142  0.8309
 8800SOL     OW37858   3.160   2.979   5.478  0.2135 -0.4355  0.0815
 8800SOL    HW137859   3.122   3.053   5.526 -0.4722  0.8719 -2.5216
 8800SOL    HW237860   3.238   3.017   5.439  2.3797 -3.4113  1.4681
 8801SOL     OW37861   1.426   1.946   1.589 -0.0525 -0.3729 -0.4050
 8801SOL    HW137862   1.478   2.015   1.630  0.0632  0.0827 -1.3026
 8801SOL    HW237863   1.448   1.964   1.497  0.7403  1.4974  0.1577
 8802SOL     OW37864   4.605   1.362   8.996  0.6966  0.7690  0.0236
 8802SOL    HW137865   4.658   1.432   8.960  1.5154 -1.3685 -2.8840
 8802SOL    HW237866   4.628   1.368   9.089 -0.5704 -0.2382  0.4150
 8803SOL     OW37867   4.357   0.232   4.144 -0.4765  0.2054  0.0747
 8803SOL    HW137868   4.267   0.202   4.134 -0.0883 -0.2398 -1.9173
 8803SOL    HW237869   4.341   0.307   4.202 -0.0545  0.8856 -0.6895
 8804SOL     OW37870   4.003   2.328   5.463 -0.6671 -0.2894  0.0757
 8804SOL    HW137871   3.973   2.343   5.553  2.0026  3.0174  0.4189
 8804SOL    HW237872   4.096   2.320   5.482 -1.0699 -1.1244  1.6549
 8805SOL     OW37873   2.799   1.331  13.001  0.5340  0.4880  0.0123
 8805SOL    HW137874   2.870   1.307  12.942 -0.7034 -1.7382 -0.5912
 8805SOL    HW237875   2.746   1.252  13.015 -1.8363  2.1083  0.1524
 8806SOL     OW37876   0.573   0.181   8.189 -0.3093 -0.1056  0.0081
 8806SOL    HW137877   0.480   0.206   8.186 -0.6335 -1.1373  1.2821
 8806SOL    HW237878   0.612   0.268   8.190  1.8313 -1.0769  0.7362
 8807SOL     OW37879   3.841   2.446  10.956 -0.0293 -0.5800 -0.2705
 8807SOL    HW137880   3.769   2.418  10.900  0.5088 -1.2483 -0.6142
 8807SOL    HW237881   3.915   2.443  10.895 -0.6863 -1.3654 -1.0306
 8808SOL     OW37882   1.240   4.610   2.201  0.1012 -0.1350  0.5833
 8808SOL    HW137883   1.166   4.667   2.180 -0.3324  0.0879  2.7766
 8808SOL    HW237884   1.283   4.669   2.264  0.1788 -1.1321  1.4505
 8809SOL     OW37885   1.678   3.200   4.098  0.0601 -0.0484 -0.0945
 8809SOL    HW137886   1.618   3.214   4.171  0.7798  1.4675  0.2263
 8809SOL    HW237887   1.762   3.236   4.127  0.2269  0.4871 -1.2633
 8810SOL     OW37888   0.440   0.926   7.303 -0.0882 -0.4833  0.1298
 8810SOL    HW137889   0.459   0.837   7.333  1.0612 -1.2556 -2.8801
 8810SOL    HW237890   0.503   0.942   7.233  1.0908 -1.2358  1.0182
 8811SOL     OW37891   0.231   2.647  15.002 -0.0837  0.3950 -0.3566
 8811SOL    HW137892   0.142   2.634  14.969  0.3791 -3.8846  0.0617
 8811SOL    HW237893   0.245   2.584  15.073  1.1506  1.7002  0.5544
 8812SOL     OW37894   3.915   0.210   5.140 -0.2956 -0.0257  0.3295
 8812SOL    HW137895   3.954   0.219   5.227  2.4396  1.4326 -1.0381
 8812SOL    HW237896   3.996   0.208   5.089 -0.6779  0.2826 -0.3007
 8813SOL     OW37897   1.401   1.932   5.375  0.1668  0.7952 -0.2349
 8813SOL    HW137898   1.338   1.938   5.304  0.2845  0.7446 -0.3433
 8813SOL    HW237899   1.355   1.884   5.444 -0.5071  0.0556 -1.2085
 8814SOL     OW37900   3.229   2.925  14.866 -0.7190 -0.3663  0.0847
 8814SOL    HW137901   3.198   2.978  14.792  1.3714  1.1036  0.2711
 8814SOL    HW237902   3.323   2.939  14.860 -0.5051 -1.8246 -0.0542
 8815SOL     OW37903   2.485   0.614   1.312  0.7094  0.1058  0.3437
 8815SOL    HW137904   2.503   0.701   1.276 -0.0845 -0.2067 -0.8146
 8815SOL    HW237905   2.478   0.628   1.407 -1.5407  1.2394  0.0091
 8816SOL     OW37906   3.504   3.798  11.954 -0.6227  0.0685  0.7582
 8816SOL    HW137907   3.414   3.811  11.984 -1.1456  2.1005 -1.7334
 8816SOL    HW237908   3.543   3.867  12.006 -2.0893 -0.0725  2.0553
 8817SOL     OW37909   0.934   3.258   3.842 -0.2547  0.1875 -0.5106
 8817SOL    HW137910   0.969   3.340   3.806  0.0521  0.2823  0.0126
 8817SOL    HW237911   1.006   3.196   3.844 -0.3089  0.1994  1.1560
 8818SOL     OW37912   2.032   0.180  14.067  0.2905  0.2774 -0.0294
 8818SOL    HW137913   1.980   0.130  14.005  1.4925 -0.6850 -0.2713
 8818SOL    HW237914   1.996   0.267  14.046  0.9132  0.5079 -0.1433
 8819SOL     OW37915   0.323   3.049   4.232  0.1744 -0.2462  0.1806
 8819SOL    HW137916   0.299   3.120   4.171 -1.0175 -1.1950 -0.4684
 8819SOL    HW237917   0.365   2.989   4.170 -2.7077 -1.5721 -0.4650
 8820SOL     OW37918   2.480   2.926   8.218 -0.6658 -0.2471  0.1926
 8820SOL    HW137919   2.572   2.928   8.244 -0.3450 -0.7498 -0.8956
 8820SOL    HW237920   2.450   2.860   8.281  0.3762 -0.0931  0.8459
 8821SOL     OW37921   1.905   3.382  14.178  0.5454 -0.4964  0.2017
 8821SOL    HW137922   1.848   3.458  14.177 -0.4597 -1.2215  1.6304
 8821SOL    HW237923   1.839   3.313  14.179  1.5787 -1.5085 -1.3326
 8822SOL     OW37924   3.428   2.200  16.236  0.3835 -0.6678  0.7547
 8822SOL    HW137925   3.473   2.133  16.287 -2.0026 -0.7489  2.7643
 8822SOL    HW237926   3.421   2.275  16.295  0.2573 -0.5305  0.5665
 8823SOL     OW37927   2.761   3.570   3.126 -0.2672  0.3919  0.4272
 8823SOL    HW137928   2.825   3.638   3.148 -0.9831  1.1472  0.1516
 8823SOL    HW237929   2.820   3.496   3.108  1.7211  1.2362  3.4568
 8824SOL     OW37930   1.505   1.746   1.768  0.0879  0.0404  0.1156
 8824SOL    HW137931   1.558   1.787   1.836  0.4599 -0.8328  0.3615
 8824SOL    HW237932   1.482   1.817   1.708 -0.8079  0.3880  0.8695
 8825SOL     OW37933   4.194   2.627   0.067 -0.4654 -0.2113  0.1220
 8825SOL    HW137934   4.236   2.670  17.674  1.1096 -0.8488  0.6489
 8825SOL    HW237935   4.145   2.701   0.103 -0.5810  0.2194 -0.9166
 8826SOL     OW37936   2.665   3.089   2.160 -0.0009  0.4216  0.5406
 8826SOL    HW137937   2.670   3.147   2.084 -0.1772 -1.0118 -0.5538
 8826SOL    HW237938   2.673   3.005   2.115  0.6539  1.4021 -1.1868
 8827SOL     OW37939   2.110   3.169   9.326  0.0659  0.1825 -0.1561
 8827SOL    HW137940   2.028   3.137   9.362  1.4258 -1.4222  1.5189
 8827SOL    HW237941   2.166   3.148   9.401  1.9656 -4.9721 -2.9684
 8828SOL     OW37942   3.433   1.940   8.473 -0.5759 -0.1106  0.2159
 8828SOL    HW137943   3.341   1.953   8.497 -0.6466  0.2823 -0.2658
 8828SOL    HW237944   3.472   2.027   8.477 -0.1896 -0.2720 -0.0350
 8829SOL     OW37945   3.820   4.705   3.842 -0.2235 -0.6707 -0.1210
 8829SOL    HW137946   3.790   4.704   3.933 -1.0374 -2.0630 -0.3973
 8829SOL    HW237947   3.822   0.080   3.828  0.2766 -0.6777 -0.0786
 8830SOL     OW37948   4.704   1.392  12.361 -0.0959  0.7866 -0.3087
 8830SOL    HW137949   0.053   1.455  12.340  3.0901 -2.1460  1.2669
 8830SOL    HW237950   4.689   1.402  12.455 -0.6751 -0.6434 -0.2395
 8831SOL     OW37951   4.251   2.615   2.604 -0.2768  0.1326  1.0553
 8831SOL    HW137952   4.174   2.627   2.660  1.1961 -1.4480  3.3849
 8831SOL    HW237953   4.294   2.540   2.645  0.3373  0.5268  1.1363
 8832SOL     OW37954   1.908   3.195  16.203 -0.0105 -0.1622 -0.4568
 8832SOL    HW137955   1.940   3.250  16.275  0.8327 -0.9401 -0.2328
 8832SOL    HW237956   1.814   3.184  16.221 -0.4777  0.2113 -2.7103
 8833SOL     OW37957   4.627   2.307   7.209  0.1476  0.0154 -0.2660
 8833SOL    HW137958   4.658   2.299   7.119  0.9489 -0.2455  0.0320
 8833SOL    HW237959   4.585   2.221   7.210 -0.8786  0.5119 -0.8003
 8834SOL     OW37960   3.497   3.327  17.675 -0.0389 -0.0832  0.0253
 8834SOL    HW137961   3.402   3.319  17.668  0.0316  0.0480 -1.1240
 8834SOL    HW237962   3.528   3.238  17.659 -0.7864 -0.2893 -0.2670
 8835SOL     OW37963   4.331   1.630   4.402 -0.1897  0.1248  0.4156
 8835SOL    HW137964   4.317   1.623   4.307  2.0051 -0.4961  0.1482
 8835SOL    HW237965   4.266   1.699   4.421  0.7190  1.3656 -0.9274
 8836SOL     OW37966   1.738   1.629   6.490 -0.0696 -0.1233 -0.5767
 8836SOL    HW137967   1.727   1.676   6.408  0.0205 -1.6080 -1.4431
 8836SOL    HW237968   1.651   1.609   6.523  0.2075  0.3128  0.4073
 8837SOL     OW37969   3.664   3.193   6.381  0.5929  0.4382 -0.1347
 8837SOL    HW137970   3.663   3.099   6.400  0.7948  0.8385  1.8654
 8837SOL    HW237971   3.684   3.227   6.469 -0.8875  0.2919  0.2579
 8838SOL     OW37972   1.666   3.326   3.296  0.3621  0.0926  0.2360
 8838SOL    HW137973   1.582   3.368   3.315  1.0026  2.3232 -1.8294
 8838SOL    HW237974   1.673   3.363   3.208 -1.2251 -1.1677 -0.4218
 8839SOL     OW37975   4.606   3.440   6.323 -0.1341  0.3507 -0.2932
 8839SOL    HW137976   4.578   3.352   6.350  1.9794 -0.6212 -1.2240
 8839SOL    HW237977   4.609   3.433   6.227  0.8879  2.0681 -0.3916
 8840SOL     OW37978   3.968   2.274   2.416 -0.1586  0.2526 -0.3754
 8840SOL    HW137979   3.924   2.192   2.395 -0.8871  0.2708  1.1315
 8840SOL    HW237980   4.046   2.271   2.360 -0.0206 -0.0239 -0.1634
 8841SOL     OW37981   2.113   1.181   7.916 -0.2569 -0.5397  0.1468
 8841SOL    HW137982   2.040   1.241   7.931  0.7350  0.8916 -0.8740
 8841SOL    HW237983   2.141   1.213   7.831  0.9739  0.6347  1.0005
 8842SOL     OW37984   3.104   3.482   2.197  0.4740 -0.1374  0.2085
 8842SOL    HW137985   3.018   3.454   2.227  0.9361 -0.6447  1.0616
 8842SOL    HW237986   3.082   3.517   2.110 -0.1176  1.8530  1.1522
 8843SOL     OW37987   0.117   2.621  13.158 -0.1217 -0.1743 -0.4527
 8843SOL    HW137988   0.184   2.553  13.147  0.5977  0.3815  0.4576
 8843SOL    HW237989   0.139   2.664  13.241  0.3038  0.3568 -0.8414
 8844SOL     OW37990   1.846   3.045   5.399  0.0970  0.0252 -0.0988
 8844SOL    HW137991   1.860   3.040   5.493 -0.0515  1.6091 -0.0002
 8844SOL    HW237992   1.929   3.089   5.380 -0.2011  0.5455 -0.2045
 8845SOL     OW37993   1.077   2.035  13.756 -0.0098  0.4595 -0.2513
 8845SOL    HW137994   1.072   2.075  13.669  2.2887  1.3734  0.0442
 8845SOL    HW237995   1.113   2.106  13.809 -1.8148 -1.3298  3.4001
 8846SOL     OW37996   4.256   0.965   5.762  0.1044 -0.0460  0.0288
 8846SOL    HW137997   4.345   0.946   5.789 -0.1035 -1.2611 -0.1618
 8846SOL    HW237998   4.212   0.952   5.846 -0.0792  1.2243  0.1382
 8847SOL     OW37999   2.965   0.475  13.491 -0.2507  0.1573 -0.1147
 8847SOL    HW138000   2.941   0.431  13.573  1.3096  0.4177  0.4893
 8847SOL    HW238001   3.041   0.530  13.512  0.7470 -1.3837  0.2861
 8848SOL     OW38002   1.833   2.408   4.658 -0.0060 -0.4434 -0.0103
 8848SOL    HW138003   1.761   2.361   4.615  0.7259 -0.9455 -0.6761
 8848SOL    HW238004   1.902   2.403   4.592  0.0271 -0.7520  0.0452
 8849SOL     OW38005   1.232   3.639  16.551 -0.6748  0.1942 -0.1756
 8849SOL    HW138006   1.304   3.625  16.613 -0.9344 -1.7292 -0.3166
 8849SOL    HW238007   1.224   3.552  16.512 -1.3043  0.2880 -0.2579
 8850SOL     OW38008   3.123   3.850   5.324 -0.0960 -0.2094  0.0663
 8850SOL    HW138009   3.208   3.834   5.365 -0.3760 -0.8570  0.3965
 8850SOL    HW238010   3.067   3.855   5.402  1.3418 -0.5534  1.1217
 8851SOL     OW38011   0.648   1.000   2.744 -0.0949 -0.2879  0.3525
 8851SOL    HW138012   0.631   1.084   2.787  0.2288 -0.1651  0.2375
 8851SOL    HW238013   0.656   0.944   2.821 -0.7566  0.1217  0.7238
 8852SOL     OW38014   3.888   1.738   4.634 -0.4635  0.5272 -0.4846
 8852SOL    HW138015   3.805   1.761   4.674 -0.7325  0.5102 -1.0308
 8852SOL    HW238016   3.866   1.766   4.545  0.4411  1.0005 -0.5641
 8853SOL     OW38017   4.165   3.917   6.638  0.1731 -0.2290 -0.3902
 8853SOL    HW138018   4.082   3.949   6.673  0.4090  0.8778 -0.8548
 8853SOL    HW238019   4.138   3.829   6.612 -3.0971 -0.0494  2.4279
 8854SOL     OW38020   2.599   2.551   0.766 -0.2349 -0.2612  0.0096
 8854SOL    HW138021   2.581   2.613   0.837  3.4936  0.1859  0.5651
 8854SOL    HW238022   2.540   2.478   0.783 -0.5545 -0.1456 -0.6192
 8855SOL     OW38023   0.729   0.438   5.433 -0.4190  0.0641  0.1551
 8855SOL    HW138024   0.643   0.439   5.393  1.1676  1.1349 -3.2042
 8855SOL    HW238025   0.754   0.528   5.412  2.2675 -1.3410 -2.7601
 8856SOL     OW38026   0.996   2.586  16.678 -0.5919 -0.2296 -0.8330
 8856SOL    HW138027   1.051   2.532  16.621  1.3435  2.3223 -1.3735
 8856SOL    HW238028   1.031   2.564  16.764 -2.0608  0.5353 -0.0456
 8857SOL     OW38029   4.384   2.052   5.345  0.0511  0.2665 -0.0795
 8857SOL    HW138030   4.476   2.061   5.320 -0.7377  3.6939 -1.7014
 8857SOL    HW238031   4.389   2.015   5.433 -2.0631  1.6070  0.5827
 8858SOL     OW38032   4.076   3.163  10.082 -0.5475  0.2826  0.1726
 8858SOL    HW138033   4.061   3.199   9.994 -0.2605  2.0155  0.8414
 8858SOL    HW238034   3.997   3.192  10.126 -3.2678 -1.2288 -3.6704
 8859SOL     OW38035   4.204   2.548   4.880  0.3884 -0.1302  0.1096
 8859SOL    HW138036   4.252   2.555   4.797  0.4447  2.2668  0.3443
 8859SOL    HW238037   4.199   2.452   4.885 -1.3272 -0.1428 -1.7608
 8860SOL     OW38038   1.714   3.821  11.719  0.1227  0.0604  0.8535
 8860SOL    HW138039   1.720   3.837  11.625  0.9590 -2.1765  0.5149
 8860SOL    HW238040   1.625   3.791  11.737 -0.7536  1.8907 -0.4837
 8861SOL     OW38041   3.482   2.198  17.407  0.2779  0.2518  0.1464
 8861SOL    HW138042   3.565   2.245  17.403  0.7848 -0.7323 -0.7690
 8861SOL    HW238043   3.433   2.262  17.459 -2.3016  0.5908 -2.6928
 8862SOL     OW38044   0.704   2.513   8.161 -0.1863 -0.5736 -0.2054
 8862SOL    HW138045   0.772   2.455   8.127 -0.4035  1.0805 -3.4146
 8862SOL    HW238046   0.735   2.561   8.238 -0.0882 -0.4434 -0.3265
 8863SOL     OW38047   3.631   1.562   1.546  0.2796  0.0786 -0.3770
 8863SOL    HW138048   3.657   1.649   1.516  2.1831  0.1949  1.6813
 8863SOL    HW238049   3.716   1.519   1.550  0.9316  1.2506 -1.6407
 8864SOL     OW38050   3.601   3.518   5.243 -0.7830 -0.0308  0.1198
 8864SOL    HW138051   3.583   3.612   5.240  1.3028  0.4403  1.7942
 8864SOL    HW238052   3.569   3.511   5.333  1.2823 -2.1343  0.6911
 8865SOL     OW38053   1.469   0.050   4.585  0.2367 -0.5898 -0.6326
 8865SOL    HW138054   1.528   0.025   4.514 -0.1022 -3.1500  0.0073
 8865SOL    HW238055   1.387   0.009   4.556 -1.0704  2.4124 -1.2070
 8866SOL     OW38056   4.252   3.832   8.665  0.0197 -0.5415  0.0053
 8866SOL    HW138057   4.274   3.815   8.756  0.1465 -2.5302 -0.3924
 8866SOL    HW238058   4.180   3.895   8.665 -0.5702 -1.2202  0.7318
 8867SOL     OW38059   2.111   2.344   2.285  0.0244  0.5740 -0.2750
 8867SOL    HW138060   2.073   2.289   2.353 -0.0897 -0.2964 -1.0479
 8867SOL    HW238061   2.198   2.342   2.324 -0.6768  1.8489  1.3433
 8868SOL     OW38062   1.288   4.095   1.281 -0.2773 -0.3539  0.0180
 8868SOL    HW138063   1.247   4.016   1.246  0.1880  0.0779 -1.5079
 8868SOL    HW238064   1.247   4.115   1.365 -0.1965 -1.2415  0.2649
 8869SOL     OW38065   2.525   1.813   3.339  0.4489 -0.1635  0.3361
 8869SOL    HW138066   2.470   1.852   3.408 -0.3584  0.5813 -0.7353
 8869SOL    HW238067   2.451   1.772   3.294 -0.0493 -0.8241  1.7313
 8870SOL     OW38068   2.434   3.348   2.148  0.0748 -0.2734  0.5202
 8870SOL    HW138069   2.504   3.335   2.084 -0.1772  0.3070  0.1303
 8870SOL    HW238070   2.371   3.287   2.109 -0.7650 -0.9111  2.8477
 8871SOL     OW38071   0.456   1.891   6.093 -0.4979 -0.1519 -0.1803
 8871SOL    HW138072   0.499   1.972   6.121 -2.2351  0.6504  0.1389
 8871SOL    HW238073   0.365   1.912   6.113  0.0393  0.9253  1.1294
 8872SOL     OW38074   1.366   1.817   7.620 -0.3383  0.0809  0.5532
 8872SOL    HW138075   1.341   1.726   7.631 -1.0086  0.4136  1.8779
 8872SOL    HW238076   1.332   1.835   7.533 -1.9379  1.4230  1.4467
 8873SOL     OW38077   1.032   2.282   5.551 -0.2998  0.3863 -0.4127
 8873SOL    HW138078   0.959   2.322   5.503 -0.5283  0.4455 -0.0134
 8873SOL    HW238079   1.103   2.323   5.501  0.3090 -2.0813 -1.5617
 8874SOL     OW38080   1.588   3.700  11.449  0.1106  0.1502  0.6504
 8874SOL    HW138081   1.561   3.730  11.363  1.6118 -0.1662  0.0747
 8874SOL    HW238082   1.679   3.729  11.445  0.6149 -1.0981  2.8827
 8875SOL     OW38083   2.074   0.896   7.941 -0.2693 -0.2741  0.1897
 8875SOL    HW138084   2.106   0.981   7.912 -1.7661 -0.4944 -2.0619
 8875SOL    HW238085   2.051   0.924   8.029  1.1088  1.9017 -0.1422
 8876SOL     OW38086   4.382   3.875  13.358 -0.3380 -0.4518 -0.0924
 8876SOL    HW138087   4.429   3.827  13.291  0.0875  1.2733 -1.0407
 8876SOL    HW238088   4.455   3.878  13.421  0.9564 -2.0489 -1.5445
 8877SOL     OW38089   2.499   2.522  15.554  0.2941  0.3674  0.4581
 8877SOL    HW138090   2.558   2.582  15.599  1.1424  0.2151 -0.4578
 8877SOL    HW238091   2.526   2.536  15.463 -0.7390  1.2277  0.2817
 8878SOL     OW38092   1.499   0.109   7.850 -0.2935  0.9694 -0.1216
 8878SOL    HW138093   1.582   0.147   7.818 -0.2711 -0.9465 -2.3663
 8878SOL    HW238094   1.437   0.154   7.792 -1.9551  0.8530  1.5735
 8879SOL     OW38095   2.376   1.036  10.214  0.4293  0.0428 -0.1289
 8879SOL    HW138096   2.369   0.943  10.192 -0.3793  0.0150  0.2254
 8879SOL    HW238097   2.317   1.041  10.289  1.3243  4.7632  0.2153
 8880SOL     OW38098   4.581   3.819   8.407  0.2705 -0.6559  0.3352
 8880SOL    HW138099   4.535   3.758   8.466 -0.1110 -0.1128  0.5947
 8880SOL    HW238100   4.558   3.788   8.320  5.2704  1.9964 -1.9062
 8881SOL     OW38101   1.670   3.124   7.581  0.2067  0.4110  0.3748
 8881SOL    HW138102   1.721   3.126   7.662  2.1534  0.6988 -0.8416
 8881SOL    HW238103   1.731   3.079   7.522  0.2122  0.4964  0.3154
 8882SOL     OW38104   4.475   4.030   4.536 -0.8538  0.2091 -0.2735
 8882SOL    HW138105   4.417   3.977   4.590 -0.8158  2.5582  2.0779
 8882SOL    HW238106   4.554   3.991   4.574 -1.3969  1.0857  1.7341
 8883SOL     OW38107   2.797   4.019   8.836 -0.2631 -0.8979  0.4721
 8883SOL    HW138108   2.851   4.035   8.913 -2.1279  0.3346  1.5243
 8883SOL    HW238109   2.755   4.104   8.824 -0.7963 -1.3632 -1.0120
 8884SOL     OW38110   3.814   2.839  10.856 -0.2897  0.1464  0.8599
 8884SOL    HW138111   3.885   2.811  10.915  1.1338 -1.3626 -1.5826
 8884SOL    HW238112   3.862   2.854  10.775 -1.0445  1.5737  0.6797
 8885SOL     OW38113   4.320   1.198   2.378 -0.6497  0.9526  0.7237
 8885SOL    HW138114   4.308   1.259   2.305  2.3895  0.4597 -0.1582
 8885SOL    HW238115   4.234   1.155   2.376  0.2976 -0.9309  0.8699
 8886SOL     OW38116   3.860   2.225   6.409  0.0375 -0.5528  0.5115
 8886SOL    HW138117   3.836   2.145   6.455  0.6401 -1.2693 -0.4076
 8886SOL    HW238118   3.850   2.286   6.482  0.7581 -1.7002  1.5833
 8887SOL     OW38119   3.826   3.199   9.026  0.8977  0.4723  0.2684
 8887SOL    HW138120   3.765   3.125   9.019 -0.3401  1.4294  0.7750
 8887SOL    HW238121   3.773   3.253   9.086  1.1625 -1.3912  2.1483
 8888SOL     OW38122   2.280   1.308  12.694  0.3588 -0.1356 -0.7553
 8888SOL    HW138123   2.265   1.387  12.642  0.4076  0.2255 -0.2152
 8888SOL    HW238124   2.346   1.326  12.761 -0.5939  2.7580 -0.5911
 8889SOL     OW38125   4.596   3.895   1.755  0.2435 -0.0048 -0.5942
 8889SOL    HW138126   4.566   3.912   1.845  1.2326  1.5574 -0.5563
 8889SOL    HW238127   4.549   3.966   1.711 -1.2528 -0.1918  0.6705
 8890SOL     OW38128   1.702   2.617  14.287  0.6982 -0.3284 -0.1801
 8890SOL    HW138129   1.720   2.621  14.193  1.0617 -0.0491 -0.0966
 8890SOL    HW238130   1.651   2.697  14.303 -0.5273 -0.9957 -0.7473
 8891SOL     OW38131   2.753   3.864  12.969  0.5065  0.6493 -0.2854
 8891SOL    HW138132   2.665   3.844  12.937 -0.3403  2.6157  0.7932
 8891SOL    HW238133   2.743   3.852  13.064 -0.9597  1.3146 -0.3533
 8892SOL     OW38134   1.658   4.521   3.241  0.9270 -0.2240  0.4674
 8892SOL    HW138135   1.574   4.513   3.286 -0.2138  1.8728 -1.2571
 8892SOL    HW238136   1.689   4.603   3.278 -0.1097  0.7466 -0.7988
 8893SOL     OW38137   4.500   1.380   0.256  0.3252 -0.0170 -0.0318
 8893SOL    HW138138   4.436   1.408   0.321  1.4426  2.7973 -0.1316
 8893SOL    HW238139   4.516   1.288   0.277  3.1234  0.2988 -0.7978
 8894SOL     OW38140   3.721   2.141   0.864  0.0646  0.1646 -0.1458
 8894SOL    HW138141   3.652   2.076   0.879  0.5965  0.0884  1.9366
 8894SOL    HW238142   3.722   2.185   0.949 -1.0278  0.6729 -0.4011
 8895SOL     OW38143   3.733   2.458   9.608 -0.3022  0.3266  0.3255
 8895SOL    HW138144   3.773   2.401   9.542 -2.7680 -1.7304  0.6257
 8895SOL    HW238145   3.657   2.408   9.637 -0.8135  0.5714 -0.6045
 8896SOL     OW38146   2.118   2.275   6.534 -0.8816 -0.2081  0.0432
 8896SOL    HW138147   2.208   2.265   6.501 -1.4482 -0.9240 -1.2682
 8896SOL    HW238148   2.122   2.368   6.554 -0.8138 -0.1288 -0.3318
 8897SOL     OW38149   4.226   3.808   7.848 -0.2748 -0.6209 -0.4468
 8897SOL    HW138150   4.215   3.871   7.778  0.2558 -3.5445 -3.1590
 8897SOL    HW238151   4.321   3.794   7.851 -0.1979  0.5322  2.6993
 8898SOL     OW38152   1.073   3.031  13.157  0.1984  0.0424 -0.2356
 8898SOL    HW138153   1.128   3.083  13.216 -1.2570  0.8013  0.4751
 8898SOL    HW238154   1.077   3.085  13.078 -0.4718 -0.5185 -0.6527
 8899SOL     OW38155   4.215   4.384  14.829  0.0748 -0.1460  0.1586
 8899SOL    HW138156   4.186   4.316  14.767 -0.9427  0.1312  0.3266
 8899SOL    HW238157   4.185   4.461  14.781  1.9970 -0.3308 -1.3518
 8900SOL     OW38158   3.224   0.093   8.877 -0.3465 -0.7376  0.2861
 8900SOL    HW138159   3.132   0.097   8.903 -0.7117  1.4253 -1.2889
 8900SOL    HW238160   3.265   0.165   8.925  0.2463 -1.7374  1.2842
 8901SOL     OW38161   4.475   1.617  12.644  0.2111  0.1543 -0.4120
 8901SOL    HW138162   4.408   1.656  12.588  1.3208 -0.3919 -2.1102
 8901SOL    HW238163   4.556   1.643  12.601  0.5363 -0.9856 -0.4816
 8902SOL     OW38164   0.109   0.169   2.052 -0.2106  0.0268  0.2375
 8902SOL    HW138165   0.195   0.128   2.055 -0.3974 -0.2580  1.7911
 8902SOL    HW238166   0.131   0.259   2.077  0.8303  0.2823 -1.6187
 8903SOL     OW38167   1.053   1.339  13.833 -0.6560  0.2185  0.3132
 8903SOL    HW138168   1.121   1.275  13.813 -1.0655 -0.0737 -0.1467
 8903SOL    HW238169   1.097   1.424  13.825 -1.5095  0.5318 -1.2635
 8904SOL     OW38170   3.474   4.361   3.379 -0.1737 -0.3315  0.2143
 8904SOL    HW138171   3.380   4.361   3.363 -0.2129 -1.7025  0.4246
 8904SOL    HW238172   3.509   4.334   3.294 -2.4258 -2.1030 -0.1542
 8905SOL     OW38173   4.462   4.289   5.608  0.2556  0.4296  0.4321
 8905SOL    HW138174   4.433   4.307   5.519  0.8233  1.6051  0.4950
 8905SOL    HW238175   4.389   4.326   5.658 -0.6258 -1.3935  0.5266
 8906SOL     OW38176   1.884   1.252   6.995  0.2216 -0.5542  0.2542
 8906SOL    HW138177   1.835   1.199   7.057 -3.1425 -1.7709 -3.4472
 8906SOL    HW238178   1.821   1.324   6.990 -0.0248 -0.6549  2.1820
 8907SOL     OW38179   2.149   3.091   0.800 -0.6056  0.0840  0.1700
 8907SOL    HW138180   2.124   3.107   0.891  2.0191  0.7124  0.7809
 8907SOL    HW238181   2.088   3.142   0.746 -1.5888 -1.6032 -0.2921
 8908SOL     OW38182   2.331   2.437   5.960  0.0258  0.4743 -0.7042
 8908SOL    HW138183   2.300   2.386   5.885  1.1069 -0.6690 -0.3582
 8908SOL    HW238184   2.278   2.417   6.037 -0.7194  3.0594 -0.5272
 8909SOL     OW38185   3.134   2.950   9.563  0.4270 -0.1711  0.3654
 8909SOL    HW138186   3.145   2.952   9.468 -3.1624 -0.5260 -0.0434
 8909SOL    HW238187   3.222   2.980   9.585 -0.2016 -0.5080  3.2808
 8910SOL     OW38188   2.605   4.647   4.971  0.0388 -0.2139 -0.5424
 8910SOL    HW138189   2.658   4.605   5.038 -1.4299  1.6984  1.8257
 8910SOL    HW238190   2.521   4.607   4.995  1.3612 -2.4959  0.2493
 8911SOL     OW38191   0.973   2.197   6.281 -0.0336 -0.2144 -0.0277
 8911SOL    HW138192   0.953   2.254   6.206 -0.0490 -2.7904 -2.0109
 8911SOL    HW238193   1.032   2.253   6.331  0.9692 -1.7263  0.4722
 8912SOL     OW38194   1.256   1.416  14.947  0.0888  0.0361  0.1588
 8912SOL    HW138195   1.219   1.471  14.877  0.8553 -1.4187 -1.3847
 8912SOL    HW238196   1.350   1.421  14.928  0.2820 -2.1036  0.5894
 8913SOL     OW38197   3.746   1.622   2.133 -0.5871  0.6697 -0.0430
 8913SOL    HW138198   3.772   1.705   2.093 -2.3887  1.4232  0.3568
 8913SOL    HW238199   3.663   1.641   2.176 -0.7720 -0.8541  0.2659
 8914SOL     OW38200   0.565   3.762   8.077 -0.6893  0.0218 -0.3543
 8914SOL    HW138201   0.639   3.819   8.099 -0.2797 -0.0742 -1.5120
 8914SOL    HW238202   0.488   3.817   8.090  0.0307  0.9993 -0.2566
 8915SOL     OW38203   1.964   2.874   2.031  0.1106 -1.0363 -0.4095
 8915SOL    HW138204   1.963   2.938   2.102 -0.6040 -2.2283  0.6536
 8915SOL    HW238205   2.047   2.831   2.051  0.4781 -0.3614 -0.4905
 8916SOL     OW38206   3.145   0.674   3.623  0.5496 -0.9266  0.2062
 8916SOL    HW138207   3.138   0.766   3.647 -2.0442 -0.8766 -0.7979
 8916SOL    HW238208   3.222   0.650   3.675  0.7092 -1.3602 -0.2327
 8917SOL     OW38209   0.204   4.278  17.512 -0.1944 -0.1075 -0.5133
 8917SOL    HW138210   0.256   4.334  17.570 -0.0437  0.5669 -1.3020
 8917SOL    HW238211   0.273   4.258  17.448  0.1348 -0.7241  0.0369
 8918SOL     OW38212   2.722   2.716   0.577  0.5882 -0.6965  0.6218
 8918SOL    HW138213   2.673   2.794   0.605 -1.8712 -1.9731 -0.1027
 8918SOL    HW238214   2.705   2.651   0.645  0.2599 -2.1087 -0.8316
 8919SOL     OW38215   2.795   1.495   5.873 -0.4111  0.2555  0.3059
 8919SOL    HW138216   2.731   1.485   5.943  1.3025 -1.1937  1.6598
 8919SOL    HW238217   2.743   1.463   5.799 -0.1837 -2.0064  1.1387
 8920SOL     OW38218   0.293   0.662   5.296 -0.6479 -0.1341 -0.9860
 8920SOL    HW138219   0.282   0.570   5.322 -1.8262 -0.5792 -3.0432
 8920SOL    HW238220   0.348   0.656   5.218  1.3708 -2.9489  0.6247
 8921SOL     OW38221   2.360   3.449   4.865  0.2435  0.3413 -0.1762
 8921SOL    HW138222   2.298   3.382   4.895 -0.5818  0.8622 -0.7316
 8921SOL    HW238223   2.379   3.485   4.951 -0.3894 -1.0472  0.5569
 8922SOL     OW38224   1.636   3.748  12.056 -0.3213  0.1882 -0.2148
 8922SOL    HW138225   1.548   3.722  12.030 -0.1431 -1.3640  0.7064
 8922SOL    HW238226   1.689   3.707  11.987  0.9014  0.0484  0.7945
 8923SOL     OW38227   2.344   0.147   9.289  0.6428 -0.0884  0.5038
 8923SOL    HW138228   2.430   0.189   9.288  0.3262  0.5493  0.0742
 8923SOL    HW238229   2.318   0.136   9.198  0.9025 -0.8255  0.5148
 8924SOL     OW38230   3.525   3.619  14.855  0.3553 -0.1517 -0.0682
 8924SOL    HW138231   3.531   3.662  14.940 -1.2220 -0.7398  0.3464
 8924SOL    HW238232   3.467   3.551  14.891 -0.2593  0.2484 -0.2927
 8925SOL     OW38233   4.382   0.158   6.754 -0.1237  0.1195 -0.1960
 8925SOL    HW138234   4.440   0.090   6.788 -0.2539  0.5022  0.8126
 8925SOL    HW238235   4.326   0.114   6.690  0.8147 -1.3419 -0.0241
 8926SOL     OW38236   1.688   1.026   0.629  0.0951  0.3715 -0.1002
 8926SOL    HW138237   1.744   0.951   0.650 -0.0614  0.4948  0.7816
 8926SOL    HW238238   1.691   1.020   0.534 -0.6200  0.4057 -0.1226
 8927SOL     OW38239   1.660   4.230   5.496  0.1173 -0.1299  0.5058
 8927SOL    HW138240   1.669   4.168   5.424  0.6936 -0.2187  0.6523
 8927SOL    HW238241   1.717   4.184   5.558 -0.5690  1.6608  2.4837
 8928SOL     OW38242   1.438   2.576   4.778 -0.4575  0.2885 -0.2539
 8928SOL    HW138243   1.389   2.524   4.714  0.4003 -1.3841  0.4723
 8928SOL    HW238244   1.494   2.623   4.715 -0.6114  2.1075  0.9615
 8929SOL     OW38245   3.263   3.270  10.054  0.0240 -0.5190  0.4225
 8929SOL    HW138246   3.300   3.185  10.030  3.5672  0.7807  1.2303
 8929SOL    HW238247   3.180   3.243  10.094 -0.5239 -0.1289 -0.4659
 8930SOL     OW38248   4.256   1.075   8.443 -0.2348  0.8801  0.0593
 8930SOL    HW138249   4.330   1.055   8.499  0.0314  0.1750 -0.5417
 8930SOL    HW238250   4.298   1.148   8.399  2.1631 -0.5901 -0.1108
 8931SOL     OW38251   2.568   2.255   4.972  0.0081 -0.1693  0.2977
 8931SOL    HW138252   2.495   2.232   4.915  0.9965 -0.4117 -0.8877
 8931SOL    HW238253   2.643   2.214   4.929  0.4678  1.6980 -0.6749
 8932SOL     OW38254   4.561   0.767  15.273  0.4924 -0.2438  0.0803
 8932SOL    HW138255   4.654   0.746  15.280  0.2557 -1.3276 -0.0666
 8932SOL    HW238256   4.572   0.859  15.249 -1.2442 -0.0672 -0.0446
 8933SOL     OW38257   2.089   3.405   6.006  0.0226 -0.3770  0.0670
 8933SOL    HW138258   2.019   3.351   5.970  0.1943 -0.8066  0.3710
 8933SOL    HW238259   2.056   3.417   6.095  0.1671 -2.8514  0.4639
 8934SOL     OW38260   3.625   4.458   8.138 -0.0673 -0.0433 -0.3312
 8934SOL    HW138261   3.638   4.449   8.043  1.9554 -1.0000  0.0465
 8934SOL    HW238262   3.691   4.525   8.155  1.5799 -1.7831  0.1096
 8935SOL     OW38263   0.470   3.996   2.436 -0.1309  0.2524 -0.4580
 8935SOL    HW138264   0.396   3.941   2.408 -0.7309  0.5990  0.4317
 8935SOL    HW238265   0.487   4.039   2.352  0.5128 -0.7447 -0.8402
 8936SOL     OW38266   1.616   1.108   4.148 -0.1384 -0.0942 -0.4717
 8936SOL    HW138267   1.622   1.026   4.197 -2.4473  0.9677  1.5810
 8936SOL    HW238268   1.639   1.076   4.061 -1.5882  0.9922 -1.2327
 8937SOL     OW38269   1.640   2.371  14.619 -0.0426 -0.7482 -0.7312
 8937SOL    HW138270   1.613   2.281  14.603  0.5254 -0.8708 -1.0011
 8937SOL    HW238271   1.735   2.370  14.607  0.0623 -0.5441  0.0722
 8938SOL     OW38272   2.594   1.996  11.233 -0.3434 -0.2423 -0.4260
 8938SOL    HW138273   2.634   2.076  11.268 -1.8582  0.5570 -0.5595
 8938SOL    HW238274   2.501   2.008  11.249 -0.1510  0.0129  0.5145
 8939SOL     OW38275   0.528   1.605   6.309 -0.2693 -0.6912  0.2144
 8939SOL    HW138276   0.554   1.585   6.399  0.6199 -0.5050 -0.0037
 8939SOL    HW238277   0.614   1.622   6.270 -0.2042 -2.1177 -0.2975
 8940SOL     OW38278   2.020   4.371   8.421 -0.2597  0.1004  0.1874
 8940SOL    HW138279   2.085   4.332   8.363 -1.3126  1.0974 -1.6493
 8940SOL    HW238280   2.067   4.413   8.493  0.4309 -2.7041  1.3669
 8941SOL     OW38281   0.878   4.697   3.750 -0.6730  0.4758 -0.2570
 8941SOL    HW138282   0.879   0.036   3.826  1.1403  1.2618 -0.8859
 8941SOL    HW238283   0.847   0.038   3.683 -0.0729 -0.1055 -1.0667
 8942SOL     OW38284   4.705   2.954   2.107  0.1700 -0.0126 -0.1165
 8942SOL    HW138285   4.688   3.048   2.102  0.5446  0.1432  1.5756
 8942SOL    HW238286   0.046   2.938   2.034  0.6275 -0.0337  0.2683
 8943SOL     OW38287   2.111   0.200   7.399  0.6520 -0.0028  0.2011
 8943SOL    HW138288   2.146   0.289   7.389 -3.0888  1.2613 -1.6301
 8943SOL    HW238289   2.177   0.141   7.362  0.6395 -1.2120  2.1351
 8944SOL     OW38290   2.833   2.864  14.839 -0.3776  0.3572  0.5521
 8944SOL    HW138291   2.843   2.929  14.770 -1.0764 -1.8294 -1.5999
 8944SOL    HW238292   2.905   2.806  14.815 -0.3580  0.0598  1.3301
 8945SOL     OW38293   1.879   2.044   6.185 -0.2315  0.2767 -0.2426
 8945SOL    HW138294   1.894   1.988   6.261  0.0108  0.6966  0.0186
 8945SOL    HW238295   1.870   2.135   6.212 -0.7115  0.9103 -2.5620
 8946SOL     OW38296   1.219   0.922   1.997  0.0955 -0.0688 -0.3248
 8946SOL    HW138297   1.250   0.914   2.087 -0.4080 -0.4415 -0.1844
 8946SOL    HW238298   1.135   0.876   1.997  0.5971 -0.9747 -1.9212
 8947SOL     OW38299   3.401   2.784   8.414  0.1331 -0.1208 -0.0156
 8947SOL    HW138300   3.496   2.781   8.421 -0.0053 -0.5750  1.6178
 8947SOL    HW238301   3.372   2.857   8.360 -0.7663  0.0950  0.7597
 8948SOL     OW38302   3.520   4.180  12.015  0.1781  0.1684  0.1331
 8948SOL    HW138303   3.522   4.099  12.067 -0.4914 -1.1435 -1.8795
 8948SOL    HW238304   3.427   4.199  12.008  0.2433 -0.3030 -1.9343
 8949SOL     OW38305   0.212   0.537   7.473  0.3231 -0.2902 -0.0354
 8949SOL    HW138306   0.244   0.477   7.406  1.5651  0.0151  0.2817
 8949SOL    HW238307   0.118   0.524   7.467 -0.1370  2.0354  2.1256
 8950SOL     OW38308   3.828   3.498   6.403  0.5554  0.5684 -0.3203
 8950SOL    HW138309   3.876   3.415   6.410  2.4315  1.7186  0.6029
 8950SOL    HW238310   3.871   3.536   6.327  1.9057  0.1466  0.2253
 8951SOL     OW38311   4.014   4.290  14.079  0.3813  0.0030 -0.8103
 8951SOL    HW138312   4.079   4.356  14.056 -0.7762  1.9047  1.4086
 8951SOL    HW238313   4.067   4.215  14.052 -0.2695 -0.6241 -0.3539
 8952SOL     OW38314   1.598   2.544   7.612  0.0334 -0.0301  0.4017
 8952SOL    HW138315   1.639   2.626   7.583  0.9150 -1.0066 -1.1218
 8952SOL    HW238316   1.583   2.493   7.533 -0.3892  0.5444  0.1144
 8953SOL     OW38317   2.570   1.539  14.339 -0.5973 -0.6016 -0.1542
 8953SOL    HW138318   2.499   1.559  14.400 -0.9027  2.9213 -1.7018
 8953SOL    HW238319   2.541   1.596  14.268  0.7255 -2.3722 -2.0996
 8954SOL     OW38320   1.788   0.344  16.580  0.0608  0.3055 -0.3583
 8954SOL    HW138321   1.839   0.300  16.512  1.0604 -0.7150  1.0788
 8954SOL    HW238322   1.867   0.374  16.624  1.5416 -0.6922 -2.3144
 8955SOL     OW38323   3.357   3.054  10.992  0.6357  0.3446  0.0672
 8955SOL    HW138324   3.319   3.139  11.015 -2.3489 -0.8198 -0.5826
 8955SOL    HW238325   3.440   3.076  10.952  0.6074  2.6774  1.2898
 8956SOL     OW38326   4.451   1.344  14.332  0.3146 -0.1353  0.4632
 8956SOL    HW138327   4.436   1.423  14.280 -1.1429  0.5791  1.9588
 8956SOL    HW238328   4.504   1.378  14.404 -0.6134 -2.3317  2.1917
 8957SOL     OW38329   1.919   3.009   7.846  0.7225  0.5061  0.1902
 8957SOL    HW138330   1.902   3.093   7.805 -1.6096 -0.9230 -1.7861
 8957SOL    HW238331   1.994   2.985   7.792 -1.0792 -2.5733 -1.0091
 8958SOL     OW38332   1.572   4.513   4.438 -0.2146  0.0360  0.0283
 8958SOL    HW138333   1.666   4.515   4.457 -0.3716  0.8987  0.7167
 8958SOL    HW238334   1.543   4.432   4.481  1.7520 -1.1601 -0.9331
 8959SOL     OW38335   0.685   2.249   6.806 -0.4759  0.2189 -0.2153
 8959SOL    HW138336   0.640   2.333   6.799 -0.3846  0.2474 -0.4864
 8959SOL    HW238337   0.775   2.280   6.799 -0.8268  1.3560  0.2992
 8960SOL     OW38338   1.591   1.206   7.831  0.0768 -0.1467 -0.0846
 8960SOL    HW138339   1.533   1.230   7.903 -0.1310  1.1626 -0.7010
 8960SOL    HW238340   1.570   1.113   7.818  0.4808 -0.3136  0.3977
 8961SOL     OW38341   1.101   2.919   8.365  0.3928 -0.3560 -0.4509
 8961SOL    HW138342   1.139   2.945   8.449 -1.3108  0.8272 -0.0613
 8961SOL    HW238343   1.136   2.829   8.363  0.5849 -0.2137 -3.3481
 8962SOL     OW38344   4.161   1.845   1.320  0.1550  0.1338 -0.0837
 8962SOL    HW138345   4.204   1.802   1.247  0.0551  0.7761 -0.5227
 8962SOL    HW238346   4.155   1.930   1.275  0.6112 -1.1756 -2.6250
 8963SOL     OW38347   4.205   2.256  11.595  0.4849  0.1832 -0.1894
 8963SOL    HW138348   4.182   2.164  11.580 -1.8991  0.7326  0.2114
 8963SOL    HW238349   4.169   2.283  11.679  0.3896  0.3484 -0.2838
 8964SOL     OW38350   4.537   4.050   8.811 -0.2323  0.3309  0.1833
 8964SOL    HW138351   4.490   4.050   8.728 -0.5855  0.6257  0.3824
 8964SOL    HW238352   4.466   4.053   8.875 -0.9832  0.6875 -0.6794
 8965SOL     OW38353   0.773   1.334  10.333 -0.4232  0.0756  0.1581
 8965SOL    HW138354   0.741   1.405  10.277 -1.5886 -1.1242 -0.7241
 8965SOL    HW238355   0.740   1.250  10.300  0.8439  0.0003 -0.9113
 8966SOL     OW38356   3.639   3.472  17.416 -0.2943 -0.2383  0.0519
 8966SOL    HW138357   3.703   3.403  17.398 -2.6413 -2.6890  0.9507
 8966SOL    HW238358   3.667   3.536  17.351 -2.5085 -1.2823 -1.9492
 8967SOL     OW38359   3.872   1.895   0.451  0.3012 -0.1819 -0.2266
 8967SOL    HW138360   3.853   1.987   0.472 -0.5029 -0.1975 -0.8870
 8967SOL    HW238361   3.923   1.882   0.531  1.7147 -0.5417 -1.1966
 8968SOL     OW38362   4.054   2.595  15.359  0.3880 -0.2840 -0.3423
 8968SOL    HW138363   4.141   2.633  15.359  0.0954  0.3593  1.6194
 8968SOL    HW238364   4.075   2.505  15.382  0.1859 -0.2694 -0.0944
 8969SOL     OW38365   3.976   1.683   5.361 -0.5201 -0.2492  0.2320
 8969SOL    HW138366   3.901   1.709   5.307 -0.7452  2.1158  1.6896
 8969SOL    HW238367   4.049   1.734   5.326  0.7684 -0.4250  2.7127
 8970SOL     OW38368   2.064   3.333   2.468 -0.5235  0.4614  0.1716
 8970SOL    HW138369   2.052   3.425   2.444  0.7130  0.8938  1.2058
 8970SOL    HW238370   2.094   3.302   2.382 -2.5446  2.6883 -1.3398
 8971SOL     OW38371   1.116   2.325  17.188  0.2557  0.2534  0.0912
 8971SOL    HW138372   1.065   2.327  17.268 -0.5511 -0.1392 -0.4159
 8971SOL    HW238373   1.067   2.250  17.155  1.2185  0.7173 -2.4025
 8972SOL     OW38374   4.256   0.570   0.140  0.2363 -0.2006  0.1298
 8972SOL    HW138375   4.336   0.547   0.188  0.7543 -1.1528 -1.2113
 8972SOL    HW238376   4.199   0.595   0.213 -0.0479 -3.8193  1.1769
 8973SOL     OW38377   3.118   3.505   5.412 -0.6104 -0.0689 -0.3162
 8973SOL    HW138378   3.176   3.446   5.461  1.6837  1.9688 -0.5814
 8973SOL    HW238379   3.162   3.590   5.416 -0.8716  0.0710 -0.4298
 8974SOL     OW38380   0.019   2.213   6.958 -0.1673  0.0049  0.2919
 8974SOL    HW138381   4.685   2.207   6.879 -2.1732 -1.3131  1.7494
 8974SOL    HW238382   0.100   2.231   6.911 -0.7153  0.4603 -0.4785
 8975SOL     OW38383   3.041   0.075   3.461 -0.3024 -0.1568  0.1720
 8975SOL    HW138384   3.078   0.104   3.378 -1.8297 -2.3788 -1.2751
 8975SOL    HW238385   3.087   0.132   3.523  0.1757 -0.8365  0.4465
 8976SOL     OW38386   2.005   1.283  15.682  0.1621 -0.2910  0.2000
 8976SOL    HW138387   1.972   1.316  15.598  1.6876  0.5771 -0.0777
 8976SOL    HW238388   1.922   1.293  15.727  0.5479 -1.1499  1.0924
 8977SOL     OW38389   3.079   0.120   5.245  0.3361  0.4223 -0.1267
 8977SOL    HW138390   3.091   0.078   5.330 -0.7019 -0.1425 -0.2615
 8977SOL    HW238391   3.169   0.148   5.229 -0.4436  2.1039 -1.6008
 8978SOL     OW38392   1.860   4.340  11.798 -0.2168  0.0318  0.2543
 8978SOL    HW138393   1.944   4.303  11.822 -0.8830 -0.7839  1.2925
 8978SOL    HW238394   1.836   4.379  11.882 -1.9330 -1.4524  0.4643
 8979SOL     OW38395   0.053   3.326   3.852  0.3465 -0.3168  0.1322
 8979SOL    HW138396   0.030   3.236   3.876 -1.9669 -0.4311 -2.6355
 8979SOL    HW238397   0.068   3.328   3.758 -1.4215  2.1903 -0.0698
 8980SOL     OW38398   4.125   4.105   3.962  0.1004  0.3271 -0.5197
 8980SOL    HW138399   4.057   4.038   3.971 -1.4116  1.8040 -0.9423
 8980SOL    HW238400   4.144   4.136   4.051  1.5607 -2.2544  0.0734
 8981SOL     OW38401   2.326   3.107   4.639  0.2024 -0.4478  0.3044
 8981SOL    HW138402   2.384   3.132   4.711  1.4833 -1.6925 -0.2960
 8981SOL    HW238403   2.304   3.193   4.602  1.0000  1.1858  3.6495
 8982SOL     OW38404   2.912   1.693   8.190  0.0524 -0.0637  0.4750
 8982SOL    HW138405   2.931   1.604   8.220  0.5908 -0.3422 -0.7227
 8982SOL    HW238406   2.982   1.745   8.231 -0.5471 -0.0217  1.4569
 8983SOL     OW38407   1.516   4.386   9.684 -0.6499 -0.0563 -0.0663
 8983SOL    HW138408   1.508   4.453   9.617 -0.8370  0.0067  0.0197
 8983SOL    HW238409   1.611   4.374   9.687 -0.9131 -2.5440 -1.4298
 8984SOL     OW38410   0.083   1.715  17.512  0.6478  0.1405 -0.0249
 8984SOL    HW138411   0.066   1.739  17.603 -0.0841 -0.2485 -0.0533
 8984SOL    HW238412   0.177   1.733  17.512  0.3678  1.5981 -1.7204
 8985SOL     OW38413   2.405   0.071   1.222  0.3009 -0.2086 -0.0198
 8985SOL    HW138414   2.479   0.017   1.249  1.6584  0.4294 -2.4360
 8985SOL    HW238415   2.426   0.164   1.216  0.0518 -0.3085 -2.6813
 8986SOL     OW38416   3.565   0.548   7.921  0.6845  0.2087 -0.0698
 8986SOL    HW138417   3.655   0.581   7.917  1.0863 -0.7449  1.0842
 8986SOL    HW238418   3.559   0.496   8.001  0.1812  1.1126  0.4717
 8987SOL     OW38419   3.337   2.682   5.973 -0.4884  0.3011  0.4573
 8987SOL    HW138420   3.320   2.772   5.946  0.8639  1.0842  2.2180
 8987SOL    HW238421   3.334   2.689   6.068 -1.4410 -2.5462  0.6522
 8988SOL     OW38422   0.153   4.236   2.328  0.2028 -0.2067 -0.4209
 8988SOL    HW138423   0.130   4.258   2.238 -0.7392  1.5230  0.2429
 8988SOL    HW238424   0.100   4.300   2.376 -0.7872 -1.2369 -0.1567
 8989SOL     OW38425   3.555   4.278   3.105  0.3706 -0.1308  0.4583
 8989SOL    HW138426   3.484   4.215   3.090  0.9850 -0.7895  0.3198
 8989SOL    HW238427   3.612   4.241   3.038  0.2250  0.1701  0.1658
 8990SOL     OW38428   0.759   4.488   4.672 -0.8126  0.0863 -0.3836
 8990SOL    HW138429   0.820   4.431   4.717  0.1357 -0.1678 -2.0077
 8990SOL    HW238430   0.680   4.436   4.656 -1.0189  0.1403  0.4456
 8991SOL     OW38431   0.281   2.308   6.703 -0.1713 -0.0863  0.2915
 8991SOL    HW138432   0.285   2.214   6.684 -1.7121 -0.1823  0.3797
 8991SOL    HW238433   0.309   2.307   6.794  0.0264  0.0382  0.2314
 8992SOL     OW38434   2.437   0.871   2.218  0.0297 -0.8496  0.7301
 8992SOL    HW138435   2.401   0.958   2.199  0.3622 -1.6763 -3.8188
 8992SOL    HW238436   2.369   0.823   2.265 -0.9555 -0.3399 -0.1829
 8993SOL     OW38437   2.007   4.145   2.497  0.1562  0.7038  0.4920
 8993SOL    HW138438   2.068   4.090   2.447  0.7204  2.6595 -0.9757
 8993SOL    HW238439   1.989   4.087   2.571  1.2606 -0.0557  0.1720
 8994SOL     OW38440   3.893   1.899  12.073 -0.2120  0.0407 -0.5673
 8994SOL    HW138441   3.942   1.971  12.113  0.5748 -0.9523  0.2613
 8994SOL    HW238442   3.954   1.832  12.105 -0.2296  0.6304  0.6976
 8995SOL     OW38443   4.237   1.443   6.229 -0.1438  0.0029 -0.3120
 8995SOL    HW138444   4.169   1.376   6.236  1.0379 -1.1282  0.2908
 8995SOL    HW238445   4.250   1.453   6.135 -1.7205 -3.0961 -0.8415
 8996SOL     OW38446   3.982   3.543   4.417  0.2487  0.2105 -0.3889
 8996SOL    HW138447   4.004   3.625   4.372  0.9446 -0.3649 -1.0993
 8996SOL    HW238448   3.986   3.481   4.345  2.5557 -0.1205  0.0351
 8997SOL     OW38449   4.289   0.615  16.005  0.3893  0.6713  0.5057
 8997SOL    HW138450   4.204   0.586  15.972  0.4721 -0.9553  1.7229
 8997SOL    HW238451   4.289   0.586  16.096  0.0936 -4.7360 -1.1792
 8998SOL     OW38452   1.275   0.604   0.686  0.1771 -0.2347 -0.3177
 8998SOL    HW138453   1.366   0.634   0.686  0.4810 -1.1458  1.6573
 8998SOL    HW238454   1.244   0.652   0.762  2.7007 -1.3868  1.4492
 8999SOL     OW38455   0.073   2.724   0.796 -0.7524  0.4190  0.5970
 8999SOL    HW138456   0.057   2.699   0.887  0.3919  0.1678  0.7299
 8999SOL    HW238457   0.143   2.789   0.800  0.2846 -0.7359  1.5160
 9000SOL     OW38458   0.291   1.153   0.804  0.0837 -0.2277 -0.2477
 9000SOL    HW138459   0.260   1.129   0.891 -0.4639 -0.8561 -0.6155
 9000SOL    HW238460   0.280   1.248   0.811 -0.4586 -0.4813  2.2317
 9001SOL     OW38461   2.020   0.625   2.508 -0.3456 -0.9780  0.2284
 9001SOL    HW138462   2.029   0.585   2.421  0.2542  0.1472 -0.2254
 9001SOL    HW238463   1.972   0.550   2.544 -1.1237 -0.6014 -0.0113
 9002SOL     OW38464   2.310   3.561   4.613 -0.4578 -0.2881  0.1944
 9002SOL    HW138465   2.325   3.480   4.565 -2.6405 -0.5162 -0.1273
 9002SOL    HW238466   2.328   3.531   4.702 -0.6038  0.3275  0.4344
 9003SOL     OW38467   0.772   2.602  11.876  0.2111  0.6332  0.3649
 9003SOL    HW138468   0.833   2.670  11.904 -0.7846  1.1931  1.1684
 9003SOL    HW238469   0.767   2.615  11.781 -0.3917  1.9258  0.5689
 9004SOL     OW38470   1.088   4.605  13.415 -0.1007 -0.4038  0.4247
 9004SOL    HW138471   1.031   4.629  13.488  1.1018  3.0984  0.2127
 9004SOL    HW238472   1.037   4.530  13.386  0.0720  0.1896 -1.4046
 9005SOL     OW38473   0.902   4.439  16.793 -0.3505  0.3819  0.3067
 9005SOL    HW138474   0.926   4.506  16.857  0.0686  0.8893 -0.3923
 9005SOL    HW238475   0.851   4.379  16.847  0.1377  0.9184  1.3648
 9006SOL     OW38476   3.776   4.503   5.498 -0.3125 -0.0018 -0.3255
 9006SOL    HW138477   3.718   4.513   5.423  0.4858 -0.0261 -0.9452
 9006SOL    HW238478   3.854   4.546   5.464 -0.5166  1.2262  0.7814
 9007SOL     OW38479   3.191   0.905   7.018 -0.2139  0.4875 -0.1924
 9007SOL    HW138480   3.108   0.905   7.067  0.2954 -1.0234  0.6626
 9007SOL    HW238481   3.168   0.873   6.931  1.4321  3.2426 -1.6188
 9008SOL     OW38482   2.703   0.446   6.372 -0.1965  0.9694  0.4622
 9008SOL    HW138483   2.788   0.489   6.371 -0.5699  1.6374 -1.9441
 9008SOL    HW238484   2.667   0.484   6.292 -0.2256  3.1760  1.5165
 9009SOL     OW38485   2.253   1.769   2.886 -0.0158  0.0212  0.2176
 9009SOL    HW138486   2.197   1.692   2.898  1.6772 -1.2969 -0.4021
 9009SOL    HW238487   2.198   1.829   2.835 -0.5199  0.8639  1.7437
 9010SOL     OW38488   2.286   0.203   3.581 -0.2066  0.7296 -0.3665
 9010SOL    HW138489   2.258   0.294   3.572  0.6207  1.1000  0.8616
 9010SOL    HW238490   2.377   0.227   3.597  0.5865 -1.8742 -1.0164
 9011SOL     OW38491   3.084   3.532  11.089  0.3831 -0.0400  0.4040
 9011SOL    HW138492   3.170   3.571  11.108  0.2478  0.2126  0.5084
 9011SOL    HW238493   3.054   3.525  11.179  1.1472 -0.3250  0.6336
 9012SOL     OW38494   3.936   4.265   7.365  0.2353  0.2207 -0.2056
 9012SOL    HW138495   3.910   4.355   7.347  1.7164  0.6939  0.0516
 9012SOL    HW238496   3.994   4.237   7.294 -0.2541  0.9003 -0.8773
 9013SOL     OW38497   0.371   3.601  12.507 -0.1062 -0.4733  0.0338
 9013SOL    HW138498   0.301   3.537  12.520  0.4502 -0.3807  3.4990
 9013SOL    HW238499   0.444   3.542  12.488  0.0775 -0.4868  0.7750
 9014SOL     OW38500   2.943   2.417   8.276 -0.1181  0.7558 -0.4479
 9014SOL    HW138501   2.858   2.396   8.237  0.5489 -1.2056 -0.8049
 9014SOL    HW238502   2.994   2.337   8.270  0.0446  0.7020  1.8274
 9015SOL     OW38503   0.051   2.771   4.857  0.7361  0.5625  0.1579
 9015SOL    HW138504   0.109   2.847   4.860  0.7078  0.5469  0.9538
 9015SOL    HW238505   4.705   2.790   4.789  0.8655 -0.2025 -0.1788
 9016SOL     OW38506   4.175   4.046  13.990  0.6179 -0.0252  0.1351
 9016SOL    HW138507   4.254   4.100  13.987  1.1310 -0.9132 -2.1946
 9016SOL    HW238508   4.162   4.031  13.896  1.8862 -0.9447  0.1129
 9017SOL     OW38509   0.476   1.750  16.580  0.1422 -0.1875 -0.0814
 9017SOL    HW138510   0.389   1.758  16.618 -0.3821 -0.2892 -1.2850
 9017SOL    HW238511   0.503   1.661  16.605 -1.2689 -0.2765  1.1411
 9018SOL     OW38512   1.859   4.323   4.673 -0.0550  0.0374  0.2464
 9018SOL    HW138513   1.810   4.385   4.726  1.3237 -1.0008  2.7456
 9018SOL    HW238514   1.850   4.377   4.594  0.1141 -0.3479 -0.0361
 9019SOL     OW38515   1.220   2.340   2.737 -0.1762  0.1497 -0.2858
 9019SOL    HW138516   1.135   2.379   2.760 -0.0871  0.0975  0.1172
 9019SOL    HW238517   1.238   2.278   2.808  0.7894  1.6427  0.7552
 9020SOL     OW38518   2.218   0.748   3.852 -0.1903 -0.2661 -0.4715
 9020SOL    HW138519   2.132   0.724   3.887  0.8623 -2.0264  0.8838
 9020SOL    HW238520   2.253   0.661   3.835  1.0224  0.2321 -0.5173
 9021SOL     OW38521   0.720   3.785  13.751 -0.0902  0.1141  0.4822
 9021SOL    HW138522   0.632   3.754  13.731 -0.7744  0.9595  2.2429
 9021SOL    HW238523   0.726   3.875  13.718  3.2326  0.3601  1.7840
 9022SOL     OW38524   2.178   1.645   4.307  0.0502  0.0157  0.3604
 9022SOL    HW138525   2.088   1.668   4.329  0.0927  1.3997 -0.9728
 9022SOL    HW238526   2.183   1.685   4.221  1.1839  0.7787  0.7931
 9023SOL     OW38527   0.101   3.882   4.176  0.0596 -0.0194  0.2438
 9023SOL    HW138528   0.115   3.787   4.182  1.8217  0.3734  1.9966
 9023SOL    HW238529   0.114   3.913   4.265  1.9973  1.5909 -0.5886
 9024SOL     OW38530   4.009   3.307   2.172  0.3079 -0.0707 -0.5918
 9024SOL    HW138531   4.102   3.319   2.150  0.4430 -0.7394 -0.3760
 9024SOL    HW238532   4.010   3.324   2.266  0.0642 -0.3678 -0.5386
 9025SOL     OW38533   3.478   0.677   0.189  0.3223 -0.4767 -0.3086
 9025SOL    HW138534   3.559   0.711   0.151 -0.1481 -0.3027 -1.1447
 9025SOL    HW238535   3.422   0.718   0.124 -0.0957  0.0437  0.3712
 9026SOL     OW38536   0.498   3.319   5.104 -0.1057  0.1227 -0.0348
 9026SOL    HW138537   0.584   3.351   5.076  1.9826 -2.4447  3.4443
 9026SOL    HW238538   0.440   3.395   5.112 -1.2592 -0.4848 -2.6702
 9027SOL     OW38539   0.521   0.704   4.227  0.2257  0.5077 -0.3249
 9027SOL    HW138540   0.502   0.644   4.299  0.0733 -0.3866 -1.1013
 9027SOL    HW238541   0.511   0.789   4.270 -2.5241  0.3057 -0.5072
 9028SOL     OW38542   4.075   4.167   3.350 -0.8894 -0.0411  0.7953
 9028SOL    HW138543   4.026   4.242   3.316  1.5242  0.8981 -0.6791
 9028SOL    HW238544   4.140   4.227   3.389 -0.2389 -0.5813  0.5408
 9029SOL     OW38545   0.546   0.036   7.304 -0.2839 -0.1023  0.0972
 9029SOL    HW138546   0.547   4.685   7.368 -0.3464  0.6930  0.9740
 9029SOL    HW238547   0.619   0.002   7.252 -1.1493 -1.2601 -0.3423
 9030SOL     OW38548   3.098   4.484   6.955 -0.3441 -0.3023  0.4965
 9030SOL    HW138549   3.140   4.446   6.878 -0.5255 -1.8247  1.1631
 9030SOL    HW238550   3.062   4.402   6.989 -2.3235  0.2306 -0.3416
 9031SOL     OW38551   0.191   0.152   1.198  0.2460  0.4688  0.3083
 9031SOL    HW138552   0.110   0.194   1.169  0.7811  0.8172 -0.6861
 9031SOL    HW238553   0.193   0.198   1.282  1.5266  0.5670  0.2232
 9032SOL     OW38554   3.047   3.052  11.026  0.9738  0.4321 -0.0902
 9032SOL    HW138555   3.094   3.114  10.970 -0.2999 -1.7050 -3.5177
 9032SOL    HW238556   3.090   2.968  11.010  2.3167  1.2627 -0.8044
 9033SOL     OW38557   4.571   0.779  12.970  0.1388  0.5015 -0.0722
 9033SOL    HW138558   4.485   0.754  13.003  0.3525  0.3703  0.3901
 9033SOL    HW238559   4.586   0.727  12.891  2.3272  1.9471 -0.6212
 9034SOL     OW38560   2.414   1.621  13.847  0.3462  0.1772  0.1236
 9034SOL    HW138561   2.342   1.683  13.835  0.3186  0.2904  0.8792
 9034SOL    HW238562   2.426   1.634  13.941  0.9824 -0.5489  0.1411
 9035SOL     OW38563   4.479   1.265  14.055 -0.5741  0.0383 -0.0383
 9035SOL    HW138564   4.445   1.186  14.014 -0.0775 -0.4523  0.5001
 9035SOL    HW238565   4.497   1.230  14.142  0.9876 -0.3749 -0.5277
 9036SOL     OW38566   2.276   0.220  14.785 -0.3556 -0.6037  0.2812
 9036SOL    HW138567   2.290   0.255  14.873 -0.6305 -1.4281  0.6486
 9036SOL    HW238568   2.284   0.127  14.807  1.2346  0.2837  3.4839
 9037SOL     OW38569   0.312   3.811  16.430 -0.2786  0.6170 -0.1876
 9037SOL    HW138570   0.350   3.872  16.366 -0.0982  0.2428 -0.4353
 9037SOL    HW238571   0.225   3.847  16.449 -1.6644 -1.4587 -2.4600
 9038SOL     OW38572   0.986   3.098   5.975 -0.0964 -0.6138  0.6505
 9038SOL    HW138573   0.906   3.066   6.017 -0.5571 -0.8410 -0.4122
 9038SOL    HW238574   1.016   3.160   6.042  2.2193  0.6498 -1.5416
 9039SOL     OW38575   0.760   2.081   2.825 -0.0180 -0.7418 -0.7328
 9039SOL    HW138576   0.752   2.153   2.762  0.6984  1.7588  2.0183
 9039SOL    HW238577   0.674   2.080   2.868 -0.8896  0.8005 -2.4614
 9040SOL     OW38578   3.056   3.011   3.453  0.1308 -0.1853 -0.0186
 9040SOL    HW138579   3.032   2.921   3.477 -1.7970  0.4657  0.4962
 9040SOL    HW238580   3.131   3.013   3.513 -1.3336 -3.6591  1.9508
 9041SOL     OW38581   3.943   0.495   0.642  0.1316  0.0035 -0.2557
 9041SOL    HW138582   3.880   0.559   0.674  0.0042 -0.0940 -0.3119
 9041SOL    HW238583   3.905   0.482   0.555  1.9276 -0.5147 -0.9747
 9042SOL     OW38584   0.503   2.658  10.968 -0.1155 -0.2267  0.0798
 9042SOL    HW138585   0.434   2.610  10.921 -0.1008 -0.1621 -0.0072
 9042SOL    HW238586   0.580   2.634  10.917  1.1872 -0.9597  2.4192
 9043SOL     OW38587   4.252   0.477   4.853 -0.1242 -0.7249 -0.0235
 9043SOL    HW138588   4.334   0.460   4.806 -0.7488 -0.5821 -1.1550
 9043SOL    HW238589   4.268   0.538   4.925  0.1800 -1.9768  0.9850
 9044SOL     OW38590   4.454   0.695   8.163  0.3201  0.3758 -0.3137
 9044SOL    HW138591   4.362   0.688   8.190  0.4726 -2.2264 -0.5228
 9044SOL    HW238592   4.503   0.618   8.190 -1.4870 -0.5721  0.3047
 9045SOL     OW38593   0.246   2.507   7.183 -0.1714  0.3609 -0.2556
 9045SOL    HW138594   0.181   2.501   7.114 -1.4536  0.9942  0.9027
 9045SOL    HW238595   0.322   2.499   7.125  0.2443  1.2720  0.1555
 9046SOL     OW38596   0.673   4.509   2.086 -0.1326  0.2621  0.4958
 9046SOL    HW138597   0.713   4.570   2.024 -0.3109 -0.4815 -0.3587
 9046SOL    HW238598   0.591   4.474   2.048  0.5584  1.1209 -1.7960
 9047SOL     OW38599   2.911   3.137  12.021  0.4130  0.2828  0.3797
 9047SOL    HW138600   2.842   3.088  12.065  0.4287  1.9432  2.2772
 9047SOL    HW238601   2.892   3.117  11.929  1.6499 -0.1063  0.2009
 9048SOL     OW38602   1.983   0.299   2.830 -0.4576  0.8103  0.1792
 9048SOL    HW138603   1.926   0.222   2.820 -0.9001  1.1474  0.1042
 9048SOL    HW238604   1.958   0.354   2.757  0.4013 -0.1886 -0.8721
 9049SOL     OW38605   4.399   0.880  14.148  0.0154 -0.1884  0.3556
 9049SOL    HW138606   4.397   0.933  14.227 -0.5214 -1.6013  1.2942
 9049SOL    HW238607   4.474   0.823  14.167  0.0948  0.0302  0.7009
 9050SOL     OW38608   4.100   1.576   0.159  0.3078  0.2548  0.1775
 9050SOL    HW138609   4.062   1.531   0.084  2.1812  1.7934 -1.6892
 9050SOL    HW238610   4.158   1.641   0.120  0.0418  0.1177 -0.4431
 9051SOL     OW38611   4.560   3.203   6.735  0.0160  0.6848 -0.3651
 9051SOL    HW138612   4.654   3.196   6.752 -0.2220  2.4047  1.5778
 9051SOL    HW238613   4.523   3.255   6.806 -0.4518 -0.4225  0.2023
 9052SOL     OW38614   3.316   3.111   6.289 -0.1021 -0.2615  0.1724
 9052SOL    HW138615   3.235   3.106   6.340 -1.1753 -1.7209 -1.6630
 9052SOL    HW238616   3.364   3.142   6.365 -0.8450  0.4856  0.3254
 9053SOL     OW38617   4.288   4.640   8.189  0.1956  0.0557 -0.4017
 9053SOL    HW138618   4.213   4.605   8.140 -0.6100 -0.7477  1.4069
 9053SOL    HW238619   4.250   4.640   8.277 -0.3824 -0.4269 -0.6536
 9054SOL     OW38620   2.174   0.720   6.048  0.0395  0.5129  0.6703
 9054SOL    HW138621   2.124   0.663   6.106 -0.3417  2.1540  1.9547
 9054SOL    HW238622   2.125   0.713   5.965  0.9873  0.7042  0.0985
 9055SOL     OW38623   2.576   2.759  11.978  0.1773 -0.0031  0.0475
 9055SOL    HW138624   2.580   2.695  11.907 -1.6739  1.0809 -1.0176
 9055SOL    HW238625   2.528   2.714  12.048 -0.3637 -0.4794 -0.6325
 9056SOL     OW38626   2.030   1.525  12.385 -0.0301 -0.3629  0.6155
 9056SOL    HW138627   2.026   1.614  12.351 -0.1851 -2.0256 -3.7154
 9056SOL    HW238628   2.108   1.525  12.441 -1.8066 -0.5547  3.0940
 9057SOL     OW38629   4.640   4.563  12.484 -0.0423  0.3738 -0.0138
 9057SOL    HW138630   4.703   4.629  12.455  1.3719 -0.9459  0.0415
 9057SOL    HW238631   4.697   4.493  12.453  0.8825  0.9788  0.3063
 9058SOL     OW38632   2.259   0.728   1.924 -0.3572 -0.0311  0.5999
 9058SOL    HW138633   2.220   0.695   1.843  0.2840 -0.6488  0.5454
 9058SOL    HW238634   2.256   0.659   1.990  0.4483 -1.5622 -0.9722
 9059SOL     OW38635   2.361   3.605   3.935  0.6826  0.2600 -0.5752
 9059SOL    HW138636   2.413   3.607   4.015  0.4273 -0.3050 -0.3976
 9059SOL    HW238637   2.332   3.514   3.927  3.4660 -0.5659 -1.0131
 9060SOL     OW38638   1.994   4.278   1.701  0.3777  0.2906 -0.0624
 9060SOL    HW138639   2.008   4.373   1.699 -0.4999  0.4069 -0.8076
 9060SOL    HW238640   1.920   4.261   1.759  1.3015 -2.7170  0.2422
 9061SOL     OW38641   0.706   4.168   3.598 -0.3218 -0.3144  0.5806
 9061SOL    HW138642   0.747   4.235   3.543 -1.6472 -0.7677 -0.9654
 9061SOL    HW238643   0.663   4.115   3.531  0.5586 -2.2739  1.5802
 9062SOL     OW38644   0.636   2.231   6.255 -0.0698 -0.1877 -0.1473
 9062SOL    HW138645   0.597   2.152   6.292  2.1952 -1.3611 -0.2421
 9062SOL    HW238646   0.729   2.207   6.246  0.8649  2.5215  2.4158
 9063SOL     OW38647   0.726   3.440   5.918 -0.3364 -0.2841  0.6764
 9063SOL    HW138648   0.724   3.400   6.005  2.3748  0.1714  0.9304
 9063SOL    HW238649   0.820   3.433   5.901 -0.4429 -1.1899  0.4406
 9064SOL     OW38650   0.655   1.072   1.065 -0.0277 -0.3041 -0.3272
 9064SOL    HW138651   0.652   1.064   0.969  3.1311 -1.7729 -0.3231
 9064SOL    HW238652   0.565   1.063   1.094  0.5812  0.0309  1.6340
 9065SOL     OW38653   2.621   4.657   6.368  0.6190  0.0970 -0.3548
 9065SOL    HW138654   2.538   4.630   6.328 -0.3022  2.4427 -0.0353
 9065SOL    HW238655   2.625   0.016   6.314 -1.3063 -0.6035 -1.4980
 9066SOL     OW38656   0.264   1.315   6.378  0.1023 -0.5637 -0.1065
 9066SOL    HW138657   0.330   1.248   6.394  2.3780  1.4335 -1.2454
 9066SOL    HW238658   0.195   1.272   6.429 -0.7665  0.9772 -0.0005
 9067SOL     OW38659   3.312   1.379   5.136  0.0704  0.0095 -1.1727
 9067SOL    HW138660   3.224   1.410   5.157  0.0962  0.4048 -1.6587
 9067SOL    HW238661   3.319   1.316   5.208 -1.5783  0.5157 -0.5763
 9068SOL     OW38662   0.760   3.010  16.372 -0.9753 -0.0533 -0.0708
 9068SOL    HW138663   0.696   3.030  16.440 -1.0144 -1.2008  0.2280
 9068SOL    HW238664   0.790   2.925  16.402 -0.7320  0.2694  0.5920
 9069SOL     OW38665   2.216   3.713   2.577 -0.2870 -0.5195 -0.1458
 9069SOL    HW138666   2.171   3.689   2.496 -2.1428  0.8428  0.4676
 9069SOL    HW238667   2.153   3.692   2.647  1.1253 -4.3964 -0.0210
 9070SOL     OW38668   3.811   0.709   8.336  0.5962 -0.2668 -0.4148
 9070SOL    HW138669   3.822   0.616   8.318 -3.0394 -0.4715 -1.5972
 9070SOL    HW238670   3.731   0.713   8.283 -0.1536  0.0549  0.7278
 9071SOL     OW38671   3.027   1.706   0.915  0.3701  0.0013 -0.8674
 9071SOL    HW138672   3.002   1.624   0.958  3.8566 -0.9597 -0.6916
 9071SOL    HW238673   3.071   1.751   0.987  2.9346 -2.4023 -0.9277
 9072SOL     OW38674   1.093   0.774   4.392 -0.0551  0.5812 -0.0392
 9072SOL    HW138675   1.165   0.737   4.444 -1.4921  2.9148  3.5820
 9072SOL    HW238676   1.058   0.694   4.352 -0.5541  1.4613 -1.3524
 9073SOL     OW38677   2.805   1.856   2.936 -0.0748 -0.2291 -0.0894
 9073SOL    HW138678   2.811   1.934   2.881 -0.3487 -1.6800 -2.1402
 9073SOL    HW238679   2.710   1.851   2.934 -0.0930 -0.9489  2.4217
 9074SOL     OW38680   3.960   3.387   7.820  0.2673 -0.0238 -0.7118
 9074SOL    HW138681   3.969   3.348   7.733 -0.2241  1.8921 -1.6377
 9074SOL    HW238682   3.958   3.482   7.807 -0.8775 -0.2415 -2.0762
 9075SOL     OW38683   0.192   3.874  11.841  0.6262 -0.1944  0.2613
 9075SOL    HW138684   0.233   3.836  11.919 -1.7178  1.6219  2.3509
 9075SOL    HW238685   0.171   3.795  11.790 -3.1293  1.3317 -0.5435
 9076SOL     OW38686   3.200   4.234   4.687  0.5535 -0.3437 -0.1610
 9076SOL    HW138687   3.117   4.271   4.659  0.1667 -0.3532  0.9611
 9076SOL    HW238688   3.200   4.242   4.782  1.6981  1.4523 -0.3208
 9077SOL     OW38689   0.908   0.825   7.072  0.0881  0.0037  0.3995
 9077SOL    HW138690   0.997   0.803   7.044 -0.3312 -0.1512 -0.7812
 9077SOL    HW238691   0.931   0.837   7.164 -0.5330  1.2004  0.4062
 9078SOL     OW38692   3.065   4.156   7.642 -0.6575 -0.2269 -0.0664
 9078SOL    HW138693   3.010   4.087   7.605 -1.3042  1.0412 -1.4848
 9078SOL    HW238694   3.140   4.101   7.665  0.4689  1.0280 -0.6935
 9079SOL     OW38695   0.646   2.297   9.138 -0.1625 -0.2261  0.2227
 9079SOL    HW138696   0.576   2.238   9.166  0.6661 -0.3624  1.9947
 9079SOL    HW238697   0.599   2.368   9.094  2.4729  0.4009 -1.5588
 9080SOL     OW38698   2.521   2.848  16.659  0.2647 -0.1833 -0.3057
 9080SOL    HW138699   2.502   2.941  16.642 -0.9410 -0.2580  0.6317
 9080SOL    HW238700   2.609   2.862  16.694 -1.6979  2.0571  3.8875
 9081SOL     OW38701   2.068   2.753   6.847  0.2290 -0.6790  0.2476
 9081SOL    HW138702   1.997   2.688   6.847 -0.3603 -0.0367  2.2065
 9081SOL    HW238703   2.067   2.774   6.753  2.2002  0.7539  0.5619
 9082SOL     OW38704   2.907   3.200   6.874 -0.2085 -0.0303  0.2265
 9082SOL    HW138705   2.812   3.210   6.862 -0.4583 -3.4864 -0.7074
 9082SOL    HW238706   2.921   3.121   6.926 -0.2667 -1.3513 -1.7917
 9083SOL     OW38707   0.293   0.349   8.154 -0.0974 -0.3396  0.4638
 9083SOL    HW138708   0.317   0.410   8.223  0.3168  0.4775 -0.4124
 9083SOL    HW238709   0.371   0.355   8.100  0.1633 -3.2620  0.4937
 9084SOL     OW38710   4.083   3.690   7.044  0.6005  0.7065 -0.3716
 9084SOL    HW138711   4.079   3.625   6.975  0.7443 -0.8863  1.1217
 9084SOL    HW238712   4.052   3.772   7.005 -1.9748  1.0766  2.4197
 9085SOL     OW38713   0.627   0.716  12.557  0.4249  0.0726  0.2239
 9085SOL    HW138714   0.667   0.802  12.544  0.0285  0.1231 -0.6458
 9085SOL    HW238715   0.675   0.656  12.499 -0.7118 -0.6080 -0.0112
 9086SOL     OW38716   0.499   3.042   4.437 -0.2328 -0.0470 -0.2182
 9086SOL    HW138717   0.430   3.062   4.374  0.4254 -2.5967 -1.7117
 9086SOL    HW238718   0.513   2.949   4.423 -0.3518 -0.4829  2.5825
 9087SOL     OW38719   1.852   3.836   6.073  0.5185 -0.8796 -0.0973
 9087SOL    HW138720   1.828   3.753   6.031 -1.9089  0.0058 -0.5086
 9087SOL    HW238721   1.942   3.843   6.043 -0.3477 -3.1159 -3.1824
 9088SOL     OW38722   0.600   2.875  13.059 -0.2134  0.4748 -0.0829
 9088SOL    HW138723   0.509   2.902  13.051 -0.2572  0.8104  1.4854
 9088SOL    HW238724   0.625   2.967  13.071  1.1101 -0.0389  1.1247
 9089SOL     OW38725   0.860   1.247   6.735 -0.4904 -0.0631  0.2189
 9089SOL    HW138726   0.888   1.325   6.783  0.0044 -1.9428  2.9611
 9089SOL    HW238727   0.926   1.181   6.751 -0.2797  0.1137  0.0824
 9090SOL     OW38728   0.720   2.392   1.196 -0.3014  0.9538 -0.2954
 9090SOL    HW138729   0.764   2.409   1.279  1.1945 -2.9686 -0.2890
 9090SOL    HW238730   0.630   2.407   1.226  0.1898 -0.5539  1.8821
 9091SOL     OW38731   0.196   3.467   3.179  0.0999 -0.1353  0.2309
 9091SOL    HW138732   0.291   3.472   3.168 -0.2256  0.0275 -2.6265
 9091SOL    HW238733   0.182   3.414   3.257 -3.1342 -0.7149 -0.7355
 9092SOL     OW38734   4.015   3.549  16.830  0.3585 -0.8234  0.1315
 9092SOL    HW138735   4.028   3.458  16.805 -0.1307 -1.1402  1.0118
 9092SOL    HW238736   4.077   3.554  16.904  1.2013  1.5929 -0.7261
 9093SOL     OW38737   1.459   0.419   4.127 -0.1885 -0.7087 -0.2250
 9093SOL    HW138738   1.429   0.445   4.040 -2.0659  0.0284  0.6500
 9093SOL    HW238739   1.525   0.486   4.143 -1.0414  0.2760 -0.8345
 9094SOL     OW38740   4.255   1.219   5.652  0.1692  0.3802 -0.1516
 9094SOL    HW138741   4.258   1.149   5.718  1.0047  1.3436  0.8371
 9094SOL    HW238742   4.216   1.294   5.696  1.3685  0.6621  0.4394
 9095SOL     OW38743   4.683   1.512   4.817 -0.2310 -0.5421  0.4526
 9095SOL    HW138744   4.629   1.467   4.881 -0.9491 -1.6561 -0.9349
 9095SOL    HW238745   4.619   1.538   4.752  1.7347  0.5614 -1.0586
 9096SOL     OW38746   2.037   2.735  17.523 -0.2702 -0.3080 -0.1020
 9096SOL    HW138747   2.007   2.826  17.515  1.4554  0.3799  1.3365
 9096SOL    HW238748   1.995   2.699  17.601  1.0051 -0.5779  0.4490
 9097SOL     OW38749   2.155   2.587   6.318 -0.4533  0.5925  0.5459
 9097SOL    HW138750   2.231   2.538   6.288 -0.2227  0.3550  1.5099
 9097SOL    HW238751   2.154   2.566   6.411 -0.5602 -1.5294  0.0599
 9098SOL     OW38752   2.615   4.389  16.142  0.0660  0.1709 -0.1272
 9098SOL    HW138753   2.707   4.412  16.153  0.4381 -1.6601  0.6557
 9098SOL    HW238754   2.582   4.394  16.232 -1.9031  0.6105 -0.8810
 9099SOL     OW38755   4.062   2.869   3.277  0.2965 -0.2823  0.6904
 9099SOL    HW138756   4.045   2.935   3.344 -2.0719  1.3154 -1.4681
 9099SOL    HW238757   4.057   2.927   3.201 -1.6767  1.4874  2.1980
 9100SOL     OW38758   1.279   2.398   6.881 -0.4191 -0.1466 -0.0579
 9100SOL    HW138759   1.297   2.447   6.801  1.0266  1.5222  1.2718
 9100SOL    HW238760   1.198   2.437   6.913  0.6761  0.5552  1.8383
 9101SOL     OW38761   0.803   0.342   5.945  0.6148 -0.4459 -0.6660
 9101SOL    HW138762   0.850   0.274   5.992 -0.0254 -2.7259 -3.3374
 9101SOL    HW238763   0.715   0.309   5.927  0.3611 -0.0709 -0.0821
 9102SOL     OW38764   3.535   1.728   9.891  0.7422  0.9737  0.0566
 9102SOL    HW138765   3.456   1.729   9.944  0.8842  1.5368  0.2566
 9102SOL    HW238766   3.604   1.751   9.953 -0.9619  0.4660  2.1536
 9103SOL     OW38767   2.158   3.676  11.901  0.1851  0.8705 -0.3453
 9103SOL    HW138768   2.091   3.677  11.833 -1.4598 -1.1854  1.2480
 9103SOL    HW238769   2.183   3.586  11.919 -0.1090  0.9717  0.6171
 9104SOL     OW38770   1.463   1.081   6.233 -0.2518 -0.0108  0.2556
 9104SOL    HW138771   1.462   1.079   6.329  0.9134  1.1878  0.2878
 9104SOL    HW238772   1.549   1.111   6.205  0.1734  0.7996  2.4213
 9105SOL     OW38773   4.294   3.136   4.715 -0.3525 -0.3513 -0.1156
 9105SOL    HW138774   4.373   3.125   4.661  1.6478  0.0952  2.7278
 9105SOL    HW238775   4.327   3.180   4.793  1.9597 -0.7008 -0.8827
 9106SOL     OW38776   1.547   2.448   2.643 -0.4588  0.2384 -0.2371
 9106SOL    HW138777   1.529   2.530   2.598 -0.6129  0.5910  0.4697
 9106SOL    HW238778   1.607   2.474   2.713  0.3944 -0.1775 -0.8123
 9107SOL     OW38779   3.838   2.439   3.162 -0.0352 -0.3480  0.1997
 9107SOL    HW138780   3.880   2.420   3.078 -0.1587 -0.0549  0.0722
 9107SOL    HW238781   3.744   2.440   3.140 -0.0167  0.9120  0.1847
 9108SOL     OW38782   0.222   3.453   2.464 -0.1934 -0.0204  0.4744
 9108SOL    HW138783   0.277   3.375   2.464 -1.2904 -0.7908  1.4894
 9108SOL    HW238784   0.142   3.414   2.430  0.6580  1.2139 -2.9022
 9109SOL     OW38785   3.524   1.270   6.112  0.0978 -0.4244  0.2394
 9109SOL    HW138786   3.475   1.317   6.179 -0.6936 -1.3518  0.3097
 9109SOL    HW238787   3.579   1.344   6.088 -1.8106  0.7688 -0.4902
 9110SOL     OW38788   3.452   2.474   8.311 -0.0517  0.1879 -1.0381
 9110SOL    HW138789   3.495   2.460   8.395 -1.0233 -1.1444 -0.7611
 9110SOL    HW238790   3.467   2.569   8.306  1.6056 -0.0493 -0.5083
 9111SOL     OW38791   3.218   0.130  10.885 -0.0133  0.4085 -0.1477
 9111SOL    HW138792   3.282   0.159  10.950  0.6829  3.9098 -2.3789
 9111SOL    HW238793   3.274   0.095  10.816 -0.2087 -0.4318  0.1244
 9112SOL     OW38794   3.446   2.825   7.148 -0.0850  0.3050  0.6334
 9112SOL    HW138795   3.464   2.916   7.172  0.4206  0.2272  0.5495
 9112SOL    HW238796   3.353   2.821   7.169 -0.3956  1.2236 -0.5806
 9113SOL     OW38797   3.136   1.856   8.260  0.4954 -0.0348 -0.0760
 9113SOL    HW138798   3.208   1.833   8.201 -1.2930 -0.8405 -1.9174
 9113SOL    HW238799   3.174   1.906   8.332  0.5143 -1.2535  0.7596
 9114SOL     OW38800   0.037   3.116  16.722 -0.4397 -0.0372 -0.3528
 9114SOL    HW138801   0.091   3.170  16.664  1.1001 -0.4819  0.6957
 9114SOL    HW238802   4.671   3.105  16.680  0.1445 -0.0225 -1.5415
 9115SOL     OW38803   1.263   2.244   8.720 -0.3696  0.4380  0.1650
 9115SOL    HW138804   1.208   2.170   8.745  0.6954 -0.0260  1.1144
 9115SOL    HW238805   1.323   2.262   8.792 -2.2282 -1.8837  2.2807
 9116SOL     OW38806   2.635   3.274  12.195 -0.4101  0.1108  0.5698
 9116SOL    HW138807   2.660   3.186  12.166 -0.0030 -0.4157  2.5197
 9116SOL    HW238808   2.703   3.331  12.160  1.3041 -1.9327  0.5903
 9117SOL     OW38809   2.282   0.360   6.005 -0.2663 -0.1156  0.1616
 9117SOL    HW138810   2.269   0.428   6.072  0.2824 -1.3499  1.5219
 9117SOL    HW238811   2.209   0.301   6.020 -0.8115  1.3269  3.2526
 9118SOL     OW38812   1.880   0.825   1.942 -0.3804  0.3340  0.5354
 9118SOL    HW138813   1.837   0.867   1.869  2.0886  1.5662 -0.2220
 9118SOL    HW238814   1.826   0.867   2.009 -2.6772  0.8107 -1.6321
 9119SOL     OW38815   4.302   1.131  13.496  0.4671  0.3224  0.4315
 9119SOL    HW138816   4.319   1.142  13.589  0.2057 -3.2797  0.9226
 9119SOL    HW238817   4.384   1.163  13.458 -1.0434  1.7555 -1.6150
 9120SOL     OW38818   2.030   3.193  16.608 -0.6599  0.0994 -0.5539
 9120SOL    HW138819   2.085   3.150  16.542 -0.3847 -1.2116  0.5425
 9120SOL    HW238820   2.091   3.220  16.676  0.3767 -0.2317 -1.3526
 9121SOL     OW38821   0.833   1.390   4.652 -0.4537 -0.4694  0.3526
 9121SOL    HW138822   0.805   1.314   4.703 -1.8885  1.0002  1.7531
 9121SOL    HW238823   0.926   1.367   4.650 -0.7118 -1.4873  0.2367
 9122SOL     OW38824   0.401   4.621   4.596  0.0927  0.4590  0.1970
 9122SOL    HW138825   0.480   4.674   4.583 -0.9168  2.0397  0.4809
 9122SOL    HW238826   0.438   4.533   4.600  0.2735  0.4819 -1.0702
 9123SOL     OW38827   0.732   1.954  15.184  0.1458 -0.0737  0.5379
 9123SOL    HW138828   0.794   2.023  15.159  2.2096 -1.6683  1.1901
 9123SOL    HW238829   0.679   2.003  15.247  0.2604  0.9108 -0.1312
 9124SOL     OW38830   1.574   0.611   0.486 -0.2218 -0.1284  0.4664
 9124SOL    HW138831   1.536   0.696   0.507  1.0543  1.2161 -2.6306
 9124SOL    HW238832   1.612   0.591   0.571 -0.7164  1.2619  1.0152
 9125SOL     OW38833   2.849   3.933  12.003  0.2378  0.5464  0.1485
 9125SOL    HW138834   2.905   3.869  12.047 -1.0655  0.2078  1.3329
 9125SOL    HW238835   2.880   3.925  11.913  0.0895  1.3623  0.0255
 9126SOL     OW38836   4.016   3.738  11.945 -0.1304 -0.2805 -0.3449
 9126SOL    HW138837   4.022   3.832  11.928 -0.1862  0.0066  1.1785
 9126SOL    HW238838   3.927   3.730  11.911  0.3774  0.6075 -1.8712
 9127SOL     OW38839   2.198   2.913   5.973 -0.3116  0.7249  0.8716
 9127SOL    HW138840   2.208   2.991   5.919  0.3767  0.4400  0.5801
 9127SOL    HW238841   2.227   2.841   5.917 -3.3737  0.9974 -1.0505
 9128SOL     OW38842   4.289   1.601   8.135  0.1925  0.3049 -0.2071
 9128SOL    HW138843   4.359   1.664   8.116  0.3257 -0.1390 -1.1658
 9128SOL    HW238844   4.304   1.530   8.073 -2.6917 -1.7023  1.3542
 9129SOL     OW38845   0.886   4.475   0.086 -0.3264  0.5981  0.0568
 9129SOL    HW138846   0.889   4.448  17.676  0.9349 -0.5007  0.4129
 9129SOL    HW238847   0.911   4.567   0.080  0.2766  0.4903  0.9176
 9130SOL     OW38848   3.154   2.548   5.813  0.3086 -0.1089 -0.6022
 9130SOL    HW138849   3.178   2.518   5.725  2.0265 -0.3225 -0.0623
 9130SOL    HW238850   3.218   2.612   5.843  0.2562 -0.5655  0.4838
 9131SOL     OW38851   2.035   1.267   6.678 -0.2260 -0.0091  0.1703
 9131SOL    HW138852   2.027   1.358   6.649  3.2084  0.0811 -0.4318
 9131SOL    HW238853   1.965   1.225   6.628 -0.4438  1.4896 -0.8105
 9132SOL     OW38854   1.441   3.148  17.405 -0.0638  0.3377 -0.1862
 9132SOL    HW138855   1.423   3.104  17.321  0.4239  0.3357 -0.2891
 9132SOL    HW238856   1.494   3.080  17.446 -1.1713  0.5183  1.5614
 9133SOL     OW38857   4.499   3.999   7.391  0.4497  0.4438  0.5247
 9133SOL    HW138858   4.561   3.939   7.350 -1.6476 -2.3266  1.4396
 9133SOL    HW238859   4.550   4.080   7.387  1.3866 -0.1679  0.0289
 9134SOL     OW38860   0.238   2.461  15.214 -0.4557  0.1621  0.2408
 9134SOL    HW138861   0.200   2.533  15.265 -0.6445 -1.5733  2.5416
 9134SOL    HW238862   0.213   2.387  15.269 -2.9547  1.0565  0.3182
 9135SOL     OW38863   2.454   3.991  11.818  0.4907  0.2375 -0.3510
 9135SOL    HW138864   2.405   3.958  11.893  0.3266 -1.7116 -1.3151
 9135SOL    HW238865   2.530   4.034  11.858 -0.1690 -0.0460  1.1868
 9136SOL     OW38866   0.477   1.105   3.174 -0.1548  0.1940 -0.5605
 9136SOL    HW138867   0.394   1.076   3.137 -0.6253  1.2043 -0.3150
 9136SOL    HW238868   0.452   1.197   3.184  0.9086  0.5192 -0.9294
 9137SOL     OW38869   2.789   1.433   6.945  0.1828 -0.2617 -0.4066
 9137SOL    HW138870   2.733   1.379   6.889  0.5135 -0.6023 -0.4089
 9137SOL    HW238871   2.829   1.365   6.999 -2.1401 -1.9251 -0.7870
 9138SOL     OW38872   0.964   4.697   6.883 -0.2605  0.2912 -0.0685
 9138SOL    HW138873   0.998   4.627   6.827  0.7342 -0.5519  1.6037
 9138SOL    HW238874   1.041   0.020   6.919 -0.5920 -0.5097  1.5791
 9139SOL     OW38875   1.425   1.438   4.437  0.1302 -0.5485 -0.1907
 9139SOL    HW138876   1.511   1.441   4.395  0.3085 -0.5488  0.1718
 9139SOL    HW238877   1.447   1.426   4.530 -2.7746 -0.5314  0.5068
 9140SOL     OW38878   2.283   2.779  13.910 -0.2138 -0.3667 -0.3040
 9140SOL    HW138879   2.356   2.721  13.886  1.7880  1.2010  1.9860
 9140SOL    HW238880   2.229   2.746  13.838  0.8998  0.4927 -1.5542
 9141SOL     OW38881   0.993   0.574   4.257  0.1966  0.0902  0.1896
 9141SOL    HW138882   0.939   0.629   4.200 -1.0257  1.0507  2.2607
 9141SOL    HW238883   0.928   0.510   4.287 -0.2232  0.5823  0.3431
 9142SOL     OW38884   3.636   1.727   4.999 -0.1422 -0.0245  0.2525
 9142SOL    HW138885   3.570   1.758   5.061  0.6098 -1.1155  1.5899
 9142SOL    HW238886   3.597   1.643   4.975 -2.1073  0.4991  1.5930
 9143SOL     OW38887   0.962   4.109   3.223 -0.2314 -0.0799 -0.2557
 9143SOL    HW138888   0.929   4.060   3.147  2.3269  0.3531 -1.6395
 9143SOL    HW238889   0.942   4.195   3.186 -2.1809  0.8816  3.0865
 9144SOL     OW38890   1.816   3.845  11.465 -0.0823 -0.2675  0.2045
 9144SOL    HW138891   1.889   3.803  11.419 -0.0042 -1.4869  1.4308
 9144SOL    HW238892   1.797   3.922  11.412  0.1412 -0.2602  0.1345
 9145SOL     OW38893   0.552   1.643   4.092  0.2456 -0.3256  0.3210
 9145SOL    HW138894   0.470   1.631   4.044 -0.6526  0.2070  1.7428
 9145SOL    HW238895   0.583   1.552   4.090  0.1974 -0.3606  1.1129
 9146SOL     OW38896   4.678   2.147   3.788  0.6845 -0.3805  0.2346
 9146SOL    HW138897   4.699   2.096   3.710  1.9093 -1.0287  0.9691
 9146SOL    HW238898   4.663   2.067   3.839 -2.8145  0.4628  0.5240
 9147SOL     OW38899   0.259   3.645  17.111 -0.6306 -0.6759  0.3569
 9147SOL    HW138900   0.254   3.728  17.157 -1.6233 -1.2924  1.3574
 9147SOL    HW238901   0.328   3.659  17.046  1.0794  1.5254  2.6546
 9148SOL     OW38902   1.646   1.461  11.201 -0.6508  0.0164  0.7540
 9148SOL    HW138903   1.688   1.380  11.229 -1.3826 -0.3421  0.7974
 9148SOL    HW238904   1.580   1.466  11.270 -0.6043 -1.8535  0.9330
 9149SOL     OW38905   0.061   2.562   2.803  0.3031 -1.1202  0.4598
 9149SOL    HW138906   4.691   2.591   2.784 -0.0966 -0.8557  2.6491
 9149SOL    HW238907   0.038   2.504   2.876  1.0713  0.0475  1.6340
 9150SOL     OW38908   4.476   2.402  10.938 -0.3245  0.2758  0.7728
 9150SOL    HW138909   4.503   2.420  10.849 -2.1180 -0.1240  0.1398
 9150SOL    HW238910   4.551   2.446  10.978 -0.2422  0.6030  0.2475
 9151SOL     OW38911   3.053   2.372  11.429  0.3576 -0.4273  0.3973
 9151SOL    HW138912   3.056   2.375  11.333 -0.9988 -0.1778  0.3589
 9151SOL    HW238913   3.096   2.455  11.446 -0.0643 -0.3158  0.9240
 9152SOL     OW38914   2.100   2.945  14.954 -0.3470  0.6229 -0.2527
 9152SOL    HW138915   2.063   2.862  14.923 -0.1925  0.3559  0.2743
 9152SOL    HW238916   2.185   2.911  14.981 -0.5822  0.8079  0.7270
 9153SOL     OW38917   4.040   3.347   7.188  0.0637  0.5737 -0.6063
 9153SOL    HW138918   4.093   3.310   7.117  0.4520  0.6219 -0.3413
 9153SOL    HW238919   3.996   3.265   7.211  0.1621 -0.2689 -3.3501
 9154SOL     OW38920   4.697   2.641   3.196 -0.1631 -0.1098  0.7442
 9154SOL    HW138921   0.024   2.699   3.135 -0.6110 -0.6284 -0.0943
 9154SOL    HW238922   4.675   2.567   3.139  1.8077 -0.1643  0.0391
 9155SOL     OW38923   3.806   0.434   5.057 -0.0068 -0.0216 -0.0994
 9155SOL    HW138924   3.802   0.490   5.135  0.7903  0.2211 -0.2349
 9155SOL    HW238925   3.858   0.358   5.082  0.9796  0.7893  0.3380
 9156SOL     OW38926   4.457   0.773   2.133  0.0313  0.2109  0.6189
 9156SOL    HW138927   4.456   0.692   2.183  0.9613  0.2189  0.6547
 9156SOL    HW238928   4.541   0.754   2.091 -0.7837 -1.4642 -0.2576
 9157SOL     OW38929   3.173   2.335   4.367 -0.1341 -0.0337  0.0399
 9157SOL    HW138930   3.135   2.418   4.396  1.2638  0.9137 -0.8863
 9157SOL    HW238931   3.099   2.295   4.320  1.2310 -0.0691 -2.0690
 9158SOL     OW38932   4.112   4.016   1.310 -0.2345 -0.4074  0.1360
 9158SOL    HW138933   4.080   4.097   1.269 -0.1956 -0.4453  0.0316
 9158SOL    HW238934   4.028   3.986   1.344  0.0387 -0.9575  0.3113
 9159SOL     OW38935   0.022   0.181   9.591  0.3698  0.2309  0.5462
 9159SOL    HW138936   0.091   0.139   9.539 -0.8913  0.0320 -1.0015
 9159SOL    HW238937   4.712   0.109   9.647 -0.6569  0.3286  0.1302
 9160SOL     OW38938   4.718   3.823  17.071  0.4746 -0.3428  0.1351
 9160SOL    HW138939   0.058   3.828  17.146 -1.0152  0.3299  1.2887
 9160SOL    HW238940   0.052   3.786  17.001  0.6249 -2.1216  1.2054
 9161SOL     OW38941   3.071   3.139  10.185  1.5445 -0.2654  0.2935
 9161SOL    HW138942   3.050   3.059  10.137 -0.0294  0.1964  0.2280
 9161SOL    HW238943   3.035   3.113  10.270  2.5019 -1.1988  0.4258
 9162SOL     OW38944   1.105   2.509   3.223 -0.2023  0.2050  0.3626
 9162SOL    HW138945   1.152   2.551   3.294  0.2756  2.0371 -1.0265
 9162SOL    HW238946   1.088   2.593   3.181  0.3371  0.8086  1.3710
 9163SOL     OW38947   2.729   0.722   2.715 -0.2277  0.3403  0.8326
 9163SOL    HW138948   2.791   0.794   2.726  0.9914 -0.5912  0.0708
 9163SOL    HW238949   2.760   0.691   2.630  0.3647 -0.2044  1.2450
 9164SOL     OW38950   2.761   2.603  14.124 -0.3566  0.2037 -0.3795
 9164SOL    HW138951   2.723   2.686  14.095  0.4922  1.2011  1.4125
 9164SOL    HW238952   2.814   2.580  14.048  0.2322 -0.6540  0.2973
 9165SOL     OW38953   0.700   0.480  12.729 -0.0427  0.0466 -0.6332
 9165SOL    HW138954   0.778   0.513  12.774 -0.8261  0.1724  0.6337
 9165SOL    HW238955   0.631   0.537  12.763  1.1943 -0.1023  2.0719
 9166SOL     OW38956   0.566   4.334   0.415 -0.1207 -0.0478  0.0991
 9166SOL    HW138957   0.528   4.404   0.469  0.2734 -0.9190  1.5154
 9166SOL    HW238958   0.653   4.366   0.392 -0.5694  1.1626  0.0795
 9167SOL     OW38959   3.721   0.795   2.276 -0.0454  0.7454  0.3563
 9167SOL    HW138960   3.784   0.805   2.205  0.6650  0.4039  0.9364
 9167SOL    HW238961   3.663   0.869   2.257  0.3918  0.7402 -1.0305
 9168SOL     OW38962   3.258   0.410   8.816 -0.2176 -0.4278 -0.2812
 9168SOL    HW138963   3.334   0.403   8.873  1.1098  1.1953 -1.8491
 9168SOL    HW238964   3.191   0.453   8.870  0.7189 -0.1149  0.6268
 9169SOL     OW38965   2.604   1.485   8.731 -0.1647 -0.3292  0.5481
 9169SOL    HW138966   2.583   1.577   8.743 -1.0332 -0.7809  2.4142
 9169SOL    HW238967   2.569   1.456   8.815 -2.3828  2.2689  0.5044
 9170SOL     OW38968   4.406   3.117  16.355  0.1730 -0.0221 -0.1117
 9170SOL    HW138969   4.370   3.166  16.281 -2.4797 -2.5609 -0.5086
 9170SOL    HW238970   4.398   3.029  16.320  0.5613 -0.8335  1.8109
 9171SOL     OW38971   0.963   1.333   5.879  0.3734 -0.0152  0.0901
 9171SOL    HW138972   1.014   1.365   5.953 -1.1521  1.2506  0.5909
 9171SOL    HW238973   0.872   1.327   5.906  1.1049 -3.1160  1.9276
 9172SOL     OW38974   3.857   3.842  12.312  0.0541 -0.0110 -0.5092
 9172SOL    HW138975   3.855   3.777  12.383  0.9623  1.3113  0.7411
 9172SOL    HW238976   3.861   3.919  12.369  2.3365 -0.7234  0.2880
 9173SOL     OW38977   3.912   3.007  16.961  0.1357 -0.1110  0.6414
 9173SOL    HW138978   3.982   3.038  16.902 -0.9819  1.2030  0.0102
 9173SOL    HW238979   3.835   2.994  16.906 -0.0326  0.5322  0.7201
 9174SOL     OW38980   0.423   4.115   0.323  0.3987  0.3255  0.3638
 9174SOL    HW138981   0.448   4.042   0.380 -0.9461 -0.7162 -0.3905
 9174SOL    HW238982   0.485   4.184   0.347  0.2948  0.1051  1.2948
 9175SOL     OW38983   2.666   3.320   4.348 -0.6165  0.1704  0.3294
 9175SOL    HW138984   2.728   3.266   4.298  1.3309  0.8495  2.0080
 9175SOL    HW238985   2.713   3.404   4.356  2.4732 -1.3122 -2.0191
 9176SOL     OW38986   1.612   3.481   5.947  0.6647 -0.2386  0.3723
 9176SOL    HW138987   1.519   3.459   5.954  0.7817 -0.3887  1.5827
 9176SOL    HW238988   1.639   3.435   6.027 -0.3256  0.8766  1.3396
 9177SOL     OW38989   1.680   0.731   2.895  0.4850 -0.0419 -0.3053
 9177SOL    HW138990   1.669   0.735   2.800  2.9853  2.0988 -0.4994
 9177SOL    HW238991   1.590   0.710   2.919  0.1956  1.0510 -0.4357
 9178SOL     OW38992   4.473   3.328   3.634  0.1541 -0.1947  0.4503
 9178SOL    HW138993   4.459   3.362   3.546  1.0209 -0.9955  0.0130
 9178SOL    HW238994   4.513   3.406   3.673  0.0175  0.1652 -0.1262
 9179SOL     OW38995   3.426   2.705  11.311 -0.2678  0.5870 -0.4787
 9179SOL    HW138996   3.388   2.684  11.396 -0.1268 -0.9780 -0.8025
 9179SOL    HW238997   3.490   2.772  11.337 -0.4845  0.3955  0.5269
 9180SOL     OW38998   4.257   3.534   8.812 -0.1719  0.3150  0.5009
 9180SOL    HW138999   4.240   3.550   8.719  3.8119 -0.7371 -0.4130
 9180SOL    HW239000   4.295   3.447   8.822 -1.5498 -0.5909 -2.1223
 9181SOL     OW39001   4.034   1.050   3.932  0.4651  0.1354 -0.0629
 9181SOL    HW139002   3.948   1.066   3.895  0.1729  1.0464  1.0191
 9181SOL    HW239003   4.096   1.072   3.863  1.4049  0.2005  0.7886
 9182SOL     OW39004   4.218   1.791   5.311 -0.3383  0.8454  0.1973
 9182SOL    HW139005   4.313   1.792   5.316 -0.5027  0.6100  3.2057
 9182SOL    HW239006   4.182   1.879   5.297  0.4650  1.2236  0.5186
 9183SOL     OW39007   4.047   4.609   4.974  0.0510 -0.7228  0.3386
 9183SOL    HW139008   4.019   4.551   4.902  0.3781  1.6148 -1.6719
 9183SOL    HW239009   4.115   4.660   4.929  1.2061 -1.5130  1.1890
 9184SOL     OW39010   4.131   2.987   5.102  0.6328 -0.5336  0.4233
 9184SOL    HW139011   4.110   2.951   5.015  0.9565 -0.7471  0.4327
 9184SOL    HW239012   4.131   2.904   5.149  0.7855 -0.0157  1.3340
 9185SOL     OW39013   4.046   1.392   6.560 -0.0900 -0.5280  0.1524
 9185SOL    HW139014   4.046   1.306   6.518 -4.5327 -1.2820  1.6755
 9185SOL    HW239015   4.126   1.402   6.612 -0.8751  0.0067  1.2414
 9186SOL     OW39016   0.907   1.228  17.568  0.3422 -0.5379 -0.1462
 9186SOL    HW139017   0.898   1.306  17.623 -0.1364 -0.0685 -0.8828
 9186SOL    HW239018   1.001   1.215  17.575  0.1036 -1.2973  1.4841
 9187SOL     OW39019   4.478   2.627   5.852 -0.3445  0.1895  0.4815
 9187SOL    HW139020   4.423   2.705   5.857 -1.5189 -0.7828  2.5445
 9187SOL    HW239021   4.426   2.565   5.904  0.5347 -0.6272  0.3833
 9188SOL     OW39022   3.014   2.068   4.613  0.5513 -0.1858 -0.9239
 9188SOL    HW139023   3.101   2.058   4.575 -0.3741  0.9470 -3.3469
 9188SOL    HW239024   2.949   2.080   4.543 -0.3273 -0.3965 -0.1489
 9189SOL     OW39025   1.489   0.945   7.777 -0.3874  0.1255  0.1217
 9189SOL    HW139026   1.403   0.980   7.756 -0.9222  0.0830  2.2007
 9189SOL    HW239027   1.461   0.867   7.825  1.1446 -0.9990 -0.8082
 9190SOL     OW39028   0.843   3.570   7.024 -0.0083  0.1877  0.5051
 9190SOL    HW139029   0.924   3.537   7.063  1.1828  0.8862 -1.3265
 9190SOL    HW239030   0.879   3.636   6.964  0.0258  1.3525  1.7883
 9191SOL     OW39031   4.689   2.424   2.440 -0.7036 -0.1843  0.0800
 9191SOL    HW139032   0.029   2.477   2.388 -1.9163 -0.8405 -1.9632
 9191SOL    HW239033   4.609   2.451   2.395  0.9086 -1.4210 -3.5285
 9192SOL     OW39034   3.981   0.246   5.399 -0.2781  0.3270 -0.0108
 9192SOL    HW139035   3.928   0.173   5.430  0.9650 -0.2358  0.7755
 9192SOL    HW239036   4.064   0.238   5.447  1.1367  0.4747 -2.4220
 9193SOL     OW39037   4.464   2.090   7.133 -0.0201  0.4275 -0.1882
 9193SOL    HW139038   4.494   2.001   7.114 -1.1063 -0.0733  0.4692
 9193SOL    HW239039   4.409   2.108   7.057 -0.8580  2.8122  0.9765
 9194SOL     OW39040   4.229   2.094   0.088 -0.2366  0.2161  0.6349
 9194SOL    HW139041   4.139   2.083   0.117 -1.2203  2.6775 -1.4477
 9194SOL    HW239042   4.233   2.189   0.103  2.3242  0.0324  1.0550
 9195SOL     OW39043   3.512   1.732  15.299  0.4356 -0.5239 -0.1727
 9195SOL    HW139044   3.502   1.816  15.255  1.8314 -0.4897 -0.4244
 9195SOL    HW239045   3.583   1.699  15.243 -0.4894  0.2775 -1.8310
 9196SOL     OW39046   0.481   0.666  16.051 -0.2519 -0.3290 -1.1852
 9196SOL    HW139047   0.565   0.620  16.053 -0.3223 -0.4631 -1.2844
 9196SOL    HW239048   0.409   0.605  16.033 -1.7318  0.4877  2.1530
 9197SOL     OW39049   2.201   2.803   2.152  0.1211  0.2808  0.2866
 9197SOL    HW139050   2.160   2.783   2.236 -1.6399  1.8039 -0.2099
 9197SOL    HW239051   2.253   2.723   2.146 -1.4892 -0.7403  0.1152
 9198SOL     OW39052   4.369   4.404  12.071 -0.1445 -0.6753 -0.3663
 9198SOL    HW139053   4.328   4.431  12.154 -1.0294 -2.0838 -0.3515
 9198SOL    HW239054   4.463   4.401  12.091 -0.2639  0.0071  0.3008
 9199SOL     OW39055   1.151   3.488   4.253 -0.4243  0.4440  0.2639
 9199SOL    HW139056   1.138   3.394   4.239 -1.3160  0.4560  0.9963
 9199SOL    HW239057   1.068   3.530   4.233  0.6834  1.6901 -1.7837
 9200SOL     OW39058   0.308   4.394   8.596 -0.2257 -0.1753  0.3189
 9200SOL    HW139059   0.239   4.443   8.551  0.0848 -0.6618 -0.7037
 9200SOL    HW239060   0.386   4.417   8.546 -1.2039 -2.1600 -2.1595
 9201SOL     OW39061   2.295   4.425  13.003 -0.3447  0.0367 -0.3679
 9201SOL    HW139062   2.288   4.508  12.955  1.2204  0.6137  0.4344
 9201SOL    HW239063   2.356   4.373  12.951 -0.6928  0.1352 -0.8823
 9202SOL     OW39064   2.090   1.548   2.905 -0.2733 -0.4160 -0.0533
 9202SOL    HW139065   1.997   1.564   2.921  0.0345  0.9993  0.4131
 9202SOL    HW239066   2.092   1.463   2.861 -0.5123 -1.4383  1.9101
 9203SOL     OW39067   2.848   0.702  12.277 -0.1102 -0.0228  0.3166
 9203SOL    HW139068   2.829   0.786  12.235 -3.0335 -2.2027 -2.7094
 9203SOL    HW239069   2.882   0.722  12.364  0.1162 -0.7494  0.3891
 9204SOL     OW39070   3.238   3.270   7.991 -0.0290 -0.0040 -0.0842
 9204SOL    HW139071   3.289   3.248   8.069  1.0923 -0.6331 -0.9952
 9204SOL    HW239072   3.299   3.330   7.948  0.7237 -0.7824 -0.0911
 9205SOL     OW39073   2.184   1.328   6.146 -0.0374  0.0181 -0.5914
 9205SOL    HW139074   2.188   1.300   6.054 -0.9739 -1.5022 -0.1811
 9205SOL    HW239075   2.112   1.391   6.151  0.7050  0.6920  1.6112
 9206SOL     OW39076   2.145   1.066   4.510 -0.6206 -0.4195  0.2903
 9206SOL    HW139077   2.221   1.011   4.532 -0.5850  0.0573  1.3565
 9206SOL    HW239078   2.181   1.155   4.512 -0.2174 -0.6268  2.1658
 9207SOL     OW39079   2.340   2.615   7.487 -0.2072  0.4543  0.3157
 9207SOL    HW139080   2.393   2.589   7.562  1.3698  3.2951  0.1861
 9207SOL    HW239081   2.403   2.667   7.437 -0.4783 -0.4672 -0.9890
 9208SOL     OW39082   4.368   1.801  11.423  0.4207  0.2484  0.0716
 9208SOL    HW139083   4.283   1.805  11.381 -0.9106  1.7891  2.8856
 9208SOL    HW239084   4.385   1.709  11.403 -0.3555  0.2186 -0.4464
 9209SOL     OW39085   2.027   4.531  14.052 -0.6248  0.0183  0.2389
 9209SOL    HW139086   2.094   4.519  14.119 -2.0129 -1.0333  1.4385
 9209SOL    HW239087   2.083   4.515  13.976 -1.4250 -0.5860 -0.2247
 9210SOL     OW39088   2.128   1.465  13.319 -0.3769 -0.3425 -0.2432
 9210SOL    HW139089   2.054   1.511  13.361  0.7171  1.1263  0.0873
 9210SOL    HW239090   2.131   1.524  13.244  1.8022  0.4464  0.4667
 9211SOL     OW39091   0.130   2.237  15.507 -0.2784  0.4452 -0.1596
 9211SOL    HW139092   0.073   2.313  15.501  0.9809  1.5974  2.8617
 9211SOL    HW239093   0.198   2.270  15.566  1.2789 -1.1533 -1.0408
 9212SOL     OW39094   2.203   1.048   6.937 -0.5212 -0.4486 -0.5674
 9212SOL    HW139095   2.186   0.962   6.976 -0.3353  0.8145  2.3327
 9212SOL    HW239096   2.295   1.047   6.964 -0.7407 -1.1530  0.1806
 9213SOL     OW39097   0.378   3.371  10.785  0.0096  0.3921  0.2982
 9213SOL    HW139098   0.348   3.353  10.874 -3.9582  0.3216 -1.0779
 9213SOL    HW239099   0.471   3.353  10.799 -0.3363  0.5365  2.6792
 9214SOL     OW39100   2.538   0.127  13.306 -0.2182 -0.1678 -0.2328
 9214SOL    HW139101   2.562   0.064  13.375 -0.5025 -2.7996 -2.5474
 9214SOL    HW239102   2.574   0.209  13.338 -2.0161  0.8791 -0.9087
 9215SOL     OW39103   0.202   0.764  10.309  0.2656 -0.6948 -0.4173
 9215SOL    HW139104   0.136   0.785  10.242 -0.0311 -1.7871 -0.4693
 9215SOL    HW239105   0.240   0.693  10.258 -2.0610 -1.4869 -1.0763
 9216SOL     OW39106   2.601   0.374   8.396 -0.1808  0.0276 -0.6155
 9216SOL    HW139107   2.606   0.458   8.350  1.4984 -0.4828 -1.3432
 9216SOL    HW239108   2.525   0.327   8.361 -1.0082 -0.2686  1.5716
 9217SOL     OW39109   0.049   0.752  10.078 -0.5625  0.2200 -0.0256
 9217SOL    HW139110   0.046   0.691  10.005  1.1314  0.8677 -0.6253
 9217SOL    HW239111   4.684   0.797  10.078 -0.3358  0.6543  0.3251
 9218SOL     OW39112   3.482   3.501   3.703  0.1657 -0.0524  0.0961
 9218SOL    HW139113   3.561   3.545   3.736  0.4441  0.8947 -1.8444
 9218SOL    HW239114   3.513   3.410   3.697 -0.8965 -0.1048 -3.9905
 9219SOL     OW39115   3.624   0.408   8.488 -0.0432 -0.5364 -0.6055
 9219SOL    HW139116   3.550   0.468   8.477  0.9849  0.8351  0.0619
 9219SOL    HW239117   3.584   0.323   8.506 -2.9759  0.3876 -2.6728
 9220SOL     OW39118   3.089   1.956   3.739  0.1021 -0.2117  0.4622
 9220SOL    HW139119   3.058   1.878   3.693 -1.6555  0.3772  0.6364
 9220SOL    HW239120   3.175   1.934   3.775 -1.4358  0.1270  4.2963
 9221SOL     OW39121   2.788   4.407   2.476  0.1473  0.1241 -0.2216
 9221SOL    HW139122   2.800   4.317   2.444 -0.7458  0.2165 -0.8314
 9221SOL    HW239123   2.800   4.461   2.398 -3.1095  0.3261 -0.5846
 9222SOL     OW39124   2.825   3.979   1.821 -1.1901  0.0043 -0.1935
 9222SOL    HW139125   2.830   3.924   1.742  1.1514  1.0348 -0.7920
 9222SOL    HW239126   2.864   4.061   1.789  0.4534  0.1481  2.2536
 9223SOL     OW39127   0.137   0.021   4.662  0.5515  0.8400  0.7123
 9223SOL    HW139128   0.105   0.063   4.582 -0.1335  1.9460  1.5521
 9223SOL    HW239129   0.207   4.691   4.621  1.4870  2.7722 -0.0072
 9224SOL     OW39130   3.235   2.860   2.385  0.2946  0.3324  0.2047
 9224SOL    HW139131   3.148   2.861   2.346  0.1114 -0.1092  0.6024
 9224SOL    HW239132   3.264   2.774   2.357  0.0986 -0.0115  1.0780
 9225SOL     OW39133   0.422   4.661   8.385  0.2898 -0.1759 -0.1973
 9225SOL    HW139134   0.476   0.002   8.436 -0.9788  1.0303 -0.3149
 9225SOL    HW239135   0.337   4.661   8.428 -0.4320  0.0726 -1.6294
 9226SOL     OW39136   2.105   1.802   8.485 -0.1575 -0.5248 -0.2759
 9226SOL    HW139137   2.103   1.727   8.544 -0.7303  0.6033  1.1436
 9226SOL    HW239138   2.025   1.851   8.502  1.1999  1.2106  1.2102
 9227SOL     OW39139   4.159   1.672   8.365 -0.4303 -0.2174 -0.6192
 9227SOL    HW139140   4.182   1.764   8.354 -1.7671  0.2445  0.3994
 9227SOL    HW239141   4.168   1.650   8.272 -2.3671 -1.5194 -0.4854
 9228SOL     OW39142   2.885   0.949   2.804  0.1164 -0.5923  0.0248
 9228SOL    HW139143   2.892   1.043   2.786 -0.4464 -0.8584 -1.5541
 9228SOL    HW239144   2.909   0.937   2.896  2.5885 -1.2420 -0.7350
 9229SOL     OW39145   1.245   1.023   7.732 -0.2096 -0.1542  0.7728
 9229SOL    HW139146   1.168   0.966   7.737 -0.9443  0.5764 -1.9327
 9229SOL    HW239147   1.238   1.097   7.792  0.2047 -0.3165  1.0212
 9230SOL     OW39148   1.280   1.629   6.247 -0.2142 -0.8008 -0.1016
 9230SOL    HW139149   1.268   1.591   6.160 -2.0569 -0.0117 -0.1821
 9230SOL    HW239150   1.354   1.688   6.230 -0.0234 -1.0715 -0.2163
 9231SOL     OW39151   0.266   1.841   2.695  0.1623 -0.2777  0.0427
 9231SOL    HW139152   0.208   1.773   2.660  1.3881 -0.4015 -1.7578
 9231SOL    HW239153   0.245   1.902   2.623 -1.0196 -0.3546  0.3175
 9232SOL     OW39154   2.649   4.684   7.064 -0.0921  0.1144  0.2862
 9232SOL    HW139155   2.570   0.002   7.026 -0.7219 -2.0373 -0.5893
 9232SOL    HW239156   2.709   4.700   6.991  0.1880  0.9101  0.6881
 9233SOL     OW39157   0.121   4.266   5.510  0.1681 -0.4654  0.4347
 9233SOL    HW139158   0.184   4.329   5.545  1.5205 -1.5803  0.0268
 9233SOL    HW239159   0.044   4.320   5.494 -0.5372 -0.9466  2.1991
 9234SOL     OW39160   2.981   1.878   2.503 -0.0733 -0.2917  0.5681
 9234SOL    HW139161   2.898   1.920   2.526  1.3489  1.9563  1.5896
 9234SOL    HW239162   2.979   1.824   2.582  1.2115 -0.7345  0.3070
 9235SOL     OW39163   4.424   4.308   4.700 -0.2660 -0.9136  0.6947
 9235SOL    HW139164   4.510   4.336   4.728 -0.4675  0.1088  0.2879
 9235SOL    HW239165   4.432   4.212   4.703  0.1985 -0.8800  0.4871
 9236SOL     OW39166   4.086   3.150  16.518  0.4898  0.2710 -0.0928
 9236SOL    HW139167   4.158   3.110  16.567 -1.3321  0.2854  2.5225
 9236SOL    HW239168   4.090   3.114  16.429 -1.2710 -0.2957  0.0629
 9237SOL     OW39169   1.630   4.015   2.761 -0.1018 -0.4326  0.2742
 9237SOL    HW139170   1.595   4.030   2.849 -0.1257  1.2184 -0.0208
 9237SOL    HW239171   1.702   4.076   2.753 -1.1449  0.5812 -1.5306
 9238SOL     OW39172   2.698   4.273   8.747  0.0643 -0.5245 -0.7746
 9238SOL    HW139173   2.734   4.255   8.660 -0.9653  1.4775 -1.5912
 9238SOL    HW239174   2.764   4.323   8.795  0.8460 -1.9104 -0.3810
 9239SOL     OW39175   0.086   1.294  15.475 -1.0598  0.8610  0.5030
 9239SOL    HW139176   0.037   1.360  15.425  0.2380  0.8922 -0.7191
 9239SOL    HW239177   0.037   1.212  15.467  1.7185 -0.8823  1.6250
 9240SOL     OW39178   0.564   0.102   0.738 -0.1647  0.0250  0.3337
 9240SOL    HW139179   0.651   0.121   0.775 -0.9359  2.5733  0.8224
 9240SOL    HW239180   0.502   0.109   0.810  0.7368  1.4066  0.9807
 9241SOL     OW39181   3.706   4.458   7.885 -0.1426  0.4846 -0.6119
 9241SOL    HW139182   3.780   4.448   7.826  0.3278 -2.2344  0.4161
 9241SOL    HW239183   3.631   4.418   7.841  0.6333 -0.8163 -0.7770
 9242SOL     OW39184   2.425   1.056   7.162 -0.1771  0.0191 -0.3091
 9242SOL    HW139185   2.418   1.147   7.192  1.4328  0.2144 -0.5258
 9242SOL    HW239186   2.359   1.013   7.217  0.3407  0.2823  0.5168
 9243SOL     OW39187   0.266   2.461   5.310 -0.5215 -0.0434 -0.4609
 9243SOL    HW139188   0.229   2.478   5.223  1.4167  0.4617 -1.1798
 9243SOL    HW239189   0.325   2.392   5.281  1.5882  1.9240 -0.8290
 9244SOL     OW39190   0.562   3.431   3.420 -0.1926  0.1946 -0.5141
 9244SOL    HW139191   0.491   3.488   3.450  0.1480  1.3646 -1.9549
 9244SOL    HW239192   0.514   3.350   3.405  1.0373 -0.5798 -0.2590
 9245SOL     OW39193   2.955   0.756  11.294 -0.0628  0.1673 -0.0223
 9245SOL    HW139194   2.894   0.826  11.321  0.2659  1.1322 -1.8207
 9245SOL    HW239195   3.030   0.782  11.348 -0.0898  1.2938 -0.5158
 9246SOL     OW39196   4.232   4.379   5.733 -0.0843 -0.2950  0.6005
 9246SOL    HW139197   4.170   4.383   5.807 -1.1311 -1.3370 -0.2246
 9246SOL    HW239198   4.171   4.360   5.662  0.0341  0.4849  0.2891
 9247SOL     OW39199   2.344   4.271  11.780 -0.0595  0.0206 -0.4776
 9247SOL    HW139200   2.332   4.299  11.689 -1.9370  1.3411  0.1717
 9247SOL    HW239201   2.437   4.251  11.787 -0.0689 -0.1928 -0.9848
 9248SOL     OW39202   1.572   2.666   8.207  0.1600  0.1812  0.0634
 9248SOL    HW139203   1.563   2.760   8.197  1.8629  0.5552  1.9933
 9248SOL    HW239204   1.619   2.650   8.289  0.4416  2.0400  0.2451
 9249SOL     OW39205   2.081   0.180   5.884 -0.4384  0.0343 -0.7190
 9249SOL    HW139206   2.114   0.091   5.870  0.3269  0.2915 -0.5405
 9249SOL    HW239207   1.991   0.166   5.853 -0.7256  0.3358 -0.0267
 9250SOL     OW39208   1.674   0.582   4.155  0.2722  0.4611  0.0878
 9250SOL    HW139209   1.682   0.648   4.086 -1.2033  1.0493  0.4855
 9250SOL    HW239210   1.762   0.544   4.160 -0.5769 -1.4945  0.3219
 9251SOL     OW39211   2.886   2.087   6.903  0.0751  0.1865  0.0373
 9251SOL    HW139212   2.845   2.038   6.974  1.7983 -0.4067  0.6189
 9251SOL    HW239213   2.899   2.013   6.843 -1.2338  0.6605 -0.8468
 9252SOL     OW39214   4.659   1.286   4.371 -0.3390 -0.2548 -0.4557
 9252SOL    HW139215   0.011   1.337   4.408 -0.2721  0.9115 -2.2013
 9252SOL    HW239216   4.693   1.260   4.285 -3.4372  0.3575 -1.8779
 9253SOL     OW39217   1.784   4.235   1.090 -0.5826  0.1530 -0.0990
 9253SOL    HW139218   1.784   4.263   1.181 -2.2069 -0.2153  0.0230
 9253SOL    HW239219   1.691   4.223   1.069 -0.4993  0.0172 -0.3956
 9254SOL     OW39220   0.154   3.337   6.104 -0.5800 -0.2103 -0.3387
 9254SOL    HW139221   0.229   3.307   6.053 -1.5936 -0.1310 -1.9102
 9254SOL    HW239222   0.190   3.418   6.142  2.3194 -0.2078 -3.0927
 9255SOL     OW39223   0.014   0.929   8.740  0.2783 -0.0822  0.2677
 9255SOL    HW139224   4.701   0.981   8.813  0.6523  1.1187 -0.4261
 9255SOL    HW239225   0.052   0.994   8.681  0.4829 -1.0655 -0.6987
 9256SOL     OW39226   0.397   0.560   6.732 -0.9027  0.3548  0.2666
 9256SOL    HW139227   0.460   0.513   6.677  0.5169 -0.6513  2.7739
 9256SOL    HW239228   0.368   0.627   6.671 -0.1293  1.3284  0.9724
 9257SOL     OW39229   0.864   4.077   2.160  0.5164 -0.4353 -0.0748
 9257SOL    HW139230   0.823   4.112   2.081 -1.6653  3.1257  2.5811
 9257SOL    HW239231   0.911   4.000   2.130  1.9971  0.3337  0.2868
 9258SOL     OW39232   1.676   2.909  10.619 -0.2036 -0.6872 -0.1562
 9258SOL    HW139233   1.652   2.932  10.709 -1.7827 -2.9258 -0.0257
 9258SOL    HW239234   1.770   2.925  10.612 -0.5671  1.3977 -0.5242
 9259SOL     OW39235   3.378   3.864   2.307  0.1089  0.5743 -0.1802
 9259SOL    HW139236   3.471   3.878   2.289  0.2285 -0.9282 -0.7370
 9259SOL    HW239237   3.370   3.772   2.332  1.1539 -0.0707 -2.2513
 9260SOL     OW39238   1.317   0.750  15.473  1.0003 -0.1621  0.3105
 9260SOL    HW139239   1.391   0.735  15.413  0.2667 -3.3625  0.1874
 9260SOL    HW239240   1.348   0.827  15.520  3.0149  1.3066 -3.3261
 9261SOL     OW39241   4.038   4.185   8.449  0.4877  0.0388 -0.5261
 9261SOL    HW139242   4.037   4.124   8.375  1.6902 -0.4054 -0.1766
 9261SOL    HW239243   4.067   4.132   8.524 -2.7623 -0.3426  0.4505
 9262SOL     OW39244   1.819   4.354   7.016  0.7944  0.5030 -0.1610
 9262SOL    HW139245   1.806   4.259   7.014  0.8278  0.4090  3.4339
 9262SOL    HW239246   1.781   4.372   7.102 -0.0856  1.3712 -0.7334
 9263SOL     OW39247   4.079   3.266   2.703 -0.3376 -0.0453  0.4426
 9263SOL    HW139248   4.145   3.204   2.672 -2.1625 -2.3656  1.2114
 9263SOL    HW239249   4.076   3.227   2.791 -1.0806  0.1103  0.4843
 9264SOL     OW39250   1.240   1.766   1.468  0.1682  0.1113  0.5850
 9264SOL    HW139251   1.276   1.678   1.478  0.6291  0.3544  1.0422
 9264SOL    HW239252   1.306   1.821   1.511  0.9757  0.2024 -0.7511
 9265SOL     OW39253   0.759   0.280   2.300 -0.5582 -0.0662  0.1978
 9265SOL    HW139254   0.846   0.254   2.270 -0.9229 -0.2272 -0.7086
 9265SOL    HW239255   0.783   0.350   2.361  1.4364 -1.1018  0.6399
 9266SOL     OW39256   4.609   1.527   0.029  0.7307  0.8192  0.3934
 9266SOL    HW139257   4.689   1.514   0.079 -0.0783  0.8590  1.6809
 9266SOL    HW239258   4.540   1.492   0.085  0.4744 -0.9953 -1.0481
 9267SOL     OW39259   3.110   3.116   2.041 -0.0543  0.9627 -0.0382
 9267SOL    HW139260   3.034   3.092   1.988 -0.6570  1.1456  0.7413
 9267SOL    HW239261   3.166   3.043   2.016 -1.3710 -0.7865  2.0551
 9268SOL     OW39262   3.497   4.547   3.159 -0.0585  0.6533  0.0163
 9268SOL    HW139263   3.449   4.552   3.077 -0.3715  0.0196  0.1633
 9268SOL    HW239264   3.525   4.456   3.153 -1.8173  0.0932  0.1425
 9269SOL     OW39265   0.758   4.350   1.777 -0.2516 -0.4489 -0.2590
 9269SOL    HW139266   0.718   4.340   1.690 -1.9462 -0.0073  0.4761
 9269SOL    HW239267   0.779   4.443   1.785  0.1047 -0.6208  0.8141
 9270SOL     OW39268   1.596   0.386  10.846 -0.2187 -0.7701  0.0649
 9270SOL    HW139269   1.533   0.439  10.895 -1.1971 -2.8622  1.0487
 9270SOL    HW239270   1.654   0.449  10.802 -2.2159  0.7669 -0.3613
 9271SOL     OW39271   1.227   2.003   4.499 -0.4214 -0.0318  0.1365
 9271SOL    HW139272   1.138   1.981   4.528  0.2980 -2.7653  0.2815
 9271SOL    HW239273   1.262   1.914   4.509 -0.5937 -0.0237  0.8273
 9272SOL     OW39274   4.497   1.196  11.649 -0.8765  0.2869 -0.2287
 9272SOL    HW139275   4.544   1.116  11.672 -0.8716  0.1718 -0.6547
 9272SOL    HW239276   4.409   1.173  11.679 -0.0300 -0.3231  1.8270
 9273SOL     OW39277   3.084   1.626   8.911 -0.1525  0.0442 -0.2511
 9273SOL    HW139278   3.106   1.719   8.911  1.7895 -0.4211 -0.8767
 9273SOL    HW239279   3.053   1.611   9.000 -0.8146 -0.2944 -0.5391
 9274SOL     OW39280   0.111   0.572   2.941  0.5197  0.4738 -0.7194
 9274SOL    HW139281   0.152   0.657   2.924  0.7256  0.0715 -2.1945
 9274SOL    HW239282   0.146   0.518   2.871 -0.7874  0.0614 -1.0410
 9275SOL     OW39283   1.917   0.381   2.572  0.3390 -0.4163  0.6919
 9275SOL    HW139284   1.943   0.318   2.505 -1.0992  0.3403 -0.5811
 9275SOL    HW239285   1.823   0.386   2.555  0.0630  0.8807  2.5601
 9276SOL     OW39286   1.940   4.674   8.822 -0.2898  0.5608  0.3544
 9276SOL    HW139287   1.850   4.705   8.826 -1.1192 -1.7005 -0.6090
 9276SOL    HW239288   1.926   4.581   8.803 -0.3432  0.6405 -0.0034
 9277SOL     OW39289   1.358   0.370   5.554  0.3306  0.5400  0.5308
 9277SOL    HW139290   1.406   0.429   5.496  1.7828 -1.5951 -0.4261
 9277SOL    HW239291   1.312   0.425   5.617  1.7174 -0.6872  2.5821
 9278SOL     OW39292   0.094   1.913   2.899 -0.3043 -0.2908  0.2996
 9278SOL    HW139293   0.164   1.894   2.836 -0.9320 -0.0254 -0.4744
 9278SOL    HW239294   0.017   1.925   2.845  0.9358 -1.5968 -1.7946
 9279SOL     OW39295   2.984   3.232   8.883 -0.2282 -0.1138 -0.3212
 9279SOL    HW139296   2.985   3.328   8.882  3.3971 -0.1498 -1.0180
 9279SOL    HW239297   3.020   3.216   8.795  0.5971 -3.0988  0.5810
 9280SOL     OW39298   2.450   1.527   6.065  0.3784 -0.7195 -0.3377
 9280SOL    HW139299   2.372   1.539   6.012 -1.2503  1.8226  2.6523
 9280SOL    HW239300   2.419   1.482   6.144  2.2666 -0.4902  0.5502
 9281SOL     OW39301   4.699   2.413   3.837  0.0106  0.3978 -0.8669
 9281SOL    HW139302   4.689   2.318   3.834  0.6585  0.2974 -0.0252
 9281SOL    HW239303   4.687   2.437   3.746 -0.1775 -2.4331 -1.5885
 9282SOL     OW39304   4.269   1.625   7.781 -0.3682  0.1787 -0.0557
 9282SOL    HW139305   4.296   1.551   7.835  0.8496  1.1658  0.6708
 9282SOL    HW239306   4.273   1.577   7.698  0.5467  0.2366 -0.0368
 9283SOL     OW39307   2.443   3.524   1.645  0.3234 -0.4625 -0.6093
 9283SOL    HW139308   2.393   3.601   1.618  0.2862  0.0851  1.0482
 9283SOL    HW239309   2.493   3.506   1.565  0.1307 -1.6688 -0.4533
 9284SOL     OW39310   3.574   4.624   6.836 -0.0353 -0.6968 -0.0612
 9284SOL    HW139311   3.637   4.694   6.818 -1.2095 -0.0873 -1.7433
 9284SOL    HW239312   3.506   4.640   6.771  0.3142 -2.5198 -0.8911
 9285SOL     OW39313   2.384   2.135   8.678  0.3645  0.2576 -0.1578
 9285SOL    HW139314   2.407   2.220   8.716  1.8899 -0.6001  0.8041
 9285SOL    HW239315   2.411   2.074   8.747  0.1552  0.9876  0.5715
 9286SOL     OW39316   3.026   1.806   1.939 -0.3592  0.0673  0.3666
 9286SOL    HW139317   3.120   1.815   1.957 -0.8706  0.7872  2.5994
 9286SOL    HW239318   2.990   1.752   2.009 -1.5449 -0.5565 -0.7303
 9287SOL     OW39319   1.053   1.422  14.146 -0.4300 -0.5767  0.1092
 9287SOL    HW139320   1.066   1.372  14.227 -1.1583  0.9074  1.1414
 9287SOL    HW239321   1.064   1.356  14.077  0.3334 -0.4154  0.0779
 9288SOL     OW39322   0.994   1.813   5.347  0.0226 -0.2701 -0.2188
 9288SOL    HW139323   1.024   1.899   5.374 -0.2071  0.0569 -0.9810
 9288SOL    HW239324   1.063   1.753   5.375 -0.3715 -0.4379  0.3803
 9289SOL     OW39325   4.081   2.965   7.947 -0.7326  0.5864  0.2345
 9289SOL    HW139326   4.027   3.017   8.007 -3.2109 -3.9276  1.9721
 9289SOL    HW239327   4.152   3.027   7.930  0.4985 -1.3129 -1.4545
 9290SOL     OW39328   4.592   2.868   6.681 -0.5058  0.5074  0.1418
 9290SOL    HW139329   4.555   2.923   6.612 -0.4823 -0.8463 -0.9569
 9290SOL    HW239330   4.540   2.882   6.760 -2.1789 -0.7292 -0.7368
 9291SOL     OW39331   4.150   0.366  12.486 -0.1831 -0.1994 -0.3984
 9291SOL    HW139332   4.074   0.408  12.446 -0.4026 -0.4878 -0.2855
 9291SOL    HW239333   4.164   0.291  12.428 -0.4680  1.0865 -2.1284
 9292SOL     OW39334   3.908   3.036   7.474  0.4739  0.0735 -0.1555
 9292SOL    HW139335   3.905   2.977   7.398  1.1048  0.5367 -0.5356
 9292SOL    HW239336   3.889   2.981   7.550  0.9726  1.1884  0.7744
 9293SOL     OW39337   1.135   4.693  15.839 -0.1314 -0.0561 -0.0169
 9293SOL    HW139338   1.125   0.003  15.748 -1.0330 -3.2208 -0.9328
 9293SOL    HW239339   1.101   0.049  15.887 -0.9820 -1.1018  0.9949
 9294SOL     OW39340   2.443   1.180   9.719  0.1631 -0.5369  0.4007
 9294SOL    HW139341   2.442   1.232   9.799  0.9801  0.2241 -0.0801
 9294SOL    HW239342   2.524   1.205   9.675  1.3815  0.0331  2.9497
 9295SOL     OW39343   2.519   1.042  14.637  0.1798 -0.4382 -0.1693
 9295SOL    HW139344   2.570   1.018  14.714 -2.6984 -2.0168  1.2364
 9295SOL    HW239345   2.435   1.073  14.668 -1.4604 -1.8413 -3.1740
 9296SOL     OW39346   0.430   0.638   7.241 -0.1081 -0.0112  0.0524
 9296SOL    HW139347   0.439   0.647   7.146  1.4700  1.1632  0.3065
 9296SOL    HW239348   0.338   0.663   7.247  1.0863  3.8040  2.5022
 9297SOL     OW39349   1.391   0.600  14.248 -0.7246  0.4602  0.1467
 9297SOL    HW139350   1.319   0.558  14.296 -1.7174  0.0744 -1.6906
 9297SOL    HW239351   1.362   0.691  14.253 -0.6155  0.5537 -0.9538
 9298SOL     OW39352   0.333   2.835   8.697  0.9227  0.5247  0.2698
 9298SOL    HW139353   0.272   2.823   8.624 -0.5732 -3.1273  2.1192
 9298SOL    HW239354   0.382   2.914   8.673  1.9579 -0.4418 -0.7818
 9299SOL     OW39355   2.963   4.414   9.643  0.3396  0.8451  0.1444
 9299SOL    HW139356   2.960   4.416   9.738 -0.1228 -0.2364  0.1562
 9299SOL    HW239357   2.991   4.502   9.619 -0.5628  1.1959  0.3813
 9300SOL     OW39358   4.524   2.461  12.773  0.4798 -0.6654 -0.6403
 9300SOL    HW139359   4.552   2.537  12.722 -0.4391  0.9875  1.3324
 9300SOL    HW239360   4.568   2.485  12.855  0.1802  0.1690 -0.7263
 9301SOL     OW39361   2.519   2.979  13.128  0.1354  0.6062 -0.1621
 9301SOL    HW139362   2.576   3.050  13.098  1.6952 -0.4637  0.2531
 9301SOL    HW239363   2.443   3.026  13.163  1.5426  2.0362  0.9976
 9302SOL     OW39364   3.440   4.003   5.563 -0.3571  0.2426 -0.0665
 9302SOL    HW139365   3.365   4.020   5.620  0.1370  2.1178  0.0157
 9302SOL    HW239366   3.429   3.909   5.547  0.3557 -0.3398  2.9804
 9303SOL     OW39367   1.074   4.150  14.664 -0.0622 -0.0621 -0.3742
 9303SOL    HW139368   1.162   4.123  14.639 -0.3523  0.3887 -1.9023
 9303SOL    HW239369   1.091   4.245  14.659 -0.4158  0.0418  0.3628
 9304SOL     OW39370   3.186   2.206  12.902 -0.1920 -0.1368  0.0573
 9304SOL    HW139371   3.134   2.129  12.928 -1.8946  1.1082  0.3419
 9304SOL    HW239372   3.177   2.275  12.967 -3.8055  0.5417 -1.1728
 9305SOL     OW39373   1.443   0.107   5.473 -0.5596  0.0508  0.0397
 9305SOL    HW139374   1.377   0.136   5.536  0.9999 -2.7920  2.9661
 9305SOL    HW239375   1.399   0.036   5.425  0.6731 -0.7008  0.0103
 9306SOL     OW39376   2.801   4.394   1.545  0.1381 -0.0693  0.1705
 9306SOL    HW139377   2.816   4.352   1.630 -0.8134  0.7789  0.7554
 9306SOL    HW239378   2.706   4.398   1.534  0.3474 -0.3890 -1.6960
 9307SOL     OW39379   4.625   2.918  15.329 -0.2249  0.0105  0.2259
 9307SOL    HW139380   4.561   2.989  15.318  0.4585  0.4331 -1.1087
 9307SOL    HW239381   4.700   2.974  15.349 -0.2549  0.1217  0.0379
 9308SOL     OW39382   2.266   2.678  12.365 -0.4698 -0.1908 -0.1951
 9308SOL    HW139383   2.218   2.694  12.284 -0.6464 -0.5474 -0.1623
 9308SOL    HW239384   2.201   2.643  12.426 -0.7607 -2.5277 -1.8395
 9309SOL     OW39385   1.970   2.269   0.795  0.0274 -0.3877 -0.5383
 9309SOL    HW139386   1.983   2.175   0.780  1.0369 -0.8132  2.8027
 9309SOL    HW239387   2.061   2.300   0.793 -0.2693  0.7288  2.9868
 9310SOL     OW39388   0.602   3.665   0.340  0.3925 -0.2467  0.2697
 9310SOL    HW139389   0.568   3.601   0.403  3.9512 -0.2339  2.1738
 9310SOL    HW239390   0.667   3.611   0.296  0.1243 -0.1741 -0.2164
 9311SOL     OW39391   1.313   0.864  11.860  0.3529 -0.3134  0.2909
 9311SOL    HW139392   1.274   0.881  11.775  1.0628  1.5844  0.3431
 9311SOL    HW239393   1.352   0.776  11.852 -1.2547 -0.8461 -1.6647
 9312SOL     OW39394   0.425   3.622   6.912  0.5517  0.4196 -0.0985
 9312SOL    HW139395   0.392   3.581   6.832 -1.5076  0.1611  0.8833
 9312SOL    HW239396   0.390   3.709   6.896 -0.1912  0.1368  0.0009
 9313SOL     OW39397   2.612   0.346  11.255 -0.4371  0.3430  0.0782
 9313SOL    HW139398   2.650   0.284  11.193  0.5729  2.2004 -1.1977
 9313SOL    HW239399   2.653   0.424  11.216  2.7693 -0.3288  2.1525
 9314SOL     OW39400   2.928   4.485   8.225  0.4209 -0.1234 -0.3659
 9314SOL    HW139401   2.956   4.394   8.232 -1.0201 -0.3769  2.1286
 9314SOL    HW239402   2.835   4.473   8.203  0.5217  0.1667 -0.9655
 9315SOL     OW39403   2.462   0.449  11.970 -0.5241 -0.0958  0.9097
 9315SOL    HW139404   2.458   0.491  12.056 -1.0976 -0.9886  1.3235
 9315SOL    HW239405   2.381   0.397  11.966 -0.2612 -0.4019 -0.5429
 9316SOL     OW39406   4.127   2.764   3.534  0.4513 -0.0149 -0.5266
 9316SOL    HW139407   4.083   2.849   3.539  0.9808  0.1077  2.0861
 9316SOL    HW239408   4.125   2.753   3.439 -3.1883  0.4886 -0.5108
 9317SOL     OW39409   2.713   0.399  10.624 -0.0813  0.2822 -0.1999
 9317SOL    HW139410   2.636   0.416  10.570  0.1402  1.2578 -0.2087
 9317SOL    HW239411   2.733   0.314  10.585  1.9838  1.0385 -0.8160
 9318SOL     OW39412   3.734   3.763   8.260 -0.8616  0.2974 -0.1052
 9318SOL    HW139413   3.724   3.668   8.254 -2.1465  0.3165  1.7664
 9318SOL    HW239414   3.747   3.778   8.167  1.2497 -0.7044  0.0193
 9319SOL     OW39415   4.455   2.043   8.925  0.1201 -0.0837  0.2998
 9319SOL    HW139416   4.511   2.031   8.849  0.1639 -3.4259  0.8351
 9319SOL    HW239417   4.521   2.038   8.993 -0.4130  3.3617  1.0574
 9320SOL     OW39418   1.302   4.552  15.617  0.3638 -0.5554 -0.5297
 9320SOL    HW139419   1.341   4.543  15.704  2.7280  2.7756 -1.2618
 9320SOL    HW239420   1.232   4.488  15.624  0.3598 -0.4640  0.3052
 9321SOL     OW39421   1.123   4.667  11.592 -0.3141 -0.3019  0.0346
 9321SOL    HW139422   1.132   0.012  11.522 -1.6821  0.2535  0.3728
 9321SOL    HW239423   1.039   4.626  11.570 -0.8131  0.9203 -0.3491
 9322SOL     OW39424   1.196   1.545   9.525  0.2026  0.3090  0.3174
 9322SOL    HW139425   1.118   1.500   9.558 -0.1551  0.2595 -0.5890
 9322SOL    HW239426   1.178   1.638   9.543  2.4759  0.8973 -0.4788
 9323SOL     OW39427   4.129   2.474   5.970 -0.1826  0.2640 -0.0738
 9323SOL    HW139428   4.163   2.564   5.962  0.1735 -0.1143 -2.6036
 9323SOL    HW239429   4.175   2.428   5.900  1.2725  1.5582  0.0197
 9324SOL     OW39430   3.962   1.643   9.809 -0.6701 -0.9479  0.8642
 9324SOL    HW139431   3.978   1.737   9.797 -2.1067 -0.6660  1.0776
 9324SOL    HW239432   3.909   1.627   9.731  0.8969 -0.0643 -0.3703
 9325SOL     OW39433   4.355   1.640   4.073 -0.2604  0.4240  0.4914
 9325SOL    HW139434   4.342   1.733   4.054 -0.4494 -0.1351 -2.0901
 9325SOL    HW239435   4.306   1.594   4.005 -0.1252 -1.9743  2.0004
 9326SOL     OW39436   1.216   2.433   4.633  0.1174  0.0246 -0.2083
 9326SOL    HW139437   1.150   2.418   4.700  0.9923  1.5038  0.9913
 9326SOL    HW239438   1.165   2.439   4.552 -1.3352  0.2087  0.7132
 9327SOL     OW39439   0.675   0.808   3.642  0.3943  0.7790 -0.1928
 9327SOL    HW139440   0.640   0.744   3.581  0.3414 -0.7479  1.4524
 9327SOL    HW239441   0.595   0.839   3.685 -1.0669 -2.8319 -0.3297
 9328SOL     OW39442   2.144   4.102   7.361 -0.3560  0.3209 -0.0169
 9328SOL    HW139443   2.196   4.107   7.441 -1.8628  0.7714  0.9367
 9328SOL    HW239444   2.081   4.031   7.379 -0.7573  0.5363 -0.5610
 9329SOL     OW39445   2.351   0.818   8.264 -0.0401  0.7525  0.3174
 9329SOL    HW139446   2.403   0.895   8.242  0.3811 -0.5485 -3.2553
 9329SOL    HW239447   2.291   0.855   8.329  0.9546  1.2205  0.9712
 9330SOL     OW39448   3.063   3.276   2.735  0.3962  0.4536 -0.0367
 9330SOL    HW139449   3.066   3.258   2.641 -1.8246 -0.0192 -0.0169
 9330SOL    HW239450   2.973   3.309   2.730 -0.4637 -1.7639  1.0502
 9331SOL     OW39451   4.246   1.613   5.552 -0.0585 -0.1653 -0.2773
 9331SOL    HW139452   4.311   1.575   5.493  0.1202 -0.9618  0.4453
 9331SOL    HW239453   4.184   1.652   5.490  0.0317  0.0411 -0.2383
 9332SOL     OW39454   0.938   3.448   1.974  0.0142 -0.0260  0.3791
 9332SOL    HW139455   1.026   3.470   1.944 -0.2051 -0.0945 -0.3034
 9332SOL    HW239456   0.911   3.524   2.025  0.5945  1.1512 -1.0707
 9333SOL     OW39457   0.001   2.743   5.624 -0.6495  0.2381 -0.1829
 9333SOL    HW139458   0.085   2.723   5.582 -0.2125  4.3523 -1.1897
 9333SOL    HW239459   4.698   2.834   5.604  0.8350  0.5806 -0.3279
 9334SOL     OW39460   0.814   3.050   4.821  0.1482 -0.2994  0.1093
 9334SOL    HW139461   0.866   3.035   4.900 -1.0396 -3.3894  0.2852
 9334SOL    HW239462   0.811   2.960   4.788 -1.6324 -0.1123 -0.2041
 9335SOL     OW39463   3.588   0.126  15.447 -0.5518  0.2122 -0.1486
 9335SOL    HW139464   3.544   0.095  15.527 -3.4337 -0.1910 -1.8977
 9335SOL    HW239465   3.528   0.118  15.373 -1.0025  0.7796  0.1580
 9336SOL     OW39466   1.962   1.629   0.626 -0.2781  0.2085 -0.7160
 9336SOL    HW139467   1.965   1.725   0.628 -0.5528  0.2177 -0.8961
 9336SOL    HW239468   1.876   1.604   0.659  0.9072 -2.0893  0.6576
 9337SOL     OW39469   2.826   0.679   8.933  0.3098  0.0491 -0.3973
 9337SOL    HW139470   2.808   0.767   8.899  0.7590  0.6853  1.0103
 9337SOL    HW239471   2.800   0.692   9.025  2.1687 -1.2810  0.3116
 9338SOL     OW39472   0.331   3.571   2.178 -0.0645 -0.1672 -0.2923
 9338SOL    HW139473   0.236   3.581   2.190  0.2073 -0.9996  2.6107
 9338SOL    HW239474   0.330   3.492   2.124 -1.7809 -1.0506  1.0128
 9339SOL     OW39475   2.781   2.748   5.977 -0.9518 -0.2447  0.1380
 9339SOL    HW139476   2.732   2.672   6.006  0.0522 -0.8619  0.1942
 9339SOL    HW239477   2.751   2.810   6.043 -2.6195  0.1754 -0.9978
 9340SOL     OW39478   2.720   2.635   2.597  0.3324  0.0538  0.3919
 9340SOL    HW139479   2.662   2.697   2.640 -2.9998 -0.7487 -3.0038
 9340SOL    HW239480   2.784   2.622   2.667  1.3048 -0.3715 -0.5806
 9341SOL     OW39481   4.242   3.583   2.164 -0.0817 -0.3515 -0.6298
 9341SOL    HW139482   4.193   3.636   2.228 -2.0402 -1.9427 -0.8336
 9341SOL    HW239483   4.284   3.660   2.125 -1.3039  0.2778 -0.7131
 9342SOL     OW39484   2.614   2.284  10.261 -0.1909 -0.3416  0.0388
 9342SOL    HW139485   2.634   2.296  10.354  1.2318  1.6645 -0.5271
 9342SOL    HW239486   2.684   2.223  10.239 -0.6604 -0.8364 -0.0795
 9343SOL     OW39487   0.210   4.560   6.232  0.0475  0.1106  0.2704
 9343SOL    HW139488   0.226   4.493   6.299 -0.4407  1.9354  2.2296
 9343SOL    HW239489   0.280   4.622   6.253 -1.8163  1.7498  1.6514
 9344SOL     OW39490   2.992   2.606   1.169  0.2522 -0.1571  0.5986
 9344SOL    HW139491   2.907   2.570   1.195 -0.5865  0.2500 -1.5263
 9344SOL    HW239492   3.054   2.586   1.238  1.5398 -2.2753 -1.1686
 9345SOL     OW39493   3.853   0.380   7.760 -0.2303 -0.2355  0.6982
 9345SOL    HW139494   3.830   0.466   7.797 -1.6414  0.4758 -1.7993
 9345SOL    HW239495   3.809   0.316   7.815 -0.1400 -1.4409 -0.6252
 9346SOL     OW39496   3.239   0.230   4.929 -0.9774 -0.1215  0.0901
 9346SOL    HW139497   3.245   0.144   4.888 -2.3786 -0.2184  0.0774
 9346SOL    HW239498   3.292   0.225   5.008  1.0146 -1.1086 -1.2958
 9347SOL     OW39499   1.708   2.006   6.499 -0.3603  0.1949 -0.6721
 9347SOL    HW139500   1.769   2.075   6.525  0.1181 -0.9277  1.1853
 9347SOL    HW239501   1.669   1.964   6.576  1.1461  2.1112  1.1141
 9348SOL     OW39502   1.361   2.484   9.666 -0.3131  0.1115 -0.6805
 9348SOL    HW139503   1.314   2.538   9.730 -0.7824 -1.3871  0.2287
 9348SOL    HW239504   1.346   2.537   9.588 -1.3800 -0.8338 -1.1132
 9349SOL     OW39505   0.409   0.559   8.303 -0.4415  0.0752  0.3495
 9349SOL    HW139506   0.347   0.630   8.289  0.4704  0.6994 -0.5773
 9349SOL    HW239507   0.454   0.586   8.383 -0.9651  1.6512  0.1083
 9350SOL     OW39508   3.644   2.778  11.499  0.6055 -0.2718  0.5289
 9350SOL    HW139509   3.712   2.842  11.521  1.3974 -0.8095 -0.3637
 9350SOL    HW239510   3.689   2.724  11.433  0.7918 -0.6608  0.9752
 9351SOL     OW39511   2.870   1.354   1.852 -0.4330 -0.4097 -0.0457
 9351SOL    HW139512   2.935   1.377   1.919 -1.2399 -1.0165  0.9523
 9351SOL    HW239513   2.788   1.354   1.902 -1.7510  0.6821 -2.2352
 9352SOL     OW39514   4.022   3.191   8.855  0.2475  0.0096 -0.0320
 9352SOL    HW139515   3.995   3.223   8.768 -0.8562 -0.6340  0.0707
 9352SOL    HW239516   3.942   3.165   8.900  0.4287  0.8322  0.7711
 9353SOL     OW39517   0.315   3.348   2.031 -0.0660 -0.0812 -0.5605
 9353SOL    HW139518   0.297   3.263   2.072  2.1360  0.8365  2.3665
 9353SOL    HW239519   0.411   3.345   2.027 -0.0940  1.6907 -2.0349
 9354SOL     OW39520   2.154   1.369   5.081  0.4351 -0.3455  0.3494
 9354SOL    HW139521   2.092   1.336   5.015 -1.5996  0.5926  1.7855
 9354SOL    HW239522   2.199   1.288   5.105 -0.5401 -1.3979 -1.3445
 9355SOL     OW39523   2.002   4.007   4.395 -0.2015 -0.0033 -0.3973
 9355SOL    HW139524   1.994   4.038   4.485  1.0691 -1.7621  0.3186
 9355SOL    HW239525   1.965   4.085   4.353 -0.7795 -0.4173 -0.6570
 9356SOL     OW39526   1.128   0.736   5.524 -0.4458 -0.0352 -0.1181
 9356SOL    HW139527   1.149   0.663   5.582  1.8643  2.1705  1.7997
 9356SOL    HW239528   1.210   0.746   5.475  0.0146 -0.3108  0.5870
 9357SOL     OW39529   2.855   4.345   9.982 -0.2791 -0.2761  0.1082
 9357SOL    HW139530   2.868   4.281   9.913 -2.9388  0.4052 -1.0260
 9357SOL    HW239531   2.919   4.413   9.960  1.6618 -2.1376  0.0461
 9358SOL     OW39532   4.171   0.290  11.075  0.1396 -0.4584  0.1648
 9358SOL    HW139533   4.265   0.308  11.087  0.3301 -2.0211  0.9242
 9358SOL    HW239534   4.152   0.214  11.130 -2.0184 -0.3566 -0.4381
 9359SOL     OW39535   2.013   3.110  14.736  0.4842 -0.1750 -0.0224
 9359SOL    HW139536   1.952   3.036  14.728  1.8709 -1.1853 -1.1571
 9359SOL    HW239537   2.053   3.085  14.820 -0.5650 -0.4637  0.3962
 9360SOL     OW39538   0.846   2.680   0.361 -0.1868 -0.4358 -0.2065
 9360SOL    HW139539   0.819   2.679   0.269  1.0406 -2.6280 -0.5324
 9360SOL    HW239540   0.826   2.769   0.391  1.6751  0.0228 -0.3184
 9361SOL     OW39541   2.089   4.711   5.362  0.3651 -0.1367  0.0041
 9361SOL    HW139542   2.175   4.671   5.375  1.5123  2.2026 -0.3240
 9361SOL    HW239543   2.108   0.080   5.391  0.1752 -0.4247  1.0090
 9362SOL     OW39544   2.146   3.313   8.247 -0.0013 -0.0716  0.4980
 9362SOL    HW139545   2.142   3.339   8.155  3.7581 -0.5081  0.2119
 9362SOL    HW239546   2.144   3.218   8.231  1.2558 -0.0856  0.4729
 9363SOL     OW39547   3.941   1.498  17.610 -0.0161  0.0308 -0.4762
 9363SOL    HW139548   3.991   1.417  17.606 -0.5540 -0.2659 -1.2710
 9363SOL    HW239549   3.891   1.490  17.528 -0.7326  1.0596 -0.1390
 9364SOL     OW39550   1.522   4.553  17.618  0.0598  0.2731 -0.0521
 9364SOL    HW139551   1.597   4.606  17.592  0.7318  0.6468  2.6900
 9364SOL    HW239552   1.498   4.600   0.016 -1.3969 -0.4361 -0.0726
 9365SOL     OW39553   1.074   1.909  14.207 -0.4138 -0.4551  0.6849
 9365SOL    HW139554   0.992   1.868  14.179  0.0183  0.0638 -1.3581
 9365SOL    HW239555   1.054   2.003  14.204  3.2365  0.3167  0.8871
 9366SOL     OW39556   1.729   4.612   8.549 -0.3699  0.2548  0.2439
 9366SOL    HW139557   1.764   4.589   8.463 -1.6344 -1.9018  0.3086
 9366SOL    HW239558   1.740   4.525   8.587  2.0091 -0.1479 -1.3535
 9367SOL     OW39559   2.829   2.649   8.629  0.3233 -0.4358  0.2639
 9367SOL    HW139560   2.806   2.657   8.722 -0.3203 -1.9784  0.2465
 9367SOL    HW239561   2.787   2.728   8.595 -0.2721 -0.3794  1.1258
 9368SOL     OW39562   4.427   2.931   6.875  0.1901  0.6478 -0.5012
 9368SOL    HW139563   4.361   2.862   6.867  1.3765 -0.5759  0.4198
 9368SOL    HW239564   4.385   3.007   6.835 -2.1136 -0.3434  0.0479
 9369SOL     OW39565   0.767   0.656   6.919 -0.2218 -0.5734  0.4638
 9369SOL    HW139566   0.818   0.575   6.929 -0.0952 -0.5250  0.2274
 9369SOL    HW239567   0.827   0.726   6.943 -1.2410  0.0187  1.2783
 9370SOL     OW39568   2.714   3.915   4.814 -0.3046 -0.1368 -0.4331
 9370SOL    HW139569   2.664   3.886   4.891 -0.3950  0.8694 -0.1101
 9370SOL    HW239570   2.662   3.890   4.737 -0.3173  0.6725 -0.6931
 9371SOL     OW39571   2.107   4.159  11.877 -0.3749 -0.0966  0.2821
 9371SOL    HW139572   2.187   4.201  11.843 -1.1295  0.4489 -0.8218
 9371SOL    HW239573   2.146   4.075  11.901  0.4085  0.1517 -0.1202
 9372SOL     OW39574   2.969   4.682   5.058  0.2552 -0.1209  0.4397
 9372SOL    HW139575   2.979   0.006   4.973 -0.9833 -0.6130  0.0316
 9372SOL    HW239576   3.000   0.028   5.119 -0.9007  0.7843  0.0692
 9373SOL     OW39577   3.029   2.474   2.128  0.0129  0.1392  0.0319
 9373SOL    HW139578   3.022   2.436   2.041 -1.0442  0.2622  0.0570
 9373SOL    HW239579   3.118   2.455   2.155  0.4741 -1.0095 -2.2992
 9374SOL     OW39580   4.697   3.251   4.504 -0.7659  0.7819 -0.3887
 9374SOL    HW139581   0.033   3.280   4.577 -0.3559  0.1249 -0.4333
 9374SOL    HW239582   4.616   3.295   4.528 -0.6127  0.3818  0.8985
 9375SOL     OW39583   0.655   1.294   6.043 -0.6403  0.2182 -0.5124
 9375SOL    HW139584   0.565   1.269   6.027 -0.6830  0.6258 -0.9176
 9375SOL    HW239585   0.669   1.232   6.115  3.4305 -0.6190 -2.0396
 9376SOL     OW39586   1.077   3.500  10.283 -0.0272 -0.3976 -0.2535
 9376SOL    HW139587   1.053   3.501  10.375  0.7459  0.2200 -0.0599
 9376SOL    HW239588   1.128   3.578  10.262 -0.9501  0.6279  1.3508
 9377SOL     OW39589   2.326   3.738   8.897  0.3655  0.4187 -0.5158
 9377SOL    HW139590   2.339   3.822   8.941  3.3700 -1.4642  2.1863
 9377SOL    HW239591   2.372   3.755   8.815  1.9095 -0.1164  0.2483
 9378SOL     OW39592   0.792   3.055   6.949 -0.4007 -0.8052  0.0643
 9378SOL    HW139593   0.801   2.995   7.023  1.4981  0.1144  0.5884
 9378SOL    HW239594   0.796   3.137   6.998  0.8375  0.7248 -2.5906
 9379SOL     OW39595   1.530   4.395  12.792  0.0370 -0.4249 -0.0269
 9379SOL    HW139596   1.549   4.456  12.864  0.1104 -0.8477  0.3095
 9379SOL    HW239597   1.435   4.400  12.781 -0.0812 -0.9093  0.7738
 9380SOL     OW39598   2.104   3.668   2.835  0.5854  0.0891  0.7752
 9380SOL    HW139599   2.074   3.629   2.918  0.6779 -0.1160  0.7129
 9380SOL    HW239600   2.075   3.759   2.839  0.7494  0.0893  2.2378
 9381SOL     OW39601   3.731   3.503   2.883 -0.2590 -0.6076  0.1940
 9381SOL    HW139602   3.781   3.485   2.803 -0.0456 -1.6907  0.5665
 9381SOL    HW239603   3.800   3.488   2.947  1.2839 -0.6701 -1.4605
 9382SOL     OW39604   2.063   3.493   9.808 -0.5026  0.5875 -0.0147
 9382SOL    HW139605   2.099   3.405   9.808 -0.9038  0.4247 -0.2867
 9382SOL    HW239606   2.109   3.540   9.878  0.8986  1.6371 -1.6549
 9383SOL     OW39607   1.731   0.278   0.797  0.2314  0.3601  0.0728
 9383SOL    HW139608   1.703   0.192   0.828 -1.2017  0.1629 -1.8088
 9383SOL    HW239609   1.770   0.254   0.713 -1.3367 -3.2334  0.3810
 9384SOL     OW39610   3.028   1.631   2.405 -0.1350  0.0807  0.1861
 9384SOL    HW139611   3.103   1.621   2.345  0.9351 -1.8186  1.8378
 9384SOL    HW239612   3.020   1.725   2.415 -0.9173 -0.0329  0.5900
 9385SOL     OW39613   4.683   2.702   1.390 -0.4612 -0.6648  0.8025
 9385SOL    HW139614   4.648   2.643   1.323 -1.3564  0.4411  0.3154
 9385SOL    HW239615   4.670   2.787   1.349 -0.1216 -1.5577 -1.1784
 9386SOL     OW39616   1.194   0.198  11.324 -0.0542 -0.2283 -0.5734
 9386SOL    HW139617   1.193   0.105  11.298  0.3554 -0.7945  1.4290
 9386SOL    HW239618   1.118   0.204  11.382 -0.3478 -0.2932 -0.9512
 9387SOL     OW39619   0.368   2.546  17.565 -0.0567 -0.0718  0.3157
 9387SOL    HW139620   0.305   2.541  17.493  0.5946 -0.3962 -0.2415
 9387SOL    HW239621   0.430   2.477  17.542  1.0984  0.6518  1.2587
 9388SOL     OW39622   0.857   1.057   3.830  0.5237 -0.0073  0.4645
 9388SOL    HW139623   0.811   1.121   3.884 -2.0525 -1.1578 -0.3801
 9388SOL    HW239624   0.945   1.094   3.831  0.7256 -0.4906  0.4719
 9389SOL     OW39625   2.152   1.705   4.644 -0.2814  0.3393 -0.0304
 9389SOL    HW139626   2.125   1.786   4.601  1.2204  0.3393 -0.9624
 9389SOL    HW239627   2.217   1.676   4.580  0.1584  0.5886  0.2991
 9390SOL     OW39628   0.745   3.662   5.528 -0.7074 -0.0193  0.2220
 9390SOL    HW139629   0.815   3.722   5.502 -1.1263  0.1178 -0.5868
 9390SOL    HW239630   0.685   3.644   5.456  1.2238  0.5523 -1.5361
 9391SOL     OW39631   2.526   1.497   2.914  0.3108  0.4952  0.0740
 9391SOL    HW139632   2.576   1.548   2.978 -0.1719 -1.6266  2.1499
 9391SOL    HW239633   2.597   1.438   2.888 -0.0385 -0.1360  0.5456
 9392SOL     OW39634   4.105   3.703  10.361 -0.4218  0.3821  0.4110
 9392SOL    HW139635   4.138   3.793  10.354  0.4949 -0.0518 -1.0328
 9392SOL    HW239636   4.070   3.698  10.449 -0.8522 -2.0176  0.0951
 9393SOL     OW39637   3.041   0.249   0.204 -0.6852 -0.1957 -0.1005
 9393SOL    HW139638   3.033   0.187   0.132 -0.2528 -0.3608 -0.0010
 9393SOL    HW239639   3.007   0.198   0.277 -0.6294  1.3000  0.9819
 9394SOL     OW39640   4.047   0.831   4.512 -0.2271 -0.3498 -0.0525
 9394SOL    HW139641   4.057   0.912   4.561 -2.8718 -0.1384  0.1673
 9394SOL    HW239642   4.104   0.772   4.561 -1.2638 -0.5817  0.8820
 9395SOL     OW39643   0.961   1.334   7.729  0.7014 -0.2270  0.1199
 9395SOL    HW139644   0.890   1.326   7.665 -1.0064  0.3412  1.9299
 9395SOL    HW239645   0.974   1.424   7.761  1.5376 -0.7859  1.3537
 9396SOL     OW39646   3.293   2.004  10.795 -0.5206  0.6842  0.4018
 9396SOL    HW139647   3.353   2.079  10.796  2.8812 -1.9881 -0.3581
 9396SOL    HW239648   3.284   2.009  10.700  1.9971  3.7320  0.3345
 9397SOL     OW39649   1.020   0.496  10.812  0.3159 -0.2819 -0.5061
 9397SOL    HW139650   1.042   0.403  10.821  0.6934 -0.1895 -0.5057
 9397SOL    HW239651   0.938   0.491  10.761  0.8327 -0.9248 -1.2825
 9398SOL     OW39652   1.067   2.793   2.337  0.0771 -0.0214  0.2911
 9398SOL    HW139653   1.119   2.841   2.272 -1.1628  0.2660 -0.4733
 9398SOL    HW239654   1.087   2.835   2.421  0.1327 -0.9274  0.7374
 9399SOL     OW39655   0.645   4.219   5.797 -0.1819 -0.3916 -0.0761
 9399SOL    HW139656   0.652   4.125   5.778 -1.4953 -0.2898 -1.0492
 9399SOL    HW239657   0.685   4.208   5.883  1.5019  1.8591 -0.5843
 9400SOL     OW39658   4.337   4.580   7.901  0.4390  0.2261 -0.2946
 9400SOL    HW139659   4.373   4.604   7.816 -1.3650  1.4534 -0.7056
 9400SOL    HW239660   4.334   4.665   7.944  3.5041  1.2387 -2.0820
 9401SOL     OW39661   1.678   1.368   9.634  0.3131  0.1218 -0.1938
 9401SOL    HW139662   1.608   1.316   9.675  0.6873 -0.0924  0.1711
 9401SOL    HW239663   1.630   1.447   9.610  1.8163  1.1776  0.3174
 9402SOL     OW39664   3.488   3.747   4.345  1.0939 -0.2916  0.2714
 9402SOL    HW139665   3.537   3.735   4.427  2.3554 -0.2011 -0.4733
 9402SOL    HW239666   3.518   3.836   4.326 -2.2265  0.6728 -0.4923
 9403SOL     OW39667   1.253   0.198   9.522 -0.1667 -0.0054  0.1361
 9403SOL    HW139668   1.258   0.107   9.494 -0.1678  0.0053  0.1004
 9403SOL    HW239669   1.328   0.228   9.470 -0.4430 -0.9840 -0.8398
 9404SOL     OW39670   1.254   4.634   3.022  0.9107 -0.0299 -0.4727
 9404SOL    HW139671   1.336   4.593   2.994  2.1274  0.7288  2.0020
 9404SOL    HW239672   1.198   4.623   2.945  1.0468 -3.0614 -0.1328
 9405SOL     OW39673   2.751   1.902   1.071 -0.3750  0.4746 -0.2197
 9405SOL    HW139674   2.809   1.938   1.003  0.5183 -0.7786 -0.1193
 9405SOL    HW239675   2.673   1.955   1.060 -1.4601 -0.6026  2.2568
 9406SOL     OW39676   2.077   0.713   6.488 -0.2946  0.2878 -0.6972
 9406SOL    HW139677   2.121   0.755   6.562 -1.3682  0.5447 -0.2206
 9406SOL    HW239678   2.000   0.766   6.469  0.1840  1.2107 -0.0501
 9407SOL     OW39679   2.223   2.562   1.772 -0.4152 -0.0585 -0.1842
 9407SOL    HW139680   2.228   2.636   1.832  2.3991  1.8391 -2.7536
 9407SOL    HW239681   2.146   2.596   1.727 -1.0411 -0.3249  0.6891
 9408SOL     OW39682   0.067   0.789   3.225 -0.0744 -0.1940 -0.3054
 9408SOL    HW139683   0.004   0.853   3.191  1.4077  0.9608 -0.8996
 9408SOL    HW239684   4.715   0.739   3.265 -1.3191  0.2624 -1.9595
 9409SOL     OW39685   3.862   0.030   0.907  0.1991  0.1605 -0.5333
 9409SOL    HW139686   3.831   0.120   0.892 -0.2704  0.4596  2.2214
 9409SOL    HW239687   3.940   0.046   0.960 -1.5505  0.4560  1.9666
 9410SOL     OW39688   4.256   2.733   6.522 -0.2262  0.1664  0.1067
 9410SOL    HW139689   4.167   2.698   6.522 -0.0295 -0.3289  0.3978
 9410SOL    HW239690   4.278   2.715   6.613  0.4095  0.1542 -0.0495
 9411SOL     OW39691   2.356   4.009   9.494 -0.2023 -0.1068  0.2057
 9411SOL    HW139692   2.364   4.004   9.590  0.0562  2.6553  0.3164
 9411SOL    HW239693   2.288   3.942   9.481 -0.1656 -0.1591  0.2812
 9412SOL     OW39694   2.111   1.137  16.350  0.8919 -0.7410 -0.3193
 9412SOL    HW139695   2.137   1.207  16.410  1.2446  0.0647 -1.4104
 9412SOL    HW239696   2.198   1.134  16.310  0.6329  3.0889 -1.1275
 9413SOL     OW39697   0.934   2.885   6.775 -0.0026 -0.5092  0.2481
 9413SOL    HW139698   0.946   2.926   6.690  2.5831  0.7267  1.1913
 9413SOL    HW239699   0.897   2.958   6.825 -0.8087  0.2566 -1.4973
 9414SOL     OW39700   0.899   0.196   5.092  0.7879  0.6420  0.3784
 9414SOL    HW139701   0.916   0.103   5.108 -4.1568 -0.0187  1.8343
 9414SOL    HW239702   0.838   0.210   5.164 -0.0868 -1.0935 -0.0138
 9415SOL     OW39703   3.879   4.381   4.122  0.5302 -0.5543  0.6075
 9415SOL    HW139704   3.887   4.474   4.104 -1.8949 -0.5074 -0.1828
 9415SOL    HW239705   3.838   4.363   4.207 -1.4952 -1.8561 -0.6337
 9416SOL     OW39706   2.349   0.746   6.910 -0.8693  0.2399  1.0765
 9416SOL    HW139707   2.417   0.737   6.844 -0.4153  0.2431  1.5408
 9416SOL    HW239708   2.386   0.728   6.997  1.0426 -2.4214 -0.2879
 9417SOL     OW39709   3.415   0.590   2.861 -0.5471 -0.5852  0.1707
 9417SOL    HW139710   3.507   0.590   2.837 -0.2292 -0.8438  1.3822
 9417SOL    HW239711   3.382   0.602   2.772  0.5984 -1.0847 -0.3099
 9418SOL     OW39712   0.845   3.862   8.490 -0.2523 -0.2480  0.2610
 9418SOL    HW139713   0.750   3.849   8.488 -0.1516 -0.8505 -0.8501
 9418SOL    HW239714   0.853   3.937   8.431  1.7228 -0.0083  0.8504
 9419SOL     OW39715   3.523   3.537  13.820  0.3103  0.2343 -0.3496
 9419SOL    HW139716   3.601   3.573  13.777 -1.7855  1.1594 -3.3747
 9419SOL    HW239717   3.462   3.589  13.768 -0.9411  0.5261  1.4266
 9420SOL     OW39718   0.579   2.865   3.304 -0.2133 -0.1318  0.5297
 9420SOL    HW139719   0.613   2.938   3.252 -2.4470 -0.5656 -1.5616
 9420SOL    HW239720   0.621   2.872   3.390 -1.0299  1.3098  0.8240
 9421SOL     OW39721   0.379   0.509   7.710  0.3179 -0.4951 -0.1005
 9421SOL    HW139722   0.312   0.511   7.641 -0.4401  0.2449  0.6549
 9421SOL    HW239723   0.450   0.540   7.655  1.2452 -0.4287  1.1497
 9422SOL     OW39724   0.825   2.789  17.089  0.4357  0.6160  0.5248
 9422SOL    HW139725   0.807   2.719  17.026 -2.7728  1.1495  0.8517
 9422SOL    HW239726   0.786   2.862  17.041  0.7932 -1.0180 -2.2031
 9423SOL     OW39727   2.814   2.330   7.194  0.7203  0.2174 -0.0495
 9423SOL    HW139728   2.748   2.376   7.142 -0.8570 -1.0003  0.9166
 9423SOL    HW239729   2.754   2.299   7.261  2.4159 -0.5297  1.1118
 9424SOL     OW39730   0.580   4.105   5.012 -0.4194  0.3477 -0.5030
 9424SOL    HW139731   0.614   4.081   5.098  1.3396  0.9636 -1.0228
 9424SOL    HW239732   0.665   4.121   4.970  0.8522 -0.9847  1.5547
 9425SOL     OW39733   3.673   3.744   2.786  0.0267  0.1557 -0.1663
 9425SOL    HW139734   3.675   3.657   2.825  1.7271  0.8325  1.2964
 9425SOL    HW239735   3.681   3.789   2.871  2.6081  1.0284 -0.8576
 9426SOL     OW39736   0.616   1.310  14.776  0.0311  0.4126  0.3841
 9426SOL    HW139737   0.646   1.400  14.772  0.0237  0.4073  0.2113
 9426SOL    HW239738   0.671   1.268  14.842 -1.9633 -0.8219  1.2810
 9427SOL     OW39739   0.410   2.233   5.217 -0.1645  0.3354  0.4313
 9427SOL    HW139740   0.499   2.244   5.251  0.4777  0.5428 -1.3020
 9427SOL    HW239741   0.391   2.151   5.263 -0.5386  0.7551  1.0214
 9428SOL     OW39742   0.213   0.883   1.940  0.1228 -0.4627 -0.7675
 9428SOL    HW139743   0.271   0.954   1.913 -2.7679  2.3956  0.3991
 9428SOL    HW239744   0.138   0.895   1.881 -1.2631  0.5383  1.1834
 9429SOL     OW39745   3.427   3.208   2.906 -0.2763  0.0600 -0.0400
 9429SOL    HW139746   3.375   3.130   2.884  2.6861 -2.0155  0.4207
 9429SOL    HW239747   3.517   3.178   2.910 -0.7873 -1.6526 -1.3677
 9430SOL     OW39748   0.723   4.466   6.226 -0.1948 -0.1651 -0.1644
 9430SOL    HW139749   0.651   4.448   6.286 -1.3204  0.4275 -1.3424
 9430SOL    HW239750   0.668   4.460   6.148  0.3023 -1.3178 -0.4407
 9431SOL     OW39751   4.265   1.809  12.629  0.6345  0.0799 -0.1889
 9431SOL    HW139752   4.212   1.833  12.705  0.9732  0.0899  0.0452
 9431SOL    HW239753   4.313   1.891  12.619  2.7651 -1.3699 -1.7571
 9432SOL     OW39754   2.633   4.513   9.122  0.7271 -0.2163  1.0497
 9432SOL    HW139755   2.726   4.522   9.141  0.6084 -0.9276  1.9727
 9432SOL    HW239756   2.604   4.560   9.200 -0.0831  0.8626  0.0866
 9433SOL     OW39757   2.734   0.996   6.843  0.5389  0.2654  0.0623
 9433SOL    HW139758   2.721   1.031   6.931  0.6733 -0.1076  0.2290
 9433SOL    HW239759   2.802   1.055   6.812 -1.8810  1.4286 -3.0783
 9434SOL     OW39760   1.239   0.443  10.630 -0.1555 -0.2059  0.2363
 9434SOL    HW139761   1.148   0.444  10.660  0.4767  0.0422  2.1458
 9434SOL    HW239762   1.278   0.512  10.683 -1.5371  1.0690 -0.3925
 9435SOL     OW39763   1.408   1.640   3.199  0.4643  0.4866  1.0140
 9435SOL    HW139764   1.468   1.604   3.264  1.2396 -0.7515 -0.3753
 9435SOL    HW239765   1.350   1.565   3.191  2.0450 -0.5197 -1.3900
 9436SOL     OW39766   1.737   4.621   9.156 -0.4124 -0.1938 -0.2358
 9436SOL    HW139767   1.691   4.580   9.083  0.0118 -0.9820 -0.0664
 9436SOL    HW239768   1.790   4.687   9.113 -1.9184  0.1906 -1.4942
 9437SOL     OW39769   4.717   0.171   7.452 -0.0378 -0.6773  0.2483
 9437SOL    HW139770   4.662   0.228   7.506 -2.1696 -3.5015  1.0427
 9437SOL    HW239771   4.664   0.128   7.385  1.5435 -0.9555 -0.8371
 9438SOL     OW39772   0.830   0.245   8.903  0.2459  0.6462  0.2891
 9438SOL    HW139773   0.812   0.328   8.947  0.4383  0.5178  0.6122
 9438SOL    HW239774   0.873   0.200   8.976 -0.3051 -0.8853 -0.3267
 9439SOL     OW39775   2.528   3.576  16.821 -0.0022 -0.6196  0.2467
 9439SOL    HW139776   2.454   3.619  16.778  2.1949  0.7764 -2.1252
 9439SOL    HW239777   2.527   3.624  16.904 -0.7007 -1.5829  0.8012
 9440SOL     OW39778   2.389   4.244  15.449 -0.0134 -0.1806  0.3704
 9440SOL    HW139779   2.471   4.262  15.494  0.3096 -0.6162 -0.0506
 9440SOL    HW239780   2.379   4.150  15.460  2.3854 -0.3828  0.6820
 9441SOL     OW39781   0.595   4.244  11.394 -0.2586  0.4357  0.0936
 9441SOL    HW139782   0.578   4.220  11.302 -0.0212  0.6642 -0.0089
 9441SOL    HW239783   0.669   4.302  11.380  0.9868 -1.2426 -0.2631
 9442SOL     OW39784   4.331   0.115   4.496  0.0777 -0.2196 -0.0349
 9442SOL    HW139785   4.395   0.081   4.559 -0.7944 -0.9987  0.4280
 9442SOL    HW239786   4.351   0.060   4.421 -0.1759  1.0216 -1.0020
 9443SOL     OW39787   3.934   2.655  12.781 -0.1176  0.1634 -0.4569
 9443SOL    HW139788   4.022   2.683  12.755  0.8072 -1.7389  0.6521
 9443SOL    HW239789   3.952   2.576  12.832 -2.2595 -0.0592 -0.0633
 9444SOL     OW39790   3.273   2.607  12.640  0.0506  0.2704 -1.1500
 9444SOL    HW139791   3.189   2.585  12.681  1.2266 -0.8255  0.6525
 9444SOL    HW239792   3.253   2.559  12.560 -0.5235 -1.5040  0.0600
 9445SOL     OW39793   1.214   4.430   1.418  0.1645  0.1786 -0.7223
 9445SOL    HW139794   1.151   4.359   1.435 -1.7281  1.7159 -1.2921
 9445SOL    HW239795   1.256   4.446   1.503  1.1327 -1.1737 -0.9492
 9446SOL     OW39796   1.931   0.008   4.893  1.0882  0.0257  0.0959
 9446SOL    HW139797   1.865   0.035   4.957 -0.7344  0.0855 -1.8031
 9446SOL    HW239798   1.926   4.633   4.905  0.4877  0.0838  0.3111
 9447SOL     OW39799   1.336   4.100  10.879 -0.3535 -0.1029  0.8399
 9447SOL    HW139800   1.340   4.163  10.950  1.0956  2.0853 -1.1676
 9447SOL    HW239801   1.249   4.127  10.849  0.1354  2.9728  2.2285
 9448SOL     OW39802   1.499   0.945   8.294  0.5315  0.0648  0.7450
 9448SOL    HW139803   1.554   1.012   8.252  2.4604 -0.8738  1.7917
 9448SOL    HW239804   1.441   0.994   8.353 -0.3963 -0.6582  0.4270
 9449SOL     OW39805   0.339   2.685  14.687 -0.2284 -0.4516 -0.7244
 9449SOL    HW139806   0.341   2.657  14.595  0.2523  0.0455 -0.8656
 9449SOL    HW239807   0.306   2.775  14.680  0.8174 -0.2932 -3.8869
 9450SOL     OW39808   2.053   2.359   3.832  0.0186 -0.3349  0.0316
 9450SOL    HW139809   2.098   2.398   3.906  0.2617  0.6687 -0.6533
 9450SOL    HW239810   2.110   2.388   3.761 -2.1537  1.3646 -1.0178
 9451SOL     OW39811   3.641   3.128  10.938  0.3683  0.2547 -0.2500
 9451SOL    HW139812   3.721   3.077  10.944  1.0795  1.3555 -0.4267
 9451SOL    HW239813   3.633   3.136  10.843 -3.2195  0.4787  0.0470
 9452SOL     OW39814   3.759   4.121   8.823  0.0749  0.5669  0.2590
 9452SOL    HW139815   3.731   4.064   8.894  1.8635  1.2736  1.5076
 9452SOL    HW239816   3.802   4.064   8.759 -2.6326 -0.5853 -0.5306
 9453SOL     OW39817   4.640   2.610  17.219  0.8841  0.4440 -0.0298
 9453SOL    HW139818   4.655   2.650  17.133 -1.2777 -1.1655 -1.1474
 9453SOL    HW239819   4.663   2.517  17.216 -1.1202  0.0326 -3.2481
 9454SOL     OW39820   4.037   4.359   5.113  0.1860 -0.4481 -0.1331
 9454SOL    HW139821   4.034   4.278   5.061  0.3149  0.3456 -1.3680
 9454SOL    HW239822   3.953   4.401   5.094  0.2737 -0.3231 -0.2436
 9455SOL     OW39823   2.093   0.627   7.509 -0.0426 -0.0607  0.2532
 9455SOL    HW139824   2.052   0.653   7.426 -0.8704 -1.1098  0.3334
 9455SOL    HW239825   2.148   0.554   7.481 -1.5956  0.2114 -3.5989
 9456SOL     OW39826   2.957   3.861   2.316 -0.1478 -0.5884  0.4618
 9456SOL    HW139827   2.999   3.867   2.229 -0.2126 -0.5179  0.4360
 9456SOL    HW239828   2.947   3.954   2.333  2.0394 -0.1523 -0.5400
 9457SOL     OW39829   4.393   2.615   9.813  0.9795 -0.4565  0.3362
 9457SOL    HW139830   4.447   2.614   9.734 -1.1763 -1.9921 -1.1242
 9457SOL    HW239831   4.302   2.624   9.784  1.1714  1.3838  0.3237
 9458SOL     OW39832   1.677   3.706   9.647 -0.6597 -0.2680  0.2313
 9458SOL    HW139833   1.705   3.618   9.669  0.4698 -0.7207 -3.0163
 9458SOL    HW239834   1.702   3.697   9.555 -0.2674  1.7408  0.1299
 9459SOL     OW39835   3.133   2.232   6.607  0.6337  0.2146 -0.6571
 9459SOL    HW139836   3.129   2.293   6.533  1.0639  1.1932  0.1426
 9459SOL    HW239837   3.217   2.192   6.584  1.4798  1.2565  0.6207
 9460SOL     OW39838   0.023   3.391   2.948 -0.6528  0.1456 -0.0208
 9460SOL    HW139839   0.104   3.387   2.997 -1.5009  1.0419  1.4478
 9460SOL    HW239840   0.056   3.447   2.877  1.5619 -2.7348 -1.2753
 9461SOL     OW39841   4.358   2.871   2.834 -0.0807 -0.1112  0.1075
 9461SOL    HW139842   4.428   2.912   2.886  0.0554  1.1511 -1.0679
 9461SOL    HW239843   4.392   2.782   2.839 -1.1410 -0.4288  1.7686
 9462SOL     OW39844   1.963   2.662   0.328 -0.3276  0.0288 -0.5470
 9462SOL    HW139845   2.027   2.733   0.320 -0.6419  0.3217 -0.4050
 9462SOL    HW239846   2.024   2.592   0.352  0.8116  1.2325  0.0784
 9463SOL     OW39847   3.527   1.339   7.090 -0.0118 -0.0238  0.4899
 9463SOL    HW139848   3.460   1.288   7.135  1.9582 -2.1471  0.9801
 9463SOL    HW239849   3.532   1.409   7.156 -1.7822 -0.6252  1.2722
 9464SOL     OW39850   1.659   1.486  13.158 -0.2348 -0.2616 -0.7270
 9464SOL    HW139851   1.728   1.425  13.134 -2.7498 -3.8739  1.1668
 9464SOL    HW239852   1.588   1.445  13.108 -1.7442  0.6007  0.7308
 9465SOL     OW39853   3.566   0.576   5.363  0.0161  0.4212  0.5666
 9465SOL    HW139854   3.566   0.670   5.346  1.4476  0.8669  2.9670
 9465SOL    HW239855   3.490   0.575   5.422 -1.0923  0.8965 -0.8588
 9466SOL     OW39856   1.481   2.545  14.503  0.3178  0.6601 -0.0473
 9466SOL    HW139857   1.535   2.479  14.546 -1.0605 -1.3568 -1.3744
 9466SOL    HW239858   1.533   2.613  14.461 -2.6168  1.7130 -2.0058
 9467SOL     OW39859   3.647   3.242   6.657  0.0242  0.5281  0.1354
 9467SOL    HW139860   3.596   3.321   6.674 -0.7941 -0.2285  1.2126
 9467SOL    HW239861   3.715   3.257   6.722 -0.8977  1.7580  0.8263
 9468SOL     OW39862   1.468   2.517  17.666  0.3123 -0.0445 -0.0868
 9468SOL    HW139863   1.427   2.430  17.669 -0.0733  0.2145  2.0562
 9468SOL    HW239864   1.537   2.517   0.051  0.2188  2.0214  0.0126
 9469SOL     OW39865   0.324   2.248   7.255  0.1354  0.3351 -0.7832
 9469SOL    HW139866   0.384   2.266   7.327  0.7360 -0.4356 -1.0983
 9469SOL    HW239867   0.281   2.333   7.245 -0.0682  0.3540  0.2567
 9470SOL     OW39868   4.144   1.958   5.003 -0.4346  0.0511 -0.5399
 9470SOL    HW139869   4.062   1.975   4.957  0.1739  0.1302 -1.5846
 9470SOL    HW239870   4.140   1.999   5.090  1.3034 -0.9271  0.0005
 9471SOL     OW39871   1.572   3.950   4.177 -0.4630 -0.2506  0.0210
 9471SOL    HW139872   1.498   3.963   4.235 -0.7705  1.0588 -0.6608
 9471SOL    HW239873   1.547   4.011   4.107 -0.1487 -0.9550 -0.7016
 9472SOL     OW39874   2.135   4.154   3.520  0.0664 -0.5311  0.0821
 9472SOL    HW139875   2.083   4.079   3.488 -0.2501  0.2641 -1.2856
 9472SOL    HW239876   2.188   4.114   3.588  0.4773 -1.0153 -0.5248
 9473SOL     OW39877   4.014   1.307   8.891  0.6767 -0.2556  0.7940
 9473SOL    HW139878   4.021   1.309   8.796 -0.1095 -0.3680  0.7329
 9473SOL    HW239879   4.010   1.213   8.909 -0.2471 -0.2701  0.4959
 9474SOL     OW39880   1.827   1.941   7.131  0.4525  0.3751 -0.2924
 9474SOL    HW139881   1.732   1.951   7.133  0.3170 -0.8098 -0.7296
 9474SOL    HW239882   1.839   1.919   7.039 -2.9234 -0.3952 -0.5390
 9475SOL     OW39883   2.462   1.536   8.122  0.3765 -0.5756  0.1335
 9475SOL    HW139884   2.448   1.631   8.117  2.1681 -0.2957  0.4488
 9475SOL    HW239885   2.537   1.534   8.182  0.9954 -0.3871 -0.6334
 9476SOL     OW39886   3.735   3.612   8.603 -0.0338 -1.0667 -0.0255
 9476SOL    HW139887   3.672   3.682   8.620  1.1572 -0.4606  1.8870
 9476SOL    HW239888   3.800   3.646   8.665 -1.0744 -1.9196  1.5136
 9477SOL     OW39889   3.505   4.198   8.833 -0.3152 -0.0064 -0.2896
 9477SOL    HW139890   3.491   4.287   8.803 -1.2961  0.4784  1.6593
 9477SOL    HW239891   3.592   4.175   8.798  0.1172 -0.9426  1.3660
 9478SOL     OW39892   1.666   0.446   8.788 -0.6009  0.2744 -0.0077
 9478SOL    HW139893   1.665   0.529   8.741 -2.0519 -0.4382 -1.2169
 9478SOL    HW239894   1.692   0.468   8.878  4.0628  1.9364 -1.7554
 9479SOL     OW39895   0.229   3.067   5.842  0.3392 -0.8520 -0.3412
 9479SOL    HW139896   0.279   3.007   5.897  0.3855  0.0063  0.5533
 9479SOL    HW239897   0.138   3.048   5.865  0.5984 -0.9042  0.6500
 9480SOL     OW39898   1.870   0.939   3.796 -0.0763  0.4745 -0.5272
 9480SOL    HW139899   1.908   1.022   3.825  1.5577 -0.1293 -0.9535
 9480SOL    HW239900   1.888   0.938   3.702 -0.1824  4.4251 -0.5927
 9481SOL     OW39901   1.336   4.495   5.631 -0.0819 -0.4233  0.0529
 9481SOL    HW139902   1.244   4.520   5.635 -0.0310 -0.0417 -1.2589
 9481SOL    HW239903   1.342   4.494   5.536  1.6033  0.2867  0.1494
 9482SOL     OW39904   3.681   3.805   7.298  0.0583  0.2064 -0.2410
 9482SOL    HW139905   3.656   3.897   7.302  1.7254  0.6086  0.7243
 9482SOL    HW239906   3.709   3.794   7.207  1.9953 -3.8284  0.8084
 9483SOL     OW39907   3.997   2.397  11.486  0.3393  0.2384  0.1606
 9483SOL    HW139908   4.072   2.362  11.534 -0.3684 -0.1769  0.9677
 9483SOL    HW239909   4.039   2.440  11.412 -1.2422 -0.3384 -1.0517
 9484SOL     OW39910   0.105   1.388  17.059 -0.2316  0.1957 -0.3689
 9484SOL    HW139911   0.093   1.301  17.022  0.7922 -0.0442 -0.1317
 9484SOL    HW239912   0.183   1.414  17.010  0.6072 -0.0769  0.8406
 9485SOL     OW39913   2.992   4.569   3.585 -0.0767 -0.2431  0.5190
 9485SOL    HW139914   3.036   4.631   3.527 -4.1324  2.0544 -0.0705
 9485SOL    HW239915   2.991   4.600   3.676  2.6426 -0.0740  0.5095
 9486SOL     OW39916   2.423   4.001   5.314  0.1226 -1.0577 -0.7645
 9486SOL    HW139917   2.339   3.955   5.313 -0.0848 -0.7370  0.7981
 9486SOL    HW239918   2.431   3.986   5.409 -2.1756 -0.1800 -0.4327
 9487SOL     OW39919   1.269   1.104   8.348  0.7542  0.0831  0.1613
 9487SOL    HW139920   1.293   1.149   8.429 -1.5421 -3.8201  2.9651
 9487SOL    HW239921   1.206   1.167   8.312  0.1439 -0.6916 -0.1300
 9488SOL     OW39922   0.305   3.610   5.723 -0.3553  0.2120  0.0451
 9488SOL    HW139923   0.251   3.678   5.763  1.6133 -0.5130  3.8360
 9488SOL    HW239924   0.293   3.532   5.777 -1.8206  0.9217  0.7571
 9489SOL     OW39925   2.904   0.633  16.117 -0.3665  0.1358  0.3948
 9489SOL    HW139926   2.849   0.633  16.039  0.0402 -1.1455  0.1040
 9489SOL    HW239927   2.833   0.651  16.178 -0.7436 -0.1262  0.0338
 9490SOL     OW39928   0.682   3.502   2.277  0.1664 -0.4453 -0.1906
 9490SOL    HW139929   0.669   3.493   2.371  0.8265 -1.9826 -0.2425
 9490SOL    HW239930   0.644   3.588   2.257 -0.9295 -0.8383  0.2504
 9491SOL     OW39931   3.451   0.437  10.811  0.3961 -0.1819  0.0966
 9491SOL    HW139932   3.427   0.376  10.879 -1.6041  1.0345  0.4778
 9491SOL    HW239933   3.368   0.444  10.763  0.3868 -0.8924  0.0120
 9492SOL     OW39934   2.586   2.699   6.738 -0.0225  0.1390 -0.0713
 9492SOL    HW139935   2.658   2.681   6.800  0.5007  1.3066 -0.3313
 9492SOL    HW239936   2.529   2.631   6.773  1.2075 -0.0841  1.5261
 9493SOL     OW39937   1.868   0.809   1.567  0.0579  0.3933 -0.2317
 9493SOL    HW139938   1.962   0.821   1.557 -0.1615  1.4379 -1.0434
 9493SOL    HW239939   1.856   0.733   1.509  0.8794 -0.6601  0.9892
 9494SOL     OW39940   0.444   2.699   0.088  0.0113  0.5604  0.0465
 9494SOL    HW139941   0.403   2.682   0.003  0.1574  1.3687 -0.1965
 9494SOL    HW239942   0.469   2.608   0.097 -0.1327  0.2324 -2.7006
 9495SOL     OW39943   2.976   3.509  11.360  0.3685 -0.3787  0.9724
 9495SOL    HW139944   3.060   3.481  11.398  0.5948 -1.2288 -0.1645
 9495SOL    HW239945   2.928   3.527  11.441 -4.2257 -3.8169 -1.0315
 9496SOL     OW39946   0.144   1.616   6.929  0.3391 -0.2634  0.1503
 9496SOL    HW139947   0.128   1.656   6.844  2.5807  2.2841  0.9209
 9496SOL    HW239948   0.231   1.588   6.899  0.4499 -0.1504  0.3635
 9497SOL     OW39949   2.207   0.244   5.407 -0.1046  0.2490 -0.1897
 9497SOL    HW139950   2.234   0.243   5.499  0.2495  1.0865 -0.2868
 9497SOL    HW239951   2.262   0.309   5.365  0.0598 -0.6051 -1.2803
 9498SOL     OW39952   1.889   1.790  17.029 -0.1466 -0.3660  0.2655
 9498SOL    HW139953   1.799   1.821  17.023  0.6491  2.1615  1.3250
 9498SOL    HW239954   1.921   1.806  17.118  0.2053  0.6541 -0.0437
 9499SOL     OW39955   0.876   0.864   1.099  0.4094  0.2329  0.8477
 9499SOL    HW139956   0.892   0.958   1.096  0.7665  0.1651  0.6579
 9499SOL    HW239957   0.888   0.855   1.193 -0.4657 -3.0493  0.6492
 9500SOL     OW39958   3.405   2.787   2.690 -0.3497 -0.3943 -0.1100
 9500SOL    HW139959   3.351   2.822   2.761 -0.0002  2.7325 -1.3447
 9500SOL    HW239960   3.343   2.736   2.637 -0.8003  0.5273 -0.4859
 9501SOL     OW39961   4.487   2.661   1.829  0.3796 -0.6503  0.0690
 9501SOL    HW139962   4.482   2.655   1.733  4.2268  1.4151 -0.2603
 9501SOL    HW239963   4.578   2.680   1.850  0.2413 -0.8230  0.8136
 9502SOL     OW39964   2.148   2.668  14.236 -0.2250  0.3873  0.1852
 9502SOL    HW139965   2.177   2.614  14.310 -0.2364  1.5264  1.0296
 9502SOL    HW239966   2.238   2.696  14.222 -0.6062  2.1908  1.2563
 9503SOL     OW39967   3.559   3.115   7.801  0.0944  0.2181  0.5592
 9503SOL    HW139968   3.566   3.211   7.796  1.7837 -0.0050 -0.9465
 9503SOL    HW239969   3.527   3.102   7.712 -0.3128  1.3016  0.5460
 9504SOL     OW39970   4.232   0.972   5.004 -0.0009  0.1255  0.4570
 9504SOL    HW139971   4.167   0.961   4.934 -1.6188  0.3680  1.9199
 9504SOL    HW239972   4.199   1.049   5.050  0.2384  0.0773  0.7082
 9505SOL     OW39973   0.600   3.044   7.768  0.1268  0.0697  0.0502
 9505SOL    HW139974   0.546   3.106   7.817  1.8397  1.1475  0.5930
 9505SOL    HW239975   0.661   3.017   7.837  1.3349  1.5579 -0.4383
 9506SOL     OW39976   2.857   2.180  13.370  0.1920 -0.2186 -0.3904
 9506SOL    HW139977   2.870   2.194  13.277 -0.8922  2.9370 -0.0512
 9506SOL    HW239978   2.843   2.085  13.372  2.4190 -0.5176  0.9897
 9507SOL     OW39979   2.898   3.668   1.478 -0.2337 -0.2866 -0.2759
 9507SOL    HW139980   2.924   3.683   1.569 -0.5122 -0.7290 -0.1236
 9507SOL    HW239981   2.966   3.716   1.431  0.6507 -1.5954 -0.3477
 9508SOL     OW39982   1.934   2.951  15.961 -0.9166 -0.0332 -0.3074
 9508SOL    HW139983   1.916   2.872  16.011 -0.2207 -1.2563 -2.0074
 9508SOL    HW239984   1.950   3.020  16.026  0.2495  2.1352 -2.8904
 9509SOL     OW39985   3.965   1.982   5.687  0.1245  0.2493  0.6115
 9509SOL    HW139986   3.886   1.971   5.741 -1.0575 -0.2188 -1.2238
 9509SOL    HW239987   4.007   2.030   5.759 -1.0479  1.9489  0.1654
 9510SOL     OW39988   0.994   1.092   6.997 -0.1649 -0.2138  0.1021
 9510SOL    HW139989   1.070   1.061   6.948 -0.9424  0.3555 -1.4632
 9510SOL    HW239990   0.939   1.013   6.998 -0.4553 -0.0328 -1.0374
 9511SOL     OW39991   0.617   3.035   5.358 -0.0623 -0.0025 -0.3663
 9511SOL    HW139992   0.586   3.125   5.353  0.1060  0.2077  2.8873
 9511SOL    HW239993   0.603   3.027   5.452 -1.5880 -1.2513 -0.7025
 9512SOL     OW39994   3.304   1.812   2.474  1.0017  0.3466 -0.2097
 9512SOL    HW139995   3.270   1.726   2.500  0.6975  0.3613 -0.5610
 9512SOL    HW239996   3.232   1.875   2.484  1.0812  0.1858  1.3269
 9513SOL     OW39997   2.586   3.660  10.945  0.3024 -0.5150  0.8636
 9513SOL    HW139998   2.639   3.724  10.993 -0.5576  1.7172 -1.1876
 9513SOL    HW239999   2.511   3.713  10.919  1.1729 -0.0336 -0.7007
 9514SOL     OW40000   4.060   2.992   5.437  0.0621  0.5097 -0.0108
 9514SOL    HW140001   4.154   2.979   5.423  0.4706  1.6398  1.6281
 9514SOL    HW240002   4.035   2.903   5.462 -1.3674  1.4510  1.8991
 9515SOL     OW40003   1.647   3.168   8.064  0.2382 -0.0896 -0.0999
 9515SOL    HW140004   1.735   3.195   8.038 -0.3178  1.2469 -0.5719
 9515SOL    HW240005   1.618   3.250   8.102 -4.5055 -1.8877  0.1726
 9516SOL     OW40006   0.154   0.823   0.938  0.0419  0.3192  0.4082
 9516SOL    HW140007   0.158   0.910   0.976  1.1536  0.0602  0.9033
 9516SOL    HW240008   0.143   0.765   1.013 -1.7553  0.4618  0.2349
 9517SOL     OW40009   3.493   4.093   6.965  0.1925 -0.0120  0.2338
 9517SOL    HW140010   3.413   4.052   6.931  0.7687 -1.4576  0.6465
 9517SOL    HW240011   3.462   4.139   7.043  1.6048 -1.0324  1.4003
 9518SOL     OW40012   0.922   1.224   2.935  0.0240  0.1769  0.3957
 9518SOL    HW140013   0.840   1.200   2.978 -0.7904  0.0600 -1.2332
 9518SOL    HW240014   0.957   1.297   2.987  0.3261  0.7615 -0.6304
 9519SOL     OW40015   0.388   4.561   2.070  0.5648  0.2885 -0.1448
 9519SOL    HW140016   0.296   4.585   2.075  0.4772 -0.2791  0.9823
 9519SOL    HW240017   0.394   4.484   2.127 -1.6180 -1.0658 -1.7791
 9520SOL     OW40018   2.258   1.069  14.550  0.0018 -0.3439 -0.6588
 9520SOL    HW140019   2.267   1.156  14.510  0.1217 -0.1003 -0.1107
 9520SOL    HW240020   2.288   1.004  14.487  0.7538 -0.4664 -0.1809
 9521SOL     OW40021   2.842   0.767   1.644  0.1799  0.2662  0.1535
 9521SOL    HW140022   2.812   0.855   1.621  1.6592  0.5163 -0.8579
 9521SOL    HW240023   2.930   0.792   1.672 -0.6259  1.5089  1.5954
 9522SOL     OW40024   1.984   0.311   8.941  0.0046  0.4706  0.6386
 9522SOL    HW140025   1.922   0.380   8.966 -0.6943 -0.6457  1.9581
 9522SOL    HW240026   2.059   0.324   8.998 -0.2265  1.2918  0.7483
 9523SOL     OW40027   1.059   4.508  10.781 -0.2119 -0.3317  0.8359
 9523SOL    HW140028   1.135   4.537  10.730  0.5894 -0.1562  2.1471
 9523SOL    HW240029   0.984   4.520  10.722  1.0665  2.4180 -0.2570
 9524SOL     OW40030   2.886   0.711   0.067  0.2742  0.3548 -0.6909
 9524SOL    HW140031   2.918   0.649   0.001  0.6213 -0.1661 -0.0385
 9524SOL    HW240032   2.972   0.753   0.069  0.5706 -0.2150 -1.2327
 9525SOL     OW40033   1.987   3.912   7.483 -0.0453 -0.8231  0.0903
 9525SOL    HW140034   1.892   3.910   7.473  0.1320  0.7969 -1.8831
 9525SOL    HW240035   1.988   3.936   7.576 -0.8625  1.1296 -0.3910
 9526SOL     OW40036   1.429   1.835   6.172  0.9063 -0.5301 -0.0847
 9526SOL    HW140037   1.354   1.826   6.114  0.1664 -0.8390  0.9010
 9526SOL    HW240038   1.481   1.908   6.139 -0.2142 -0.0215 -0.6854
 9527SOL     OW40039   0.572   0.712   3.406 -0.0340  0.1730  0.2086
 9527SOL    HW140040   0.608   0.795   3.372  2.6589 -0.2535  2.0269
 9527SOL    HW240041   0.481   0.719   3.380  0.5791  0.8718 -1.7748
 9528SOL     OW40042   4.571   4.205  16.694 -0.2291  0.3224 -0.6257
 9528SOL    HW140043   4.659   4.170  16.681  0.7477  1.8252  1.8850
 9528SOL    HW240044   4.600   4.268  16.760 -0.2871 -0.2623 -0.0447
 9529SOL     OW40045   0.006   4.114  17.402 -0.3979 -0.0415  0.8227
 9529SOL    HW140046   4.662   4.145  17.466  0.5065 -0.6205  1.9864
 9529SOL    HW240047   0.081   4.164  17.433  1.7721 -1.7543 -1.6379
 9530SOL     OW40048   3.003   1.497   4.388 -0.1472  0.0909  0.0491
 9530SOL    HW140049   3.079   1.544   4.353 -0.6998 -0.3446 -1.7026
 9530SOL    HW240050   3.001   1.412   4.345 -0.9597 -0.6041  1.4752
 9531SOL     OW40051   3.261   0.789   0.380  0.5966  0.3522 -0.1411
 9531SOL    HW140052   3.343   0.746   0.356  0.5156  0.7060 -1.0763
 9531SOL    HW240053   3.203   0.717   0.354  0.0809 -0.1768  2.4887
 9532SOL     OW40054   1.453   3.993   2.215 -0.4695  0.2164 -0.3850
 9532SOL    HW140055   1.361   3.986   2.189 -0.9490 -0.8253  1.6185
 9532SOL    HW240056   1.440   4.062   2.281  0.1120  0.3664 -0.4275
 9533SOL     OW40057   4.136   1.970  16.019 -0.6698 -0.7327 -0.3763
 9533SOL    HW140058   4.142   2.063  16.043 -1.4609 -0.8244  0.1634
 9533SOL    HW240059   4.042   1.955  16.018 -0.6007 -1.1774 -0.0848
 9534SOL     OW40060   4.339   3.167  12.286 -0.3700 -0.2434  0.3038
 9534SOL    HW140061   4.415   3.122  12.321 -0.2015  2.5176  3.5094
 9534SOL    HW240062   4.269   3.133  12.342  2.5993 -3.0285  2.2828
 9535SOL     OW40063   3.186   2.505   4.999 -0.0200  0.1521 -0.3564
 9535SOL    HW140064   3.223   2.474   4.917 -0.1437  0.0776 -0.3830
 9535SOL    HW240065   3.129   2.434   5.027 -0.3672  0.0659 -1.3134
 9536SOL     OW40066   1.560   2.932   1.516 -0.2062 -0.5803 -0.4847
 9536SOL    HW140067   1.631   2.889   1.562  0.1348 -1.2229 -1.6262
 9536SOL    HW240068   1.602   3.016   1.495 -0.8497 -0.4955 -1.4669
 9537SOL     OW40069   0.236   1.871   4.657  0.2720 -0.2278 -0.5053
 9537SOL    HW140070   0.329   1.892   4.664  0.1052  0.0810  0.9270
 9537SOL    HW240071   0.193   1.885   4.742 -0.2279  2.8306 -1.2608
 9538SOL     OW40072   3.896   2.875   6.601  0.3624  0.2466 -0.5701
 9538SOL    HW140073   3.830   2.866   6.533 -1.5237  0.6099  1.2031
 9538SOL    HW240074   3.867   2.812   6.668  0.7490  1.5677  0.8393
 9539SOL     OW40075   4.649   2.887   1.187  0.3986 -0.1308  0.0280
 9539SOL    HW140076   4.677   2.955   1.125 -1.4374 -0.5418 -1.2277
 9539SOL    HW240077   4.592   2.834   1.131 -0.8140  1.5652 -0.3415
 9540SOL     OW40078   3.997   4.669   5.524 -0.5020 -0.5282  0.1778
 9540SOL    HW140079   4.017   4.645   5.434  2.9715  1.7635  0.3773
 9540SOL    HW240080   4.080   4.660   5.570 -0.7950 -0.7555  0.6675
 9541SOL     OW40081   2.603   2.829   1.287 -0.3904  0.0887  0.2901
 9541SOL    HW140082   2.616   2.796   1.198  0.0035  1.0527 -0.0116
 9541SOL    HW240083   2.509   2.845   1.286 -0.5483 -0.7964  0.5880
 9542SOL     OW40084   2.473   1.239   4.922 -0.0492  0.0621 -0.3016
 9542SOL    HW140085   2.559   1.281   4.933 -0.4297  0.3234  1.7699
 9542SOL    HW240086   2.444   1.238   5.013  0.6253  1.4176 -0.0581
 9543SOL     OW40087   3.391   0.658  10.617 -0.6385  0.2751  0.1697
 9543SOL    HW140088   3.482   0.658  10.588 -0.5597 -0.6293  0.4177
 9543SOL    HW240089   3.359   0.748  10.611 -1.7819 -0.1688 -0.4133
 9544SOL     OW40090   0.580   1.572  10.734 -0.0393 -0.1617  0.3305
 9544SOL    HW140091   0.500   1.619  10.757  0.0091  0.7407 -1.3946
 9544SOL    HW240092   0.550   1.482  10.746 -0.8084 -0.1187 -1.3010
 9545SOL     OW40093   0.289   2.375  14.767 -0.0331  0.4842 -0.1880
 9545SOL    HW140094   0.231   2.385  14.692  1.9356  1.4239 -1.5835
 9545SOL    HW240095   0.361   2.329  14.722 -0.6168 -0.6081 -0.0058
 9546SOL     OW40096   0.845   3.641  13.965  0.2516 -0.3935  0.1797
 9546SOL    HW140097   0.815   3.691  13.889  0.2810 -0.8717 -0.1471
 9546SOL    HW240098   0.902   3.575  13.926 -0.6908 -0.6363 -0.7824
 9547SOL     OW40099   1.749   0.166   8.351  0.3072  0.0274 -0.5582
 9547SOL    HW140100   1.761   0.105   8.423 -0.1702 -1.5888 -1.8612
 9547SOL    HW240101   1.839   0.173   8.317  1.7075 -1.7672  2.7605
 9548SOL     OW40102   1.707   2.523   5.533 -0.4507  0.8131  0.1470
 9548SOL    HW140103   1.719   2.515   5.438  1.3172 -0.1502  0.4457
 9548SOL    HW240104   1.620   2.485   5.540 -1.9054  4.1804  0.0783
 9549SOL     OW40105   0.195   2.595   6.930  0.3608  0.1249  0.3133
 9549SOL    HW140106   0.175   2.583   6.838  0.1825  1.2717  0.2023
 9549SOL    HW240107   0.290   2.608   6.937  0.6025 -0.4318 -2.0633
 9550SOL     OW40108   1.885   3.001   4.859  0.0295  0.6388  0.2722
 9550SOL    HW140109   1.855   3.071   4.801 -0.3417  0.3174  0.0771
 9550SOL    HW240110   1.894   2.933   4.792 -1.1291 -0.1556  0.9049
 9551SOL     OW40111   4.239   3.173  11.734 -0.3845 -0.1073  0.1946
 9551SOL    HW140112   4.176   3.231  11.777 -1.1020 -0.5471 -0.2603
 9551SOL    HW240113   4.268   3.125  11.812 -0.2021 -0.9221 -0.3800
 9552SOL     OW40114   3.064   4.668   9.589 -0.1585  0.4387 -0.8128
 9552SOL    HW140115   3.056   0.000   9.509 -2.6126  2.2508  0.6008
 9552SOL    HW240116   3.090   0.016   9.651 -2.5215  0.0915  0.5431
 9553SOL     OW40117   0.311   3.040   2.796  0.0448 -0.4085 -0.1174
 9553SOL    HW140118   0.359   3.069   2.718  1.2289  0.4579  0.9332
 9553SOL    HW240119   0.309   3.113   2.858  2.9706 -1.2900  1.0049
 9554SOL     OW40120   3.174   4.347   9.878  0.5777  0.0163  0.0515
 9554SOL    HW140121   3.100   4.386   9.924  0.7677 -2.0259  2.0585
 9554SOL    HW240122   3.214   4.427   9.844  0.0779  0.7936  1.2936
 9555SOL     OW40123   2.771   3.205   1.653  0.1752  0.0225 -0.0757
 9555SOL    HW140124   2.714   3.142   1.609  0.9797 -0.7791  0.0455
 9555SOL    HW240125   2.805   3.257   1.580 -0.3589 -0.6398 -0.7960
 9556SOL     OW40126   1.093   0.400   6.201  0.0554  0.3747  0.7899
 9556SOL    HW140127   1.097   0.353   6.285 -0.6534  0.8583  1.0956
 9556SOL    HW240128   1.166   0.363   6.152 -1.2461 -2.0254  0.6379
 9557SOL     OW40129   1.587   2.711  13.089  0.0521  0.1248  0.4458
 9557SOL    HW140130   1.558   2.691  13.000  4.1492 -3.0066 -0.1455
 9557SOL    HW240131   1.668   2.663  13.106  0.7741  0.8750 -0.9345
 9558SOL     OW40132   4.004   0.730   6.701 -0.4254 -0.0976  0.2569
 9558SOL    HW140133   3.931   0.683   6.741 -1.3468  0.2458 -1.0192
 9558SOL    HW240134   4.023   0.795   6.768  1.6572 -1.1134  0.6746
 9559SOL     OW40135   2.939   1.283   5.875  0.1551  0.0721  0.5664
 9559SOL    HW140136   2.888   1.363   5.885  1.9645  1.1048  1.4882
 9559SOL    HW240137   2.866   1.224   5.895 -0.3101  1.7427  3.8015
 9560SOL     OW40138   1.688   3.400   8.600 -0.7960 -0.6042  0.4400
 9560SOL    HW140139   1.600   3.438   8.599 -0.7406 -0.4816  0.2071
 9560SOL    HW240140   1.661   3.308   8.595 -1.8621 -0.2618 -0.2136
 9561SOL     OW40141   2.726   2.636   6.971 -0.2368 -0.3517  0.0514
 9561SOL    HW140142   2.802   2.606   7.021  0.8496  1.8801 -0.2533
 9561SOL    HW240143   2.666   2.571   7.008 -0.7261  0.0463 -0.0418
 9562SOL     OW40144   4.470   3.035   8.176 -0.2306 -0.5201  0.3435
 9562SOL    HW140145   4.425   3.087   8.110 -2.0005 -1.2156  1.0104
 9562SOL    HW240146   4.401   2.972   8.198 -0.7188  0.2923  1.1704
 9563SOL     OW40147   2.245   3.262  16.779 -0.3605  0.2351 -0.1301
 9563SOL    HW140148   2.222   3.306  16.861 -0.6959 -1.4106  0.6598
 9563SOL    HW240149   2.272   3.174  16.805  2.7091  0.4216 -2.6037
 9564SOL     OW40150   1.213   1.312   4.296 -0.2495 -0.3801  0.3210
 9564SOL    HW140151   1.294   1.353   4.325 -0.1725 -1.0558  1.0407
 9564SOL    HW240152   1.192   1.246   4.361 -0.4289  1.0112  1.6821
 9565SOL     OW40153   4.275   1.320   9.509  0.0994 -0.4929 -0.2919
 9565SOL    HW140154   4.271   1.341   9.602 -2.3750 -1.6669 -0.1416
 9565SOL    HW240155   4.233   1.234   9.502 -1.9274  0.3838  1.1870
   4.71971   4.71971  17.68157
