Membrane in water
40155
    1TCq1    O1    1   2.936   1.794  10.527  0.2273  0.4965  0.3539
    1TCq1    C1    2   3.011   1.802  10.636  0.0477  0.1868  0.3651
    1TCq1    O2    3   3.127   1.763  10.644 -0.0061  0.7329  0.7267
    1TCq1    C2    4   2.924   1.816  10.749  0.2288  0.3177 -0.2493
    1TCq1    C3    5   2.823   1.906  10.740  0.2922  1.1371  0.3928
    1TCq1    C4    6   2.719   1.895  10.829 -0.8447 -0.0576  0.2805
    1TCq1    C5    7   2.722   1.798  10.928 -0.0301  0.0984  0.1065
    1TCq1    C6    8   2.825   1.716  10.936 -0.2094  0.5988  0.1556
    1TCq1    C7    9   2.928   1.722  10.849  0.3853  0.9930  0.6355
    1TCq1    C8   10   2.841   1.646  11.064 -0.3590 -0.0536 -1.0606
    1TCq1    O4   11   2.758   1.655  11.151  0.1448 -0.4013  0.0016
    1TCq1    C9   12   2.600   1.977  10.820  0.1246  0.7190 -0.2063
    1TCq1    O5   13   2.520   1.982  10.919 -0.0549  0.4124  0.5336
    1TCq1    O6   14   2.590   2.055  10.717  0.2393  0.1752 -0.7425
    1TCq1    H1   15   2.840   1.810  10.540  0.4128  1.0997  1.0242
    1TCq1    H2   16   2.825   1.983  10.663  1.7947  1.3254  0.6190
    1TCq1    H3   17   2.645   1.796  11.004 -0.8407  1.2708 -0.6749
    1TCq1    H4   18   3.004   1.645  10.838  1.1304  1.7980  0.1324
    2MPD2     C   19   3.131   1.294  11.324  0.3131  0.6256  0.2307
    2MPD2    C1   20   3.009   1.352  11.356 -0.3284  0.9359  0.7019
    2MPD2    C2   21   2.947   1.434  11.261  0.4985 -0.0861  0.0433
    2MPD2    C3   22   3.018   1.488  11.152  0.0069  0.0075  0.7724
    2MPD2    C4   23   3.145   1.438  11.135 -0.1996  0.1945  0.0741
    2MPD2    C5   24   3.200   1.343  11.218 -0.1655  0.4466 -0.0040
    2MPD2     H   25   2.842   1.460  11.263  0.8461  1.3186 -0.0106
    2MPD2    H1   26   3.211   1.465  11.054  1.3413 -0.2548  1.1728
    2MPD2    H2   27   3.180   1.218  11.383 -2.3089 -0.5643  0.8828
    2MPD2    H3   28   3.300   1.311  11.191  0.3041 -0.4018  2.6665
    2MPD2     N   29   2.966   1.584  11.064 -0.2238 -0.1398  0.1168
    2MPD2    H5   30   3.023   1.612  10.985 -0.9761 -0.3569 -0.5042
    2MPD2    N1   31   2.941   1.334  11.482  0.2659 -0.5796 -0.4496
    2MPD2    H7   32   2.857   1.389  11.492 -0.6065 -2.0862  0.4436
    3TCq1    O1   33   2.517   2.513  10.014 -0.3757  0.2998  0.0717
    3TCq1    C1   34   2.617   2.561  10.078 -0.3632 -0.2476 -0.6584
    3TCq1    O2   35   2.728   2.577  10.029  0.3127 -0.3554 -0.1816
    3TCq1    C2   36   2.575   2.649  10.189 -0.0297 -0.0763 -0.3904
    3TCq1    C3   37   2.649   2.760  10.207  0.2282 -0.6079  0.1332
    3TCq1    C4   38   2.655   2.805  10.340 -0.2917  0.2921 -0.1534
    3TCq1    C5   39   2.588   2.749  10.446 -0.2684 -0.5091 -0.0821
    3TCq1    C6   40   2.515   2.636  10.417 -0.3179  0.0661 -0.0525
    3TCq1    C7   41   2.498   2.585  10.285 -0.0021  0.4967 -0.0172
    3TCq1    C8   42   2.413   2.600  10.509 -0.7534 -0.4149  0.2423
    3TCq1    O4   43   2.348   2.499  10.484  0.3107 -0.0368 -0.0546
    3TCq1    C9   44   2.718   2.933  10.361 -0.0670 -1.0263  0.1000
    3TCq1    O5   45   2.703   2.986  10.475 -1.1235  0.0239  0.2645
    3TCq1    O6   46   2.773   2.992  10.266  0.0822 -0.2388  0.0770
    3TCq1    H1   47   2.428   2.502  10.055 -0.5572  0.1076 -0.3650
    3TCq1    H2   48   2.718   2.798  10.133 -0.8190  2.8699  0.9381
    3TCq1    H3   49   2.587   2.809  10.536 -3.9053 -0.1229 -0.3573
    3TCq1    H4   50   2.435   2.500  10.259  0.7581  0.9157 -3.2317
    4MPD2     C   51   2.071   2.747  10.875 -0.1103 -0.8359  0.2066
    4MPD2    C1   52   2.155   2.852  10.839  0.2725  0.1245  0.5687
    4MPD2    C2   53   2.261   2.826  10.751 -0.0832  0.5043 -0.3768
    4MPD2    C3   54   2.283   2.704  10.698 -0.0714  0.6120 -0.2860
    4MPD2    C4   55   2.189   2.606  10.718  0.0657  0.5799  0.5037
    4MPD2    C5   56   2.099   2.627  10.816 -0.2448 -0.5009 -0.1251
    4MPD2     H   57   2.330   2.906  10.727  0.2532  0.8384  1.7046
    4MPD2    H1   58   2.189   2.507  10.673 -1.1492  1.7078 -1.9399
    4MPD2    H2   59   1.987   2.757  10.943  0.2177 -0.6102  0.5790
    4MPD2    H3   60   2.037   2.545  10.850  0.7007 -0.7217  1.0649
    4MPD2     N   61   2.386   2.699  10.601  0.5592 -0.2513 -0.4534
    4MPD2    H5   62   2.457   2.771  10.589  0.8601 -0.4026  0.3730
    4MPD2    N1   63   2.139   2.984  10.880 -0.2114 -0.5150 -0.2347
    4MPD2    H7   64   2.201   3.052  10.837  1.1314 -0.8472  1.2219
    5TCq1    O1   65   3.444   4.435  11.840 -0.0631  0.4801  0.4493
    5TCq1    C1   66   3.440   4.517  11.736  0.0278  0.2097 -0.3446
    5TCq1    O2   67   3.535   4.539  11.669 -0.0758 -0.1738 -0.2391
    5TCq1    C2   68   3.308   4.504  11.686  0.0218  0.1879  0.0160
    5TCq1    C3   69   3.197   4.540  11.759  0.0832 -0.3033  0.2667
    5TCq1    C4   70   3.084   4.546  11.689 -0.0486 -0.2730  0.1251
    5TCq1    C5   71   3.071   4.503  11.558 -0.4419 -0.4356  0.5356
    5TCq1    C6   72   3.181   4.471  11.488 -0.0014  0.1874 -0.0459
    5TCq1    C7   73   3.304   4.477  11.550 -0.1000  0.5172  0.3994
    5TCq1    C8   74   3.182   4.425  11.349  0.0879 -0.6518  0.4901
    5TCq1    O4   75   3.284   4.374  11.311  0.0125  0.1771  0.1880
    5TCq1    C9   76   2.960   4.577  11.767 -0.5379  0.2277 -0.2237
    5TCq1    O5   77   2.978   4.630  11.883 -0.3639 -0.6831 -0.6724
    5TCq1    O6   78   2.847   4.542  11.720 -0.1494  0.1665  0.1904
    5TCq1    H1   79   3.366   4.400  11.888  0.1684  0.3995  0.7693
    5TCq1    H2   80   3.196   4.574  11.862  1.1359 -0.7515  0.4215
    5TCq1    H3   81   2.967   4.480  11.535 -0.8197  1.5339  0.3151
    5TCq1    H4   82   3.396   4.441  11.506 -0.4826 -1.3166  1.0799
    6MPD2     C   83   2.974   4.548  11.081 -0.1930  0.7533  0.1636
    6MPD2    C1   84   3.058   4.453  11.142 -0.1714  0.1255 -0.3022
    6MPD2    C2   85   3.099   4.342  11.069  0.0851  0.0322 -0.3895
    6MPD2    C3   86   3.073   4.336  10.934 -0.0564 -0.1123 -0.2330
    6MPD2    C4   87   2.985   4.429  10.881  0.1835  1.0278  0.4428
    6MPD2    C5   88   2.941   4.533  10.954  0.1485 -0.1916 -0.3839
    6MPD2     H   89   3.144   4.258  11.121 -0.5714  0.0743  0.2505
    6MPD2    H1   90   2.951   4.435  10.778  1.1163  0.3937  0.0888
    6MPD2    H2   91   2.940   4.637  11.135 -0.9610  1.3222 -1.2547
    6MPD2    H3   92   2.873   4.605  10.909  1.0195  0.1182 -1.1927
    6MPD2     N   93   3.111   4.215  10.869 -0.2857  0.0848 -0.3089
    6MPD2    H5   94   3.141   4.142  10.932 -1.4252 -0.3352 -0.2390
    6MPD2    N1   95   3.073   4.464  11.278 -0.3420 -0.0646 -0.1379
    6MPD2    H7   96   3.014   4.530  11.328  0.3687 -0.0403  0.6733
    7TCq1    O1   97   4.677   3.842  12.670  0.5560 -0.4522 -0.1545
    7TCq1    C1   98   4.706   3.717  12.697 -0.3285 -0.2024 -0.3357
    7TCq1    O2   99   0.006   3.637  12.609 -0.8365  0.2789 -0.2522
    7TCq1    C2  100   0.005   3.685  12.840 -0.0544 -0.2056  0.6821
    7TCq1    C3  101   4.693   3.774  12.944  0.3766  0.5889  0.1040
    7TCq1    C4  102   4.721   3.755  13.072  0.5721  0.2246  0.6018
    7TCq1    C5  103   0.080   3.657  13.107 -0.5434  0.4630 -0.2009
    7TCq1    C6  104   0.119   3.577  13.005 -0.1737 -0.5968  0.1101
    7TCq1    C7  105   0.086   3.581  12.875  0.0374 -0.1360 -0.1352
    7TCq1    C8  106   0.229   3.491  13.038  0.0359  0.5035 -0.2217
    7TCq1    O4  107   0.250   3.393  12.969  0.4169  0.4514  0.2195
    7TCq1    C9  108   4.673   3.841  13.181  0.7319  0.2072 -0.2174
    7TCq1    O5  109   4.598   3.943  13.160  0.3438  0.1170  0.2856
    7TCq1    O6  110   4.712   3.805  13.296  0.3061 -0.4917  0.1880
    7TCq1    H1  111   4.613   3.864  12.740 -0.7660 -1.7794 -0.9507
    7TCq1    H2  112   4.635   3.863  12.923 -1.2748 -0.1938  1.2801
    7TCq1    H3  113   0.119   3.642  13.207  1.4928  1.7423 -0.8028
    7TCq1    H4  114   0.129   3.508  12.807 -2.3885 -1.1284 -0.6356
    8MPD2     C  115   0.692   3.448  13.274  0.4000 -0.4099 -0.1532
    8MPD2    C1  116   0.614   3.356  13.214  0.0303  0.1053  0.3755
    8MPD2    C2  117   0.498   3.400  13.145 -0.0258  0.3680 -0.3959
    8MPD2    C3  118   0.440   3.521  13.172 -0.1898 -0.1253 -0.5077
    8MPD2    C4  119   0.517   3.617  13.241 -0.2436  0.0872  0.6566
    8MPD2    C5  120   0.638   3.582  13.288  0.0772  0.3062 -0.0689
    8MPD2     H  121   0.448   3.330  13.079  1.9769 -0.8004 -0.6751
    8MPD2    H1  122   0.471   3.713  13.264 -1.3078 -0.5981  1.3846
    8MPD2    H2  123   0.782   3.414  13.323  0.9884 -0.7786 -1.4883
    8MPD2    H3  124   0.691   3.653  13.350  0.6086 -0.1113 -0.0431
    8MPD2     N  125   0.316   3.562  13.119  0.1711  0.2715 -0.0126
    8MPD2    H5  126   0.282   3.650  13.156 -0.3600 -0.3793  1.0585
    8MPD2    N1  127   0.657   3.216  13.225 -0.2093 -0.0662 -0.4216
    8MPD2    H7  128   0.743   3.190  13.271  0.0231  0.2050 -0.7065
    9TCq1    O1  129   2.784   2.389  10.339  0.6562  0.3931  0.6149
    9TCq1    C1  130   2.791   2.448  10.466  0.1659  0.2270  0.0375
    9TCq1    O2  131   2.767   2.384  10.568 -0.4282 -0.3003 -0.5906
    9TCq1    C2  132   2.914   2.514  10.447  0.8977  0.1014  0.4708
    9TCq1    C3  133   2.943   2.587  10.337  0.0668 -0.4867 -0.5911
    9TCq1    C4  134   3.071   2.632  10.317 -0.3961 -0.5966 -0.0121
    9TCq1    C5  135   3.172   2.603  10.404 -0.4710 -0.3532  0.1761
    9TCq1    C6  136   3.133   2.541  10.519 -0.3156  0.1324 -0.6684
    9TCq1    C7  137   3.012   2.481  10.543 -0.2303  0.0863 -0.0729
    9TCq1    C8  138   3.249   2.508  10.601  0.1195 -0.2193 -0.3086
    9TCq1    O4  139   3.363   2.522  10.558 -0.0091  0.0034  0.0754
    9TCq1    C9  140   3.092   2.720  10.209 -0.1110  0.8346 -0.1107
    9TCq1    O5  141   2.993   2.774  10.153 -0.0297 -0.5856 -0.6227
    9TCq1    O6  142   3.209   2.721  10.156 -0.0211 -0.0688 -0.4966
    9TCq1    H1  143   2.848   2.425  10.275  1.1247 -1.5902 -0.0201
    9TCq1    H2  144   2.875   2.620  10.259  1.5757 -0.6705 -1.9939
    9TCq1    H3  145   3.262   2.662  10.393  0.2577 -1.1807  1.6577
    9TCq1    H4  146   2.977   2.430  10.632  1.1827 -0.3377  0.2493
   10MPD2     C  147   3.415   2.385  10.808 -0.5179 -0.1352  0.5952
   10MPD2    C1  148   3.278   2.415  10.821 -0.7312 -0.3038  0.0885
   10MPD2    C2  149   3.227   2.400  10.950 -0.0324 -0.1307  0.5866
   10MPD2    C3  150   3.300   2.347  11.059 -0.1062 -0.3449 -0.1895
   10MPD2    C4  151   3.426   2.315  11.035  0.4558  0.3121 -0.4732
   10MPD2    C5  152   3.489   2.338  10.918 -0.4794 -0.0434 -0.2554
   10MPD2     H  153   3.125   2.431  10.970 -0.6172 -0.7822 -1.3208
   10MPD2    H1  154   3.490   2.270  11.111 -0.7042 -1.0988 -0.3265
   10MPD2    H2  155   3.461   2.387  10.709 -0.5650 -0.7990  0.5607
   10MPD2    H3  156   3.593   2.306  10.914 -1.1435 -2.5514  2.8553
   10MPD2     N  157   3.244   2.336  11.188  0.8413  0.0238  0.1039
   10MPD2    H5  158   3.307   2.295  11.256 -0.1946 -2.8015 -0.6231
   10MPD2    N1  159   3.199   2.468  10.719  0.0496  0.2291 -0.8254
   10MPD2    H7  160   3.102   2.498  10.731  0.0484  0.2084 -0.7830
   11TCq1    O1  161   3.837   2.825  14.019  0.0401  0.5335  0.4106
   11TCq1    C1  162   3.920   2.775  13.925  0.0537 -0.1666 -0.4115
   11TCq1    O2  163   3.899   2.762  13.808  0.2397  0.3417 -0.5320
   11TCq1    C2  164   3.971   2.663  14.001  0.4801  0.0562 -0.2909
   11TCq1    C3  165   4.078   2.685  14.081 -0.6649 -0.6110 -0.3409
   11TCq1    C4  166   4.107   2.588  14.174  0.0841 -0.1093 -0.3333
   11TCq1    C5  167   4.016   2.489  14.203  0.1350  0.0468 -0.6842
   11TCq1    C6  168   3.904   2.470  14.127 -0.1224 -0.4051 -0.6329
   11TCq1    C7  169   3.883   2.555  14.025 -0.1309 -0.0938 -0.0170
   11TCq1    C8  170   3.806   2.383  14.175  0.8691  0.4166  0.2101
   11TCq1    O4  171   3.816   2.337  14.289 -0.0804 -0.3486 -0.4545
   11TCq1    C9  172   4.227   2.607  14.254 -0.1621  0.8073  0.0727
   11TCq1    O5  173   4.316   2.685  14.210  0.6262  0.4085  0.0633
   11TCq1    O6  174   4.236   2.526  14.349 -0.8736  0.1040 -0.4858
   11TCq1    H1  175   3.875   2.826  14.109  0.4086  0.9134  0.2515
   11TCq1    H2  176   4.139   2.774  14.076  0.4467 -1.2642  1.4730
   11TCq1    H3  177   4.032   2.426  14.289  0.9762 -0.1807 -1.0040
   11TCq1    H4  178   3.799   2.546  13.957 -0.5249 -0.3368  0.5021
   12MPD2     C  179   3.599   2.176  14.187  0.2800  0.3638  0.1857
   12MPD2    C1  180   3.680   2.201  14.077 -0.8931 -0.2996  0.4382
   12MPD2    C2  181   3.697   2.104  13.981 -0.4484  0.2999  0.4355
   12MPD2    C3  182   3.649   1.979  14.009  0.1339  0.6172  0.6036
   12MPD2    C4  183   3.577   1.957  14.121 -0.3546  0.4775 -0.4001
   12MPD2    C5  184   3.551   2.053  14.209 -0.3383  0.6547 -0.1091
   12MPD2     H  185   3.773   2.124  13.906 -0.7726 -1.6709 -0.3931
   12MPD2    H1  186   3.547   1.853  14.136  2.4870 -0.5669 -1.9830
   12MPD2    H2  187   3.578   2.254  14.259 -0.1820  0.8771 -0.5139
   12MPD2    H3  188   3.498   2.021  14.297  0.4143  1.7067  0.7240
   12MPD2     N  189   3.667   1.860  13.924 -0.3430  0.2451  0.1546
   12MPD2    H5  190   3.636   1.769  13.955 -1.1687  0.4256 -0.1324
   12MPD2    N1  191   3.750   2.322  14.064  0.6109 -0.3334 -0.8235
   12MPD2    H7  192   3.777   2.348  13.970  3.4054 -2.7116 -0.6703
   13TCq1    O1  193   3.547   2.300  10.122 -0.6749 -0.2040 -0.2307
   13TCq1    C1  194   3.536   2.296  10.249  0.6555  0.2229 -0.4280
   13TCq1    O2  195   3.611   2.230  10.318  0.3195 -0.3393  0.6847
   13TCq1    C2  196   3.395   2.298  10.270 -0.0046 -0.5033 -0.6906
   13TCq1    C3  197   3.303   2.336  10.172  0.7214 -0.4593  0.6768
   13TCq1    C4  198   3.171   2.333  10.204 -0.2665  0.3667 -0.1592
   13TCq1    C5  199   3.128   2.273  10.315  0.5885 -0.1889 -0.2434
   13TCq1    C6  200   3.217   2.218  10.407 -0.2267  0.1746 -0.2330
   13TCq1    C7  201   3.353   2.241  10.388 -0.0549  0.6025  0.1092
   13TCq1    C8  202   3.161   2.160  10.532  0.4660 -0.0937 -0.7381
   13TCq1    O4  203   3.040   2.142  10.545 -0.1071 -0.2959  0.0644
   13TCq1    C9  204   3.078   2.377  10.105 -0.3710  0.7265  0.2910
   13TCq1    O5  205   2.955   2.357  10.128  0.0136 -0.6157  0.0185
   13TCq1    O6  206   3.127   2.448  10.013  0.1625  0.2011 -0.4075
   13TCq1    H1  207   3.488   2.365  10.078  0.9252  1.2240 -0.3103
   13TCq1    H2  208   3.321   2.373  10.072 -0.9710 -2.5007 -0.3540
   13TCq1    H3  209   3.021   2.273  10.331  0.5625 -1.1705 -0.4143
   13TCq1    H4  210   3.427   2.208  10.461  0.2024  0.4613 -0.2176
   14MPD2     C  211   3.331   2.023  10.821  0.9741  0.6311 -0.4744
   14MPD2    C1  212   3.228   2.090  10.757 -0.0169  0.1330  0.0514
   14MPD2    C2  213   3.110   2.112  10.831  0.8880 -0.3024 -0.1279
   14MPD2    C3  214   3.093   2.066  10.957 -0.3075 -0.5374  0.3379
   14MPD2    C4  215   3.204   2.014  11.012  0.9211 -0.4253  0.4584
   14MPD2    C5  216   3.324   1.994  10.953  0.2179  0.3913  0.1795
   14MPD2     H  217   3.016   2.151  10.795  0.7791 -0.0455  0.4442
   14MPD2    H1  218   3.204   1.974  11.113  0.2627 -1.8521 -0.0959
   14MPD2    H2  219   3.423   2.004  10.768  1.5889 -0.1278  0.8588
   14MPD2    H3  220   3.405   1.944  11.005  0.4460 -0.2323 -0.7824
   14MPD2     N  221   2.963   2.079  11.015  0.3198 -0.6539  0.2462
   14MPD2    H5  222   2.900   2.127  10.953 -0.3581  0.2215  1.6227
   14MPD2    N1  223   3.259   2.132  10.625  0.4574 -0.7089  0.1285
   14MPD2    H7  224   3.358   2.135  10.600 -0.3316  1.2350 -2.7020
   15TCq1    O1  225   0.320   0.637   1.607 -0.3771 -0.2896 -0.2567
   15TCq1    C1  226   0.423   0.640   1.517  0.0703  0.8929  0.6623
   15TCq1    O2  227   0.537   0.617   1.554 -0.9100 -0.0068  0.2595
   15TCq1    C2  228   0.373   0.627   1.381  0.3369  0.2175 -0.0164
   15TCq1    C3  229   0.249   0.676   1.349 -0.1309  0.6481  0.6513
   15TCq1    C4  230   0.200   0.656   1.224 -0.3215 -0.7088  0.5544
   15TCq1    C5  231   0.267   0.577   1.131 -0.2030 -0.4659 -0.0350
   15TCq1    C6  232   0.398   0.547   1.160  0.0977  0.5672  0.6064
   15TCq1    C7  233   0.450   0.567   1.290 -0.3809 -0.1659  0.3674
   15TCq1    C8  234   0.497   0.504   1.058 -0.2236 -1.1857 -0.0795
   15TCq1    O4  235   0.616   0.491   1.088  0.1455 -0.2859 -0.2377
   15TCq1    C9  236   0.064   0.695   1.200  0.2760 -0.0828  0.1942
   15TCq1    O5  237   4.720   0.724   1.298 -0.4197 -0.1264  0.0805
   15TCq1    O6  238   0.032   0.709   1.077  0.4768 -0.4051 -0.5815
   15TCq1    H1  239   0.234   0.608   1.570 -0.0229 -1.5707 -0.0845
   15TCq1    H2  240   0.190   0.728   1.423  0.8236 -0.0453  1.8984
   15TCq1    H3  241   0.226   0.576   1.030 -4.8620  0.7252  1.8567
   15TCq1    H4  242   0.549   0.529   1.314 -0.2293  0.2993  0.4918
   16MPD2     C  243   0.428   0.516   0.699 -0.1126 -0.2164  0.2645
   16MPD2    C1  244   0.508   0.509   0.808  0.5060  0.3140  0.0593
   16MPD2    C2  245   0.640   0.475   0.800 -0.4206  0.6270  0.8072
   16MPD2    C3  246   0.693   0.449   0.676  0.0570  0.3525 -0.0169
   16MPD2    C4  247   0.616   0.471   0.569 -0.0695 -0.2151  0.1679
   16MPD2    C5  248   0.485   0.497   0.580 -0.4634  0.1610 -0.0552
   16MPD2     H  249   0.700   0.447   0.886  0.1669  0.1394  0.2423
   16MPD2    H1  250   0.661   0.456   0.472  0.6205 -1.1198  0.6307
   16MPD2    H2  251   0.320   0.522   0.702 -0.1136  0.5915 -1.1791
   16MPD2    H3  252   0.423   0.466   0.497  1.8926 -0.8864 -1.3973
   16MPD2     N  253   0.825   0.412   0.658 -0.2636 -0.4958  0.1327
   16MPD2    H5  254   0.879   0.391   0.741  1.8496 -2.8484 -1.7959
   16MPD2    N1  255   0.441   0.518   0.933  0.2937 -0.1946  0.0380
   16MPD2    H7  256   0.341   0.533   0.933  0.1717 -1.0424 -0.7802
   17TCq1    O1  257   2.160   1.360  10.540  0.1880 -0.1294  0.1562
   17TCq1    C1  258   2.232   1.450  10.469 -0.0590  0.1962 -0.5840
   17TCq1    O2  259   2.219   1.484  10.351 -0.1515  0.1886  0.3151
   17TCq1    C2  260   2.340   1.506  10.548  0.0546 -0.1500  0.1146
   17TCq1    C3  261   2.386   1.623  10.491  0.5311 -1.0896  0.0526
   17TCq1    C4  262   2.512   1.660  10.529 -0.3907  0.4993  0.1813
   17TCq1    C5  263   2.594   1.585  10.612  0.0152 -0.5756 -0.0441
   17TCq1    C6  264   2.539   1.479  10.673  0.8369 -0.4818  0.0051
   17TCq1    C7  265   2.410   1.436  10.641  0.2382 -0.5681  0.4189
   17TCq1    C8  266   2.609   1.391  10.758 -0.3691 -0.2751 -0.2905
   17TCq1    O4  267   2.546   1.320  10.839  0.1739 -0.2980 -0.4466
   17TCq1    C9  268   2.567   1.779  10.476  0.7839  0.3523  0.0389
   17TCq1    O5  269   2.487   1.863  10.426  0.4003 -0.3179 -0.1338
   17TCq1    O6  270   2.686   1.810  10.511  0.0746 -0.3298 -0.5255
   17TCq1    H1  271   2.168   1.355  10.637  0.8790  2.5162  0.2510
   17TCq1    H2  272   2.335   1.677  10.412  2.0824 -1.1678 -0.9998
   17TCq1    H3  273   2.688   1.626  10.649  0.8530 -3.6541  1.2151
   17TCq1    H4  274   2.366   1.349  10.688  2.4836 -0.9699  1.7780
   18MPD2     C  275   2.829   1.242  10.920  0.4462 -0.6691 -0.3842
   18MPD2    C1  276   2.849   1.327  10.806 -0.1037 -0.0393 -0.0962
   18MPD2    C2  277   2.977   1.342  10.756 -0.2604 -0.2268  0.8619
   18MPD2    C3  278   3.077   1.258  10.806  0.1386 -0.2485 -0.2755
   18MPD2    C4  279   3.056   1.176  10.924 -0.5245  0.3563 -0.0976
   18MPD2    C5  280   2.933   1.176  10.973 -0.6844  0.2821  0.1121
   18MPD2     H  281   2.993   1.413  10.676 -0.6136 -0.7090  0.3612
   18MPD2    H1  282   3.136   1.115  10.964  0.2331  1.9976  0.9026
   18MPD2    H2  283   2.731   1.228  10.966  0.3766  0.3685 -0.2157
   18MPD2    H3  284   2.912   1.114  11.060 -1.4974  0.0207 -0.2680
   18MPD2     N  285   3.211   1.254  10.757  0.2293 -0.7161 -0.1128
   18MPD2    H5  286   3.275   1.184  10.794  0.4218  0.5550  1.9653
   18MPD2    N1  287   2.744   1.403  10.743 -0.1518 -0.1620  0.7335
   18MPD2    H7  288   2.762   1.472  10.671 -0.2162 -3.2878 -2.2714
   19TMC2    C1  289   4.395   2.178  14.515 -0.0817 -0.4415  0.4793
   19TMC2    C2  290   4.328   2.222  14.402 -0.2453 -0.0405 -0.1447
   19TMC2    C3  291   4.243   2.137  14.338  0.7445  0.0768  0.5312
   19TMC2    C4  292   4.387   2.047  14.549  0.3990 -0.9740 -0.1397
   19TMC2    C5  293   4.306   1.965  14.471 -0.0480 -0.3621  0.4117
   19TMC2    C6  294   4.236   2.006  14.364 -0.1711  1.0617  0.5342
   19TMC2     C  295   4.484   2.275  14.580 -1.1110 -0.1489  0.3837
   19TMC2     O  296   4.485   2.390  14.542 -0.0890 -0.2526  0.1359
   19TMC2     H  297   4.324   2.329  14.385 -0.9796 -0.3162 -1.7336
   19TMC2    H1  298   4.442   2.003  14.631  0.1581 -0.2239  0.4305
   19TMC2    H2  299   4.174   1.944  14.300 -0.0319  2.2029 -0.6941
   19TMC2    C7  300   4.336   1.823  14.471 -0.2471 -0.4820 -0.0546
   19TMC2    C8  301   4.155   2.196  14.237  0.1028  0.3642  0.3459
   19TMC2    O1  302   4.348   1.763  14.578  0.0325 -0.4033 -0.3392
   19TMC2    O2  303   4.055   2.131  14.210  0.1803  0.1084 -0.9221
   19TMC2    O5  304   4.234   2.247  14.142 -0.3551  0.6493 -0.3484
   19TMC2    H5  305   4.326   2.230  14.170 -0.9037 -0.3874  0.8455
   20MPD2     C  306   4.709   2.396  14.745  0.4584 -0.5340 -0.0839
   20MPD2    C1  307   4.668   2.259  14.746 -0.2185  0.1904  0.1350
   20MPD2    C2  308   0.013   2.166  14.820 -0.7512 -0.4278 -0.1053
   20MPD2    C3  309   0.126   2.201  14.902  0.0605  0.4560  0.4695
   20MPD2    C4  310   0.162   2.332  14.904 -0.9194  1.3272  0.6588
   20MPD2    C5  311   0.095   2.420  14.821  0.4768  0.5860  0.3498
   20MPD2     H  312   4.706   2.063  14.817  2.6201 -1.4360 -2.4367
   20MPD2    H1  313   0.243   2.374  14.964  1.2303 -1.9987  0.0758
   20MPD2    H2  314   4.666   2.471  14.680 -1.0431 -1.7806 -0.5153
   20MPD2    H3  315   0.138   2.520  14.812  1.1157  0.3129  0.3781
   20MPD2     N  316   0.204   2.117  14.983  0.7016  1.0319 -0.0690
   20MPD2    H5  317   0.284   2.154  15.034 -1.0792  1.4515  2.3872
   20MPD2    N1  318   4.558   2.212  14.678 -0.3805  0.1451 -0.3707
   20MPD2    H7  319   4.533   2.115  14.694  3.9738 -0.8004  0.6751
   21MPD2     C  320   1.952   2.085  14.039  0.7064  0.6708 -0.8649
   21MPD2    C1  321   2.047   2.027  14.121 -0.1444  0.2713 -0.0416
   21MPD2    C2  322   2.072   2.075  14.249 -0.1793 -0.3021 -0.5983
   21MPD2    C3  323   1.991   2.184  14.295 -0.0914 -0.2428  0.1434
   21MPD2    C4  324   1.905   2.243  14.210  0.3460  0.4793  0.2585
   21MPD2    C5  325   1.890   2.202  14.085 -0.3144 -0.1562 -0.4159
   21MPD2     H  326   2.138   2.028  14.321 -0.4421  0.3681  0.0810
   21MPD2    H1  327   1.847   2.329  14.242 -2.6355 -1.7343  0.8330
   21MPD2    H2  328   1.942   2.062  13.934  1.4389  1.9795 -1.2275
   21MPD2    H3  329   1.826   2.268  14.027 -0.0868 -0.7327 -1.3222
   21MPD2     N  330   1.998   2.244  14.425 -0.8752  0.0259  0.2904
   21MPD2    H5  331   1.928   2.316  14.443 -0.5115  0.2885  0.6431
   21MPD2    N1  332   2.133   1.922  14.077  0.0599  0.1504  0.0557
   21MPD2    H7  333   2.186   1.879  14.153  1.7080  1.1075 -0.5503
   22TCq2    C1  334   2.112   2.247  14.504  0.8807 -0.4150  0.3810
   22TCq2    O2  335   2.213   2.175  14.490  0.3765 -0.3972 -0.2773
   22TCq2    C2  336   2.102   2.350  14.607 -0.1686 -0.1322 -0.2932
   22TCq2    C3  337   2.222   2.393  14.653 -0.2702 -0.3279 -0.1479
   22TCq2    C4  338   2.230   2.494  14.744  0.4343 -0.0971  0.3793
   22TCq2    C5  339   2.114   2.554  14.790  0.3148  0.2851 -0.2955
   22TCq2    C6  340   1.991   2.500  14.749  0.1145  0.0042  0.5559
   22TCq2    C7  341   1.986   2.398  14.661  0.1079 -0.3700 -0.4145
   22TCq2    C8  342   1.872   2.556  14.798 -0.1777  0.0230 -0.3202
   22TCq2    O4  343   1.883   2.605  14.910 -0.5993 -0.3141  0.6922
   22TCq2    C9  344   2.358   2.553  14.763 -0.0005  1.0726 -0.5556
   22TCq2    O5  345   2.456   2.486  14.754  0.4586  0.2582 -0.5282
   22TCq2    O6  346   2.360   2.677  14.791  0.6091  0.2222 -0.4963
   22TCq2    H2  347   2.315   2.357  14.611  0.7212  0.0679  1.6957
   22TCq2    H3  348   2.119   2.632  14.866 -0.8638 -0.4581  0.5458
   22TCq2    H4  349   1.890   2.355  14.636 -0.3580  0.7611 -0.5755
   23MPD2     C  350   3.724   3.090  14.274 -0.0806 -0.6968  0.5255
   23MPD2    C1  351   3.663   3.158  14.379 -0.4440 -0.1447 -0.0921
   23MPD2    C2  352   3.547   3.222  14.356  0.1485 -0.2859 -0.1205
   23MPD2    C3  353   3.481   3.187  14.232 -0.6397 -0.2070  0.7217
   23MPD2    C4  354   3.544   3.122  14.135 -0.2585  0.4227  0.2051
   23MPD2    C5  355   3.672   3.082  14.150  0.0629  0.6856  0.6856
   23MPD2     H  356   3.503   3.278  14.438  0.1216 -1.3941  0.6275
   23MPD2    H1  357   3.506   3.114  14.034  3.0819 -0.9783 -0.9636
   23MPD2    H2  358   3.820   3.042  14.285 -0.0086 -0.5263  0.6417
   23MPD2    H3  359   3.723   3.021  14.077 -1.1862  1.8480 -1.1645
   23MPD2     N  360   3.351   3.233  14.202  0.3058 -0.5173  0.2964
   23MPD2    H5  361   3.302   3.207  14.117 -0.1452  1.9884 -0.2280
   23MPD2    N1  362   3.709   3.156  14.505 -0.0455 -0.4299 -0.4349
   23MPD2    H7  363   3.656   3.210  14.572  1.4158 -0.4734  0.7357
   24TCq2    C1  364   3.279   3.334  14.273 -0.0991  0.4189  0.9736
   24TCq2    O2  365   3.327   3.415  14.351 -0.1109  0.1204  0.6728
   24TCq2    C2  366   3.142   3.354  14.228  0.3720  0.1325  1.0583
   24TCq2    C3  367   3.076   3.462  14.283  0.9875 -0.2142 -0.3046
   24TCq2    C4  368   2.935   3.468  14.269  0.4719  0.6640 -0.5615
   24TCq2    C5  369   2.867   3.379  14.192  0.1476  0.0571 -0.0976
   24TCq2    C6  370   2.938   3.271  14.148 -0.6265 -1.0447  0.1086
   24TCq2    C7  371   3.074   3.256  14.164 -0.1450 -0.4173  0.2549
   24TCq2    C8  372   2.874   3.155  14.086  0.0841 -0.4224 -0.2017
   24TCq2    O4  373   2.951   3.070  14.048  0.7902  0.5551 -0.2438
   24TCq2    C9  374   2.871   3.586  14.305 -0.1026 -0.2089 -0.2266
   24TCq2    O5  375   2.918   3.650  14.402  1.0577 -0.1761  0.2361
   24TCq2    O6  376   2.770   3.616  14.237  0.1613  0.4884  0.0868
   24TCq2    H2  377   3.130   3.548  14.322 -0.0292  0.5217 -0.5165
   24TCq2    H3  378   2.761   3.403  14.185  0.2753 -0.2884 -3.3724
   24TCq2    H4  379   3.127   3.173  14.120  0.7346  0.5808 -0.5582
   25TMC2    C1  380   2.374   0.916  11.629  0.4677 -0.1516 -0.0548
   25TMC2    C2  381   2.360   1.036  11.564  0.0119  0.2349  0.3723
   25TMC2    C3  382   2.300   1.134  11.635 -0.4735 -0.1734  0.5856
   25TMC2    C4  383   2.331   0.882  11.747  0.4347 -0.4442 -0.3011
   25TMC2    C5  384   2.265   0.986  11.810 -0.0155 -0.0302 -0.5338
   25TMC2    C6  385   2.256   1.118  11.763 -0.0020 -0.3293  0.0714
   25TMC2     C  386   2.440   0.823  11.543 -0.0953  0.8764  0.0398
   25TMC2     O  387   2.515   0.882  11.467  0.1130  0.1862  0.1155
   25TMC2     H  388   2.385   1.053  11.460 -0.0021 -1.0204  0.1602
   25TMC2    H1  389   2.352   0.785  11.791 -1.2647  1.2520  4.2734
   25TMC2    H2  390   2.197   1.201  11.802  1.9683  1.2742 -0.3624
   25TMC2    C7  391   2.208   0.954  11.944 -0.6686 -0.0121 -0.4812
   25TMC2    C8  392   2.274   1.262  11.569 -0.0377  0.3270  0.4451
   25TMC2    O1  393   2.271   0.888  12.024 -0.0079 -0.1266  0.0201
   25TMC2    O2  394   2.263   1.267  11.447  0.1610  0.7333 -0.0337
   25TMC2    O5  395   2.335   1.356  11.645 -0.2504 -0.0290 -0.3076
   25TMC2    H5  396   2.342   1.328  11.739 -0.0790  1.1261  0.0251
   26MPD2     C  397   2.488   0.380  11.299 -0.2995 -0.5217 -0.4867
   26MPD2    C1  398   2.365   0.368  11.364 -0.4898 -0.1003 -0.4359
   26MPD2    C2  399   2.338   0.470  11.452  0.5536 -0.7951 -1.1371
   26MPD2    C3  400   2.422   0.581  11.466 -0.6590  0.3596  0.1638
   26MPD2    C4  401   2.547   0.587  11.405  0.0851 -0.3789 -0.8934
   26MPD2    C5  402   2.571   0.489  11.310  0.7394  0.2082 -0.5191
   26MPD2     H  403   2.247   0.468  11.510  0.5247  1.5451 -1.1151
   26MPD2    H1  404   2.623   0.662  11.422  0.4052 -0.9444  0.1312
   26MPD2    H2  405   2.528   0.309  11.227  0.9431  0.0293 -0.3426
   26MPD2    H3  406   2.655   0.503  11.243  1.2460  1.3888  0.3507
   26MPD2     N  407   2.379   0.695  11.542 -0.0338  0.2155 -0.7336
   26MPD2    H5  408   2.310   0.673  11.614 -1.2800 -0.7255 -2.2343
   26MPD2    N1  409   2.283   0.251  11.341  0.7735 -0.1922 -0.5123
   26MPD2    H7  410   2.325   0.178  11.284 -0.5471 -0.9847 -0.4672
   27TMC2    C1  411   1.150   2.477  11.789 -0.0238 -0.2193 -0.1031
   27TMC2    C2  412   1.074   2.478  11.675  0.4687 -0.6202  0.7519
   27TMC2    C3  413   1.022   2.597  11.645 -0.6342  0.0883  0.3215
   27TMC2    C4  414   1.171   2.588  11.865 -0.3492  0.2383 -0.1084
   27TMC2    C5  415   1.121   2.709  11.829  0.5035 -0.4019 -0.1418
   27TMC2    C6  416   1.029   2.709  11.726 -0.4767 -0.5897 -0.2860
   27TMC2     C  417   1.130   2.353  11.863 -0.6994 -0.3327 -0.3597
   27TMC2     O  418   1.134   2.247  11.804 -0.0427  0.0140  0.3494
   27TMC2     H  419   1.059   2.384  11.625  1.1837  0.3762 -1.3612
   27TMC2    H1  420   1.243   2.578  11.945  0.3897 -2.3711 -1.0784
   27TMC2    H2  421   0.964   2.790  11.695  0.1187 -0.0759 -0.1753
   27TMC2    C7  422   1.077   2.749  11.960 -0.3108 -0.4660  0.3098
   27TMC2    C8  423   0.924   2.598  11.536  0.1301  1.4561  0.4206
   27TMC2    O1  424   1.046   2.652  12.025 -0.4314  0.2455  0.1608
   27TMC2    O2  425   0.841   2.688  11.534  0.2469  0.4276  0.2808
   27TMC2    O5  426   0.975   2.531  11.429  0.0426 -0.0802 -0.6960
   27TMC2    H5  427   1.056   2.490  11.466  0.3346  0.3597 -0.8568
   28MPD2     C  428   1.033   2.146  12.323  0.3292  0.7616  0.1650
   28MPD2    C1  429   0.990   2.276  12.323  0.3708  0.3991  0.0204
   28MPD2    C2  430   0.997   2.354  12.202  0.6104  0.1706 -0.6680
   28MPD2    C3  431   1.053   2.300  12.092  0.4550 -0.1864  0.0487
   28MPD2    C4  432   1.095   2.171  12.089 -0.4015 -0.7252 -0.1976
   28MPD2    C5  433   1.079   2.093  12.201  0.0663  0.0731  0.2869
   28MPD2     H  434   0.971   2.459  12.199 -0.1769  0.0582  1.4900
   28MPD2    H1  435   1.144   2.123  12.005 -0.9291  1.5286 -1.8163
   28MPD2    H2  436   1.023   2.073  12.402  1.2672 -0.6305 -1.0041
   28MPD2    H3  437   1.114   1.991  12.200 -0.7947 -0.2198 -1.0382
   28MPD2     N  438   1.083   2.390  11.986 -0.4373 -0.4290 -0.0092
   28MPD2    H5  439   1.063   2.488  12.005  0.3313 -0.6477  1.9530
   28MPD2    N1  440   0.918   2.328  12.440  0.2538 -0.1174  0.4965
   28MPD2    H7  441   0.901   2.262  12.515  0.0539 -1.1234 -0.4380
   29MPD2     C  442   0.944   0.446  14.089  0.0543 -0.2372  0.4852
   29MPD2    C1  443   0.983   0.360  14.194 -0.2032 -0.1177  0.4236
   29MPD2    C2  444   0.986   0.416  14.320  0.0721  0.5411  0.0967
   29MPD2    C3  445   0.941   0.544  14.349 -0.1478 -0.4950  0.3565
   29MPD2    C4  446   0.908   0.623  14.245  0.3011 -0.7772  0.3230
   29MPD2    C5  447   0.901   0.573  14.117  0.0924  0.0672 -0.1533
   29MPD2     H  448   1.024   0.356  14.402 -0.3334 -2.3425 -1.8283
   29MPD2    H1  449   0.880   0.727  14.262 -0.2599 -0.9777  0.6429
   29MPD2    H2  450   0.937   0.414  13.986  2.3338 -0.3440  0.3693
   29MPD2    H3  451   0.874   0.642  14.038 -3.8105  0.4351  1.5151
   29MPD2     N  452   0.936   0.592  14.484 -0.1688  0.3527  0.1492
   29MPD2    H5  453   0.898   0.683  14.509  0.6669  1.7087 -3.4511
   29MPD2    N1  454   1.019   0.224  14.170 -0.7637 -0.5049 -0.9934
   29MPD2    H7  455   1.053   0.161  14.242 -2.1000 -2.7948 -2.3536
   30TCq2    C1  456   0.959   0.525  14.600 -0.3332  0.3146  0.2462
   30TCq2    O2  457   0.954   0.403  14.603 -0.1295 -0.0583 -0.5562
   30TCq2    C2  458   0.935   0.606  14.715 -0.3323  0.6379  0.0969
   30TCq2    C3  459   0.913   0.532  14.824  0.1035 -0.4426 -0.2480
   30TCq2    C4  460   0.862   0.583  14.941  0.5666  0.1981 -0.2465
   30TCq2    C5  461   0.852   0.720  14.939 -0.0899  0.1021 -0.5978
   30TCq2    C6  462   0.891   0.792  14.830  0.5087 -0.0967  0.3690
   30TCq2    C7  463   0.936   0.739  14.712 -0.8033  0.2124 -0.1321
   30TCq2    C8  464   0.857   0.929  14.838  0.0115  0.7900 -0.2739
   30TCq2    O4  465   0.763   0.964  14.909  0.1792  0.4198 -0.1267
   30TCq2    C9  466   0.850   0.513  15.062  0.0638  0.9780 -0.6846
   30TCq2    O5  467   0.826   0.392  15.054  0.1613 -0.7490  0.5622
   30TCq2    O6  468   0.874   0.575  15.172  0.1948 -0.1058 -0.2164
   30TCq2    H2  469   0.922   0.425  14.831  0.9252 -0.4260 -1.1075
   30TCq2    H3  470   0.825   0.762  15.035 -2.9254 -2.7873 -0.1215
   30TCq2    H4  471   0.961   0.798  14.625 -1.1171  0.6273  0.0614
   31MPD2     C  472   3.732   4.064  14.656  0.2709 -0.2963 -0.2425
   31MPD2    C1  473   3.593   4.052  14.641  0.3661 -0.5605  0.8268
   31MPD2    C2  474   3.537   3.941  14.697 -0.4394  0.4886  0.8075
   31MPD2    C3  475   3.598   3.864  14.799  0.3716  0.4164 -0.6472
   31MPD2    C4  476   3.733   3.879  14.817 -0.2380 -0.2344  0.0720
   31MPD2    C5  477   3.795   3.975  14.735  0.3058 -0.7945  0.0762
   31MPD2     H  478   3.429   3.944  14.699 -0.4691 -0.4446  0.5577
   31MPD2    H1  479   3.790   3.824  14.891  1.3555  1.5866  0.1989
   31MPD2    H2  480   3.770   4.151  14.604 -0.3296 -0.8768 -1.6553
   31MPD2    H3  481   3.902   3.986  14.746 -0.0116 -0.8212  3.2938
   31MPD2     N  482   3.519   3.772  14.877 -0.4151  0.4471  0.7292
   31MPD2    H5  483   3.565   3.722  14.952  1.0019  0.9982  0.2291
   31MPD2    N1  484   3.530   4.145  14.557  0.0097  0.2068 -0.0109
   31MPD2    H7  485   3.588   4.219  14.518  0.6295  0.4315  1.3260
   32TCq2    C1  486   3.388   3.733  14.857 -0.6375  0.2591  0.5124
   32TCq2    O2  487   3.309   3.765  14.765  0.4820  0.1036 -1.0188
   32TCq2    C2  488   3.329   3.678  14.976  0.1104  0.1307  0.3085
   32TCq2    C3  489   3.194   3.714  14.979 -0.4327 -0.1750 -0.1353
   32TCq2    C4  490   3.142   3.749  15.098 -0.4490 -0.4511  0.3714
   32TCq2    C5  491   3.220   3.760  15.208  0.3346 -0.3356 -0.0836
   32TCq2    C6  492   3.348   3.711  15.207  1.1146 -0.4825  0.4760
   32TCq2    C7  493   3.404   3.671  15.091 -0.5241  0.8789 -0.3717
   32TCq2    C8  494   3.442   3.740  15.308 -0.4657 -0.0379  0.5029
   32TCq2    O4  495   3.554   3.686  15.309 -0.0566  0.7130 -0.9535
   32TCq2    C9  496   3.006   3.787  15.108  0.6789 -0.6682  0.4194
   32TCq2    O5  497   2.929   3.779  15.010  0.5120 -0.2512 -0.0331
   32TCq2    O6  498   2.958   3.846  15.210  0.1407  0.3081 -0.7223
   32TCq2    H2  499   3.129   3.721  14.892 -2.5202  0.6129  1.4875
   32TCq2    H3  500   3.181   3.787  15.305  0.6438 -2.3789  0.6013
   32TCq2    H4  501   3.506   3.635  15.082 -1.5263 -1.9367 -0.4101
   33MPD2     C  502   3.754   1.768  10.380  0.2393 -0.2265  0.2591
   33MPD2    C1  503   3.637   1.709  10.340 -0.0335  1.0262 -0.2392
   33MPD2    C2  504   3.560   1.771  10.242 -0.4237 -0.0559  0.0080
   33MPD2    C3  505   3.584   1.899  10.202  0.7379 -0.1346  0.5316
   33MPD2    C4  506   3.704   1.956  10.233  0.0824 -0.1153 -0.1301
   33MPD2    C5  507   3.788   1.896  10.325 -0.1121  0.0906  0.1085
   33MPD2     H  508   3.469   1.722  10.208 -0.4764  1.4957 -2.0745
   33MPD2    H1  509   3.733   2.049  10.184  1.2572 -1.0560 -1.2224
   33MPD2    H2  510   3.813   1.722  10.459  0.5347 -1.2855 -0.5856
   33MPD2    H3  511   3.885   1.936  10.350 -0.4798  0.6807  0.5908
   33MPD2     N  512   3.495   1.977  10.118 -0.0489 -0.7678  1.2598
   33MPD2    H5  513   3.527   2.073  10.108 -0.2552 -0.6043  2.1830
   33MPD2    N1  514   3.592   1.584  10.387 -0.4066  0.5261  0.1460
   33MPD2    H7  515   3.501   1.547  10.359 -0.6340  0.3811  1.0649
   34TCq2    C1  516   3.374   1.937  10.070  0.4727 -0.0739  0.0132
   34TCq2    O2  517   3.312   1.837  10.101 -0.2692 -0.2634  0.2703
   34TCq2    C2  518   3.313   2.040   9.987  0.5836  0.5308 -0.3328
   34TCq2    C3  519   3.179   2.042   9.979 -0.1576  0.0282 -0.1169
   34TCq2    C4  520   3.125   2.131   9.887 -0.3569  0.0113 -0.4416
   34TCq2    C5  521   3.200   2.218   9.814  0.8226  0.2935 -0.4469
   34TCq2    C6  522   3.338   2.210   9.827 -0.2778  0.1027  0.8723
   34TCq2    C7  523   3.399   2.117   9.911  0.2055  0.1864 -0.1544
   34TCq2    C8  524   3.423   2.298   9.757  0.4039  0.8957 -0.5414
   34TCq2    O4  525   3.527   2.331   9.817 -0.2090  0.4014  0.1425
   34TCq2    C9  526   2.983   2.140   9.879  0.1131 -0.5112 -0.2634
   34TCq2    O5  527   2.912   2.041   9.920  0.1390  0.1531  0.4689
   34TCq2    O6  528   2.937   2.256   9.854 -0.3695 -0.0057  0.2509
   34TCq2    H2  529   3.119   1.972  10.034 -0.1760  0.6785  0.6881
   34TCq2    H3  530   3.152   2.288   9.746 -1.2675 -0.0100  0.7056
   34TCq2    H4  531   3.506   2.100   9.913 -0.2492 -2.7970 -0.7645
   35MPD2     C  532   0.782   3.164  11.746  0.5696 -0.5203  0.0048
   35MPD2    C1  533   0.746   3.033  11.767  0.3524 -0.1369 -0.5670
   35MPD2    C2  534   0.672   2.966  11.668 -0.0881 -0.1814 -0.2096
   35MPD2    C3  535   0.626   3.043  11.566 -0.1586 -1.2864 -0.9817
   35MPD2    C4  536   0.659   3.176  11.552  0.4954  0.5678  0.0419
   35MPD2    C5  537   0.745   3.231  11.637 -0.0411 -0.2311  0.4375
   35MPD2     H  538   0.615   2.876  11.686  3.1081 -1.9436  1.0664
   35MPD2    H1  539   0.625   3.243  11.474 -2.6933  0.1812  1.1060
   35MPD2    H2  540   0.807   3.225  11.832  1.3941 -0.1506 -0.4999
   35MPD2    H3  541   0.757   3.337  11.615  1.0483 -0.2229  1.0630
   35MPD2     N  542   0.525   2.981  11.488  0.2295 -0.4296 -0.6674
   35MPD2    H5  543   0.516   2.882  11.506  2.1108 -0.7958 -1.7520
   35MPD2    N1  544   0.756   2.982  11.893 -0.0956  0.2239  0.6434
   35MPD2    H7  545   0.767   3.054  11.963 -0.3221 -0.6961  1.6230
   36TCq2    C1  546   0.458   3.032  11.386  0.6844  0.3685 -0.1459
   36TCq2    O2  547   0.460   3.147  11.341  0.0117  0.3234  0.2949
   36TCq2    C2  548   0.345   2.944  11.357  0.7615  0.2569 -0.9286
   36TCq2    C3  549   0.269   2.970  11.244 -0.1605  0.3796  0.8651
   36TCq2    C4  550   0.182   2.875  11.200 -0.3941  0.1842 -0.2235
   36TCq2    C5  551   0.163   2.759  11.274  0.2203  0.2784  0.4616
   36TCq2    C6  552   0.247   2.727  11.379 -0.0844 -0.2617 -0.6467
   36TCq2    C7  553   0.337   2.826  11.422  0.1122  0.4119  0.2015
   36TCq2    C8  554   0.210   2.618  11.464 -0.0784 -0.2497  0.4871
   36TCq2    O4  555   0.103   2.568  11.441  0.1424 -0.2371 -0.4309
   36TCq2    C9  556   0.099   2.906  11.085  0.1719  0.2701 -0.0052
   36TCq2    O5  557   4.720   2.848  11.078 -0.1884 -0.2656  0.1060
   36TCq2    O6  558   0.126   3.014  11.020  0.3243 -0.8926  0.0328
   36TCq2    H2  559   0.293   3.052  11.178 -0.6152  0.8590  1.2928
   36TCq2    H3  560   0.095   2.685  11.234  0.7031 -0.4719  1.0311
   36TCq2    H4  561   0.394   2.799  11.511  2.2417 -0.9316 -1.5693
   37TMC2    C1  562   2.404   3.548  11.656  0.3281  0.1619  0.3473
   37TMC2    C2  563   2.386   3.673  11.607 -1.0173 -0.1702 -0.0162
   37TMC2    C3  564   2.494   3.731  11.558  0.2498  0.3366  0.6455
   37TMC2    C4  565   2.522   3.481  11.660  0.2237  0.0016 -0.4336
   37TMC2    C5  566   2.628   3.545  11.602  0.5250 -0.3075  0.0505
   37TMC2    C6  567   2.617   3.673  11.559  0.0828 -0.0549 -0.3771
   37TMC2     C  568   2.295   3.489  11.728 -0.3986 -0.7777  0.3554
   37TMC2     O  569   2.183   3.514  11.679 -0.3471  0.0984  0.6522
   37TMC2     H  570   2.287   3.719  11.608 -1.5647 -1.2916 -1.9253
   37TMC2    H1  571   2.530   3.376  11.685 -1.2718  0.1975  0.8900
   37TMC2    H2  572   2.702   3.740  11.560  0.2113 -0.1664 -3.0666
   37TMC2    C7  573   2.755   3.505  11.656 -0.9113  0.2629  0.0347
   37TMC2    C8  574   2.480   3.860  11.507  0.7540  1.0917  0.0703
   37TMC2    O1  575   2.744   3.424  11.748  0.7400  0.7694  0.3553
   37TMC2    O2  576   2.569   3.944  11.515 -0.0456 -0.0727  0.1660
   37TMC2    O5  577   2.375   3.867  11.430  0.4107  0.1018  0.1004
   37TMC2    H5  578   2.323   3.785  11.415 -0.8819  1.2039 -1.4668
   38MPD2     C  579   2.049   3.204  12.082 -0.1009 -0.4160  0.5323
   38MPD2    C1  580   2.190   3.194  12.101  0.3630  0.4593 -0.2282
   38MPD2    C2  581   2.273   3.259  12.012  0.6994 -0.9602  0.5458
   38MPD2    C3  582   2.232   3.330  11.906 -0.7983 -0.1082  0.4946
   38MPD2    C4  583   2.096   3.341  11.892  0.0640  0.1047  0.3928
   38MPD2    C5  584   2.012   3.281  11.974  0.4333  0.1008  0.8221
   38MPD2     H  585   2.380   3.239  12.017  0.7003 -0.8826  0.8406
   38MPD2    H1  586   2.046   3.395  11.813  0.1361 -0.9796 -0.3857
   38MPD2    H2  587   1.965   3.169  12.141 -0.9415  0.5112 -0.1147
   38MPD2    H3  588   1.909   3.302  11.951  0.5505 -0.0176  0.1962
   38MPD2     N  589   2.332   3.398  11.831  1.0325 -0.4044 -0.0906
   38MPD2    H5  590   2.428   3.388  11.862  0.8408  0.9502  0.9513
   38MPD2    N1  591   2.250   3.124  12.214 -0.0887 -0.0773 -0.2872
   38MPD2    H7  592   2.351   3.115  12.220 -0.2439 -0.7919  1.2330
   39MPD2     C  593   0.968   0.263   1.248  0.5273 -0.1220 -0.4110
   39MPD2    C1  594   0.968   0.297   1.115  0.1284 -0.1180  0.1417
   39MPD2    C2  595   0.858   0.259   1.034  0.3074  0.5499 -0.0565
   39MPD2    C3  596   0.746   0.204   1.092 -0.0642  0.1389 -0.4412
   39MPD2    C4  597   0.738   0.189   1.229  0.5878  0.4372  0.4734
   39MPD2    C5  598   0.855   0.202   1.298 -0.3624 -0.3852  0.2529
   39MPD2     H  599   0.862   0.266   0.926 -0.5505  1.4204 -0.0300
   39MPD2    H1  600   0.646   0.146   1.267  0.0505  2.9182  2.0338
   39MPD2    H2  601   1.059   0.273   1.306  1.9463 -1.2611 -2.4503
   39MPD2    H3  602   0.856   0.165   1.400 -0.1499 -0.0780  0.3614
   39MPD2     N  603   0.628   0.176   1.016 -0.0136 -0.5506  0.0722
   39MPD2    H5  604   0.534   0.167   1.053  0.3536  1.7370  1.5945
   39MPD2    N1  605   1.092   0.354   1.070  0.1537 -0.5136  0.1054
   39MPD2    H7  606   1.174   0.362   1.130 -0.3539 -0.9839  0.8654
   40TCq2    C1  607   1.107   0.406   0.942 -0.5396  0.9280 -0.3706
   40TCq2    O2  608   1.023   0.423   0.853  0.2196 -0.0746 -0.1200
   40TCq2    C2  609   1.240   0.466   0.922 -0.0033  0.0693  0.2337
   40TCq2    C3  610   1.245   0.557   0.826 -0.3142  0.3880 -0.2152
   40TCq2    C4  611   1.367   0.614   0.796  0.6522  0.0209  0.6449
   40TCq2    C5  612   1.485   0.567   0.853  0.0654  0.1230 -0.4780
   40TCq2    C6  613   1.469   0.475   0.957  0.0894  0.3720 -0.0188
   40TCq2    C7  614   1.350   0.418   0.991  0.9139  0.3279 -0.3256
   40TCq2    C8  615   1.574   0.452   1.053 -0.2063  0.2343 -0.7114
   40TCq2    O4  616   1.561   0.347   1.116  0.1878  0.7635  0.0352
   40TCq2    C9  617   1.374   0.726   0.707  0.3934  0.0248 -0.0627
   40TCq2    O5  618   1.274   0.775   0.650 -0.4984 -0.1407  0.5424
   40TCq2    O6  619   1.480   0.793   0.723  0.4643  0.1370 -0.0870
   40TCq2    H2  620   1.159   0.604   0.781 -0.1352  2.0854  1.2151
   40TCq2    H3  621   1.582   0.612   0.834  0.3320  0.3858  1.4769
   40TCq2    H4  622   1.341   0.348   1.073  1.6651  0.2316 -0.3322
   41TMC2    C1  623   4.438   3.033  13.404 -0.4885 -0.0080 -0.1999
   41TMC2    C2  624   4.547   3.088  13.470  0.7463 -0.2752  0.1391
   41TMC2    C3  625   4.651   3.121  13.397 -0.1593 -0.4824 -0.1548
   41TMC2    C4  626   4.441   2.997  13.275  0.4273  1.2245 -0.2737
   41TMC2    C5  627   4.563   3.012  13.213 -0.4008  0.3968 -0.0209
   41TMC2    C6  628   4.670   3.075  13.273 -1.0361  0.2815 -0.2557
   41TMC2     C  629   4.308   3.029  13.463  0.5906 -0.4314 -0.6625
   41TMC2     O  630   4.218   3.026  13.380  0.1229  0.8018 -0.4766
   41TMC2     H  631   4.537   3.133  13.568  0.9523  1.1454 -0.5012
   41TMC2    H1  632   4.356   2.964  13.216  0.9374  0.4229 -0.5669
   41TMC2    H2  633   0.043   3.090  13.234 -0.6040  1.2415  1.2034
   41TMC2    C7  634   4.564   2.975  13.071 -1.1928  0.8696  0.7451
   41TMC2    C8  635   0.020   3.212  13.452 -0.3508 -0.4239 -1.1139
   41TMC2    O1  636   4.471   2.920  13.015  0.7737 -0.7830 -0.9697
   41TMC2    O2  637   0.069   3.196  13.562  0.8928  0.4900  0.5801
   41TMC2    O5  638   0.068   3.299  13.358 -0.2175 -0.8623 -0.5667
   41TMC2    H5  639   0.014   3.290  13.276 -1.6199 -0.1809  0.2720
   42MPD2     C  640   4.062   3.041  13.636 -0.2107  0.3935  0.2513
   42MPD2    C1  641   4.191   3.032  13.684 -0.0532  0.1697 -0.4208
   42MPD2    C2  642   4.223   3.053  13.818  0.1643  0.1692  0.1015
   42MPD2    C3  643   4.116   3.082  13.903 -0.6297 -0.1673 -0.1505
   42MPD2    C4  644   3.987   3.088  13.854  0.3491  0.5048 -0.5151
   42MPD2    C5  645   3.956   3.062  13.722 -0.0019 -0.1732  0.3277
   42MPD2     H  646   4.321   3.051  13.864  1.5436  0.7507 -2.7998
   42MPD2    H1  647   3.902   3.101  13.920 -0.8453  1.6587 -2.2645
   42MPD2    H2  648   4.033   3.017  13.534  1.2470  1.8775 -0.5257
   42MPD2    H3  649   3.854   3.071  13.686  0.3768  2.7437  0.0138
   42MPD2     N  650   4.139   3.087  14.044  0.1346 -0.4065  0.2753
   42MPD2    H5  651   4.221   3.037  14.078 -0.7878 -1.3327  1.1533
   42MPD2    N1  652   4.308   3.022  13.598 -0.5431  0.0933  0.0373
   42MPD2    H7  653   4.393   2.989  13.641 -0.3122 -0.8865 -1.1875
   43MPD2     C  654   2.457   1.788   0.324  0.3535  0.5937  0.4050
   43MPD2    C1  655   2.421   1.691   0.417 -0.1856 -0.5167  0.1912
   43MPD2    C2  656   2.359   1.733   0.532 -0.2754  0.2624 -0.2366
   43MPD2    C3  657   2.327   1.867   0.558 -0.1317  0.2073 -0.3873
   43MPD2    C4  658   2.336   1.952   0.450 -0.0073  0.7023 -0.8652
   43MPD2    C5  659   2.408   1.914   0.341 -0.3497  0.3157  0.2173
   43MPD2     H  660   2.332   1.653   0.600  0.1251  1.1996  1.0450
   43MPD2    H1  661   2.318   2.059   0.452 -2.2724  0.3400 -1.1142
   43MPD2    H2  662   2.492   1.764   0.224  0.6166 -0.5242  0.7608
   43MPD2    H3  663   2.413   1.982   0.256  1.2514 -1.2155 -0.9228
   43MPD2     N  664   2.267   1.916   0.680 -0.8087 -0.0098  0.0354
   43MPD2    H5  665   2.227   2.010   0.676  0.5446  0.4089 -3.5283
   43MPD2    N1  666   2.439   1.551   0.395 -0.0624 -0.1625 -0.0694
   43MPD2    H7  667   2.400   1.490   0.466 -0.2428  1.2521  1.0626
   44TCq2    C1  668   1.847   2.052   0.930 -0.0374  0.6481 -0.7232
   44TCq2    O2  669   1.822   2.045   0.811  0.2339  0.6440  0.6676
   44TCq2    C2  670   1.970   1.996   0.973  0.6228  0.2353  0.6323
   44TCq2    C3  671   1.992   1.937   1.103 -0.3112 -0.6796 -0.0057
   44TCq2    C4  672   2.115   1.879   1.129 -0.8293 -0.0753 -0.4388
   44TCq2    C5  673   2.217   1.878   1.037  0.1264 -0.8169 -0.5712
   44TCq2    C6  674   2.187   1.920   0.912 -0.3905  0.4690  0.0080
   44TCq2    C7  675   2.067   1.977   0.880 -0.7487  0.8000  0.1145
   44TCq2    C8  676   2.266   1.852   0.802  0.0237 -0.1371  0.1767
   44TCq2    O4  677   2.318   1.743   0.829 -0.3012 -0.2264 -0.0674
   44TCq2    C9  678   2.137   1.817   1.256  0.5871 -0.5629 -0.2217
   44TCq2    O5  679   2.251   1.770   1.276  0.1745  0.2885 -0.1973
   44TCq2    O6  680   2.027   1.785   1.307  0.4383  0.2099 -0.2586
   44TCq2    H2  681   1.906   1.916   1.165 -1.8167  4.1848 -0.4000
   44TCq2    H3  682   2.314   1.833   1.057  0.0035 -0.9700 -0.3299
   44TCq2    H4  683   2.037   2.007   0.780  0.3619  0.2398 -0.3811
   45TMC2    C1  684   1.612   3.492   9.446  0.1573 -0.4439  0.3255
   45TMC2    C2  685   1.575   3.502   9.316  0.6839 -0.3672 -0.0622
   45TMC2    C3  686   1.638   3.592   9.226  0.7089 -0.5273  0.4812
   45TMC2    C4  687   1.724   3.562   9.486 -0.3558  0.4132 -0.3308
   45TMC2    C5  688   1.797   3.634   9.394 -0.5164 -0.5953 -0.3029
   45TMC2    C6  689   1.749   3.652   9.269  0.0854 -1.2587  0.2256
   45TMC2     C  690   1.551   3.403   9.541 -0.1858  0.6083  0.6365
   45TMC2     O  691   1.603   3.378   9.649 -0.0199 -0.0606 -0.1914
   45TMC2     H  692   1.493   3.448   9.271  0.8959 -1.7315  1.1509
   45TMC2    H1  693   1.763   3.532   9.583 -0.1346  0.3642 -0.4333
   45TMC2    H2  694   1.798   3.725   9.206  3.0661 -1.3406  2.4253
   45TMC2    C7  695   1.920   3.700   9.436 -0.6289 -0.1525 -0.7574
   45TMC2    C8  696   1.597   3.608   9.086 -0.0711 -0.5593  0.4459
   45TMC2    O1  697   1.987   3.754   9.351  0.8833 -0.5613  0.1888
   45TMC2    O2  698   1.618   3.713   9.027  0.0844 -0.6560  0.2866
   45TMC2    O5  699   1.511   3.509   9.050  0.0318 -0.8441 -0.2143
   45TMC2    H5  700   1.519   3.423   9.097  1.1699 -0.2094  0.7567
   46MPD2     C  701   1.433   3.146   9.647 -0.1176 -0.2289  0.2956
   46MPD2    C1  702   1.374   3.229   9.553  0.0433  0.3671 -0.0949
   46MPD2    C2  703   1.239   3.204   9.510  0.3308  0.0598 -0.1693
   46MPD2    C3  704   1.167   3.096   9.553 -0.8077  0.3908 -0.3080
   46MPD2    C4  705   1.230   3.014   9.643  0.1316 -0.8628 -0.2622
   46MPD2    C5  706   1.358   3.035   9.682 -0.1498 -0.1728  0.6665
   46MPD2     H  707   1.196   3.282   9.449 -2.0104 -1.8792 -0.9964
   46MPD2    H1  708   1.176   2.927   9.678  0.1163 -0.3246  1.0879
   46MPD2    H2  709   1.537   3.154   9.675 -0.1502 -1.5555  0.7713
   46MPD2    H3  710   1.404   2.962   9.747 -2.2235 -1.5410  0.5966
   46MPD2     N  711   1.038   3.073   9.495 -0.0675  0.2947  0.6477
   46MPD2    H5  712   0.996   3.150   9.444  0.2156 -1.0403 -1.6181
   46MPD2    N1  713   1.443   3.338   9.485 -0.3157 -0.4866 -0.3765
   46MPD2    H7  714   1.392   3.363   9.400 -0.3546 -0.5024 -0.3582
   47TMC2    C1  715   3.923   4.350   8.940  0.3414 -0.4700 -0.1500
   47TMC2    C2  716   4.002   4.389   8.838 -0.0768  0.1760  0.4415
   47TMC2    C3  717   3.938   4.394   8.718  0.1714  0.3785  0.1365
   47TMC2    C4  718   3.786   4.358   8.935  0.5105  0.1356 -0.2371
   47TMC2    C5  719   3.727   4.374   8.818 -0.2561 -0.2479 -0.8821
   47TMC2    C6  720   3.802   4.384   8.703 -0.0707  0.1572  0.4345
   47TMC2     C  721   3.982   4.337   9.073 -0.5934 -0.0762 -0.1981
   47TMC2     O  722   3.912   4.383   9.163 -0.1590 -0.3924  0.1615
   47TMC2     H  723   4.110   4.389   8.831 -0.2443 -1.4351 -2.0963
   47TMC2    H1  724   3.728   4.357   9.027  0.3367 -1.7544 -0.3610
   47TMC2    H2  725   3.758   4.405   8.606 -0.0728  0.5909  0.5308
   47TMC2    C7  726   3.581   4.344   8.817 -0.3514 -0.2150  0.6978
   47TMC2    C8  727   4.010   4.422   8.598  0.2159 -0.8439 -0.3389
   47TMC2    O1  728   3.507   4.379   8.904 -0.3910  0.2501 -1.2130
   47TMC2    O2  729   4.123   4.477   8.593 -0.3455 -0.1986  0.7567
   47TMC2    O5  730   3.995   4.306   8.528 -0.0070  0.7161  0.1441
   47TMC2    H5  731   3.930   4.244   8.568  0.6492  0.4602  0.8089
   48MPD2     C  732   4.171   4.362   9.296 -0.1120 -0.2606 -0.1065
   48MPD2    C1  733   4.186   4.273   9.195  0.6367 -0.1852 -0.1178
   48MPD2    C2  734   4.292   4.187   9.195 -0.5308  0.3531  0.7611
   48MPD2    C3  735   4.373   4.171   9.304 -0.2797 -0.6566 -0.5410
   48MPD2    C4  736   4.349   4.255   9.409  0.7090  0.5552 -0.0018
   48MPD2    C5  737   4.253   4.353   9.404 -0.0400  0.0234 -0.6259
   48MPD2     H  738   4.314   4.133   9.103  1.3608  1.2386  0.6986
   48MPD2    H1  739   4.428   4.257   9.483  0.3420  1.1886  0.3743
   48MPD2    H2  740   4.103   4.445   9.310 -0.8859 -0.9489  0.2045
   48MPD2    H3  741   4.254   4.435   9.475  0.3761  0.5580 -1.2525
   48MPD2     N  742   4.460   4.062   9.300 -0.0826 -0.2547  0.2048
   48MPD2    H5  743   4.446   3.995   9.225  1.3966 -1.7970  1.2721
   48MPD2    N1  744   4.103   4.271   9.076 -0.1480 -0.1222  0.0630
   48MPD2    H7  745   4.131   4.230   8.988 -2.5961  0.6749 -1.1017
   49MPD2     C  746   1.902   1.288   9.823 -0.1135  0.1441  0.0272
   49MPD2    C1  747   1.911   1.256   9.954 -0.3753  0.3084  0.3743
   49MPD2    C2  748   1.933   1.365  10.043  0.3556  0.4530  0.2427
   49MPD2    C3  749   1.969   1.491   9.996 -0.2478 -0.3235 -0.6786
   49MPD2    C4  750   1.955   1.514   9.859  0.1067  0.1950 -0.3641
   49MPD2    C5  751   1.930   1.417   9.774 -1.0491 -0.0545 -0.0302
   49MPD2     H  752   1.940   1.351  10.151 -1.3119  0.6756  0.3799
   49MPD2    H1  753   1.985   1.610   9.820 -0.4653  0.0808 -1.0714
   49MPD2    H2  754   1.885   1.220   9.740  2.5618 -1.0321  0.4298
   49MPD2    H3  755   1.920   1.432   9.667  2.6647  2.3873 -0.0303
   49MPD2     N  756   2.033   1.584  10.078 -0.2762 -0.0391 -0.4297
   49MPD2    H5  757   2.028   1.565  10.178  0.5368  0.1015 -0.3672
   49MPD2    N1  758   1.897   1.127  10.008  0.1645  1.0320  0.0213
   49MPD2    H7  759   1.910   1.122  10.108  1.0449 -1.3905 -0.2128
   50TCq2    C1  760   1.846   1.019   9.943  0.2305 -0.8571 -0.0577
   50TCq2    O2  761   1.817   1.014   9.825 -0.7024 -0.6414  0.6114
   50TCq2    C2  762   1.812   0.915  10.041 -0.5226 -0.0955 -0.5205
   50TCq2    C3  763   1.705   0.833  10.014 -0.0495  0.3246 -0.0754
   50TCq2    C4  764   1.666   0.740  10.103 -0.7751  0.7890  0.6026
   50TCq2    C5  765   1.728   0.732  10.226  0.2020  1.3784  0.5370
   50TCq2    C6  766   1.840   0.809  10.251 -0.3238  0.3089 -0.3751
   50TCq2    C7  767   1.885   0.903  10.160 -0.4936 -0.1385 -0.1455
   50TCq2    C8  768   1.890   0.805  10.387  0.1028  0.5210  0.6565
   50TCq2    O4  769   1.868   0.699  10.445 -0.2440  0.0209  0.2685
   50TCq2    C9  770   1.558   0.660  10.069  0.9626  0.0613  0.3036
   50TCq2    O5  771   1.496   0.599  10.161 -0.0894 -0.1158 -0.6076
   50TCq2    O6  772   1.511   0.668   9.954  0.4177  0.5303 -0.2657
   50TCq2    H2  773   1.646   0.846   9.923  0.2436 -1.1788 -0.4843
   50TCq2    H3  774   1.688   0.659  10.296  1.8795 -0.9596 -0.9050
   50TCq2    H4  775   1.980   0.954  10.174 -0.3050  0.2891 -3.0153
   51MPD2     C  776   2.758   4.434   1.172 -0.1265  0.1033  0.3084
   51MPD2    C1  777   2.796   4.304   1.140  0.3402 -0.5080 -0.1217
   51MPD2    C2  778   2.875   4.248   1.236 -0.4099  0.0316  0.3924
   51MPD2    C3  779   2.919   4.310   1.354 -0.0370  0.0620 -0.7262
   51MPD2    C4  780   2.882   4.441   1.380  0.7422  0.3080  0.6065
   51MPD2    C5  781   2.791   4.498   1.291 -0.3326 -0.3617  0.2246
   51MPD2     H  782   2.912   4.148   1.213 -1.9770 -0.4295 -0.1344
   51MPD2    H1  783   2.918   4.492   1.469 -0.8704 -0.8900  1.9567
   51MPD2    H2  784   2.675   4.473   1.115 -0.3948 -0.2108  0.4845
   51MPD2    H3  785   2.758   4.596   1.323  0.7987 -0.2144  0.9562
   51MPD2     N  786   3.022   4.258   1.444  0.6962 -0.2155  0.3225
   51MPD2    H5  787   3.043   4.323   1.519 -0.4411 -1.3491  1.6327
   51MPD2    N1  788   2.754   4.242   1.020  0.1305 -0.0552  0.8317
   51MPD2    H7  789   2.785   4.146   1.014 -2.0786 -0.8269  1.7120
   52TCq2    C1  790   3.088   4.134   1.437 -0.1360  0.3378 -0.3741
   52TCq2    O2  791   3.060   4.033   1.373 -0.2160 -0.7877  0.0814
   52TCq2    C2  792   3.191   4.126   1.540  0.1077  0.1932 -0.0365
   52TCq2    C3  793   3.258   4.004   1.554 -0.1967 -0.2196 -0.0118
   52TCq2    C4  794   3.374   4.001   1.614  0.4717  0.1577  0.4244
   52TCq2    C5  795   3.437   4.111   1.667 -0.0987  0.5004  0.4418
   52TCq2    C6  796   3.376   4.235   1.641  0.4471  0.0940 -0.1390
   52TCq2    C7  797   3.253   4.244   1.576 -0.1008 -0.1104  0.2654
   52TCq2    C8  798   3.444   4.354   1.679  0.6074 -0.2896  0.2007
   52TCq2    O4  799   3.380   4.457   1.673  0.1894 -1.2777  0.2589
   52TCq2    C9  800   3.441   3.872   1.617  0.0625 -0.4532 -1.0284
   52TCq2    O5  801   3.566   3.874   1.640  0.4422 -0.2888 -0.5023
   52TCq2    O6  802   3.376   3.770   1.576  0.1509  0.5946  0.5865
   52TCq2    H2  803   3.218   3.918   1.501 -1.5658  0.8934 -0.7813
   52TCq2    H3  804   3.532   4.105   1.719  1.1900 -0.0850 -1.9380
   52TCq2    H4  805   3.222   4.341   1.536  0.1750  0.0069  0.3384
   53TMC2    C1  806   3.255   3.399  12.162  0.3183 -0.4639  0.3357
   53TMC2    C2  807   3.354   3.333  12.228  0.4961 -0.6587  0.1508
   53TMC2    C3  808   3.318   3.289  12.351  0.0957  0.3822 -0.6245
   53TMC2    C4  809   3.128   3.417  12.208 -0.2069  0.0735  0.3107
   53TMC2    C5  810   3.095   3.359  12.324 -0.3036  0.3086  0.0035
   53TMC2    C6  811   3.187   3.285  12.396 -0.3944  0.0526 -0.6736
   53TMC2     C  812   3.288   3.433  12.023 -0.3125  0.1957 -0.4667
   53TMC2     O  813   3.404   3.444  11.984  0.4762  0.0817  0.7296
   53TMC2     H  814   3.452   3.344  12.182  1.2175 -0.2098  1.8152
   53TMC2    H1  815   3.058   3.485  12.160 -2.2760 -2.1567  0.1446
   53TMC2    H2  816   3.152   3.227  12.480  0.1948  1.9350  0.8624
   53TMC2    C7  817   2.949   3.365  12.355  0.5891 -0.0844 -0.6551
   53TMC2    C8  818   3.405   3.202  12.421  0.3635 -0.1636  0.3342
   53TMC2    O1  819   2.885   3.376  12.255 -0.2069 -0.1899  0.6132
   53TMC2    O2  820   3.372   3.122  12.507 -0.1274 -0.0461  0.1257
   53TMC2    O5  821   3.531   3.245  12.396  0.3952 -0.7241 -0.2105
   53TMC2    H5  822   3.528   3.325  12.341 -0.6315  0.3374  1.3845
   54MPD2     C  823   3.257   3.562  11.744 -0.1460  0.4091 -0.0476
   54MPD2    C1  824   3.153   3.486  11.809  0.6162  0.3333 -0.0268
   54MPD2    C2  825   3.027   3.478  11.752  0.0064 -0.3021  0.3045
   54MPD2    C3  826   3.000   3.544  11.638  0.4253  0.3895 -0.1142
   54MPD2    C4  827   3.099   3.624  11.579 -0.2077  0.0347 -0.4720
   54MPD2    C5  828   3.226   3.624  11.627 -0.4415 -0.3311  0.8547
   54MPD2     H  829   2.962   3.418  11.815 -1.3107 -1.3799 -2.0914
   54MPD2    H1  830   3.084   3.699  11.503 -0.1872  0.7091  0.1867
   54MPD2    H2  831   3.357   3.581  11.782  0.8102 -2.7289 -0.9570
   54MPD2    H3  832   3.302   3.689  11.585 -1.0875 -0.8879 -1.1822
   54MPD2     N  833   2.868   3.557  11.585  0.2449  0.1758 -0.4793
   54MPD2    H5  834   2.854   3.615  11.503 -2.5182 -1.1045 -0.9447
   54MPD2    N1  835   3.172   3.437  11.944 -0.8153 -0.1572 -0.6868
   54MPD2    H7  836   3.090   3.396  11.988  0.3686 -1.0442  0.7059
   55MPD2     C  837   4.033   0.657   0.828  0.5628 -0.0432  0.5581
   55MPD2    C1  838   3.901   0.636   0.840  1.2842  0.0071 -0.3437
   55MPD2    C2  839   3.808   0.733   0.804 -0.2098  0.5366 -0.8431
   55MPD2    C3  840   3.855   0.849   0.750 -0.0844 -0.1168  0.1891
   55MPD2    C4  841   3.993   0.874   0.732 -0.7340  1.0175 -0.1191
   55MPD2    C5  842   4.075   0.770   0.772 -0.3064  0.2037 -0.0598
   55MPD2     H  843   3.702   0.721   0.823 -0.0931 -1.1619 -1.2133
   55MPD2    H1  844   4.039   0.970   0.708 -0.4941  1.4381  1.9641
   55MPD2    H2  845   4.101   0.578   0.860  0.4299  0.2395  1.5129
   55MPD2    H3  846   4.182   0.785   0.771 -0.3567  0.4445 -1.9521
   55MPD2     N  847   3.762   0.953   0.731 -0.3193 -0.2223 -0.2585
   55MPD2    H5  848   3.666   0.947   0.764 -0.3091  0.6150 -0.0628
   55MPD2    N1  849   3.860   0.510   0.894  0.3884  0.6363  0.3124
   55MPD2    H7  850   3.928   0.439   0.918  2.7802  2.7958  0.0196
   56TCq2    C1  851   3.736   0.466   0.919  0.1573  0.7886 -0.0931
   56TCq2    O2  852   3.623   0.516   0.909  0.1625 -0.7159  0.3248
   56TCq2    C2  853   3.742   0.332   0.974 -0.3028 -0.0801 -0.3374
   56TCq2    C3  854   3.863   0.274   1.013  0.9512  0.8374 -0.5997
   56TCq2    C4  855   3.854   0.147   1.069 -0.4278 -1.1540 -0.3553
   56TCq2    C5  856   3.742   0.076   1.082  0.5249  0.1280 -0.2469
   56TCq2    C6  857   3.632   0.138   1.036  0.0491  0.0781  0.1153
   56TCq2    C7  858   3.628   0.266   0.976 -0.1744  0.2268  0.3943
   56TCq2    C8  859   3.503   0.065   1.036 -0.4432  0.5608  0.4028
   56TCq2    O4  860   3.497   4.669   1.042  0.4746 -0.1955  0.0099
   56TCq2    C9  861   3.982   0.091   1.101  0.1535  0.9111 -0.0166
   56TCq2    O5  862   3.967   4.693   1.123 -0.3445  0.2183 -0.4191
   56TCq2    O6  863   4.087   0.135   1.050  0.4073 -0.0633 -0.3142
   56TCq2    H2  864   3.962   0.317   1.008  1.4447 -0.4084 -1.5581
   56TCq2    H3  865   3.739   4.700   1.115 -2.7047  0.4097  0.3273
   56TCq2    H4  866   3.539   0.318   0.942 -0.7457 -1.5858 -0.8971
   57TMC2    C1  867   2.652   2.251  13.092  0.1638  0.2370 -0.7103
   57TMC2    C2  868   2.605   2.165  12.999 -0.3303  0.1493  0.1407
   57TMC2    C3  869   2.704   2.099  12.925 -0.0729  0.4030 -0.0773
   57TMC2    C4  870   2.786   2.271  13.105  0.6088  0.0643  0.4440
   57TMC2    C5  871   2.877   2.203  13.025 -0.6274  0.9643 -0.0542
   57TMC2    C6  872   2.838   2.111  12.931  0.1565 -0.0449 -0.9108
   57TMC2     C  873   2.579   2.274  13.211  0.5644  0.3035 -0.7473
   57TMC2     O  874   2.602   2.381  13.266 -0.1680 -0.0971 -0.1289
   57TMC2     H  875   2.507   2.137  12.961 -0.5980 -0.6816  1.4471
   57TMC2    H1  876   2.819   2.340  13.182 -0.4207 -1.0244  1.8558
   57TMC2    H2  877   2.903   2.076  12.851  0.7138 -0.5460 -0.2423
   57TMC2    C7  878   3.007   2.264  13.014  0.7179 -0.0438 -0.3045
   57TMC2    C8  879   2.646   2.020  12.814 -0.2544 -0.2432 -0.0389
   57TMC2    O1  880   3.030   2.373  13.072 -0.5624  0.4870  0.1791
   57TMC2    O2  881   2.606   1.905  12.830  0.2257  0.2073  0.0089
   57TMC2    O5  882   2.596   2.115  12.728 -0.1229  0.2265  0.7416
   57TMC2    H5  883   2.640   2.203  12.727 -0.3098  0.2804 -1.4804
   58MPD2     C  884   2.280   2.114  13.608  0.7329 -0.0483  0.3081
   58MPD2    C1  885   2.349   2.233  13.579  0.2553  0.9875 -0.2404
   58MPD2    C2  886   2.421   2.252  13.464 -0.4137  0.2404  0.0744
   58MPD2    C3  887   2.424   2.152  13.373 -0.6638 -0.3687 -0.2907
   58MPD2    C4  888   2.344   2.039  13.389 -0.5939  0.5322  0.3591
   58MPD2    C5  889   2.266   2.025  13.503 -0.2828 -0.1734  0.2796
   58MPD2     H  890   2.473   2.344  13.442 -1.8421  0.5036 -2.2339
   58MPD2    H1  891   2.331   1.974  13.304 -1.2731  0.7209  0.3134
   58MPD2    H2  892   2.228   2.097  13.702  0.6696 -2.0714 -0.0859
   58MPD2    H3  893   2.199   1.940  13.513  1.1709 -1.4278 -0.5338
   58MPD2     N  894   2.496   2.168  13.250  0.5790  0.0176  0.4632
   58MPD2    H5  895   2.478   2.095  13.182 -2.0029  2.0624 -1.0269
   58MPD2    N1  896   2.352   2.337  13.675 -0.1690 -0.2469  0.2393
   58MPD2    H7  897   2.400   2.419  13.642 -1.2517  0.0097 -0.6899
   59MPD2     C  898   0.434   1.932  13.221 -0.4881 -0.5649 -0.4323
   59MPD2    C1  899   0.512   1.997  13.121  0.3119  0.7534  0.3333
   59MPD2    C2  900   0.614   2.067  13.167  0.1179  0.3624  0.0372
   59MPD2    C3  901   0.653   2.077  13.301  0.3391 -0.4018  0.3273
   59MPD2    C4  902   0.578   2.010  13.398 -0.2648  0.0682  0.3615
   59MPD2    C5  903   0.461   1.949  13.354  0.3436 -0.2601 -0.0575
   59MPD2     H  904   0.678   2.113  13.092  2.1177 -0.5947  1.1611
   59MPD2    H1  905   0.602   2.014  13.503 -2.5627 -0.8837  0.9156
   59MPD2    H2  906   0.342   1.882  13.192  0.8825 -2.2735 -1.8727
   59MPD2    H3  907   0.385   1.903  13.415  0.3604  1.6157  1.3682
   59MPD2     N  908   0.770   2.148  13.339 -0.5387  0.0591 -0.2778
   59MPD2    H5  909   0.807   2.143  13.433 -2.7760  1.5171  0.6742
   59MPD2    N1  910   0.474   1.975  12.984  0.6830  0.0753 -0.5389
   59MPD2    H7  911   0.396   1.909  12.974  0.5897 -0.0390  0.9010
   60TCq2    C1  912   0.542   2.008  12.871 -0.2623  0.4846 -0.3815
   60TCq2    O2  913   0.637   2.084  12.856  0.3087  0.2490  0.2600
   60TCq2    C2  914   0.520   1.919  12.759  0.1229  0.0907  0.4680
   60TCq2    C3  915   0.412   1.823  12.773 -0.1795  0.0626 -1.0543
   60TCq2    C4  916   0.393   1.748  12.662  0.4535 -0.7345 -0.2320
   60TCq2    C5  917   0.463   1.767  12.548 -0.2824  0.2530 -0.3971
   60TCq2    C6  918   0.556   1.858  12.537  0.5151  0.1294  0.3355
   60TCq2    C7  919   0.591   1.931  12.645  0.0516 -0.2948 -0.4778
   60TCq2    C8  920   0.589   1.893  12.398 -0.4545  0.3225 -0.4543
   60TCq2    O4  921   0.555   1.807  12.313 -0.2232  0.5930  0.3007
   60TCq2    C9  922   0.277   1.662  12.670 -0.1204 -0.0651  0.1525
   60TCq2    O5  923   0.213   1.658  12.780 -0.2074  0.0266  0.1316
   60TCq2    O6  924   0.249   1.603  12.565  0.0755 -0.4677  0.1228
   60TCq2    H2  925   0.355   1.806  12.864  0.8696  1.8320 -0.0924
   60TCq2    H3  926   0.424   1.718  12.459  0.2030 -1.7419  0.5020
   60TCq2    H4  927   0.645   2.024  12.628  0.7101 -0.6344 -0.2605
   61MPD2     C  928   4.405   3.412  14.353  0.9484 -0.5722  0.1613
   61MPD2    C1  929   4.489   3.498  14.415 -0.0842 -0.5841  0.0878
   61MPD2    C2  930   4.535   3.603  14.345  0.4910  0.2115 -0.5995
   61MPD2    C3  931   4.505   3.617  14.213 -0.0679 -0.2974 -0.2650
   61MPD2    C4  932   4.413   3.527  14.148 -0.1414  0.1623  0.3080
   61MPD2    C5  933   4.368   3.418  14.224 -0.1077  0.5761 -0.5897
   61MPD2     H  934   4.594   3.678  14.397 -1.8115  0.8793  1.0548
   61MPD2    H1  935   4.368   3.551  14.052  0.7260  1.5134  0.2367
   61MPD2    H2  936   4.344   3.340  14.405  1.6880 -0.4236  1.2306
   61MPD2    H3  937   4.304   3.342  14.180  0.7432 -0.0485 -0.7279
   61MPD2     N  938   4.537   3.735  14.141 -0.5760 -0.7755  0.7782
   61MPD2    H5  939   4.490   3.759  14.054  0.4103 -0.2465  0.3900
   61MPD2    N1  940   4.519   3.489  14.553 -0.9839 -0.0757  0.1609
   61MPD2    H7  941   4.575   3.567  14.586  0.6197 -1.2019  0.0670
   62TCq2    C1  942   4.473   3.393  14.637 -0.5574  0.5077 -0.3587
   62TCq2    O2  943   4.436   3.281  14.608  0.2077 -0.2309 -0.1407
   62TCq2    C2  944   4.481   3.446  14.775  0.5435 -0.1721 -0.3158
   62TCq2    C3  945   4.465   3.350  14.875 -0.2514  0.2025  0.4374
   62TCq2    C4  946   4.450   3.400  15.003  0.7949  0.0618  0.6798
   62TCq2    C5  947   4.442   3.535  15.030 -0.4037  0.0765  0.3660
   62TCq2    C6  948   4.464   3.623  14.927 -0.3701 -0.2213  0.3672
   62TCq2    C7  949   4.477   3.582  14.802  0.8211 -0.2283 -0.7165
   62TCq2    C8  950   4.415   3.757  14.943  1.2498  0.0259 -0.4338
   62TCq2    O4  951   4.464   3.835  14.868  0.3703  0.6538 -0.0571
   62TCq2    C9  952   4.443   3.308  15.117 -0.1812  0.3817  0.4475
   62TCq2    O5  953   4.446   3.356  15.232  0.3595  0.2907 -0.3713
   62TCq2    O6  954   4.463   3.186  15.095  0.2865 -0.2482 -0.0803
   62TCq2    H2  955   4.463   3.243  14.856  0.5997  0.2499  0.0798
   62TCq2    H3  956   4.415   3.567  15.130 -0.9050 -1.6758  0.7963
   62TCq2    H4  957   4.487   3.658  14.725  1.8820 -0.6176 -0.9776
   63TMC2    C1  958   4.336   3.868  10.311  0.4340 -0.5393  0.5481
   63TMC2    C2  959   4.440   3.955  10.280  0.0079  0.1579 -0.6029
   63TMC2    C3  960   4.412   4.043  10.174  0.9823 -0.1674 -0.5396
   63TMC2    C4  961   4.221   3.856  10.238  0.2177  0.5976 -0.2025
   63TMC2    C5  962   4.197   3.948  10.144 -0.3833  0.3503 -0.0634
   63TMC2    C6  963   4.295   4.039  10.107  0.3556 -0.2811 -0.2686
   63TMC2     C  964   4.352   3.789  10.429 -0.2271  0.1990 -0.2586
   63TMC2     O  965   4.440   3.825  10.508  0.1601 -0.2822 -0.1628
   63TMC2     H  966   4.535   3.956  10.331  0.4549  3.6601 -1.4978
   63TMC2    H1  967   4.135   3.795  10.265 -1.0703  1.8759 -1.3633
   63TMC2    H2  968   4.287   4.094  10.015  1.7647  0.6652  0.1739
   63TMC2    C7  969   4.056   3.969  10.105  0.5862  0.3354  0.2799
   63TMC2    C8  970   4.516   4.129  10.123  0.6480  0.0311 -0.0586
   63TMC2    O1  971   3.980   3.872  10.115  0.6102  0.2332  0.2664
   63TMC2    O2  972   4.628   4.086  10.142 -0.4882  0.2955 -0.0920
   63TMC2    O5  973   4.483   4.258  10.153  0.3431 -0.2496 -0.0775
   63TMC2    H5  974   4.399   4.286  10.111  0.1937  0.7271  0.8694
   64MPD2     C  975   4.319   3.379  10.724  0.6410  0.0192  0.2649
   64MPD2    C1  976   4.272   3.347  10.601  0.1590 -0.4753 -0.1592
   64MPD2    C2  977   4.278   3.443  10.503 -0.9842  0.2093 -0.1356
   64MPD2    C3  978   4.305   3.574  10.534  0.1515 -0.5321  0.0492
   64MPD2    C4  979   4.347   3.610  10.663  0.2496  0.6490 -0.2732
   64MPD2    C5  980   4.358   3.510  10.757 -0.0236 -0.1857 -0.0371
   64MPD2     H  981   4.259   3.417  10.400  0.8461 -3.0667  0.3636
   64MPD2    H1  982   4.393   3.704  10.692 -0.8498  1.5741 -1.5077
   64MPD2    H2  983   4.327   3.308  10.806  0.8809 -1.7453 -1.2965
   64MPD2    H3  984   4.409   3.540  10.848  0.5606 -1.9618  0.2060
   64MPD2     N  985   4.298   3.661  10.427 -0.1186 -0.1600 -0.9959
   64MPD2    H5  986   4.260   3.614  10.345 -0.4876 -1.8535  0.1369
   64MPD2    N1  987   4.235   3.214  10.557 -0.3149 -0.0001  0.1771
   64MPD2    H7  988   4.219   3.191  10.460 -0.5956 -1.2610  0.5201
   65MPD2     C  989   0.563   3.151  15.982 -0.1043  0.1471  0.0779
   65MPD2    C1  990   0.543   3.098  15.852 -0.3414 -0.6982  0.2495
   65MPD2    C2  991   0.560   2.958  15.838 -1.0630  0.2102  0.5826
   65MPD2    C3  992   0.614   2.878  15.941 -0.4225  0.2743  0.2402
   65MPD2    C4  993   0.633   2.938  16.065  0.4789 -0.3792  0.8846
   65MPD2    C5  994   0.615   3.074  16.082 -0.2784  0.1237 -0.6169
   65MPD2     H  995   0.529   2.907  15.748  0.8613  1.2734 -0.6722
   65MPD2    H1  996   0.672   2.883  16.149  3.1861  3.7125  2.2886
   65MPD2    H2  997   0.548   3.255  16.009 -2.3887 -0.6522  1.9282
   65MPD2    H3  998   0.649   3.116  16.176 -1.4431 -0.4730  0.0649
   65MPD2     N  999   0.616   2.736  15.940 -0.0865 -0.2901 -0.0497
   65MPD2    H5 1000   0.634   2.692  16.030  1.6823 -0.1324 -0.3410
   65MPD2    N1 1001   0.500   3.175  15.745 -0.0768 -0.1494  0.0293
   65MPD2    H7 1002   0.487   3.129  15.655 -0.8460 -1.2550  0.6996
   66TCq2    C1 1003   0.487   3.314  15.741 -0.1979 -0.4225 -0.1960
   66TCq2    O2 1004   0.458   3.396  15.826  0.5307  1.3051 -0.2372
   66TCq2    C2 1005   0.450   3.350  15.603 -0.9258 -0.6590  0.1688
   66TCq2    C3 1006   0.388   3.259  15.517  0.8943 -0.0742 -0.6665
   66TCq2    C4 1007   0.399   3.298  15.384 -0.4783 -0.4307 -0.4323
   66TCq2    C5 1008   0.436   3.429  15.345 -0.0458 -0.0167 -0.0376
   66TCq2    C6 1009   0.501   3.508  15.441  0.4315  0.0249  0.3099
   66TCq2    C7 1010   0.497   3.469  15.569 -0.2937 -0.1067 -0.3112
   66TCq2    C8 1011   0.491   3.649  15.405  0.1866 -0.5075 -0.1146
   66TCq2    O4 1012   0.516   3.675  15.288 -1.1223 -0.3312  0.8172
   66TCq2    C9 1013   0.348   3.204  15.280 -0.4313 -0.8198  0.0016
   66TCq2    O5 1014   0.354   3.078  15.302  0.4722 -0.3968  0.0262
   66TCq2    O6 1015   0.331   3.258  15.168 -0.1135  0.2668 -0.3582
   66TCq2    H2 1016   0.351   3.159  15.532  0.0331 -0.0774 -2.8416
   66TCq2    H3 1017   0.416   3.468  15.246 -1.3119  0.6032  0.4512
   66TCq2    H4 1018   0.554   3.522  15.644 -0.7080  1.3500 -1.0364
   67MPD2     C 1019   0.592   2.612  14.274 -0.4307 -0.3009 -0.0056
   67MPD2    C1 1020   0.555   2.732  14.328  0.0149  0.3792  0.1514
   67MPD2    C2 1021   0.453   2.809  14.270  0.7148  0.1009  0.0307
   67MPD2    C3 1022   0.382   2.756  14.153 -0.1771  0.3113  0.1640
   67MPD2    C4 1023   0.436   2.644  14.094 -0.1380  0.1574 -0.4171
   67MPD2    C5 1024   0.535   2.569  14.155 -0.7026  0.8010 -0.0686
   67MPD2     H 1025   0.409   2.894  14.321  0.1672 -1.5844  2.3521
   67MPD2    H1 1026   0.390   2.599  14.006 -0.0238 -1.9159  0.5934
   67MPD2    H2 1027   0.677   2.555  14.310  0.5091 -0.6759 -2.8407
   67MPD2    H3 1028   0.570   2.479  14.105  1.5123  0.0717  2.7749
   67MPD2     N 1029   0.274   2.817  14.084 -0.1185  0.7587 -1.1160
   67MPD2    H5 1030   0.236   2.773  14.001  1.5204  1.4193 -2.1943
   67MPD2    N1 1031   0.592   2.775  14.458  0.4159  0.1611  0.3949
   67MPD2    H7 1032   0.576   2.872  14.486 -1.8989 -0.4899  1.3415
   68TCq2    C1 1033   0.679   2.716  14.539 -0.4034 -0.1603  0.0679
   68TCq2    O2 1034   0.751   2.616  14.520  0.3443  0.0905  0.4232
   68TCq2    C2 1035   0.710   2.807  14.647  0.4319 -0.1648  0.2035
   68TCq2    C3 1036   0.616   2.894  14.691  0.4645 -0.9612 -1.0797
   68TCq2    C4 1037   0.636   2.953  14.813 -0.3520 -0.6340  0.5402
   68TCq2    C5 1038   0.751   2.925  14.887  0.2664  0.1864  0.3830
   68TCq2    C6 1039   0.849   2.850  14.826  0.1324 -0.4857 -0.5254
   68TCq2    C7 1040   0.822   2.784  14.709 -0.3674  0.1232  0.8424
   68TCq2    C8 1041   0.980   2.836  14.896 -0.5929 -0.3282  0.0746
   68TCq2    O4 1042   1.077   2.806  14.826 -0.1072  0.4079 -0.2895
   68TCq2    C9 1043   0.533   3.041  14.871 -0.3290 -0.5052  0.2974
   68TCq2    O5 1044   0.552   3.080  14.990 -0.0078 -0.3424  0.2304
   68TCq2    O6 1045   0.441   3.076  14.794 -0.4532  0.9957 -0.2466
   68TCq2    H2 1046   0.519   2.918  14.648  0.1396  1.3564  0.9477
   68TCq2    H3 1047   0.752   2.985  14.977  1.8917 -1.1818  1.2855
   68TCq2    H4 1048   0.897   2.716  14.670 -0.1620  0.0167  1.4149
   69TMC2    C1 1049   2.715   4.063  12.170  0.7841  0.5055 -0.5651
   69TMC2    C2 1050   2.616   4.149  12.143  0.3533 -0.7461  0.5193
   69TMC2    C3 1051   2.652   4.249  12.062 -0.4481  0.5440 -0.0786
   69TMC2    C4 1052   2.830   4.065  12.091  0.1264  0.4265 -0.7362
   69TMC2    C5 1053   2.862   4.159  12.000 -0.1424 -0.2922 -0.0866
   69TMC2    C6 1054   2.770   4.257  11.993  0.1374 -0.4243 -0.6899
   69TMC2     C 1055   2.703   3.970  12.283 -0.5652  0.0548 -0.0244
   69TMC2     O 1056   2.608   3.987  12.358  0.1381 -0.6139  0.1425
   69TMC2     H 1057   2.520   4.145  12.194  0.6958  1.9569  1.3954
   69TMC2    H1 1058   2.890   3.974  12.085  1.5874  1.4557 -1.5827
   69TMC2    H2 1059   2.797   4.341  11.929  0.6874  0.9501  1.3585
   69TMC2    C7 1060   2.977   4.151  11.915  0.5053  0.2411 -0.3104
   69TMC2    C8 1061   2.576   4.376  12.071  0.1416 -0.2311  0.0235
   69TMC2    O1 1062   3.079   4.104  11.963  0.1262  1.0434 -0.3819
   69TMC2    O2 1063   2.458   4.377  12.109  0.0681 -0.3169 -0.0892
   69TMC2    O5 1064   2.656   4.483  12.077 -0.0732 -0.0273 -0.3403
   69TMC2    H5 1065   2.753   4.466  12.076 -0.1511 -0.4286 -1.5022
   70MPD2     C 1066   2.960   3.754  12.423 -0.0226  0.3619  0.5556
   70MPD2    C1 1067   2.837   3.811  12.416 -0.0715 -0.1248 -0.7708
   70MPD2    C2 1068   2.741   3.777  12.510  0.2592  0.3326  0.1648
   70MPD2    C3 1069   2.769   3.685  12.606  0.0327  0.2377 -0.2705
   70MPD2    C4 1070   2.901   3.634  12.620  0.0200 -0.4561 -0.5359
   70MPD2    C5 1071   2.999   3.671  12.531 -0.0902 -0.2499  0.1698
   70MPD2     H 1072   2.638   3.811  12.503 -0.1607 -0.7820  0.8218
   70MPD2    H1 1073   2.936   3.563  12.694  0.4424  0.6353  0.3019
   70MPD2    H2 1074   3.042   3.778  12.356 -0.8645 -1.1010 -0.9949
   70MPD2    H3 1075   3.098   3.632  12.551 -0.5099 -0.7969  1.1925
   70MPD2     N 1076   2.675   3.646  12.707  0.3585 -0.0714 -0.2768
   70MPD2    H5 1077   2.719   3.587  12.777 -0.4980  1.4356  1.5413
   70MPD2    N1 1078   2.817   3.894  12.304 -0.5694  0.4889  0.8072
   70MPD2    H7 1079   2.903   3.916  12.254 -0.0117 -0.2876  1.4373
   71TMC2    C1 1080   0.255   3.415   1.497  0.3252 -0.7554 -0.4012
   71TMC2    C2 1081   0.316   3.301   1.538  0.8902  0.5412  0.6404
   71TMC2    C3 1082   0.238   3.190   1.552  0.6166  0.9637  0.4083
   71TMC2    C4 1083   0.120   3.422   1.478  0.7537  0.1468  0.1820
   71TMC2    C5 1084   0.044   3.308   1.480 -0.5195 -0.5179  0.4828
   71TMC2    C6 1085   0.105   3.186   1.520 -0.7086  0.4513 -0.0459
   71TMC2     C 1086   0.339   3.505   1.426  0.1781  0.7109 -0.1321
   71TMC2     O 1087   0.291   3.616   1.401  0.1646 -0.0412  0.0001
   71TMC2     H 1088   0.414   3.311   1.583  1.1320 -1.4318  0.5565
   71TMC2    H1 1089   0.090   3.517   1.436  0.7723  0.2117  0.3155
   71TMC2    H2 1090   0.056   3.090   1.526  1.9357 -0.9223 -0.3251
   71TMC2    C7 1091   4.631   3.315   1.489 -0.0199  0.0939  1.1335
   71TMC2    C8 1092   0.287   3.081   1.636 -0.1242  0.1722  0.3485
   71TMC2    O1 1093   4.576   3.209   1.506  0.6526  0.9083  0.0170
   71TMC2    O2 1094   0.210   3.039   1.720 -0.4860 -0.1100 -0.4643
   71TMC2    O5 1095   0.425   3.071   1.639 -0.3401  0.2370 -0.0669
   71TMC2    H5 1096   0.465   3.080   1.550 -2.5662 -2.5101 -1.3348
   72MPD2     C 1097   0.750   3.585   1.138  0.1145  0.5396 -0.0942
   72MPD2    C1 1098   0.651   3.678   1.179 -0.0942 -0.4684  0.0924
   72MPD2    C2 1099   0.555   3.627   1.263 -0.0530 -0.1843  0.2705
   72MPD2    C3 1100   0.561   3.497   1.309  0.0287 -0.4538 -0.3220
   72MPD2    C4 1101   0.658   3.412   1.270 -0.5784  0.6152 -0.3127
   72MPD2    C5 1102   0.757   3.461   1.189 -0.4206 -1.2488 -0.2259
   72MPD2     H 1103   0.474   3.696   1.286  0.4689  0.2289  0.8586
   72MPD2    H1 1104   0.678   3.310   1.301 -0.3549  0.7471 -0.0280
   72MPD2    H2 1105   0.831   3.623   1.077 -0.3352  1.8563  0.1290
   72MPD2    H3 1106   0.838   3.397   1.155  0.9061  1.0487 -1.3537
   72MPD2     N 1107   0.455   3.440   1.386  0.3684 -0.6925  0.2015
   72MPD2    H5 1108   0.459   3.340   1.397  2.5319 -0.5479  0.6576
   72MPD2    N1 1109   0.657   3.815   1.147  0.1850  0.1631  0.1810
   72MPD2    H7 1110   0.584   3.868   1.194 -0.1482 -0.2397  0.1199
   73TMC2    C1 1111   0.206   1.569  14.326  0.9628  0.0347 -0.4540
   73TMC2    C2 1112   0.088   1.639  14.334  0.0520 -0.3516  0.2370
   73TMC2    C3 1113   0.091   1.761  14.401 -0.8627 -0.4975  0.8896
   73TMC2    C4 1114   0.315   1.618  14.399 -0.3389 -0.8846 -0.2761
   73TMC2    C5 1115   0.318   1.742  14.469  0.1742  0.5359  0.0788
   73TMC2    C6 1116   0.201   1.816  14.463 -0.3417 -0.0527 -0.4939
   73TMC2     C 1117   0.229   1.513  14.196 -0.0253 -0.1970 -0.2604
   73TMC2     O 1118   0.336   1.537  14.141  0.0024 -0.4653  0.0970
   73TMC2     H 1119   4.725   1.615  14.278 -1.8856  3.9436  1.5131
   73TMC2    H1 1120   0.397   1.547  14.396  0.0416 -0.2854 -3.5483
   73TMC2    H2 1121   0.206   1.920  14.491 -1.6145  0.0321 -0.5754
   73TMC2    C7 1122   0.413   1.823  14.402  0.0844  0.7500 -0.9416
   73TMC2    C8 1123   4.688   1.828  14.428 -0.6424  0.5116  0.0858
   73TMC2    O1 1124   0.438   1.936  14.446 -0.4913 -0.3366 -0.2657
   73TMC2    O2 1125   4.643   1.894  14.334 -0.3844 -0.7545 -0.0355
   73TMC2    O5 1126   4.696   1.877  14.548  0.2033  0.4242  0.1882
   73TMC2    H5 1127   0.018   1.819  14.609  1.7047 -0.8103 -2.1722
   74MPD2     C 1128   0.070   1.374  13.723  0.3392  0.8243 -0.5266
   74MPD2    C1 1129   0.178   1.450  13.759  0.0481  0.3133 -0.3175
   74MPD2    C2 1130   0.189   1.474  13.896 -0.1777  0.1016  0.0145
   74MPD2    C3 1131   0.102   1.435  13.996  0.0014 -0.9221  0.6935
   74MPD2    C4 1132   4.724   1.367  13.953  0.1724 -0.4678 -0.1806
   74MPD2    C5 1133   4.702   1.342  13.822 -0.7045  0.1413  1.0691
   74MPD2     H 1134   0.271   1.538  13.924  0.6504 -0.4768 -1.0786
   74MPD2    H1 1135   4.645   1.333  14.020  0.4854  0.1599  0.5101
   74MPD2    H2 1136   0.049   1.339  13.622  0.7105 -1.8509  0.3140
   74MPD2    H3 1137   4.618   1.290  13.776  1.1268  1.7903 -4.1556
   74MPD2     N 1138   0.117   1.465  14.131  0.0261 -0.1683 -0.3545
   74MPD2    H5 1139   0.044   1.429  14.192 -0.2989 -1.8334 -1.7275
   74MPD2    N1 1140   0.269   1.489  13.659 -0.1420  0.2759 -0.2694
   74MPD2    H7 1141   0.252   1.464  13.562  0.2117  1.3530 -0.6200
   75TCq2    C1 1142   0.223   2.946  14.111  0.1514 -1.0567 -0.0582
   75TCq2    O2 1143   0.262   3.030  14.194  1.0378 -0.0021 -0.1021
   75TCq2    C2 1144   0.112   2.977  14.030  0.2205 -0.1145  0.5932
   75TCq2    C3 1145   4.726   3.007  14.105  0.4419  0.0650  0.0654
   75TCq2    C4 1146   4.606   2.997  14.042  0.8371 -0.5489 -0.5397
   75TCq2    C5 1147   4.594   2.956  13.909 -0.4256  0.5570  0.2213
   75TCq2    C6 1148   4.713   2.937  13.839  0.3382 -0.4198 -0.3876
   75TCq2    C7 1149   0.114   2.938  13.896 -0.5555  0.2342 -0.3066
   75TCq2    C8 1150   4.694   2.883  13.706  0.2145 -0.3620 -0.3055
   75TCq2    O4 1151   4.576   2.865  13.673  0.2083  0.0007 -0.2985
   75TCq2    C9 1152   4.488   3.005  14.123 -0.4779  0.7654 -0.8180
   75TCq2    O5 1153   4.390   2.933  14.089 -0.2130  0.4966  0.1999
   75TCq2    O6 1154   4.517   3.032  14.243 -0.3569 -0.3236 -0.3610
   75TCq2    H2 1155   0.009   3.017  14.212 -2.5404 -0.6351  0.3925
   75TCq2    H3 1156   4.496   2.937  13.866 -0.4342  2.6268 -0.6669
   75TCq2    H4 1157   0.203   2.905  13.843  0.2906 -0.6595  1.6597
   76MPD2     C 1158   4.037   3.661  11.905 -0.2377  0.1956  0.3126
   76MPD2    C1 1159   3.987   3.640  11.780 -0.3752 -0.4190 -0.0512
   76MPD2    C2 1160   4.001   3.514  11.730 -0.0122  0.5057  0.0663
   76MPD2    C3 1161   4.075   3.418  11.790 -0.1224  0.1789  0.3818
   76MPD2    C4 1162   4.130   3.442  11.915 -0.2511 -0.0005 -1.1170
   76MPD2    C5 1163   4.112   3.565  11.961  0.3631 -0.9663  0.0449
   76MPD2     H 1164   3.961   3.494  11.632 -1.4583  1.0306  0.5501
   76MPD2    H1 1165   4.177   3.361  11.970 -0.6785  0.1449 -0.5313
   76MPD2    H2 1166   4.029   3.758  11.953  1.3997  0.9813 -1.0080
   76MPD2    H3 1167   4.146   3.581  12.063 -0.9097 -1.7569  0.5868
   76MPD2     N 1168   4.113   3.298  11.722 -0.0599 -0.1131  0.4411
   76MPD2    H5 1169   4.154   3.235  11.790  0.1492 -0.3387  0.1067
   76MPD2    N1 1170   3.907   3.732  11.713  0.0096 -0.1017 -0.5068
   76MPD2    H7 1171   3.865   3.703  11.626 -1.6296 -1.1962  0.6481
   77TCq2    C1 1172   4.091   3.263  11.594 -0.1147 -0.4982 -0.1172
   77TCq2    O2 1173   4.036   3.331  11.506 -0.3410 -0.3049  0.3510
   77TCq2    C2 1174   4.095   3.123  11.563 -0.4867  0.4806  0.1896
   77TCq2    C3 1175   4.070   3.088  11.429 -0.3473 -0.4871  0.0495
   77TCq2    C4 1176   4.059   2.957  11.396  0.1230 -0.9901  0.0391
   77TCq2    C5 1177   4.026   2.867  11.491  0.6072 -0.4825  0.4299
   77TCq2    C6 1178   4.045   2.905  11.616 -0.3861 -0.1445  0.2515
   77TCq2    C7 1179   4.087   3.026  11.658  0.4403 -0.5539  0.0266
   77TCq2    C8 1180   4.002   2.809  11.715  0.1363  0.3597 -0.1524
   77TCq2    O4 1181   3.888   2.767  11.695  0.1213 -0.0892 -0.4915
   77TCq2    C9 1182   4.011   2.934  11.261 -0.0541 -0.4621  0.0310
   77TCq2    O5 1183   4.037   3.011  11.164  0.0469  0.2043  0.2415
   77TCq2    O6 1184   3.958   2.822  11.237 -0.2243  0.4171 -0.5817
   77TCq2    H2 1185   4.083   3.169  11.358  3.6271  0.0201  1.3881
   77TCq2    H3 1186   4.008   2.761  11.476 -0.6807 -0.3143  0.7523
   77TCq2    H4 1187   4.101   3.051  11.762 -1.5074 -1.4939  0.5174
   78MPD1     C 1188   2.919   1.980   1.647  0.4212 -0.0554  0.3561
   78MPD1    C1 1189   2.934   2.066   1.752  0.6796 -0.1979  0.5339
   78MPD1    C2 1190   2.824   2.081   1.836 -0.0088  0.0150 -0.3170
   78MPD1    C3 1191   2.702   2.011   1.821 -0.0091  0.2476  0.2531
   78MPD1    C4 1192   2.686   1.939   1.703  0.1277 -0.2596  0.1026
   78MPD1    C5 1193   2.790   1.929   1.617 -0.8201  0.3434 -0.7966
   78MPD1     H 1194   2.832   2.157   1.912  0.8607 -0.2431 -0.1608
   78MPD1    H1 1195   2.592   1.893   1.674  0.0445  0.9553 -1.5698
   78MPD1    H2 1196   3.002   1.955   1.583  1.4247 -0.2762  1.7519
   78MPD1    H3 1197   2.772   1.882   1.521 -0.5320 -0.1917 -0.5915
   78MPD1     N 1198   2.578   2.024   1.895 -0.0265  0.2368 -0.3948
   78MPD1    H5 1199   2.493   1.982   1.860 -0.5623  0.5224  0.5632
   78MPD1    N1 1200   3.042   2.150   1.766 -0.4019  0.2813  0.0124
   78MPD1    H6 1201   3.076   2.156   1.862  1.1213 -0.7596 -0.4715
   78MPD1    H7 1202   3.121   2.128   1.706  0.3849  3.0886  0.0193
   79TCq2    C1 1203   2.578   2.077   2.023 -0.3026  0.2802 -0.0704
   79TCq2    O2 1204   2.671   2.125   2.089 -0.3342 -0.0418 -0.6902
   79TCq2    C2 1205   2.449   2.076   2.085  0.6566  0.6471 -0.7778
   79TCq2    C3 1206   2.355   1.987   2.040  0.0950  0.9934 -0.3747
   79TCq2    C4 1207   2.230   2.007   2.082 -1.0808  0.6272 -0.4440
   79TCq2    C5 1208   2.189   2.123   2.146  0.2695  0.2437  0.3779
   79TCq2    C6 1209   2.286   2.213   2.185  0.6130 -0.4865  0.7629
   79TCq2    C7 1210   2.415   2.187   2.158 -0.2576  0.3436  0.1672
   79TCq2    C8 1211   2.254   2.354   2.223  0.5041 -0.2491  0.1382
   79TCq2    O4 1212   2.344   2.438   2.234  1.2056  0.1324 -0.3790
   79TCq2    C9 1213   2.124   1.928   2.025  1.0953  0.2870 -0.6740
   79TCq2    O5 1214   2.004   1.952   2.059 -0.2687  0.1667 -0.0504
   79TCq2    O6 1215   2.147   1.854   1.924 -0.3889  0.1369  0.3956
   79TCq2    H2 1216   2.377   1.896   1.985  1.3434  1.5871 -0.8602
   79TCq2    H3 1217   2.082   2.136   2.156  0.4036  1.4602  0.1708
   79TCq2    H4 1218   2.493   2.262   2.167 -0.2355  0.5150 -1.4898
   80MPD2     C 1219   3.112   2.845  12.480 -0.0725 -1.0277 -0.3329
   80MPD2    C1 1220   3.021   2.846  12.377 -0.4420  0.3837  0.5140
   80MPD2    C2 1221   2.881   2.869  12.395 -0.7899  0.4268 -0.2413
   80MPD2    C3 1222   2.836   2.900  12.525  1.0342  0.0096 -0.1089
   80MPD2    C4 1223   2.932   2.903  12.623 -0.0459 -0.0132 -0.4026
   80MPD2    C5 1224   3.067   2.874  12.605 -0.1392 -0.0254 -0.0778
   80MPD2     H 1225   2.811   2.859  12.312 -2.0200 -0.1399  0.8670
   80MPD2    H1 1226   2.901   2.930  12.724  0.5974  0.6068 -0.3743
   80MPD2    H2 1227   3.214   2.812  12.468  0.2798 -0.3960  0.9897
   80MPD2    H3 1228   3.143   2.870  12.682  0.2509 -0.3603 -0.4799
   80MPD2     N 1229   2.703   2.943  12.564 -0.3026 -0.3788 -0.0803
   80MPD2    H5 1230   2.678   2.958  12.661  0.6683  2.7568 -0.3192
   80MPD2    N1 1231   3.066   2.811  12.246  0.3243 -0.8859 -0.3771
   80MPD2    H7 1232   2.992   2.812  12.176 -0.3469 -0.0119  0.3400
   81TCq2    C1 1233   3.194   2.776  12.205  0.8119  0.5349 -0.3940
   81TCq2    O2 1234   3.299   2.783  12.266  0.1624 -0.2009 -0.2319
   81TCq2    C2 1235   3.202   2.747  12.058 -0.7710  0.3733  0.2959
   81TCq2    C3 1236   3.308   2.797  11.990 -0.1658  0.4363 -0.2882
   81TCq2    C4 1237   3.294   2.796  11.848 -0.8743 -0.1088  0.4228
   81TCq2    C5 1238   3.191   2.720  11.792  0.7520 -0.4456 -0.2347
   81TCq2    C6 1239   3.093   2.665  11.871 -0.6244  0.8008 -0.7633
   81TCq2    C7 1240   3.092   2.682  12.008 -0.1515  0.3402 -0.1296
   81TCq2    C8 1241   2.985   2.613  11.798  0.1845 -0.3113 -0.0035
   81TCq2    O4 1242   2.961   2.664  11.688  0.3334 -0.0813 -0.3537
   81TCq2    C9 1243   3.391   2.855  11.758  0.0969 -0.8609  0.3826
   81TCq2    O5 1244   3.488   2.913  11.816 -0.3753 -0.3126 -0.3220
   81TCq2    O6 1245   3.379   2.829  11.634 -0.3237 -0.0302 -0.0059
   81TCq2    H2 1246   3.389   2.853  12.036 -1.2589  2.6281 -1.0429
   81TCq2    H3 1247   3.203   2.702  11.686 -0.6677 -1.4915 -0.2115
   81TCq2    H4 1248   3.029   2.629  12.078  1.7294  0.1771  1.4412
   82MPD2     C 1249   1.052   2.813  11.041 -0.1679  0.0517  0.8773
   82MPD2    C1 1250   1.013   2.698  10.981 -0.1968  0.2598 -0.1624
   82MPD2    C2 1251   1.056   2.575  11.023 -0.0371 -0.0177  0.4100
   82MPD2    C3 1252   1.134   2.566  11.138 -0.2486 -0.4569  0.4966
   82MPD2    C4 1253   1.177   2.682  11.198  0.3960 -0.1014 -0.4327
   82MPD2    C5 1254   1.127   2.799  11.152  0.2891  0.2126  0.1913
   82MPD2     H 1255   1.022   2.488  10.968 -0.5225 -0.7803  1.9049
   82MPD2    H1 1256   1.236   2.695  11.288 -0.7847 -0.5843  0.4139
   82MPD2    H2 1257   1.022   2.914  11.016  1.8206  0.8898  1.9416
   82MPD2    H3 1258   1.138   2.888  11.213 -3.0594  0.1468  0.8681
   82MPD2     N 1259   1.194   2.452  11.188  0.2242 -0.3954 -0.1712
   82MPD2    H5 1260   1.252   2.455  11.270 -0.7187  3.6188  0.3555
   82MPD2    N1 1261   0.919   2.715  10.876  0.7379 -0.0303  0.3496
   82MPD2    H7 1262   0.893   2.813  10.865 -1.5914 -0.3992  2.7054
   83TCq2    C1 1263   1.157   2.324  11.151 -0.2309 -0.1380 -0.2421
   83TCq2    O2 1264   1.063   2.283  11.082 -0.7113  0.3360  0.0786
   83TCq2    C2 1265   1.255   2.223  11.186 -0.2774  0.3995 -0.3971
   83TCq2    C3 1266   1.382   2.260  11.230  0.4335  0.2338  0.0973
   83TCq2    C4 1267   1.465   2.162  11.280 -0.5332  0.4770 -0.3796
   83TCq2    C5 1268   1.426   2.037  11.284  0.2564  0.0913  0.4940
   83TCq2    C6 1269   1.310   1.994  11.222 -0.8104 -0.1953 -0.8020
   83TCq2    C7 1270   1.214   2.093  11.186  0.2530 -0.5114 -0.5683
   83TCq2    C8 1271   1.254   1.867  11.255 -0.2051 -0.1925 -0.3966
   83TCq2    O4 1272   1.274   1.814  11.365  0.4616 -0.0782  0.4374
   83TCq2    C9 1273   1.601   2.195  11.315  0.0574 -0.0360  0.0021
   83TCq2    O5 1274   1.686   2.100  11.307 -0.0574 -0.4915  0.9760
   83TCq2    O6 1275   1.629   2.310  11.356  0.0711  0.0116 -0.2371
   83TCq2    H2 1276   1.417   2.363  11.225 -2.9783  1.4309  0.1762
   83TCq2    H3 1277   1.492   1.960  11.323  1.8215  0.7725 -0.8496
   83TCq2    H4 1278   1.112   2.067  11.161 -0.1492  0.8095 -0.3178
   84TCq2    C1 1279   2.094   1.707  10.047  0.7879 -0.7434  0.0742
   84TCq2    O2 1280   2.136   1.731   9.936  0.9704  0.2109 -0.6866
   84TCq2    C2 1281   2.093   1.799  10.158  0.8268 -0.2301 -0.9794
   84TCq2    C3 1282   2.157   1.914  10.135  0.9358 -0.2603  0.2006
   84TCq2    C4 1283   2.147   2.009  10.233  0.7465  0.2337 -0.7557
   84TCq2    C5 1284   2.081   1.987  10.352  0.1576 -0.1127 -0.6687
   84TCq2    C6 1285   2.014   1.865  10.370 -0.2947  0.1993 -0.1300
   84TCq2    C7 1286   2.022   1.767  10.273 -0.8458 -0.7188 -0.0763
   84TCq2    C8 1287   1.985   1.829  10.509 -0.0949  0.3049  0.0935
   84TCq2    O4 1288   2.012   1.917  10.595 -0.4172  0.4643 -0.0502
   84TCq2    C9 1289   2.230   2.126  10.215 -0.6100  0.2719  0.1072
   84TCq2    O5 1290   2.284   2.146  10.103  0.3127  0.6034  0.1434
   84TCq2    O6 1291   2.249   2.192  10.320  0.4556  0.0653 -0.4472
   84TCq2    H2 1292   2.213   1.928  10.043 -2.3427 -1.0047 -1.8834
   84TCq2    H3 1293   2.078   2.069  10.423 -1.3046 -1.9488  1.4106
   84TCq2    H4 1294   1.965   1.675  10.279 -2.9036  0.6605  1.4101
   85MPD2     C 1295   2.955   4.344  16.389  0.8519  0.1315 -0.1067
   85MPD2    C1 1296   2.923   4.297  16.264 -0.1087 -0.7492  0.9285
   85MPD2    C2 1297   2.942   4.383  16.161  0.7577 -0.0962  0.1063
   85MPD2    C3 1298   2.982   4.517  16.176 -0.2161  0.0688  0.1065
   85MPD2    C4 1299   3.003   4.561  16.306 -0.5507 -0.4133 -0.6945
   85MPD2    C5 1300   2.992   4.475  16.410  0.0586  0.1804  0.2257
   85MPD2     H 1301   2.913   4.354  16.061 -1.6635  0.4272  0.6385
   85MPD2    H1 1302   3.033   4.661  16.334  1.1623 -0.8999 -0.7732
   85MPD2    H2 1303   2.942   4.287  16.480  0.4848 -0.6919 -0.6776
   85MPD2    H3 1304   3.009   4.508  16.512 -1.3932 -1.1367  0.9008
   85MPD2     N 1305   3.000   4.595  16.060 -0.2048 -0.0002  0.2839
   85MPD2    H5 1306   3.001   4.546  15.971 -0.9496  0.4597  0.0266
   85MPD2    N1 1307   2.863   4.167  16.240  0.0482 -0.0596 -0.2327
   85MPD2    H7 1308   2.826   4.153  16.146 -0.1408  2.8335 -0.6009
   86TCq2    C1 1309   3.005   0.004  16.061  0.4306 -0.4565 -0.0551
   86TCq2    O2 1310   2.991   0.079  16.152 -0.5275  0.0731  0.5609
   86TCq2    C2 1311   3.052   0.064  15.934  0.1770 -0.3729 -0.0225
   86TCq2    C3 1312   3.009   0.191  15.914  0.1305  1.2356  0.3603
   86TCq2    C4 1313   3.068   0.259  15.815  0.2174 -0.1757 -0.0508
   86TCq2    C5 1314   3.163   0.200  15.733 -0.0141 -0.9394 -0.6646
   86TCq2    C6 1315   3.214   0.080  15.761 -0.6146  0.6727 -0.4887
   86TCq2    C7 1316   3.163   0.010  15.870 -0.4674  0.4337 -0.7878
   86TCq2    C8 1317   3.278   0.001  15.656  0.2248  0.5660  0.3482
   86TCq2    O4 1318   3.319   4.620  15.701 -0.3510  0.4343 -0.7758
   86TCq2    C9 1319   3.038   0.398  15.795  0.4843  0.1855  0.3223
   86TCq2    O5 1320   2.935   0.432  15.850 -0.1205  0.3866 -0.0416
   86TCq2    O6 1321   3.121   0.481  15.740  0.2334  0.0928  0.2769
   86TCq2    H2 1322   2.929   0.233  15.974  1.2801  1.9995  1.3763
   86TCq2    H3 1323   3.206   0.261  15.655 -0.2010 -0.4519 -0.3859
   86TCq2    H4 1324   3.193   4.634  15.886  0.8902  1.0253  0.4537
   87MPD2     C 1325   0.556   2.836   0.887 -0.3455  0.6117 -0.4659
   87MPD2    C1 1326   0.575   2.920   0.989  0.6646  0.0750 -0.2518
   87MPD2    C2 1327   0.472   2.998   1.040  0.0476 -0.2841  0.8095
   87MPD2    C3 1328   0.344   2.988   0.984  0.5644 -0.5242 -0.0469
   87MPD2    C4 1329   0.331   2.912   0.868  0.1545  0.3411  0.1152
   87MPD2    C5 1330   0.439   2.837   0.823 -0.6096  1.0995 -0.0851
   87MPD2     H 1331   0.482   3.050   1.135 -0.6509  1.0090  0.1735
   87MPD2    H1 1332   0.245   2.903   0.803  0.0660 -1.0478  0.4224
   87MPD2    H2 1333   0.638   2.776   0.848  0.3459  1.8038 -0.8528
   87MPD2    H3 1334   0.427   2.771   0.738  0.7280 -0.3254  0.8485
   87MPD2     N 1335   0.230   3.060   1.033  0.1143 -0.2633 -0.0873
   87MPD2    H5 1336   0.141   3.049   0.985 -0.5235  0.5698  0.9160
   87MPD2    N1 1337   0.711   2.929   1.042 -0.2408 -0.5846 -0.4371
   87MPD2    H7 1338   0.781   2.870   0.998  0.0612  0.3103 -1.1640
   88TCq2    C1 1339   0.747   3.009   1.142 -0.2682  0.0726 -0.4877
   88TCq2    O2 1340   0.678   3.085   1.207  0.3964  0.6781 -0.0699
   88TCq2    C2 1341   0.883   2.980   1.194  0.0795  0.1411  0.0266
   88TCq2    C3 1342   0.914   3.019   1.318  0.4996 -0.1632  0.0882
   88TCq2    C4 1343   1.053   3.029   1.343  0.3877 -0.3647  0.5078
   88TCq2    C5 1344   1.144   2.992   1.253  0.2630 -0.0141  0.1164
   88TCq2    C6 1345   1.106   2.967   1.123 -0.8140 -0.3666  1.0932
   88TCq2    C7 1346   0.973   2.952   1.094  0.6669  0.5235  0.4455
   88TCq2    C8 1347   1.204   2.960   1.022 -0.3159  0.0771 -0.4057
   88TCq2    O4 1348   1.324   2.987   1.050 -0.1621  0.4916 -0.3771
   88TCq2    C9 1349   1.104   3.067   1.470  0.1837  0.5303  0.6404
   88TCq2    O5 1350   1.210   3.136   1.472  0.1417 -0.2617 -0.1539
   88TCq2    O6 1351   1.006   3.094   1.550  0.8046  0.0903 -0.3453
   88TCq2    H2 1352   0.836   3.056   1.384  1.9788  2.2270  0.4937
   88TCq2    H3 1353   1.247   2.992   1.288 -0.3143  1.3242  1.7601
   88TCq2    H4 1354   0.945   2.949   0.990  1.0224  0.9733  0.3368
   89MPD2     C 1355   1.822   0.459   1.227 -0.0745 -0.9110  0.2979
   89MPD2    C1 1356   1.781   0.568   1.150  0.0986  0.3444  0.0753
   89MPD2    C2 1357   1.843   0.691   1.163 -0.3103  0.0078  0.3514
   89MPD2    C3 1358   1.954   0.705   1.241  0.2125  0.1571  0.3178
   89MPD2    C4 1359   1.999   0.593   1.314  0.0739  0.7834  0.1679
   89MPD2    C5 1360   1.923   0.475   1.306 -0.6480 -0.0661 -0.4823
   89MPD2     H 1361   1.813   0.774   1.100  1.2727  0.5543  0.3185
   89MPD2    H1 1362   2.080   0.595   1.385  0.3091 -2.8298  0.0080
   89MPD2    H2 1363   1.771   0.364   1.241  0.0378 -0.8736  0.9670
   89MPD2    H3 1364   1.947   0.387   1.365 -0.6879  0.3424  0.1498
   89MPD2     N 1365   2.026   0.825   1.221 -0.4014 -0.2450  0.2986
   89MPD2    H5 1366   1.993   0.896   1.157 -1.1752 -0.1424  0.8145
   89MPD2    N1 1367   1.670   0.555   1.064  0.8456 -0.1583 -0.8345
   89MPD2    H7 1368   1.657   0.634   1.002 -0.1139 -0.4811 -1.0403
   90TCq2    C1 1369   2.135   0.868   1.286  0.1559 -0.1278 -0.3216
   90TCq2    O2 1370   2.196   0.816   1.382  0.4261 -0.0558  0.1440
   90TCq2    C2 1371   2.192   0.995   1.233 -0.1457 -0.2951 -0.2119
   90TCq2    C3 1372   2.160   1.044   1.107  0.2526 -0.5519  1.0940
   90TCq2    C4 1373   2.232   1.158   1.062 -0.3551  0.1226  0.3566
   90TCq2    C5 1374   2.322   1.215   1.143 -0.0671  0.7029  0.3654
   90TCq2    C6 1375   2.348   1.165   1.269  0.8596  0.3761 -0.7642
   90TCq2    C7 1376   2.288   1.050   1.310  0.0222  0.6981  0.0622
   90TCq2    C8 1377   2.478   1.188   1.332 -0.0210 -0.0892  1.1751
   90TCq2    O4 1378   2.526   1.088   1.390 -0.5275 -0.3757  0.3602
   90TCq2    C9 1379   2.224   1.210   0.925 -0.2583 -0.3550 -0.4514
   90TCq2    O5 1380   2.135   1.154   0.852 -0.0065  0.3766  0.4275
   90TCq2    O6 1381   2.277   1.321   0.899  0.0374 -0.1169 -0.2944
   90TCq2    H2 1382   2.095   0.997   1.035  1.1447 -1.3733  0.8291
   90TCq2    H3 1383   2.386   1.290   1.097  0.7150 -0.6919 -0.8367
   90TCq2    H4 1384   2.300   1.014   1.411 -1.1118  0.6515  0.1756
   91TMC2    C1 1385   3.543   1.023  16.493  0.4413  0.0683  0.1400
   91TMC2    C2 1386   3.554   1.121  16.403  0.0322 -0.1068  0.2627
   91TMC2    C3 1387   3.444   1.181  16.346  0.0242 -0.3576  0.1574
   91TMC2    C4 1388   3.422   0.994  16.542 -0.2170 -0.6724 -0.1646
   91TMC2    C5 1389   3.312   1.051  16.484  0.0816 -0.4291  0.3414
   91TMC2    C6 1390   3.319   1.137  16.378 -0.0569  0.3351 -0.1929
   91TMC2     C 1391   3.662   0.958  16.549 -0.8431 -0.0221 -0.1078
   91TMC2     O 1392   3.647   0.914  16.664  0.0429 -0.0600  0.2995
   91TMC2     H 1393   3.649   1.137  16.352  0.3087  0.4260  0.9540
   91TMC2    H1 1394   3.413   0.933  16.631  0.1730  0.3512  0.5826
   91TMC2    H2 1395   3.234   1.168  16.319  0.3770  2.6770  0.4263
   91TMC2    C7 1396   3.182   1.010  16.539 -1.0586  1.0260 -0.5622
   91TMC2    C8 1397   3.465   1.229  16.215 -0.1586  0.5308  0.2906
   91TMC2    O1 1398   3.182   0.954  16.649 -0.2654  0.6326 -0.4273
   91TMC2    O2 1399   3.570   1.228  16.151 -0.4079  0.3187  0.8978
   91TMC2    O5 1400   3.383   1.338  16.225  0.9907  0.0488 -0.1976
   91TMC2    H5 1401   3.305   1.328  16.284  0.0549 -1.9259 -1.7681
   92MPD2     C 1402   3.899   0.779  16.548  0.3877  0.2902  0.3804
   92MPD2    C1 1403   3.886   0.898  16.475  0.1596 -0.1031  0.1974
   92MPD2    C2 1404   3.994   0.909  16.387  0.1775 -0.9782  0.4868
   92MPD2    C3 1405   4.089   0.816  16.367 -0.1009  0.0889  0.3048
   92MPD2    C4 1406   4.085   0.695  16.437 -0.4381  0.1259 -0.3077
   92MPD2    C5 1407   3.993   0.683  16.532  0.0446 -0.9785 -0.5636
   92MPD2     H 1408   4.005   0.997  16.324 -2.3022 -0.6704  0.4971
   92MPD2    H1 1409   4.163   0.621  16.430  1.1204  1.5121  2.3220
   92MPD2    H2 1410   3.822   0.743  16.615  0.0549 -2.3142 -1.4037
   92MPD2    H3 1411   3.995   0.596  16.596  1.5158 -0.8495 -0.4336
   92MPD2     N 1412   4.190   0.849  16.279 -0.3179  0.0744 -0.1477
   92MPD2    H5 1413   4.176   0.942  16.240  1.9075  2.5646  5.0151
   92MPD2    N1 1414   3.773   0.981  16.476  0.3560  0.0765 -0.2189
   92MPD2    H7 1415   3.761   1.056  16.408  0.1515 -0.4860 -0.8030
   93MPD2     C 1416   4.520   0.269  13.695 -0.3647 -1.1735  0.7401
   93MPD2    C1 1417   4.529   0.388  13.767 -1.0093 -0.1712 -0.5843
   93MPD2    C2 1418   4.410   0.437  13.824  0.7249  0.5261  0.2396
   93MPD2    C3 1419   4.288   0.367  13.801 -0.0830  0.6305  0.2853
   93MPD2    C4 1420   4.287   0.254  13.725  0.8758 -0.3704  0.4923
   93MPD2    C5 1421   4.402   0.209  13.676 -0.3088  0.3132  0.0713
   93MPD2     H 1422   4.404   0.529  13.880 -1.6778  0.3199  0.3030
   93MPD2    H1 1423   4.200   0.195  13.699  1.9077 -2.5436  1.8917
   93MPD2    H2 1424   4.606   0.233  13.639 -0.1133 -0.4540  0.6592
   93MPD2    H3 1425   4.396   0.128  13.605 -1.7410 -0.1021  0.6648
   93MPD2     N 1426   4.163   0.413  13.849  0.2041  0.2760  0.1450
   93MPD2    H5 1427   4.084   0.380  13.794  0.5217  0.1337 -0.2337
   93MPD2    N1 1428   4.644   0.461  13.800  0.2346 -0.0291  0.0715
   93MPD2    H7 1429   4.628   0.548  13.851 -0.8294 -1.3093  1.9415
   94TCq2    C1 1430   0.045   0.437  13.774  0.4490 -0.0249 -0.2755
   94TCq2    O2 1431   0.099   0.341  13.716  0.4488 -0.3400 -0.3335
   94TCq2    C2 1432   0.133   0.542  13.838  0.1176 -0.5495 -0.0956
   94TCq2    C3 1433   0.078   0.641  13.915  0.3572 -0.2878  0.0451
   94TCq2    C4 1434   0.157   0.738  13.951 -0.1591 -0.4530 -0.4245
   94TCq2    C5 1435   0.286   0.748  13.910 -0.2251  0.0347 -0.1281
   94TCq2    C6 1436   0.336   0.649  13.838 -0.0089 -1.1117  0.3764
   94TCq2    C7 1437   0.267   0.535  13.810  0.0580  0.5697 -0.0912
   94TCq2    C8 1438   0.485   0.636  13.827 -0.0370  0.1909 -0.1687
   94TCq2    O4 1439   0.544   0.532  13.844  0.0326  0.3217 -0.2716
   94TCq2    C9 1440   0.119   0.826  14.062 -1.2238 -0.1921 -0.6085
   94TCq2    O5 1441   0.207   0.901  14.110 -0.0168 -1.0901 -0.4577
   94TCq2    O6 1442   4.720   0.832  14.093  0.0511  0.8928 -0.1197
   94TCq2    H2 1443   4.708   0.632  13.963  0.3627  0.7898  0.2385
   94TCq2    H3 1444   0.350   0.820  13.959  0.1150 -0.0778 -0.4003
   94TCq2    H4 1445   0.310   0.453  13.754 -0.0786  0.5735 -0.1996
   95TMC2    C1 1446   0.110   2.132  16.622  0.4112  0.2580 -0.5179
   95TMC2    C2 1447   0.076   2.009  16.666 -0.4998  0.6020  0.8345
   95TMC2    C3 1448   0.026   1.994  16.790 -0.4476 -0.1998  0.1098
   95TMC2    C4 1449   0.069   2.250  16.680 -0.4965  0.0188 -0.1189
   95TMC2    C5 1450   4.726   2.232  16.791  1.0279 -0.0814  0.7151
   95TMC2    C6 1451   4.718   2.109  16.851 -0.0657 -0.1744 -0.3131
   95TMC2     C 1452   0.198   2.149  16.508 -0.4914 -0.4953  0.0666
   95TMC2     O 1453   0.226   2.265  16.483 -0.0318  0.3671  0.1063
   95TMC2     H 1454   0.093   1.921  16.604  0.2364  1.9903 -0.9478
   95TMC2    H1 1455   0.096   2.352  16.655  1.1473 -0.6717 -1.1715
   95TMC2    H2 1456   4.687   2.115  16.955 -1.6258 -0.2144 -0.7812
   95TMC2    C7 1457   4.662   2.343  16.862 -0.1909  0.4600  0.0168
   95TMC2    C8 1458   4.722   1.864  16.832  0.8737  0.7434 -0.4070
   95TMC2    O1 1459   4.637   2.325  16.980  0.2225  0.6343  0.1343
   95TMC2    O2 1460   0.058   1.765  16.798  0.2080 -0.1038 -0.6986
   95TMC2    O5 1461   4.634   1.855  16.928 -0.0814 -0.3404 -0.2027
   95TMC2    H5 1462   4.586   1.940  16.942 -0.6577 -1.0270  2.0251
   96MPD2     C 1463   0.469   1.945  16.110 -0.0667 -0.1898 -0.3249
   96MPD2    C1 1464   0.419   2.076  16.131  1.0595  0.0599  0.4361
   96MPD2    C2 1465   0.342   2.101  16.243 -0.7480  0.2527  0.8157
   96MPD2    C3 1466   0.322   2.005  16.340  0.4539  0.3902  0.4480
   96MPD2    C4 1467   0.387   1.883  16.329 -0.6342 -0.2014 -0.6359
   96MPD2    C5 1468   0.463   1.858  16.214  0.3910  0.2838 -0.0717
   96MPD2     H 1469   0.305   2.203  16.253  2.4427  1.3041  2.0474
   96MPD2    H1 1470   0.371   1.806  16.403 -0.2201  0.2032 -0.1216
   96MPD2    H2 1471   0.517   1.915  16.017  0.3875  0.5841 -0.3386
   96MPD2    H3 1472   0.509   1.760  16.208 -0.2819 -0.0110 -0.3169
   96MPD2     N 1473   0.250   2.029  16.457  0.2388  0.4712 -0.0815
   96MPD2    H5 1474   0.240   1.954  16.526  0.2339  1.9462  1.5247
   96MPD2    N1 1475   0.452   2.167  16.025  0.2185 -0.0267  0.3310
   96MPD2    H7 1476   0.513   2.137  15.950  1.3197  0.7278  0.9252
   97MPD2     C 1477   2.351   3.977   1.227  0.4913  0.4942  0.2465
   97MPD2    C1 1478   2.396   4.105   1.220  0.2974  0.7399 -0.3040
   97MPD2    C2 1479   2.381   4.171   1.100 -0.5153 -0.5911  0.0440
   97MPD2    C3 1480   2.321   4.108   0.992  0.3075  0.4671  0.1301
   97MPD2    C4 1481   2.277   3.982   1.008 -0.3561  0.0668 -0.0017
   97MPD2    C5 1482   2.294   3.915   1.125 -0.4359 -0.4193 -0.4175
   97MPD2     H 1483   2.419   4.273   1.090  1.0648 -1.3573 -1.8558
   97MPD2    H1 1484   2.249   3.923   0.921 -0.3095  0.1587 -0.0788
   97MPD2    H2 1485   2.371   3.915   1.313  2.6313 -0.9948 -1.3278
   97MPD2    H3 1486   2.259   3.812   1.133 -0.2710 -0.4902 -0.6036
   97MPD2     N 1487   2.302   4.179   0.864  0.2866  0.0166 -0.1838
   97MPD2    H5 1488   2.272   4.124   0.784  0.3532  1.4817 -1.2173
   97MPD2    N1 1489   2.456   4.170   1.335 -0.2458 -0.5542 -0.2917
   97MPD2    H7 1490   2.485   4.115   1.415 -4.1063 -0.8634  0.8911
   98TCq2    C1 1491   2.323   4.309   0.847 -0.3504  0.0370 -0.1657
   98TCq2    O2 1492   2.363   4.398   0.918 -0.4044 -0.3924 -0.3152
   98TCq2    C2 1493   2.303   4.345   0.707 -0.3579  0.1281  0.3342
   98TCq2    C3 1494   2.178   4.326   0.651 -0.6220 -0.4257 -0.3909
   98TCq2    C4 1495   2.145   4.394   0.537  0.2507  0.3496  0.3931
   98TCq2    C5 1496   2.236   4.481   0.478 -0.3901  0.4813 -0.5934
   98TCq2    C6 1497   2.351   4.504   0.547 -0.9699  0.8490  0.9827
   98TCq2    C7 1498   2.390   4.437   0.663  0.0479  0.0923 -0.5649
   98TCq2    C8 1499   2.444   4.601   0.487  0.2972 -0.2442  0.1888
   98TCq2    O4 1500   2.551   4.628   0.544 -0.3589 -0.3113 -0.4135
   98TCq2    C9 1501   2.021   4.355   0.475  0.0356 -0.2354  0.4583
   98TCq2    O5 1502   1.966   4.247   0.519 -0.2849  0.2397  0.1227
   98TCq2    O6 1503   1.965   4.452   0.419  0.4656 -0.2256 -0.1823
   98TCq2    H2 1504   2.098   4.275   0.703  0.2551 -1.7660 -0.3440
   98TCq2    H3 1505   2.204   4.538   0.392  1.3072  0.4799 -1.2236
   98TCq2    H4 1506   2.476   4.467   0.722 -0.3490  0.3688 -0.1250
   99MPD2     C 1507   1.390   2.272   1.042 -0.0220  0.2463 -0.2878
   99MPD2    C1 1508   1.450   2.232   1.164  0.5709 -0.3769  1.0960
   99MPD2    C2 1509   1.583   2.183   1.157  0.0288  0.1562  0.1668
   99MPD2    C3 1510   1.647   2.169   1.030  0.2458 -0.1966 -0.8816
   99MPD2    C4 1511   1.589   2.219   0.917 -0.3971  0.7056  0.1499
   99MPD2    C5 1512   1.460   2.266   0.919  0.3681  0.2581  0.2441
   99MPD2     H 1513   1.643   2.149   1.240  2.2343 -1.3261 -2.0568
   99MPD2    H1 1514   1.640   2.215   0.821 -0.6914  1.0975 -0.0232
   99MPD2    H2 1515   1.290   2.312   1.049  1.1768  2.9468  0.9697
   99MPD2    H3 1516   1.413   2.292   0.825  0.7449 -0.9703 -0.2759
   99MPD2     N 1517   1.778   2.106   1.035 -0.2377 -0.0611  0.4556
   99MPD2    H5 1518   1.807   2.086   1.130  0.6778  1.4293  0.4839
   99MPD2    N1 1519   1.397   2.229   1.300 -0.0768 -0.6659 -0.8195
   99MPD2    H7 1520   1.463   2.211   1.375 -0.3277  2.4186  0.1207
  100TCq2    C1 1521   1.260   2.238   1.314  0.2319 -0.2004 -0.4861
  100TCq2    O2 1522   1.166   2.220   1.236  0.3565  0.1121  0.1824
  100TCq2    C2 1523   1.227   2.267   1.453  0.5415 -0.0102  0.3383
  100TCq2    C3 1524   1.321   2.322   1.543 -0.0351 -0.0446 -0.1125
  100TCq2    C4 1525   1.272   2.402   1.649  0.2890  0.3991 -0.3669
  100TCq2    C5 1526   1.140   2.416   1.668 -1.0792  0.2678 -0.0421
  100TCq2    C6 1527   1.052   2.350   1.583  0.3805 -0.5862 -0.8443
  100TCq2    C7 1528   1.093   2.285   1.473  0.6119 -0.4088 -0.0756
  100TCq2    C8 1529   0.913   2.396   1.604  0.0995  0.5270 -0.0433
  100TCq2    O4 1530   0.889   2.477   1.693  0.2937  0.2235  0.3709
  100TCq2    C9 1531   1.362   2.465   1.742 -0.3434 -0.2098 -0.1631
  100TCq2    O5 1532   1.313   2.502   1.849  0.4609 -0.5217  0.5860
  100TCq2    O6 1533   1.490   2.444   1.721 -0.1330  0.6855 -0.4656
  100TCq2    H2 1534   1.428   2.315   1.528  0.3982  2.6225  1.7214
  100TCq2    H3 1535   1.108   2.490   1.741 -1.9896  0.1422 -0.3120
  100TCq2    H4 1536   1.016   2.261   1.400 -0.6064 -0.6860  1.2865
  101MPD2     C 1537   1.469   2.798  12.841  0.3795  0.7340 -0.1867
  101MPD2    C1 1538   1.351   2.856  12.879  0.2467 -0.1880  0.3794
  101MPD2    C2 1539   1.271   2.781  12.965  0.0031 -0.0995  0.0665
  101MPD2    C3 1540   1.301   2.654  13.007  0.1287 -0.0104  0.2988
  101MPD2    C4 1541   1.398   2.600  12.936  1.3014 -0.4791  0.1369
  101MPD2    C5 1542   1.486   2.663  12.859  0.4886  0.2340 -0.4686
  101MPD2     H 1543   1.174   2.817  12.998  0.5654  1.2932  0.1995
  101MPD2    H1 1544   1.419   2.496  12.955  0.8959 -0.4203  0.8795
  101MPD2    H2 1545   1.531   2.852  12.770  0.4805 -0.1250 -0.7576
  101MPD2    H3 1546   1.562   2.604  12.809 -0.5279 -1.8932  0.5051
  101MPD2     N 1547   1.219   2.590  13.104 -0.7344 -0.7063 -0.2298
  101MPD2    H5 1548   1.146   2.648  13.145  0.8027  2.7447 -2.3170
  101MPD2    N1 1549   1.322   2.987  12.834  0.2922  0.0508  0.5495
  101MPD2    H7 1550   1.392   3.038  12.781 -1.4065  1.7798  0.0083
  102TCq2    C1 1551   1.392   3.370  12.545 -0.3914 -0.0836 -0.2751
  102TCq2    O2 1552   1.498   3.312  12.566 -0.0843  0.9090 -0.5458
  102TCq2    C2 1553   1.285   3.337  12.638  0.2807 -0.5862 -0.1245
  102TCq2    C3 1554   1.161   3.378  12.602  0.8826  0.8901  0.4130
  102TCq2    C4 1555   1.057   3.310  12.660  0.2271  0.0130  0.2026
  102TCq2    C5 1556   1.079   3.217  12.749  1.3398 -0.2302  0.4834
  102TCq2    C6 1557   1.200   3.184  12.784  0.3408  0.0484 -0.1464
  102TCq2    C7 1558   1.308   3.246  12.729  0.2143  0.3249  0.7512
  102TCq2    C8 1559   1.202   3.051  12.850 -0.2701 -0.5639 -0.0598
  102TCq2    O4 1560   1.103   3.015  12.913 -0.3065 -0.0155  0.2390
  102TCq2    C9 1561   0.919   3.328  12.610 -0.1270  0.7166 -0.3128
  102TCq2    O5 1562   0.899   3.423  12.525 -0.0840  0.0265 -0.0260
  102TCq2    O6 1563   0.837   3.227  12.618  0.3600  0.3997 -0.0490
  102TCq2    H2 1564   1.150   3.452  12.524  0.2365 -0.1170 -0.4600
  102TCq2    H3 1565   0.997   3.154  12.780 -0.5187  0.7739 -2.3365
  102TCq2    H4 1566   1.412   3.232  12.758  0.2458 -0.5489  0.2255
  103TMC2    C1 1567   4.458   2.586  12.336 -0.1575 -0.7381  0.5492
  103TMC2    C2 1568   4.473   2.452  12.358 -0.1171  0.2456  0.1954
  103TMC2    C3 1569   4.562   2.417  12.457  0.1159 -0.1350  0.0012
  103TMC2    C4 1570   4.509   2.687  12.408 -0.1628 -0.3170 -0.3842
  103TMC2    C5 1571   4.607   2.647  12.503 -0.3916  0.1308  0.0849
  103TMC2    C6 1572   4.634   2.513  12.520  0.0965 -0.0607  0.9557
  103TMC2     C 1573   4.363   2.620  12.231  0.5595  0.3585  0.0884
  103TMC2     O 1574   4.388   2.722  12.174  0.2424 -0.5401  0.1841
  103TMC2     H 1575   4.425   2.381  12.292  0.9836 -0.3344  0.0081
  103TMC2    H1 1576   4.467   2.786  12.390  0.8485 -0.1778 -2.0231
  103TMC2    H2 1577   4.707   2.478  12.592  1.3946  2.4611  0.8744
  103TMC2    C7 1578   4.641   2.734  12.614  0.1785 -0.3979 -0.3314
  103TMC2    C8 1579   4.578   2.282  12.500 -0.2861  0.1757  0.1109
  103TMC2    O1 1580   4.674   2.683  12.724 -0.2755 -0.9170 -0.4321
  103TMC2    O2 1581   4.668   2.240  12.574  0.5215 -0.1138  0.1926
  103TMC2    O5 1582   4.471   2.207  12.454  0.2742 -0.1778  0.0465
  103TMC2    H5 1583   4.403   2.262  12.409  2.3798  0.6727 -2.0852
  104MPD2     C 1584   4.066   2.455  12.079  0.3729 -0.1392 -0.0604
  104MPD2    C1 1585   4.169   2.549  12.090  0.1710 -0.2010  0.0192
  104MPD2    C2 1586   4.168   2.660  12.005  0.6797  0.6291 -0.0836
  104MPD2    C3 1587   4.073   2.674  11.908  0.9034 -0.4167 -0.4029
  104MPD2    C4 1588   3.974   2.576  11.897 -1.0011  0.7559 -0.4258
  104MPD2    C5 1589   3.960   2.478  11.988  0.0958  0.8981  0.5330
  104MPD2     H 1590   4.253   2.725  11.992 -0.2516  1.7664 -0.5129
  104MPD2    H1 1591   3.882   2.582  11.839 -0.6405 -1.2734 -1.2245
  104MPD2    H2 1592   4.054   2.376  12.153 -0.6159  0.5561  0.5137
  104MPD2    H3 1593   3.883   2.403  11.980  0.0436  0.8989  1.0716
  104MPD2     N 1594   4.089   2.780  11.817 -0.0061 -0.2747 -0.1059
  104MPD2    H5 1595   4.175   2.833  11.810 -0.0739 -0.1872 -0.2808
  104MPD2    N1 1596   4.263   2.531  12.196 -0.4454  0.3991 -0.2856
  104MPD2    H7 1597   4.244   2.449  12.253 -2.1458  1.3115  0.4846
  105MPD2     C 1598   1.963   2.799  17.450  0.3300 -0.2242 -0.8502
  105MPD2    C1 1599   1.835   2.784  17.500 -0.3357  0.0330 -0.5400
  105MPD2    C2 1600   1.807   2.846  17.622  0.4753 -0.4520  0.5427
  105MPD2    C3 1601   1.897   2.925  17.688  0.0021  0.3587 -0.2374
  105MPD2    C4 1602   2.022   2.937  17.637 -0.1552 -0.8221 -0.9578
  105MPD2    C5 1603   2.049   2.878  17.519  0.1948  0.2990  0.1039
  105MPD2     H 1604   1.710   2.830  17.667 -0.2862 -0.7861 -1.2179
  105MPD2    H1 1605   2.093   3.013  17.666 -2.5590  1.6377 -1.4905
  105MPD2    H2 1606   1.990   2.772  17.349 -0.1964 -1.4253 -0.6668
  105MPD2    H3 1607   2.138   2.910  17.465  0.4267  1.3629  1.1131
  105MPD2     N 1608   1.863   2.981   0.103  0.4427 -0.7784 -0.4203
  105MPD2    H5 1609   1.765   2.971   0.124  0.2998 -0.2692 -0.8452
  105MPD2    N1 1610   1.732   2.707  17.436 -0.0622 -0.2234  0.5127
  105MPD2    H7 1611   1.645   2.710  17.488 -1.6613 -0.5008 -2.1681
  106TCq2    C1 1612   1.942   3.045   0.195 -0.5113 -0.1113 -1.0796
  106TCq2    O2 1613   2.058   3.087   0.194 -0.1400 -0.0489  0.1336
  106TCq2    C2 1614   1.872   3.055   0.322 -0.2794  0.6621  0.4193
  106TCq2    C3 1615   1.872   3.177   0.388  0.6161  0.1588 -0.0208
  106TCq2    C4 1616   1.774   3.209   0.473 -0.2511 -0.0569 -0.3578
  106TCq2    C5 1617   1.691   3.117   0.518  0.2660  0.0174  0.0172
  106TCq2    C6 1618   1.700   2.989   0.473 -0.1504 -0.2962  0.0408
  106TCq2    C7 1619   1.774   2.969   0.360  0.7670 -0.3141 -0.0827
  106TCq2    C8 1620   1.582   2.908   0.476  0.2276 -0.1007  0.3044
  106TCq2    O4 1621   1.562   2.825   0.392  0.0926  0.2024 -0.0594
  106TCq2    C9 1622   1.769   3.334   0.535  0.5636 -0.0914  0.2219
  106TCq2    O5 1623   1.667   3.353   0.609 -0.5048 -0.0289  0.3171
  106TCq2    O6 1624   1.851   3.411   0.486 -0.2276  0.4167 -0.5341
  106TCq2    H2 1625   1.934   3.259   0.352 -1.2111  2.8195  2.8711
  106TCq2    H3 1626   1.623   3.146   0.598  0.7120 -1.2781  0.8537
  106TCq2    H4 1627   1.762   2.877   0.304  0.3977  0.4264 -1.2351
  107TMC2    C1 1628   1.888   1.879  11.426  0.3018 -0.2348  0.2034
  107TMC2    C2 1629   1.966   1.984  11.394 -0.0070 -0.8622 -0.2523
  107TMC2    C3 1630   2.032   1.988  11.279  0.4967 -0.0589 -0.0835
  107TMC2    C4 1631   1.892   1.764  11.352  0.2690  0.5994 -0.3599
  107TMC2    C5 1632   1.967   1.764  11.236  0.2294  0.3274 -0.1700
  107TMC2    C6 1633   2.033   1.879  11.196 -0.2292 -0.0222 -0.4019
  107TMC2     C 1634   1.804   1.881  11.537 -0.0769  0.0921 -0.2373
  107TMC2     O 1635   1.793   1.781  11.606 -0.3057 -0.0324  0.6659
  107TMC2     H 1636   1.972   2.078  11.448  1.5618 -0.6584 -0.7839
  107TMC2    H1 1637   1.843   1.673  11.384 -0.3608  1.0274 -0.0991
  107TMC2    H2 1638   2.081   1.885  11.099 -0.0234  0.8687 -0.2437
  107TMC2    C7 1639   1.929   1.663  11.138  0.0010  0.0981  0.3964
  107TMC2    C8 1640   2.044   2.117  11.214 -0.8017 -0.0126  0.8088
  107TMC2    O1 1641   1.860   1.570  11.179 -0.0996  0.1728 -0.3014
  107TMC2    O2 1642   2.149   2.154  11.170  0.6945 -0.5182 -0.0652
  107TMC2    O5 1643   1.927   2.184  11.226  0.5740  0.4113 -0.3344
  107TMC2    H5 1644   1.851   2.131  11.256  1.1540 -0.5627 -0.6099
  108MPD2     C 1645   1.605   2.169  11.660  0.5875  0.2513  0.6790
  108MPD2    C1 1646   1.674   2.046  11.671 -0.1080  0.2854 -0.5603
  108MPD2    C2 1647   1.656   1.969  11.784 -0.5903  0.6535  0.4041
  108MPD2    C3 1648   1.567   2.012  11.881  0.2152  0.8546  0.2214
  108MPD2    C4 1649   1.499   2.126  11.868 -0.0682 -0.5693 -0.3072
  108MPD2    C5 1650   1.520   2.199  11.759  0.3633  0.1085  0.3056
  108MPD2     H 1651   1.717   1.881  11.796 -1.3580  0.3595  2.2647
  108MPD2    H1 1652   1.430   2.166  11.942 -1.0101 -2.2187 -0.2738
  108MPD2    H2 1653   1.618   2.240  11.579 -1.9979 -0.8120 -0.6737
  108MPD2    H3 1654   1.471   2.295  11.760 -2.6602 -1.4257 -2.3176
  108MPD2     N 1655   1.540   1.947  12.002 -0.5609  0.1290 -0.4592
  108MPD2    H5 1656   1.484   2.002  12.066 -0.1978 -0.6378  0.5207
  108MPD2    N1 1657   1.755   2.008  11.563 -0.1295 -0.2988  0.5115
  108MPD2    H7 1658   1.762   2.072  11.485  0.8532 -0.2987  0.6026
  109MPD2     C 1659   2.822   3.171   2.291  0.5581 -0.2890  0.3929
  109MPD2    C1 1660   2.781   3.233   2.178  0.1562 -0.7553 -0.5636
  109MPD2    C2 1661   2.862   3.331   2.124  0.4091 -0.8623  0.3327
  109MPD2    C3 1662   2.985   3.371   2.178 -0.3056  0.2992 -0.6549
  109MPD2    C4 1663   3.024   3.301   2.289  0.3009 -0.2582 -0.0801
  109MPD2    C5 1664   2.946   3.206   2.345 -0.7286 -0.8035 -0.1163
  109MPD2     H 1665   2.822   3.393   2.044 -0.6999 -0.1400  1.4401
  109MPD2    H1 1666   3.117   3.319   2.342  0.4120  1.8450 -1.0220
  109MPD2    H2 1667   2.763   3.097   2.344 -0.3864 -1.1757 -1.9058
  109MPD2    H3 1668   2.985   3.146   2.427  2.9221  0.0367 -1.2192
  109MPD2     N 1669   3.074   3.466   2.112  0.5885  0.4174  0.1113
  109MPD2    H5 1670   3.049   3.514   2.026  0.3402  1.9154  1.0118
  109MPD2    N1 1671   2.660   3.186   2.130  0.5839  0.1484  0.2821
  109MPD2    H7 1672   2.609   3.116   2.183  0.9036 -0.5877 -0.3744
  110TCq2    C1 1673   3.193   3.511   2.167 -0.1876 -0.3500  0.4424
  110TCq2    O2 1674   3.253   3.467   2.262  0.3526  0.1603  0.6643
  110TCq2    C2 1675   3.257   3.614   2.094  0.4254  0.0668 -0.6932
  110TCq2    C3 1676   3.392   3.627   2.107 -0.1273 -0.0683  0.2880
  110TCq2    C4 1677   3.453   3.718   2.032 -0.2339  0.1991  0.7430
  110TCq2    C5 1678   3.377   3.813   1.963 -0.5853 -0.0977  0.6987
  110TCq2    C6 1679   3.242   3.801   1.953 -0.1821  0.0955 -0.6124
  110TCq2    C7 1680   3.177   3.697   2.018  0.0248  0.2160 -0.2578
  110TCq2    C8 1681   3.157   3.916   1.919  0.4205 -0.2001 -0.2378
  110TCq2    O4 1682   3.038   3.900   1.915  0.7805 -0.3931 -0.1026
  110TCq2    C9 1683   3.597   3.719   2.037  0.3512  0.1213 -0.1193
  110TCq2    O5 1684   3.656   3.645   2.119 -0.2497  0.0360  0.0205
  110TCq2    O6 1685   3.656   3.813   1.973 -0.0367  0.1656  0.1990
  110TCq2    H2 1686   3.444   3.544   2.155  0.9517 -0.7855 -2.1334
  110TCq2    H3 1687   3.439   3.880   1.905  0.8498 -1.3329  0.7948
  110TCq2    H4 1688   3.069   3.694   2.012  0.1605 -1.2605 -1.7580
  111TMC2    C1 1689   2.165   4.285  11.502 -0.1176  0.4469  0.0693
  111TMC2    C2 1690   2.247   4.267  11.395 -0.0046 -0.0404  0.3564
  111TMC2    C3 1691   2.376   4.253  11.425  0.7053  0.6934 -0.3958
  111TMC2    C4 1692   2.214   4.280  11.631 -0.2424 -0.0064  0.0636
  111TMC2    C5 1693   2.347   4.246  11.648  0.3394  0.5982  0.0161
  111TMC2    C6 1694   2.429   4.233  11.547  0.6272  0.9258 -0.5495
  111TMC2     C 1695   2.028   4.250  11.472 -0.7533 -1.1887  0.4381
  111TMC2     O 1696   2.013   4.217  11.356  0.0791 -0.1421  0.8275
  111TMC2     H 1697   2.217   4.286  11.293 -2.3414  2.3332  1.4863
  111TMC2    H1 1698   2.144   4.287  11.713  0.5599 -0.9564  0.8208
  111TMC2    H2 1699   2.537   4.223  11.556  0.4301  0.0262  0.7577
  111TMC2    C7 1700   2.359   4.165  11.767  0.2968 -0.2711 -0.1252
  111TMC2    C8 1701   2.462   4.232  11.308 -0.3137 -0.5989  0.2376
  111TMC2    O1 1702   2.262   4.140  11.841 -0.3558 -0.0744 -0.2604
  111TMC2    O2 1703   2.422   4.262  11.195 -0.7308 -0.3936 -0.5994
  111TMC2    O5 1704   2.544   4.126  11.325 -0.1395 -0.0011  0.3932
  111TMC2    H5 1705   2.533   4.087  11.414  4.8056 -0.4421  0.8087
  112MPD2     C 1706   1.585   4.037  11.622  0.1850  0.5246 -0.6418
  112MPD2    C1 1707   1.648   4.047  11.499 -0.9109  0.0964 -0.0970
  112MPD2    C2 1708   1.776   4.095  11.482  0.7149  0.0655  0.1385
  112MPD2    C3 1709   1.836   4.148  11.592 -0.1487  0.1734  0.5308
  112MPD2    C4 1710   1.791   4.122  11.716  0.0614 -0.0105 -0.7622
  112MPD2    C5 1711   1.665   4.065  11.726  0.0437 -0.2019 -0.2624
  112MPD2     H 1712   1.818   4.094  11.382 -1.4078 -1.3270 -0.7337
  112MPD2    H1 1713   1.840   4.151  11.807  0.0443 -0.2711 -0.6694
  112MPD2    H2 1714   1.484   4.005  11.646  1.2169 -1.2712  1.3450
  112MPD2    H3 1715   1.634   4.047  11.828 -1.0463 -1.8479 -0.8886
  112MPD2     N 1716   1.957   4.214  11.589  0.3228 -0.3944 -0.1794
  112MPD2    H5 1717   1.982   4.257  11.678 -1.0210  2.1136 -1.0421
  112MPD2    N1 1718   1.569   4.032  11.383 -0.0835  0.5206  0.0733
  112MPD2    H7 1719   1.605   4.041  11.288 -2.0018  1.2843 -0.5852
  113MPD2     C 1720   0.551   2.357   0.752 -0.1677 -0.2320  0.2227
  113MPD2    C1 1721   0.459   2.354   0.854 -0.2309  0.5622 -0.3826
  113MPD2    C2 1722   0.353   2.270   0.838 -0.5976 -0.1680 -0.5043
  113MPD2    C3 1723   0.345   2.181   0.730 -0.6043 -0.4483  0.0754
  113MPD2    C4 1724   0.438   2.195   0.622 -0.3534  0.3006 -0.2019
  113MPD2    C5 1725   0.539   2.283   0.636  0.1267  0.4225 -0.1272
  113MPD2     H 1726   0.276   2.273   0.913 -2.8070  1.1681 -2.8115
  113MPD2    H1 1727   0.423   2.128   0.538 -1.9362 -0.5222  0.7504
  113MPD2    H2 1728   0.629   2.432   0.746 -2.5422  2.0335 -2.2179
  113MPD2    H3 1729   0.596   2.304   0.546  0.0938 -1.1075 -0.4966
  113MPD2     N 1730   0.238   2.090   0.718 -0.4249  0.0130 -0.6270
  113MPD2    H5 1731   0.231   2.023   0.642  2.3614 -1.1466  0.1653
  113MPD2    N1 1732   0.461   2.439   0.963  0.6536  0.0357 -0.2643
  113MPD2    H7 1733   0.376   2.435   1.019  0.2964  1.3818 -0.6997
  114TCq2    C1 1734   0.127   2.086   0.800 -0.1870  0.1024  0.2295
  114TCq2    O2 1735   0.085   2.165   0.885 -0.4245 -0.5048  0.7249
  114TCq2    C2 1736   0.053   1.959   0.779  0.3203 -0.3400 -0.4393
  114TCq2    C3 1737   4.642   1.971   0.796 -0.3537 -1.3105 -0.3538
  114TCq2    C4 1738   4.578   1.850   0.794 -0.0662  0.0432  0.3262
  114TCq2    C5 1739   4.649   1.734   0.799 -0.2406 -0.3027  0.7177
  114TCq2    C6 1740   0.057   1.734   0.809  0.1835  0.4240  0.3739
  114TCq2    C7 1741   0.132   1.849   0.775 -0.0543  0.3983 -1.2289
  114TCq2    C8 1742   0.123   1.610   0.831  0.4324 -0.1030 -0.4934
  114TCq2    O4 1743   0.241   1.605   0.794 -0.2222  0.1220 -0.3493
  114TCq2    C9 1744   4.441   1.854   0.832 -0.2002  1.0819 -0.8947
  114TCq2    O5 1745   4.392   1.963   0.855 -0.2190 -0.0627  0.4537
  114TCq2    O6 1746   4.398   1.745   0.889  0.3938  0.2773  0.0918
  114TCq2    H2 1747   4.598   2.069   0.806 -1.5011 -1.9602  0.8515
  114TCq2    H3 1748   4.586   1.656   0.841  0.3729 -1.1586  0.0347
  114TCq2    H4 1749   0.240   1.849   0.791 -0.2158  1.5807 -0.1934
  115TMC2    C1 1750   1.175   4.307   0.324  0.0980 -0.5027 -0.5111
  115TMC2    C2 1751   1.291   4.248   0.282  0.6841 -0.5957  0.4505
  115TMC2    C3 1752   1.396   4.330   0.262  0.0262 -0.9217 -0.1618
  115TMC2    C4 1753   1.175   4.444   0.350 -0.3361  0.0018 -0.5890
  115TMC2    C5 1754   1.284   4.518   0.311 -0.3119 -0.2170 -0.5006
  115TMC2    C6 1755   1.396   4.465   0.262 -0.4618  0.7195  0.1640
  115TMC2     C 1756   1.051   4.226   0.307 -0.6724 -0.1405 -0.6309
  115TMC2     O 1757   1.051   4.137   0.222 -0.3984  0.0925 -0.4529
  115TMC2     H 1758   1.293   4.141   0.264 -1.7242 -0.3633 -1.2073
  115TMC2    H1 1759   1.082   4.493   0.379 -0.5219  0.1245 -1.3983
  115TMC2    H2 1760   1.488   4.517   0.238  0.3868 -0.8022  0.1761
  115TMC2    C7 1761   1.253   4.659   0.290 -0.4949  0.8677 -0.2065
  115TMC2    C8 1762   1.516   4.271   0.221  0.0068  0.0656 -0.1977
  115TMC2    O1 1763   1.166   4.708   0.363 -0.4166  0.6276 -0.6087
  115TMC2    O2 1764   1.622   4.307   0.268  0.3201 -0.3607  0.4122
  115TMC2    O5 1765   1.481   4.181   0.125 -0.0560 -0.4256  0.2924
  115TMC2    H5 1766   1.390   4.200   0.094  0.1015 -0.4713 -0.1903
  116MPD2     C 1767   0.547   4.161   0.381  0.2984 -0.4714 -0.2503
  116MPD2    C1 1768   0.631   4.105   0.288  0.2872 -0.1438 -0.1380
  116MPD2    C2 1769   0.764   4.133   0.288 -0.1938  0.9026 -0.2588
  116MPD2    C3 1770   0.816   4.216   0.384  1.1462 -0.2342  0.1213
  116MPD2    C4 1771   0.735   4.260   0.484  0.1947 -0.4198 -0.8042
  116MPD2    C5 1772   0.595   4.244   0.479 -0.4256 -0.0392  0.4493
  116MPD2     H 1773   0.821   4.100   0.202 -1.4166 -0.1732 -0.6571
  116MPD2    H1 1774   0.771   4.325   0.563  1.7048  0.7292 -2.4692
  116MPD2    H2 1775   0.441   4.138   0.378  0.0562  0.5937  0.0862
  116MPD2    H3 1776   0.523   4.302   0.534 -0.2814  0.6622 -0.1022
  116MPD2     N 1777   0.951   4.265   0.390 -0.2379 -0.0170 -0.2084
  116MPD2    H5 1778   0.975   4.334   0.461 -2.1089 -1.3327  1.7202
  116MPD2    N1 1779   0.571   4.015   0.195  0.0323 -0.1104 -0.2926
  116MPD2    H7 1780   0.471   3.997   0.203  0.3380 -2.1134 -0.8271
  117TMC2    C1 1781   3.945   1.018  14.442  0.3725 -0.5537 -1.0461
  117TMC2    C2 1782   3.925   0.968  14.569 -0.1592 -0.5399 -0.1255
  117TMC2    C3 1783   3.993   1.027  14.672 -0.6261 -0.2852 -0.2417
  117TMC2    C4 1784   4.029   1.118  14.417 -0.5434 -0.6132  0.2572
  117TMC2    C5 1785   4.095   1.173  14.521 -0.2074  0.2411  1.2630
  117TMC2    C6 1786   4.087   1.128  14.653  0.0014 -0.5223  0.1483
  117TMC2     C 1787   3.864   0.963  14.332  0.6469 -0.6563 -0.3243
  117TMC2     O 1788   3.807   0.855  14.351  0.1764  0.1999  0.2705
  117TMC2     H 1789   3.835   0.908  14.579  0.3705 -1.3804 -0.3711
  117TMC2    H1 1790   4.059   1.141  14.316  0.6578 -0.7486  0.5809
  117TMC2    H2 1791   4.159   1.160  14.726 -1.4837  0.1439  1.3120
  117TMC2    C7 1792   4.183   1.286  14.503  0.3251  0.3985  0.1183
  117TMC2    C8 1793   3.979   0.976  14.808  0.2548  0.2747 -0.2704
  117TMC2    O1 1794   4.204   1.360  14.600 -0.5300 -0.4907 -0.1376
  117TMC2    O2 1795   3.885   1.013  14.877  0.8246  0.1379 -0.3416
  117TMC2    O5 1796   4.023   0.849  14.795 -0.2297 -0.7754 -0.2382
  117TMC2    H5 1797   4.081   0.833  14.718  0.7603  0.7193  0.2039
  118MPD2     C 1798   4.341   1.390  14.194  0.0190  0.2893 -0.4754
  118MPD2    C1 1799   4.284   1.411  14.318  0.1513  0.4138 -0.3883
  118MPD2    C2 1800   4.283   1.540  14.369 -0.3075 -0.2120  0.0176
  118MPD2    C3 1801   4.345   1.640  14.300  0.4460  0.1305 -0.2589
  118MPD2    C4 1802   4.394   1.617  14.175  0.0451 -0.3441 -0.9669
  118MPD2    C5 1803   4.386   1.496  14.117  0.3107 -0.6043  0.3525
  118MPD2     H 1804   4.242   1.555  14.468 -1.2279 -1.0836 -0.2414
  118MPD2    H1 1805   4.431   1.697  14.112 -1.4178  0.0540 -1.3392
  118MPD2    H2 1806   4.359   1.291  14.154  1.7765 -0.0083  1.0453
  118MPD2    H3 1807   4.416   1.485  14.013 -1.0782 -3.6637  0.2455
  118MPD2     N 1808   4.343   1.776  14.344  0.8110  0.7424 -0.9774
  118MPD2    H5 1809   4.362   1.842  14.269  0.3132  1.7199 -0.2481
  118MPD2    N1 1810   4.229   1.296  14.379  0.4404  0.3902  0.1844
  118MPD2    H7 1811   4.219   1.214  14.320 -0.6117  0.2329  0.5913
  119MPD2     C 1812   2.380   2.720  13.332 -0.2938  0.5350  0.6457
  119MPD2    C1 1813   2.283   2.709  13.428 -0.3186  0.5526  0.6028
  119MPD2    C2 1814   2.203   2.597  13.421  0.2559  0.3500 -0.1214
  119MPD2    C3 1815   2.224   2.496  13.323  0.2991 -0.2122  0.1729
  119MPD2    C4 1816   2.328   2.509  13.238  0.1446 -0.7371 -0.3358
  119MPD2    C5 1817   2.403   2.622  13.237  0.4230  0.6065 -0.5341
  119MPD2     H 1818   2.111   2.600  13.479  0.2808 -1.0827 -0.0110
  119MPD2    H1 1819   2.347   2.437  13.159  0.6969  0.4391 -1.2945
  119MPD2    H2 1820   2.456   2.798  13.337 -2.3465  2.4619  1.7782
  119MPD2    H3 1821   2.489   2.625  13.171 -0.9956  4.8299 -2.1851
  119MPD2     N 1822   2.136   2.395  13.298  0.1554 -0.5599  0.0671
  119MPD2    H5 1823   2.169   2.338  13.221 -3.1417 -1.2677 -0.8442
  119MPD2    N1 1824   2.259   2.816  13.519 -0.4885  0.3638 -0.1664
  119MPD2    H7 1825   2.312   2.901  13.500 -0.1851  0.4842  1.2700
  120TCq2    C1 1826   2.028   2.357  13.375  0.2155 -0.1277 -0.0484
  120TCq2    O2 1827   1.971   2.406  13.472 -0.1958  0.4225  0.4985
  120TCq2    C2 1828   1.985   2.231  13.333  0.0200 -0.5920  0.5825
  120TCq2    C3 1829   2.037   2.165  13.225 -0.2177  0.6496  0.5372
  120TCq2    C4 1830   1.996   2.040  13.199 -0.1176  0.4218 -0.6477
  120TCq2    C5 1831   1.893   1.983  13.270 -0.1761  0.0010  0.0735
  120TCq2    C6 1832   1.832   2.055  13.373  0.1078 -0.1162  0.5471
  120TCq2    C7 1833   1.880   2.181  13.407 -0.1716  0.2605 -1.1353
  120TCq2    C8 1834   1.719   1.988  13.439  0.0189  0.5841 -0.2062
  120TCq2    O4 1835   1.646   1.927  13.367  0.2536 -0.6075  0.2828
  120TCq2    C9 1836   2.039   1.969  13.081 -0.6872 -0.3329 -0.2404
  120TCq2    O5 1837   1.967   1.872  13.038  0.3624 -0.7047  0.2238
  120TCq2    O6 1838   2.115   2.033  13.000 -0.1171 -0.0108  0.0869
  120TCq2    H2 1839   2.108   2.206  13.154  0.8407  1.5097  2.1173
  120TCq2    H3 1840   1.862   1.884  13.238 -0.8257 -0.3062  1.6582
  120TCq2    H4 1841   1.835   2.246  13.480 -0.2252 -2.6454  1.4036
  121TMC2    C1 1842   3.830   3.844  13.732  0.9290 -0.0703  0.7405
  121TMC2    C2 1843   3.808   3.980  13.751 -0.0529  0.3273  0.2538
  121TMC2    C3 1844   3.678   4.025  13.759 -0.8529  0.2317 -0.0610
  121TMC2    C4 1845   3.724   3.758  13.739  0.2390 -0.2423  0.1242
  121TMC2    C5 1846   3.597   3.810  13.756  0.0398 -0.3843  0.8355
  121TMC2    C6 1847   3.568   3.943  13.756  0.2965 -0.4975  0.3678
  121TMC2     C 1848   3.958   3.801  13.687 -0.0941 -0.3801  0.1605
  121TMC2     O 1849   3.993   3.697  13.743 -0.2412  0.3582  0.2182
  121TMC2     H 1850   3.886   4.055  13.758 -1.0035  1.2774  0.5292
  121TMC2    H1 1851   3.736   3.653  13.717  0.9223  0.0776 -0.9722
  121TMC2    H2 1852   3.469   3.988  13.757  1.1120  1.3259 -0.9121
  121TMC2    C7 1853   3.492   3.726  13.803  0.8376 -0.1886 -0.6027
  121TMC2    C8 1854   3.665   4.158  13.798  0.5908 -0.5673 -0.5676
  121TMC2    O1 1855   3.521   3.628  13.870 -0.1303 -0.6290  0.4825
  121TMC2    O2 1856   3.744   4.244  13.767  0.3280  0.2277 -0.1723
  121TMC2    O5 1857   3.580   4.158  13.905  0.0930  0.0718  0.2529
  121TMC2    H5 1858   3.544   4.069  13.923  0.2218 -0.1971 -0.8308
  122MPD2     C 1859   4.214   3.742  13.554 -0.0927  0.8221 -0.6004
  122MPD2    C1 1860   4.139   3.855  13.523 -0.6279  0.5080  0.8073
  122MPD2    C2 1861   4.183   3.951  13.434 -0.4703  0.2446  0.0348
  122MPD2    C3 1862   4.298   3.925  13.362 -0.4082  0.1689  0.3299
  122MPD2    C4 1863   4.359   3.800  13.371  0.4923 -0.1722 -0.1456
  122MPD2    C5 1864   4.325   3.724  13.475 -0.2001 -0.0958  0.5845
  122MPD2     H 1865   4.121   4.040  13.426 -0.3245  0.2443 -1.0245
  122MPD2    H1 1866   4.452   3.775  13.322  0.9731  0.7595  0.2756
  122MPD2    H2 1867   4.198   3.675  13.637  1.6105  2.9812  1.4557
  122MPD2    H3 1868   4.382   3.636  13.501 -0.4028 -0.6594 -0.8582
  122MPD2     N 1869   4.348   4.009  13.260 -0.7229 -0.6354 -0.0865
  122MPD2    H5 1870   4.438   3.994  13.215 -1.1935 -0.8149 -0.9717
  122MPD2    N1 1871   4.024   3.885  13.603 -0.1162  0.0428  0.4744
  122MPD2    H7 1872   3.975   3.972  13.583 -0.6532 -0.4623 -0.3839
  123MPD2     C 1873   2.102   2.741  10.365 -0.0161  0.3420  0.3310
  123MPD2    C1 1874   2.092   2.656  10.262 -0.2043  0.2795 -0.1925
  123MPD2    C2 1875   2.170   2.669  10.147 -1.0591  0.2811 -0.5477
  123MPD2    C3 1876   2.262   2.778  10.149 -0.3437  0.0674 -0.1035
  123MPD2    C4 1877   2.274   2.859  10.256  0.2019  0.4438  0.2098
  123MPD2    C5 1878   2.201   2.834  10.372 -0.2878  0.1187 -1.1852
  123MPD2     H 1879   2.162   2.604  10.061  0.4472 -0.1669 -0.3598
  123MPD2    H1 1880   2.352   2.934  10.264  0.0799  0.5763  0.1491
  123MPD2    H2 1881   2.034   2.728  10.448  0.5653  1.7317  1.0254
  123MPD2    H3 1882   2.208   2.900  10.458 -2.9299  1.1092 -1.7282
  123MPD2     N 1883   2.339   2.810  10.035 -0.4290 -0.0493  0.1251
  123MPD2    H5 1884   2.333   2.753   9.952 -2.9394 -0.1489  0.3722
  123MPD2    N1 1885   1.984   2.567  10.267 -0.4356  0.1332 -0.3542
  123MPD2    H7 1886   1.916   2.576  10.343 -0.2241  1.5573 -0.3331
  124TCq2    C1 1887   2.402   2.933  10.007 -0.1113  0.3850  0.2053
  124TCq2    O2 1888   2.436   3.030  10.078 -0.1742  0.3251 -0.6084
  124TCq2    C2 1889   2.425   2.946   9.865  0.5802 -0.2153 -0.0405
  124TCq2    C3 1890   2.454   3.072   9.825  0.1327  0.4642 -0.0479
  124TCq2    C4 1891   2.441   3.102   9.693 -0.3287 -0.1423 -0.1526
  124TCq2    C5 1892   2.383   3.017   9.603 -0.3686 -0.5515 -1.2691
  124TCq2    C6 1893   2.336   2.899   9.650  0.2908  0.2388  0.4838
  124TCq2    C7 1894   2.366   2.861   9.775 -0.1633 -0.5440 -0.7319
  124TCq2    C8 1895   2.234   2.819   9.583 -0.1031  0.3457  0.4721
  124TCq2    O4 1896   2.210   2.707   9.622  0.2182 -0.6413  0.3275
  124TCq2    C9 1897   2.478   3.226   9.634 -0.0178  0.4489 -0.2910
  124TCq2    O5 1898   2.462   3.244   9.514  0.2442  0.2417 -0.2317
  124TCq2    O6 1899   2.539   3.310   9.705 -0.1906 -0.2201  0.0178
  124TCq2    H2 1900   2.500   3.146   9.890  0.9588 -0.9087  0.9332
  124TCq2    H3 1901   2.381   3.037   9.497  0.0082  0.7324 -1.0344
  124TCq2    H4 1902   2.347   2.758   9.802  1.0552 -0.3094  1.0593
  125TMC2    C1 1903   2.628   4.176   8.855  0.3166  0.8331  0.3409
  125TMC2    C2 1904   2.633   4.285   8.932  0.6284 -0.0240 -0.3266
  125TMC2    C3 1905   2.753   4.350   8.935  0.2271 -0.4394  0.1202
  125TMC2    C4 1906   2.733   4.124   8.783  0.1723  0.3953  0.5919
  125TMC2    C5 1907   2.852   4.193   8.789 -0.4141 -0.2160  0.2808
  125TMC2    C6 1908   2.858   4.303   8.866  0.0308  0.6159  0.1621
  125TMC2     C 1909   2.502   4.097   8.850  0.3862 -0.1416  0.7426
  125TMC2     O 1910   2.497   4.008   8.763  0.5934  0.3390  0.1749
  125TMC2     H 1911   2.538   4.331   8.957  0.2835 -0.1022 -1.5119
  125TMC2    H1 1912   2.710   4.043   8.716  1.2815  1.6320 -1.2735
  125TMC2    H2 1913   2.931   4.380   8.841 -0.4058  0.8278 -0.4477
  125TMC2    C7 1914   2.948   4.165   8.686  0.1815  0.4334 -0.2107
  125TMC2    C8 1915   2.766   4.477   9.005 -0.3953 -0.9007 -0.1012
  125TMC2    O1 1916   2.912   4.133   8.572  0.1819 -0.3269 -0.1066
  125TMC2    O2 1917   2.672   4.528   9.058 -0.8220  0.3496 -0.3963
  125TMC2    O5 1918   2.896   4.506   9.038 -0.2955 -0.0393 -0.3756
  125TMC2    H5 1919   2.965   4.445   9.003  0.0765 -1.9067  3.5688
  126MPD1     C 1920   2.056   3.929   9.021  0.2494  0.1911  0.2650
  126MPD1    C1 1921   2.124   3.998   9.127  0.2017  0.0554 -0.1300
  126MPD1    C2 1922   2.231   4.077   9.095  0.1518  0.0368 -1.0510
  126MPD1    C3 1923   2.289   4.063   8.975 -1.0245 -0.5794  0.4651
  126MPD1    C4 1924   2.226   3.989   8.873  0.1610 -0.0476  0.1653
  126MPD1    C5 1925   2.106   3.934   8.895  0.2572  0.3678  0.3038
  126MPD1     H 1926   2.284   4.127   9.175 -2.0507  0.4905  0.1076
  126MPD1    H1 1927   2.266   3.973   8.774 -2.9470 -0.1809 -1.0777
  126MPD1    H2 1928   1.970   3.866   9.038  0.0292  0.3770 -0.1481
  126MPD1    H3 1929   2.053   3.884   8.814  1.1047 -0.5173  0.3088
  126MPD1     N 1930   2.413   4.120   8.953 -0.2749 -0.7189 -1.1519
  126MPD1    H5 1931   2.441   4.187   9.023 -0.3335 -0.4367 -1.3952
  126MPD1    N1 1932   2.082   3.995   9.257 -0.1836  0.1092 -0.0140
  126MPD1    H6 1933   2.163   4.015   9.315 -0.9745 -0.2534  1.2236
  126MPD1    H7 1934   2.051   3.902   9.285 -2.3566  0.8026 -0.1214
  127MPD2     C 1935   4.214   3.187   9.164 -0.2740  0.4802  0.3441
  127MPD2    C1 1936   4.223   3.195   9.301  0.8309 -0.5056  0.1199
  127MPD2    C2 1937   4.282   3.311   9.353 -1.1437  0.5087  0.2554
  127MPD2    C3 1938   4.348   3.402   9.266  0.0639  0.8718  0.1432
  127MPD2    C4 1939   4.345   3.378   9.136  0.1235 -0.3848  0.1219
  127MPD2    C5 1940   4.278   3.273   9.083 -0.2858  0.0801  0.0200
  127MPD2     H 1941   4.289   3.340   9.457  0.6466  0.4159  0.1616
  127MPD2    H1 1942   4.395   3.441   9.062 -1.3873  0.5929 -0.0493
  127MPD2    H2 1943   4.147   3.109   9.130  0.7442 -0.4096  0.3988
  127MPD2    H3 1944   4.257   3.277   8.976 -0.2398  1.0710  0.0516
  127MPD2     N 1945   4.423   3.506   9.323  0.0377  1.4736  0.3412
  127MPD2    H5 1946   4.409   3.507   9.423  2.0981  0.7141  0.6489
  127MPD2    N1 1947   4.147   3.108   9.378  0.5205 -0.2835 -0.5760
  127MPD2    H7 1948   4.065   3.069   9.332 -0.2402 -1.1468  1.5343
  128TCq2    C1 1949   4.174   3.070   9.506 -0.6517  0.2088 -0.7023
  128TCq2    O2 1950   4.265   3.118   9.575 -0.0719  0.5833  0.2289
  128TCq2    C2 1951   4.061   2.999   9.580 -0.2799  0.7331 -0.1020
  128TCq2    C3 1952   4.066   2.986   9.722  1.0124  0.1975  0.0307
  128TCq2    C4 1953   3.994   2.886   9.775 -0.5436 -0.6777 -0.3548
  128TCq2    C5 1954   3.919   2.794   9.700  0.2115  0.2128  0.8415
  128TCq2    C6 1955   3.921   2.810   9.567  0.1021  0.2110 -0.3844
  128TCq2    C7 1956   3.986   2.912   9.505 -0.5734  0.6175  0.2686
  128TCq2    C8 1957   3.818   2.746   9.486 -0.3864 -0.4069  0.3488
  128TCq2    O4 1958   3.805   2.802   9.376 -0.5134 -0.6312  0.4800
  128TCq2    C9 1959   4.004   2.867   9.920  0.6914 -0.2848  0.1062
  128TCq2    O5 1960   3.916   2.793   9.977 -0.2287 -0.0749 -0.0767
  128TCq2    O6 1961   4.095   2.933   9.981 -0.2640  0.0338  0.0262
  128TCq2    H2 1962   4.135   3.050   9.776  0.6443 -0.1390  0.9066
  128TCq2    H3 1963   3.865   2.714   9.749  0.3004 -0.4150 -0.0684
  128TCq2    H4 1964   3.981   2.923   9.397  1.2343 -2.1443 -0.0766
  129MPD2     C 1965   2.489   3.505   1.110  0.1257  0.2191 -0.0913
  129MPD2    C1 1966   2.604   3.574   1.139 -0.4685  0.4190 -0.2990
  129MPD2    C2 1967   2.628   3.689   1.062  0.5247 -0.5171 -0.0692
  129MPD2    C3 1968   2.547   3.724   0.955 -1.1565  0.1640  0.5289
  129MPD2    C4 1969   2.438   3.635   0.924 -0.9805  0.0973 -0.7909
  129MPD2    C5 1970   2.406   3.527   0.995  0.3195  0.7099  0.8212
  129MPD2     H 1971   2.710   3.755   1.085  0.3389 -0.2570 -0.1565
  129MPD2    H1 1972   2.379   3.655   0.836  0.0828  1.0028 -1.3051
  129MPD2    H2 1973   2.459   3.426   1.178 -1.1768  1.2963  0.5796
  129MPD2    H3 1974   2.321   3.460   0.982  0.8565  0.3802 -0.9566
  129MPD2     N 1975   2.586   3.835   0.877 -0.0989 -0.8892  0.1284
  129MPD2    H5 1976   2.673   3.879   0.906  0.1610 -0.2464 -1.6130
  129MPD2    N1 1977   2.691   3.541   1.246 -0.1264 -0.0121 -0.2702
  129MPD2    H7 1978   2.788   3.572   1.246  0.6312 -2.4267 -0.7348
  130TCq2    C1 1979   2.651   3.467   1.354 -0.0211  1.1990 -0.1441
  130TCq2    O2 1980   2.536   3.448   1.387  0.2805  0.0047 -0.0538
  130TCq2    C2 1981   2.755   3.414   1.442  0.3918 -0.7310 -0.1474
  130TCq2    C3 1982   2.883   3.424   1.405 -0.1789 -0.3460  0.2537
  130TCq2    C4 1983   2.977   3.352   1.468  0.7692 -0.2730  0.5738
  130TCq2    C5 1984   2.940   3.263   1.564 -0.1756 -0.5891 -0.5201
  130TCq2    C6 1985   2.810   3.253   1.603  0.0922  0.1316  0.4175
  130TCq2    C7 1986   2.712   3.324   1.533  0.0208  0.1498 -0.1394
  130TCq2    C8 1987   2.758   3.146   1.675  0.5235 -0.0031 -0.4098
  130TCq2    O4 1988   2.639   3.135   1.664 -0.1442  0.0894  0.0993
  130TCq2    C9 1989   3.115   3.373   1.445  0.0305  0.3115  0.9290
  130TCq2    O5 1990   3.135   3.482   1.387 -0.4720  0.2429  0.1517
  130TCq2    O6 1991   3.192   3.322   1.525  0.1058  0.0608  0.1649
  130TCq2    H2 1992   2.916   3.493   1.327 -1.7883  1.4234  1.1328
  130TCq2    H3 1993   3.017   3.191   1.586  0.2698 -0.3069 -1.1427
  130TCq2    H4 1994   2.610   3.332   1.569  0.7501  3.4155  1.1819
  131MPD2     C 1995   1.462   2.735   9.567 -1.2530 -0.4118  0.3236
  131MPD2    C1 1996   1.585   2.763   9.628  0.5288  0.0887  0.3132
  131MPD2    C2 1997   1.628   2.688   9.733  0.7779 -0.2471  0.5970
  131MPD2    C3 1998   1.542   2.589   9.786  0.3885 -0.3647 -0.2200
  131MPD2    C4 1999   1.428   2.554   9.721 -0.8026  0.4859  0.0402
  131MPD2    C5 2000   1.386   2.629   9.606  0.5618 -0.4024 -0.5671
  131MPD2     H 2001   1.731   2.693   9.766  0.7713  0.1055  0.5650
  131MPD2    H1 2002   1.381   2.458   9.738  0.0468  0.0960  0.1992
  131MPD2    H2 2003   1.422   2.792   9.483  2.4782 -1.1272 -1.9609
  131MPD2    H3 2004   1.297   2.605   9.550  0.6894  1.0239 -1.3632
  131MPD2     N 2005   1.602   2.519   9.893  0.5654  0.4342 -0.0051
  131MPD2    H5 2006   1.692   2.554   9.923  0.1654  1.3484  0.1198
  131MPD2    N1 2007   1.657   2.875   9.569  0.2303 -0.3108 -0.1273
  131MPD2    H7 2008   1.630   2.908   9.477  2.4179  0.3131 -0.5396
  132TCq2    C1 2009   1.852   3.219   9.275 -0.1515  0.3016  0.3170
  132TCq2    O2 2010   1.762   3.175   9.200  0.0920  0.2638 -0.0574
  132TCq2    C2 2011   1.853   3.203   9.419 -0.1463 -0.7257 -0.1148
  132TCq2    C3 2012   1.916   3.291   9.509  0.1929  0.5728  0.7194
  132TCq2    C4 2013   1.931   3.250   9.637 -0.6900 -0.7158  0.3171
  132TCq2    C5 2014   1.870   3.135   9.681  0.6315 -0.2515  0.4300
  132TCq2    C6 2015   1.801   3.057   9.594  0.3808  0.1689 -0.3668
  132TCq2    C7 2016   1.793   3.090   9.458  0.3819 -0.0396  0.1462
  132TCq2    C8 2017   1.748   2.935   9.652 -0.3288 -0.4014  0.0618
  132TCq2    O4 2018   1.785   2.905   9.763  0.4041  0.0920  0.2480
  132TCq2    C9 2019   2.013   3.338   9.716  0.4322 -0.2792  0.0067
  132TCq2    O5 2020   1.994   3.347   9.840  0.2160  0.3069  0.2862
  132TCq2    O6 2021   2.093   3.403   9.646 -0.4064  0.0985  0.0562
  132TCq2    H2 2022   1.960   3.385   9.477  0.9185  0.7468  2.2007
  132TCq2    H3 2023   1.893   3.101   9.782 -2.2835  0.0215  1.2062
  132TCq2    H4 2024   1.744   3.028   9.384 -0.5408 -1.2385  1.7709
  133MPD2     C 2025   0.451   2.399   9.987 -0.1481  0.2271 -0.4239
  133MPD2    C1 2026   0.577   2.395   9.929  0.0897  0.7678 -0.4156
  133MPD2    C2 2027   0.617   2.489   9.839  0.0993  0.1703  0.2562
  133MPD2    C3 2028   0.525   2.591   9.806 -0.2247 -0.2115  0.6100
  133MPD2    C4 2029   0.399   2.601   9.869 -0.5775  0.2931 -0.1835
  133MPD2    C5 2030   0.361   2.502   9.957 -0.0873  0.2774 -0.2126
  133MPD2     H 2031   0.716   2.493   9.794  0.7835  1.7260  1.8682
  133MPD2    H1 2032   0.326   2.675   9.838 -1.2448  0.1043  0.9165
  133MPD2    H2 2033   0.401   2.323  10.045 -0.7012  0.2399 -0.8843
  133MPD2    H3 2034   0.260   2.497   9.996  0.7506  0.8742  2.0387
  133MPD2     N 2035   0.551   2.697   9.718  0.1139 -0.4357 -0.1775
  133MPD2    H5 2036   0.500   2.781   9.743  1.2468  0.2491 -0.1422
  133MPD2    N1 2037   0.647   2.287   9.965  0.0088  0.9238 -0.0604
  133MPD2    H7 2038   0.591   2.233  10.031 -1.4698  1.0282 -1.2277
  134TCq2    C1 2039   0.774   2.248   9.919  0.3885 -0.5923  0.0069
  134TCq2    O2 2040   0.843   2.286   9.825 -0.4906 -0.5939 -0.4857
  134TCq2    C2 2041   0.814   2.125   9.991 -0.2706  0.0110 -0.2326
  134TCq2    C3 2042   0.899   2.042   9.917  0.7277  0.3890 -0.7567
  134TCq2    C4 2043   0.897   1.906   9.947  0.6493  0.0884  0.2113
  134TCq2    C5 2044   0.834   1.857  10.060 -0.0659 -0.0072 -0.1972
  134TCq2    C6 2045   0.754   1.942  10.128  0.6463 -0.6398  0.7896
  134TCq2    C7 2046   0.736   2.076  10.097  0.4177  0.2209 -0.2959
  134TCq2    C8 2047   0.665   1.886  10.225 -0.7796 -0.3816 -0.6489
  134TCq2    O4 2048   0.630   1.770  10.219  0.0157  0.0523  0.0163
  134TCq2    C9 2049   0.980   1.829   9.861  0.1812  0.2538 -0.1172
  134TCq2    O5 2050   0.973   1.699   9.867 -0.6117  0.4057 -0.6587
  134TCq2    O6 2051   1.037   1.891   9.772 -0.5413 -0.1124 -0.5470
  134TCq2    H2 2052   0.954   2.084   9.834  1.2470 -1.1106 -1.1592
  134TCq2    H3 2053   0.842   1.752  10.085 -0.6300 -0.4747 -1.9627
  134TCq2    H4 2054   0.670   2.140  10.154  0.8783 -1.3907  2.0789
  135MPD2     C 2055   3.609   0.153   8.897  0.2193  0.0460 -0.4869
  135MPD2    C1 2056   3.669   0.055   8.968 -0.2113 -0.2718  0.5772
  135MPD2    C2 2057   3.803   0.024   8.960  0.6579 -0.7829 -0.3219
  135MPD2    C3 2058   3.884   0.110   8.891  0.4202  0.5781  0.4249
  135MPD2    C4 2059   3.821   0.208   8.812 -0.0022 -0.0290 -0.2305
  135MPD2    C5 2060   3.685   0.225   8.811 -0.0912  0.0967 -0.9201
  135MPD2     H 2061   3.837   4.662   9.012 -1.2318 -1.2279  0.1637
  135MPD2    H1 2062   3.880   0.275   8.750  0.6493 -0.5962 -0.2099
  135MPD2    H2 2063   3.504   0.176   8.895  0.2175  0.0215 -0.6974
  135MPD2    H3 2064   3.641   0.298   8.745 -1.7078 -1.1255 -1.1738
  135MPD2     N 2065   4.024   0.095   8.893  0.2985  0.5184  0.0762
  135MPD2    H5 2066   4.082   0.148   8.829  0.0273  0.3784 -0.2827
  135MPD2    N1 2067   3.594   4.701   9.055 -0.2773  0.4400 -0.2136
  135MPD2    H7 2068   3.634   4.632   9.118 -0.3087  2.4016  1.9817
  136TCq2    C1 2069   3.457   4.690   9.058  0.3616  0.7160 -0.1450
  136TCq2    O2 2070   3.369   0.028   8.996  0.1582  0.0495  0.3263
  136TCq2    C2 2071   3.399   4.583   9.140 -0.0104 -0.0089 -0.4633
  136TCq2    C3 2072   3.291   4.512   9.084 -0.4561  0.2788  0.5794
  136TCq2    C4 2073   3.270   4.383   9.133 -0.5870 -0.3342  0.5978
  136TCq2    C5 2074   3.350   4.332   9.237  0.7577  0.0722  0.3495
  136TCq2    C6 2075   3.455   4.405   9.287 -0.0819  0.5309  0.3250
  136TCq2    C7 2076   3.475   4.533   9.242 -0.0163  0.2120 -0.4973
  136TCq2    C8 2077   3.528   4.359   9.405 -0.6643  0.0947  0.6647
  136TCq2    O4 2078   3.632   4.418   9.425 -0.0638 -0.3520  0.2136
  136TCq2    C9 2079   3.165   4.301   9.084  0.1097  0.3058  0.5718
  136TCq2    O5 2080   3.102   4.349   8.986  0.0654  0.5739  0.2816
  136TCq2    O6 2081   3.137   4.195   9.147 -0.9081 -0.2690 -0.0192
  136TCq2    H2 2082   3.229   4.550   9.004 -0.6793 -0.3142  0.4678
  136TCq2    H3 2083   3.339   4.230   9.272  0.6200 -0.8329 -2.3493
  136TCq2    H4 2084   3.524   4.609   9.302 -2.8686  0.8767  0.9510
  137MPD2     C 2085   4.050   3.748   9.268 -0.0570  0.4004 -0.9749
  137MPD2    C1 2086   3.930   3.713   9.224 -0.4000  0.0534  0.1320
  137MPD2    C2 2087   3.866   3.612   9.294 -0.4788  0.6475  0.7515
  137MPD2    C3 2088   3.919   3.537   9.401 -0.1241  0.9442 -0.1957
  137MPD2    C4 2089   4.048   3.567   9.435  0.0704 -0.2966 -0.3266
  137MPD2    C5 2090   4.105   3.680   9.372  0.5339  0.3998  0.1767
  137MPD2     H 2091   3.764   3.585   9.272 -0.4353  1.0141  0.0964
  137MPD2    H1 2092   4.101   3.520   9.517 -1.6457  0.8148  1.4264
  137MPD2    H2 2093   4.111   3.818   9.211  1.4624 -1.2638 -1.4149
  137MPD2    H3 2094   4.203   3.705   9.410  0.3831  1.6530 -0.2630
  137MPD2     N 2095   3.843   3.439   9.468  0.7875  0.0556 -0.0373
  137MPD2    H5 2096   3.752   3.426   9.425  0.2698  1.2644  0.6973
  137MPD2    N1 2097   3.867   3.775   9.117 -0.4280  0.5498 -0.1641
  137MPD2    H7 2098   3.912   3.858   9.080  0.0900  0.1288 -0.4793
  138TCq2    C1 2099   3.741   3.745   9.063  0.1766  0.0114  0.2751
  138TCq2    O2 2100   3.654   3.664   9.094 -0.6401  0.2726  0.3637
  138TCq2    C2 2101   3.698   3.834   8.959  0.2168 -0.5452 -0.5286
  138TCq2    C3 2102   3.790   3.910   8.891  0.5511 -0.7114  0.2465
  138TCq2    C4 2103   3.758   3.980   8.783 -0.4241 -0.0055 -0.0082
  138TCq2    C5 2104   3.637   3.968   8.724  0.6937  0.1937  0.2336
  138TCq2    C6 2105   3.548   3.895   8.792 -0.0903  0.0306  0.8038
  138TCq2    C7 2106   3.569   3.827   8.909  0.5965  0.3553 -0.4646
  138TCq2    C8 2107   3.428   3.861   8.719 -0.5667 -0.1070  0.5516
  138TCq2    O4 2108   3.449   3.840   8.602 -0.1598  0.3173  0.2178
  138TCq2    C9 2109   3.861   4.039   8.714  0.3215  0.1921 -0.2566
  138TCq2    O5 2110   3.972   3.977   8.728 -0.1330  0.2908 -0.2634
  138TCq2    O6 2111   3.841   4.130   8.628  0.5120 -0.1140  0.8047
  138TCq2    H2 2112   3.896   3.893   8.908  0.8282  0.7604 -0.0342
  138TCq2    H3 2113   3.618   4.020   8.631 -1.2154  0.5253  0.7979
  138TCq2    H4 2114   3.494   3.762   8.953 -0.2527  1.3322 -0.4846
  139TMC2    C1 2115   3.837   2.110  13.498  0.4157  0.0228 -0.1655
  139TMC2    C2 2116   3.831   2.213  13.589 -0.2663 -0.8480 -0.0527
  139TMC2    C3 2117   3.758   2.321  13.565 -0.4087  0.2515 -0.2523
  139TMC2    C4 2118   3.748   2.104  13.394  0.1839 -0.0200 -0.0204
  139TMC2    C5 2119   3.648   2.202  13.393  0.3313 -0.0559 -0.7217
  139TMC2    C6 2120   3.659   2.314  13.472  0.1280  0.2874  0.1076
  139TMC2     C 2121   3.945   2.009  13.518  0.0616 -0.6060 -0.4727
  139TMC2     O 2122   3.960   1.930  13.425  0.4713 -0.1195 -0.4214
  139TMC2     H 2123   3.903   2.224  13.669  0.0489  1.1631 -0.6122
  139TMC2    H1 2124   3.739   2.022  13.323  0.6752  2.7455 -3.2513
  139TMC2    H2 2125   3.588   2.396  13.467  0.2421  0.4192  0.5998
  139TMC2    C7 2126   3.514   2.183  13.341 -0.1912  0.0983  0.3154
  139TMC2    C8 2127   3.748   2.408  13.685 -0.4890  0.1569  0.4392
  139TMC2    O1 2128   3.436   2.276  13.357 -0.2244  0.2051 -0.5381
  139TMC2    O2 2129   3.786   2.385  13.797 -0.4853 -0.3220  0.3889
  139TMC2    O5 2130   3.707   2.526  13.644  0.3305 -0.1487 -0.3491
  139TMC2    H5 2131   3.686   2.528  13.548 -0.6058 -1.0364 -0.1616
  140MPD2     C 2132   4.091   1.922  13.850  0.3995 -0.5552 -0.1694
  140MPD2    C1 2133   4.074   1.906  13.712  0.1159  0.4149 -0.6228
  140MPD2    C2 2134   4.128   1.798  13.644  0.5511 -0.0596  0.2296
  140MPD2    C3 2135   4.219   1.716  13.709 -0.0290 -0.4691  0.9524
  140MPD2    C4 2136   4.239   1.729  13.843  0.1240  0.2536 -0.1194
  140MPD2    C5 2137   4.180   1.832  13.910  0.0484  0.2451  0.1214
  140MPD2     H 2138   4.123   1.780  13.537  0.3896  0.2268  0.1898
  140MPD2    H1 2139   4.305   1.671  13.906 -0.0456 -1.2384 -1.3187
  140MPD2    H2 2140   4.034   2.001  13.898  2.1599 -0.0286  1.0633
  140MPD2    H3 2141   4.199   1.848  14.016  0.5775 -0.7402  0.1696
  140MPD2     N 2142   4.308   1.637  13.631  0.4014 -0.4232  0.7874
  140MPD2    H5 2143   4.277   1.633  13.534  1.5804  1.7397  0.3220
  140MPD2    N1 2144   3.984   1.998  13.652 -0.6129 -0.5527  0.2437
  140MPD2    H7 2145   3.952   2.073  13.714  1.2457 -0.5764  1.2287
  141TCq2    C1 2146   4.052   3.149  14.131 -0.7286 -1.0788 -0.6436
  141TCq2    O2 2147   3.947   3.202  14.116 -0.7114  0.2374  0.0230
  141TCq2    C2 2148   4.094   3.152  14.275 -0.0575 -0.3339 -0.2074
  141TCq2    C3 2149   4.135   3.039  14.340  0.8373  0.4292  0.3101
  141TCq2    C4 2150   4.168   3.050  14.470  0.2968  0.2099 -0.3688
  141TCq2    C5 2151   4.144   3.162  14.539 -0.8787  0.0432 -0.1186
  141TCq2    C6 2152   4.072   3.266  14.471  0.2312 -0.2641  0.6944
  141TCq2    C7 2153   4.058   3.267  14.339  1.1836 -0.3600  0.4606
  141TCq2    C8 2154   4.054   3.385  14.538 -0.7799 -0.0150  0.5842
  141TCq2    O4 2155   3.996   3.384  14.651  0.3849  0.3240  0.3434
  141TCq2    C9 2156   4.224   2.932  14.542 -0.2605  0.0421  0.1145
  141TCq2    O5 2157   4.265   2.829  14.479 -0.0327  0.6985 -0.2308
  141TCq2    O6 2158   4.227   2.932  14.665 -0.2903  0.6211  0.4140
  141TCq2    H2 2159   4.139   2.945  14.287  0.3747  1.8889 -2.3021
  141TCq2    H3 2160   4.165   3.168  14.645  1.4551  1.5385 -0.6659
  141TCq2    H4 2161   4.004   3.348  14.292 -1.7124 -1.3293  2.1544
  142MPD2     C 2162   1.750   1.828  10.114  0.5166  0.5679  0.1912
  142MPD2    C1 2163   1.698   1.781   9.991 -0.1700 -0.4295 -0.0770
  142MPD2    C2 2164   1.688   1.871   9.881  0.0614 -0.5912 -0.4237
  142MPD2    C3 2165   1.731   2.002   9.892 -0.0925 -0.2259  0.1986
  142MPD2    C4 2166   1.793   2.050  10.007 -0.3134 -0.1735  0.3137
  142MPD2    C5 2167   1.797   1.960  10.118 -0.4374  0.1419 -0.1239
  142MPD2     H 2168   1.652   1.840   9.784  0.8023 -0.2233 -0.8147
  142MPD2    H1 2169   1.817   2.155  10.020  1.3548 -0.5857  0.6215
  142MPD2    H2 2170   1.750   1.761  10.200 -1.5365 -1.5559 -1.4489
  142MPD2    H3 2171   1.814   1.999  10.218 -3.7771 -0.9525  0.8514
  142MPD2     N 2172   1.717   2.090   9.783  0.8969  0.1826  0.5544
  142MPD2    H5 2173   1.757   2.181   9.799  1.2877  0.1138 -0.0271
  142MPD2    N1 2174   1.658   1.648   9.980 -0.4121 -0.2728  0.7891
  142MPD2    H7 2175   1.687   1.587  10.056 -0.3788 -0.8359  0.3279
  143TCq2    C1 2176   1.644   2.067   9.670  0.4981 -0.2199 -0.2193
  143TCq2    O2 2177   1.561   1.984   9.641  0.6221 -0.1242 -0.8226
  143TCq2    C2 2178   1.631   2.187   9.585 -0.1187  0.5903  0.7280
  143TCq2    C3 2179   1.511   2.206   9.516 -0.6008 -0.4147  0.6678
  143TCq2    C4 2180   1.501   2.313   9.435 -0.0913 -0.1614 -0.2967
  143TCq2    C5 2181   1.604   2.407   9.434  0.3677 -0.4844 -0.3484
  143TCq2    C6 2182   1.716   2.382   9.506  0.0914  0.0509 -0.1626
  143TCq2    C7 2183   1.734   2.271   9.586  0.1416 -0.7461 -0.3709
  143TCq2    C8 2184   1.820   2.487   9.506 -0.0936  0.0536  0.7513
  143TCq2    O4 2185   1.892   2.502   9.601 -0.6711  0.4426 -0.0864
  143TCq2    C9 2186   1.382   2.346   9.361 -0.0310  0.5074 -0.3086
  143TCq2    O5 2187   1.391   2.440   9.276 -0.3888  0.0356 -0.5706
  143TCq2    O6 2188   1.278   2.282   9.391  0.1315 -0.4399  0.5167
  143TCq2    H2 2189   1.429   2.134   9.523  0.6395 -1.7018  1.9408
  143TCq2    H3 2190   1.588   2.500   9.381 -2.6699 -1.3768 -1.0289
  143TCq2    H4 2191   1.831   2.254   9.632 -0.5497 -0.9790  0.9768
  144MPD2     C 2192   0.516   0.788   0.343 -0.3228  0.1758 -0.5658
  144MPD2    C1 2193   0.399   0.763   0.421 -0.7309  0.5590  0.2611
  144MPD2    C2 2194   0.403   0.793   0.554 -0.1386 -0.3058  0.3256
  144MPD2    C3 2195   0.507   0.854   0.615  0.1095  0.1543  0.1857
  144MPD2    C4 2196   0.620   0.878   0.534 -0.0914 -0.2568 -0.2847
  144MPD2    C5 2197   0.623   0.847   0.405  0.3589 -0.4905 -0.1827
  144MPD2     H 2198   0.312   0.762   0.604 -0.2165  2.2837  1.7489
  144MPD2    H1 2199   0.712   0.917   0.575  0.9991 -2.4592 -0.6305
  144MPD2    H2 2200   0.534   0.752   0.242  0.5141  0.6847 -0.5979
  144MPD2    H3 2201   0.710   0.872   0.345 -0.1732 -1.7373 -1.4628
  144MPD2     N 2202   0.514   0.870   0.753 -0.6423  0.4719  0.2967
  144MPD2    H5 2203   0.599   0.914   0.789 -0.2109  1.3240 -1.7816
  144MPD2    N1 2204   0.287   0.694   0.368  0.0944 -0.7910  0.4620
  144MPD2    H7 2205   0.213   0.671   0.434 -0.4270  1.5795  0.7144
  145TCq2    C1 2206   0.420   0.839   0.845  0.4632 -0.2056  0.4497
  145TCq2    O2 2207   0.306   0.793   0.823  0.0308  0.4112  0.0046
  145TCq2    C2 2208   0.473   0.866   0.982  0.0657 -1.0072  0.6512
  145TCq2    C3 2209   0.610   0.884   0.998  0.5181  0.8451  0.3401
  145TCq2    C4 2210   0.648   0.957   1.111 -0.0626  0.4768  0.7238
  145TCq2    C5 2211   0.553   1.003   1.204  0.7223 -0.0764 -0.0629
  145TCq2    C6 2212   0.421   0.979   1.178  0.5316 -0.3102  0.2038
  145TCq2    C7 2213   0.383   0.906   1.071 -0.2320 -0.1132 -0.1723
  145TCq2    C8 2214   0.325   1.062   1.240  0.0838 -0.0470  0.5692
  145TCq2    O4 2215   0.212   1.009   1.255 -0.0491  0.3890  0.1127
  145TCq2    C9 2216   0.783   1.001   1.135  0.3626 -0.2198 -0.1349
  145TCq2    O5 2217   0.808   1.051   1.247 -0.5218  0.0987 -0.2004
  145TCq2    O6 2218   0.865   0.979   1.042  0.5694  0.2632 -0.0067
  145TCq2    H2 2219   0.683   0.866   0.920  0.6831  2.3302  0.1614
  145TCq2    H3 2220   0.586   1.068   1.284  1.0435  0.0538 -0.3009
  145TCq2    H4 2221   0.276   0.890   1.060 -0.3906 -0.4434  1.8597
  146TMC2    C1 2222   0.976   4.085  12.254 -0.2893  0.1383 -0.5804
  146TMC2    C2 2223   0.874   4.052  12.163 -0.2322 -0.1516  0.2972
  146TMC2    C3 2224   0.897   3.967  12.066 -0.0709  0.0785 -0.3910
  146TMC2    C4 2225   1.098   4.028  12.246 -0.9436 -0.6988 -0.1699
  146TMC2    C5 2226   1.117   3.928  12.143 -0.6025  0.7473  0.1490
  146TMC2    C6 2227   1.020   3.905  12.056  0.5521  0.7195  0.0616
  146TMC2     C 2228   0.957   4.180  12.357  0.4142  0.5229  0.4179
  146TMC2     O 2229   0.881   4.269  12.325  0.1462  0.1471  0.7137
  146TMC2     H 2230   0.780   4.105  12.156 -0.1137 -0.1887 -1.4771
  146TMC2    H1 2231   1.186   4.065  12.298 -0.0572 -0.0980 -2.1145
  146TMC2    H2 2232   1.038   3.833  11.978 -2.3719 -0.3684  0.4311
  146TMC2    C7 2233   1.254   3.887  12.118 -0.2174 -0.7463  0.3300
  146TMC2    C8 2234   0.806   3.961  11.956  0.7383 -0.4929  0.8636
  146TMC2    O1 2235   1.283   3.867  12.000  0.1083 -0.1121 -0.1007
  146TMC2    O2 2236   0.848   3.926  11.846 -0.0808 -0.3459 -0.4661
  146TMC2    O5 2237   0.695   3.917  12.009 -0.1127 -0.0090 -0.4493
  146TMC2    H5 2238   0.695   3.897  12.105 -2.6968 -0.0054 -0.4686
  147MPD2     C 2239   1.722   3.767  12.298  0.3073  0.2648  0.3963
  147MPD2    C1 2240   1.631   3.752  12.400  0.2379  0.0899 -0.0464
  147MPD2    C2 2241   1.500   3.788  12.373 -0.3126  0.0915 -0.6229
  147MPD2    C3 2242   1.454   3.820  12.249  0.1744 -0.2816 -0.1140
  147MPD2    C4 2243   1.541   3.812  12.149  0.0113 -1.0211  0.3436
  147MPD2    C5 2244   1.674   3.794  12.175  0.3165  1.0420  0.8362
  147MPD2     H 2245   1.426   3.795  12.452  0.5127  1.0250  0.0740
  147MPD2    H1 2246   1.507   3.845  12.051  1.9848  0.5031  0.1855
  147MPD2    H2 2247   1.828   3.748  12.302  0.0951 -0.9660  0.2222
  147MPD2    H3 2248   1.743   3.797  12.092 -0.4069  1.0301  0.2361
  147MPD2     N 2249   1.322   3.858  12.231 -0.2061 -0.6556  0.0380
  147MPD2    H5 2250   1.260   3.869  12.311 -0.4026  0.5333 -0.2802
  147MPD2    N1 2251   1.680   3.712  12.522 -0.5423 -0.4062 -0.1499
  147MPD2    H7 2252   1.782   3.709  12.524 -0.5758 -1.0393  0.4991
  148MPD2     C 2253   1.416   2.850  10.821  0.0873 -0.6430  0.7213
  148MPD2    C1 2254   1.404   2.916  10.696  0.5252 -0.3754 -0.2688
  148MPD2    C2 2255   1.302   2.871  10.613  1.1373 -0.4089 -0.2965
  148MPD2    C3 2256   1.226   2.754  10.644 -0.3010 -0.3224 -0.4087
  148MPD2    C4 2257   1.250   2.690  10.764 -0.5082 -0.2656 -0.0468
  148MPD2    C5 2258   1.349   2.734  10.852  0.6901  0.4376 -0.2346
  148MPD2     H 2259   1.294   2.923  10.519  0.7387 -0.2722 -0.1905
  148MPD2    H1 2260   1.193   2.600  10.781  0.2267 -0.7815 -0.2808
  148MPD2    H2 2261   1.489   2.881  10.895 -0.6702 -0.1182  1.2536
  148MPD2    H3 2262   1.361   2.683  10.946  0.6642 -1.5976 -1.3399
  148MPD2     N 2263   1.129   2.691  10.566  1.1979 -0.2472  0.3418
  148MPD2    H5 2264   1.074   2.608  10.588 -0.5235  0.8550  0.1919
  148MPD2    N1 2265   1.472   3.041  10.664 -0.1312 -0.6298 -0.1492
  148MPD2    H7 2266   1.437   3.094  10.585 -2.7904  0.9519  2.0993
  149TCq2    C1 2267   1.574   3.089  10.735  0.9051 -0.5777 -0.3808
  149TCq2    O2 2268   1.632   3.033  10.830  0.0441 -0.3938  0.4772
  149TCq2    C2 2269   1.631   3.212  10.679 -0.4974  0.4953  0.3946
  149TCq2    C3 2270   1.560   3.276  10.579 -0.0419  0.3234  0.0395
  149TCq2    C4 2271   1.639   3.342  10.488  0.7574 -0.2768  0.3287
  149TCq2    C5 2272   1.773   3.323  10.481  0.1560 -0.3927  0.1044
  149TCq2    C6 2273   1.838   3.257  10.583  0.2385  0.4817  0.2970
  149TCq2    C7 2274   1.766   3.212  10.689 -0.2444 -0.2078  0.2278
  149TCq2    C8 2275   1.987   3.257  10.593  0.0544 -0.3231 -0.0727
  149TCq2    O4 2276   2.031   3.280  10.705 -0.2093 -0.3754 -0.0218
  149TCq2    C9 2277   1.580   3.368  10.363 -0.5366  0.5452  0.1741
  149TCq2    O5 2278   1.464   3.323  10.342  0.4128  0.0090  0.6490
  149TCq2    O6 2279   1.647   3.431  10.280  0.1698 -0.9224  0.4111
  149TCq2    H2 2280   1.452   3.272  10.568  0.0424 -0.3986 -0.5321
  149TCq2    H3 2281   1.831   3.356  10.396 -0.6812  1.1387  0.1135
  149TCq2    H4 2282   1.824   3.146  10.752  0.4006  2.2317  2.1744
  150MPD2     C 2283   3.345   2.189  11.988 -0.4257  0.3710 -0.8973
  150MPD2    C1 2284   3.329   2.314  11.925  0.0350 -0.2458  0.3977
  150MPD2    C2 2285   3.395   2.431  11.981  0.3191  0.1271 -0.7142
  150MPD2    C3 2286   3.469   2.408  12.096  0.5420  0.2927 -0.0472
  150MPD2    C4 2287   3.484   2.287  12.150 -0.0825  0.0641  0.3915
  150MPD2    C5 2288   3.413   2.184  12.103 -0.3637 -0.1481  0.0773
  150MPD2     H 2289   3.398   2.528  11.932 -1.6288  0.3715 -0.3584
  150MPD2    H1 2290   3.547   2.263  12.236  1.6678 -3.1419 -1.7925
  150MPD2    H2 2291   3.319   2.088  11.956 -0.8132  0.9023 -2.2377
  150MPD2    H3 2292   3.413   2.094  12.163 -3.9353  0.4382  0.9520
  150MPD2     N 2293   3.542   2.520  12.147  0.2970  0.0624 -0.2399
  150MPD2    H5 2294   3.531   2.612  12.106 -0.8103 -1.1695 -2.6829
  150MPD2    N1 2295   3.263   2.304  11.802  0.0311  0.4251 -0.3613
  150MPD2    H7 2296   3.221   2.215  11.775 -0.5822  0.6063  0.0032
  151TCq2    C1 2297   3.628   2.522  12.257 -0.1041 -1.2078 -0.0064
  151TCq2    O2 2298   3.661   2.427  12.329 -0.3928 -0.1175 -0.1163
  151TCq2    C2 2299   3.693   2.650  12.272  0.2608  0.5704  0.6748
  151TCq2    C3 2300   3.693   2.745  12.172 -0.1464  0.3317 -0.1589
  151TCq2    C4 2301   3.801   2.825  12.153  0.2641 -0.2436  0.3315
  151TCq2    C5 2302   3.901   2.828  12.248  0.3611  0.1856  0.5127
  151TCq2    C6 2303   3.903   2.728  12.347  0.3713 -0.3634  0.0445
  151TCq2    C7 2304   3.797   2.645  12.368  0.0963  1.1080  0.1351
  151TCq2    C8 2305   4.018   2.716  12.434 -0.4029  0.6656 -0.1651
  151TCq2    O4 2306   4.104   2.799  12.419  0.5624  0.7082 -0.5611
  151TCq2    C9 2307   3.810   2.928  12.051 -0.2579 -0.0034 -0.4772
  151TCq2    O5 2308   3.731   2.917  11.954  0.1675  0.0581 -0.6300
  151TCq2    O6 2309   3.896   3.022  12.061  0.3250  0.1489  0.0322
  151TCq2    H2 2310   3.607   2.765  12.109 -0.5641  1.5187  0.7871
  151TCq2    H3 2311   3.981   2.900  12.236 -0.1939  0.6499 -0.3257
  151TCq2    H4 2312   3.788   2.582  12.456  0.7757 -2.8303 -2.6092
  152MPD2     C 2313   3.119   1.813  12.684 -0.6031 -0.4868  0.7871
  152MPD2    C1 2314   3.117   1.933  12.615 -0.2469  0.3831  0.2515
  152MPD2    C2 2315   3.003   1.979  12.553  0.0022 -0.6837 -0.1819
  152MPD2    C3 2316   2.891   1.901  12.566 -0.8388 -0.3752 -0.5790
  152MPD2    C4 2317   2.886   1.798  12.652 -0.3667  0.0579  0.0129
  152MPD2    C5 2318   2.997   1.754  12.711  0.1089 -0.3500 -0.1157
  152MPD2     H 2319   3.008   2.075  12.502 -1.4287 -0.8252 -0.5891
  152MPD2    H1 2320   2.793   1.749  12.676 -0.7929 -0.0023 -1.7883
  152MPD2    H2 2321   3.207   1.766  12.726  0.2957 -0.5909 -1.2302
  152MPD2    H3 2322   2.997   1.672  12.782 -2.5563 -0.2943 -0.0461
  152MPD2     N 2323   2.778   1.947  12.500  0.1265 -0.1396  0.5699
  152MPD2    H5 2324   2.790   2.028  12.439 -1.8560  0.5144  1.0299
  152MPD2    N1 2325   3.241   1.996  12.591  0.0969  0.1137 -0.3039
  152MPD2    H7 2326   3.317   1.961  12.649 -1.2216  1.4136  2.2457
  153TCq2    C1 2327   3.269   2.109  12.520  0.4637  0.2196  0.2744
  153TCq2    O2 2328   3.193   2.196  12.475  0.0155 -0.0932 -0.5861
  153TCq2    C2 2329   3.407   2.141  12.529  0.1392 -0.6212  0.9307
  153TCq2    C3 2330   3.491   2.030  12.522  0.3242 -0.2914 -0.2235
  153TCq2    C4 2331   3.620   2.049  12.537  0.0137  0.2465  0.1902
  153TCq2    C5 2332   3.677   2.172  12.564  0.3994 -0.5007 -0.4264
  153TCq2    C6 2333   3.588   2.280  12.578  0.2968 -0.4528 -0.1278
  153TCq2    C7 2334   3.453   2.267  12.546  0.3684 -0.2493 -0.4496
  153TCq2    C8 2335   3.629   2.414  12.619 -0.2554 -0.4826 -0.0921
  153TCq2    O4 2336   3.549   2.506  12.617  0.4122 -0.0412  0.5270
  153TCq2    C9 2337   3.705   1.932  12.537  0.1557 -0.1237 -0.2028
  153TCq2    O5 2338   3.663   1.830  12.474 -0.2365  0.1560 -0.1672
  153TCq2    O6 2339   3.808   1.937  12.605 -0.3658 -0.2068  0.3183
  153TCq2    H2 2340   3.461   1.928  12.503  1.9262  0.0016 -4.3222
  153TCq2    H3 2341   3.785   2.173  12.563  0.3816  0.5936 -0.6911
  153TCq2    H4 2342   3.385   2.351  12.555  0.1732 -0.8113  3.4822
  154MPD2     C 2343   0.011   2.109   0.390 -0.3806 -0.1232  0.1487
  154MPD2    C1 2344   0.058   2.227   0.439  0.1156 -0.3444  0.3840
  154MPD2    C2 2345   4.709   2.292   0.536  0.4311 -0.1126 -0.1891
  154MPD2    C3 2346   4.588   2.249   0.574 -0.2407  0.4815 -0.4002
  154MPD2    C4 2347   4.528   2.140   0.508  0.0331  0.5317  0.7377
  154MPD2    C5 2348   4.611   2.071   0.423  0.4404 -0.1925  0.8031
  154MPD2     H 2349   0.014   2.389   0.572 -2.1772  0.9944 -0.9131
  154MPD2    H1 2350   4.423   2.111   0.511  0.6740 -2.1480 -2.5690
  154MPD2    H2 2351   0.070   2.052   0.319 -2.7762 -0.6025 -1.4549
  154MPD2    H3 2352   4.579   1.983   0.368 -0.5789  0.7625 -0.1269
  154MPD2     N 2353   4.511   2.329   0.661 -0.1952 -0.0236 -0.3668
  154MPD2    H5 2354   4.559   2.403   0.712 -1.3972  1.0514 -0.7884
  154MPD2    N1 2355   0.182   2.280   0.387  0.2659  0.4419  0.5751
  154MPD2    H7 2356   0.239   2.217   0.332 -0.9899  0.3561 -0.6172
  155TCq2    C1 2357   0.219   2.418   0.393  0.4103  0.1402  0.0845
  155TCq2    O2 2358   0.151   2.515   0.427  0.0162 -0.0091  0.4910
  155TCq2    C2 2359   0.359   2.431   0.349 -0.2677  0.6850  0.4814
  155TCq2    C3 2360   0.436   2.322   0.308  0.5087  0.0362  0.2351
  155TCq2    C4 2361   0.541   2.343   0.226 -0.1911  1.3489  0.0994
  155TCq2    C5 2362   0.584   2.470   0.186 -0.4432 -0.6953 -0.7263
  155TCq2    C6 2363   0.509   2.573   0.233  0.9051 -0.7811  0.1540
  155TCq2    C7 2364   0.396   2.557   0.307 -0.0895 -0.1114 -0.7616
  155TCq2    C8 2365   0.576   2.702   0.228  0.2325 -0.0045  0.0567
  155TCq2    O4 2366   0.664   2.709   0.147 -0.5521  0.0764 -0.4395
  155TCq2    C9 2367   0.612   2.231   0.170  0.4775 -0.9672  0.4781
  155TCq2    O5 2368   0.721   2.260   0.114  0.6223  0.1588  0.3860
  155TCq2    O6 2369   0.567   2.119   0.206 -0.6356  0.5149  0.1385
  155TCq2    H2 2370   0.413   2.223   0.348 -3.4965  0.7684 -0.3155
  155TCq2    H3 2371   0.662   2.492   0.113  0.1021  1.6263  0.5468
  155TCq2    H4 2372   0.332   2.641   0.329  0.9115  0.9805 -1.9580
  156MPD2     C 2373   4.073   4.307  11.531 -0.1436  0.1036 -0.3172
  156MPD2    C1 2374   3.960   4.373  11.488  0.4401 -0.0757 -0.2015
  156MPD2    C2 2375   3.877   4.414  11.589 -0.1111  0.4687  0.6145
  156MPD2    C3 2376   3.906   4.417  11.724  0.1112  0.2023  0.0040
  156MPD2    C4 2377   4.024   4.356  11.765  0.2454 -0.0472 -0.6319
  156MPD2    C5 2378   4.106   4.304  11.669 -0.2240 -0.4461  0.3636
  156MPD2     H 2379   3.785   4.464  11.561 -0.5683 -1.5704 -1.4994
  156MPD2    H1 2380   4.055   4.337  11.867  1.7111 -0.8867 -1.2453
  156MPD2    H2 2381   4.143   4.259  11.463  0.3400  2.1059 -1.2380
  156MPD2    H3 2382   4.192   4.244  11.695 -1.2330 -2.7557 -1.6152
  156MPD2     N 2383   3.815   4.484  11.806  0.2270  0.5135 -0.2405
  156MPD2    H5 2384   3.726   4.516  11.768  0.0110  1.2164  0.8540
  156MPD2    N1 2385   3.942   4.388  11.345  0.0140 -0.2989 -0.2836
  156MPD2    H7 2386   4.014   4.347  11.286  1.2537 -0.7593  1.5301
  157TCq2    C1 2387   3.834   4.448  11.289 -0.2618 -0.0775 -0.3481
  157TCq2    O2 2388   3.728   4.487  11.337 -0.0607 -0.1602 -0.4852
  157TCq2    C2 2389   3.847   4.486  11.154 -0.0004 -0.0882  0.1380
  157TCq2    C3 2390   3.959   4.551  11.114 -0.4217 -0.4812 -0.1123
  157TCq2    C4 2391   3.970   4.632  11.008  0.2503 -0.1285  0.0840
  157TCq2    C5 2392   3.858   4.663  10.943 -0.0506 -0.8029 -0.3404
  157TCq2    C6 2393   3.739   4.618  10.995  0.3384 -0.1822  0.1812
  157TCq2    C7 2394   3.732   4.519  11.095  0.2293  0.0033  0.2334
  157TCq2    C8 2395   3.646   4.718  10.998 -0.2678 -0.0770 -0.1429
  157TCq2    O4 2396   3.624   0.055  10.895 -0.1995  0.0118  0.3849
  157TCq2    C9 2397   4.101   4.680  10.962  0.5082 -0.0221 -0.2394
  157TCq2    O5 2398   4.204   4.639  11.025 -0.4264 -0.0090  0.4213
  157TCq2    O6 2399   4.105   0.011  10.850  0.7472 -0.5309 -0.2587
  157TCq2    H2 2400   4.054   4.531  11.163  0.0528  1.2290 -0.3589
  157TCq2    H3 2401   3.859   0.016  10.871 -1.7673  1.4711  2.1552
  157TCq2    H4 2402   3.638   4.471  11.122  1.0849 -0.6798  2.0026
  158TMC2    C1 2403   3.265   3.283  13.325 -0.2329  0.4674  0.6849
  158TMC2    C2 2404   3.259   3.377  13.223  0.5806  0.1836  0.1178
  158TMC2    C3 2405   3.134   3.408  13.173 -0.2309 -1.0520 -0.2160
  158TMC2    C4 2406   3.158   3.220  13.373  0.0830  0.4656 -0.6266
  158TMC2    C5 2407   3.032   3.263  13.331 -0.2421 -0.1573 -0.7959
  158TMC2    C6 2408   3.023   3.350  13.228  0.1488  0.0624  0.3785
  158TMC2     C 2409   3.390   3.215  13.334 -0.5003  0.8072 -0.2478
  158TMC2     O 2410   3.449   3.204  13.228 -0.0674  0.2443 -0.6492
  158TMC2     H 2411   3.354   3.411  13.181  0.5965  0.2263  0.1882
  158TMC2    H1 2412   3.173   3.144  13.450  0.2125  1.2421  0.1118
  158TMC2    H2 2413   2.926   3.364  13.181 -0.9185 -4.6650  1.1796
  158TMC2    C7 2414   2.915   3.190  13.385 -0.3228 -0.7137  0.7058
  158TMC2    C8 2415   3.135   3.494  13.056 -0.2859 -0.2112  0.1857
  158TMC2    O1 2416   2.817   3.261  13.398  0.2915  0.5879 -0.5442
  158TMC2    O2 2417   3.236   3.558  13.031 -0.0048  0.4997  0.4942
  158TMC2    O5 2418   3.013   3.547  13.033 -0.2560 -0.0669 -0.0852
  158TMC2    H5 2419   2.939   3.489  13.061 -1.3907  1.0507 -0.7777
  159MPD2     C 2420   3.711   2.883  13.563  0.0355 -0.0885  0.5730
  159MPD2    C1 2421   3.605   2.907  13.644 -0.4977 -0.0623 -0.4230
  159MPD2    C2 2422   3.518   3.011  13.615  0.2397 -0.6587  0.6780
  159MPD2    C3 2423   3.520   3.075  13.495  0.7899 -0.5155  0.4504
  159MPD2    C4 2424   3.623   3.046  13.413  0.3624 -0.6399  0.4577
  159MPD2    C5 2425   3.718   2.944  13.444  0.2623  0.4964  0.3589
  159MPD2     H 2426   3.453   3.042  13.695  0.0105  0.4211  0.0693
  159MPD2    H1 2427   3.637   3.101  13.320  0.4631 -2.5170 -0.6421
  159MPD2    H2 2428   3.776   2.798  13.582 -1.0378 -0.7471  1.3288
  159MPD2    H3 2429   3.795   2.926  13.370 -1.0836 -2.7523 -0.2513
  159MPD2     N 2430   3.423   3.172  13.460 -0.0371 -0.4600 -0.2153
  159MPD2    H5 2431   3.354   3.193  13.532  0.6352 -0.8090  0.5168
  159MPD2    N1 2432   3.598   2.816  13.751  0.0313  0.5396 -0.2730
  159MPD2    H7 2433   3.663   2.738  13.753  0.0355  0.5488 -0.0226
  160TMC2    C1 2434   4.455   1.138   0.684  0.0097 -0.1121  0.1602
  160TMC2    C2 2435   4.570   1.059   0.675  0.5125 -0.2160  0.3375
  160TMC2    C3 2436   4.662   1.093   0.587 -0.0196  0.2415 -0.3055
  160TMC2    C4 2437   4.446   1.255   0.607  0.2428  0.0429 -0.3409
  160TMC2    C5 2438   4.544   1.287   0.519  0.4409 -0.5042  0.0840
  160TMC2    C6 2439   4.659   1.211   0.512  0.0613  0.1566 -1.1209
  160TMC2     C 2440   4.349   1.096   0.772  0.1354 -0.2863 -0.1082
  160TMC2     O 2441   4.354   0.985   0.826  0.2620  0.1604  0.4265
  160TMC2     H 2442   4.585   0.979   0.747  1.9475 -1.4914 -1.3821
  160TMC2    H1 2443   4.344   1.289   0.592  0.3395 -0.0597 -1.2665
  160TMC2    H2 2444   0.009   1.233   0.438  1.7139  0.9542  0.8171
  160TMC2    C7 2445   4.546   1.422   0.452 -0.3305  0.0280  0.1395
  160TMC2    C8 2446   0.047   0.999   0.551  0.5101 -0.0394 -0.1471
  160TMC2    O1 2447   4.620   1.440   0.357 -0.0178  0.3226 -0.0674
  160TMC2    O2 2448   0.151   1.029   0.490 -0.1300 -1.0112 -0.6289
  160TMC2    O5 2449   4.711   0.884   0.516 -0.2187 -0.2772 -0.0116
  160TMC2    H5 2450   4.629   0.875   0.570 -1.8035  0.4687 -2.2910
  161MPD2     C 2451   4.084   1.106   0.937 -0.2789 -0.6983  0.4824
  161MPD2    C1 2452   4.138   1.204   0.860 -0.1009  0.2039  0.3330
  161MPD2    C2 2453   4.059   1.318   0.842  0.4127 -0.5103  0.6245
  161MPD2    C3 2454   3.941   1.331   0.907  0.3259  0.5610  0.1966
  161MPD2    C4 2455   3.901   1.238   1.001  0.3415 -0.2565 -0.1788
  161MPD2    C5 2456   3.974   1.128   1.015 -0.4573  0.4315  0.4272
  161MPD2     H 2457   4.103   1.391   0.775 -0.9822 -1.4581 -1.3535
  161MPD2    H1 2458   3.805   1.247   1.052 -0.6348  1.1043 -2.2452
  161MPD2    H2 2459   4.138   1.013   0.952  0.1143 -0.4778  0.4401
  161MPD2    H3 2460   3.949   1.045   1.079  2.1834  1.2220  2.4811
  161MPD2     N 2461   3.871   1.452   0.906  0.2205 -0.1707 -0.2512
  161MPD2    H5 2462   3.801   1.474   0.976  1.2681  0.8178  0.4675
  161MPD2    N1 2463   4.257   1.193   0.789 -0.1422 -0.1429  0.7256
  161MPD2    H7 2464   4.287   1.278   0.741 -1.5579 -0.3011 -0.4432
  162TMC2    C1 2465   1.867   3.385   1.406  0.5676  0.9348 -0.1639
  162TMC2    C2 2466   1.948   3.461   1.492  0.4537  0.0975  0.3244
  162TMC2    C3 2467   1.979   3.420   1.620 -0.1299  0.9373  0.1289
  162TMC2    C4 2468   1.810   3.270   1.455 -0.1990 -0.0180 -0.1423
  162TMC2    C5 2469   1.829   3.236   1.590  0.4760  0.3009 -1.0244
  162TMC2    C6 2470   1.909   3.313   1.672  0.0290 -0.3670  0.1982
  162TMC2     C 2471   1.864   3.419   1.261  0.7264 -0.1737 -0.4945
  162TMC2     O 2472   1.873   3.331   1.178  0.9705 -0.1003  0.7234
  162TMC2     H 2473   2.012   3.542   1.459 -2.3008  1.5968 -1.3912
  162TMC2    H1 2474   1.757   3.202   1.389  2.7194 -1.2831 -1.1537
  162TMC2    H2 2475   1.935   3.290   1.775 -2.1966 -1.7570  0.4490
  162TMC2    C7 2476   1.768   3.117   1.646 -0.0298 -0.0296  0.2420
  162TMC2    C8 2477   2.051   3.506   1.701  0.2304 -0.8111  0.4101
  162TMC2    O1 2478   1.656   3.093   1.610  0.1460 -0.0460 -0.1454
  162TMC2    O2 2479   2.002   3.546   1.807  0.0447  0.1037 -0.5817
  162TMC2    O5 2480   2.176   3.507   1.659  0.7910 -0.6618 -0.2140
  162TMC2    H5 2481   2.193   3.480   1.566 -0.4486 -1.6681 -0.1395
  163MPD2     C 2482   2.017   3.742   0.894 -0.1554  0.7715  0.0717
  163MPD2    C1 2483   2.025   3.605   0.893  0.1309  0.3042  0.6711
  163MPD2    C2 2484   1.974   3.534   1.001  0.1820  0.1259 -0.5248
  163MPD2    C3 2485   1.933   3.602   1.120  0.1639  0.8209  0.0510
  163MPD2    C4 2486   1.919   3.739   1.112  0.0965  0.7761  0.4027
  163MPD2    C5 2487   1.970   3.808   1.005  0.0072 -0.2870  0.0954
  163MPD2     H 2488   1.968   3.426   1.001  2.6885 -0.0041  2.9623
  163MPD2    H1 2489   1.879   3.788   1.200  0.3609 -1.4492  1.7596
  163MPD2    H2 2490   2.056   3.802   0.813 -1.2244  1.5448  0.1310
  163MPD2    H3 2491   1.989   3.914   0.997 -1.8660  0.0197 -0.4907
  163MPD2     N 2492   1.884   3.551   1.242  0.0176  0.4822  0.2712
  163MPD2    H5 2493   1.882   3.613   1.323  1.3062 -2.2181  2.3948
  163MPD2    N1 2494   2.082   3.546   0.782 -0.2082  0.4610  0.3185
  163MPD2    H7 2495   2.106   3.610   0.707 -0.4328 -2.3052 -2.1379
  164TCq2    C1 2496   2.039   3.025  10.968  0.0132 -0.2665 -0.1390
  164TCq2    O2 2497   1.954   2.951  11.021  0.3377 -0.2053  0.3909
  164TCq2    C2 2498   2.065   3.168  11.003 -0.2769 -0.4824  0.2839
  164TCq2    C3 2499   2.183   3.211  11.055  0.3817  0.3850  0.5167
  164TCq2    C4 2500   2.195   3.337  11.104 -0.4446 -0.4506  0.3216
  164TCq2    C5 2501   2.085   3.415  11.122 -0.1652 -0.3761 -0.4914
  164TCq2    C6 2502   1.967   3.370  11.078  0.4218  0.2073  0.3963
  164TCq2    C7 2503   1.952   3.245  11.023  0.4330  0.2347 -0.5208
  164TCq2    C8 2504   1.843   3.421  11.127  1.2810 -0.8249 -0.3046
  164TCq2    O4 2505   1.742   3.394  11.063  0.1257 -0.4593 -0.2210
  164TCq2    C9 2506   2.324   3.376  11.149  0.3013 -0.0253 -0.0047
  164TCq2    O5 2507   2.406   3.286  11.177 -0.4478  0.2225  0.6173
  164TCq2    O6 2508   2.347   3.499  11.163 -0.4352 -0.3350  0.1355
  164TCq2    H2 2509   2.275   3.155  11.048  1.2368  1.7467  0.8267
  164TCq2    H3 2510   2.110   3.512  11.164 -1.3979 -0.0074 -0.6199
  164TCq2    H4 2511   1.853   3.214  10.993  0.2353  0.6962 -0.3385
  165MPD2     C 2512   3.804   4.388   1.720  0.8522 -0.3316 -0.1648
  165MPD2    C1 2513   3.676   4.434   1.707 -0.4895  0.5183 -0.7711
  165MPD2    C2 2514   3.647   4.564   1.736  0.0872  0.3903 -0.4244
  165MPD2    C3 2515   3.749   4.654   1.769  0.1131 -0.1333 -0.1389
  165MPD2    C4 2516   3.880   4.610   1.766  0.1537  0.0293  0.7050
  165MPD2    C5 2517   3.911   4.483   1.734 -0.4101  0.5691  0.6995
  165MPD2     H 2518   3.544   4.597   1.727  0.4686  2.1718  1.7347
  165MPD2    H1 2519   3.961   4.679   1.784  0.9013 -0.7110  0.1876
  165MPD2    H2 2520   3.820   4.282   1.703 -0.3626  0.1010 -4.0468
  165MPD2    H3 2521   4.015   4.451   1.730 -0.3958  0.4321  2.1624
  165MPD2     N 2522   3.732   0.061   1.805 -0.4558 -0.4342 -0.1856
  165MPD2    H5 2523   3.814   0.120   1.807 -1.2854  0.6775  1.3914
  165MPD2    N1 2524   3.582   4.340   1.683 -0.4940 -0.2589 -0.4552
  165MPD2    H7 2525   3.615   4.244   1.674  1.8178  0.2160  3.1382
  166TCq2    C1 2526   3.613   0.113   1.845 -0.6141  0.3088  0.4991
  166TCq2    O2 2527   3.504   0.063   1.867  0.0253 -0.6169 -0.4794
  166TCq2    C2 2528   3.630   0.249   1.878  0.0283 -0.0839  0.6448
  166TCq2    C3 2529   3.521   0.299   1.950  0.5052  0.3309  0.0820
  166TCq2    C4 2530   3.523   0.431   1.974  0.1101  0.2007  0.8821
  166TCq2    C5 2531   3.612   0.511   1.911  0.6099 -0.2209 -0.2652
  166TCq2    C6 2532   3.720   0.461   1.832  0.0008 -0.0661 -0.4725
  166TCq2    C7 2533   3.728   0.325   1.818  0.2039  0.0610  0.1103
  166TCq2    C8 2534   3.800   0.538   1.738 -0.0489 -0.8515 -0.1425
  166TCq2    O4 2535   3.897   0.484   1.686 -0.0970  0.0960 -0.3200
  166TCq2    C9 2536   3.419   0.499   2.049 -0.5249 -0.2094  0.1483
  166TCq2    O5 2537   3.315   0.432   2.084 -0.1810 -0.9376 -0.2845
  166TCq2    O6 2538   3.449   0.621   2.076 -0.1242  0.2023 -0.4558
  166TCq2    H2 2539   3.442   0.236   1.989 -1.7591  1.9069 -2.0262
  166TCq2    H3 2540   3.599   0.618   1.922 -1.2013 -0.3831 -0.8219
  166TCq2    H4 2541   3.815   0.289   1.763 -0.6447 -0.1057 -1.1352
  167TMC2    C1 2542   1.050   2.712  12.685  0.4759  0.3923 -0.1058
  167TMC2    C2 2543   0.978   2.721  12.797  0.0931  0.4236 -0.2738
  167TMC2    C3 2544   0.965   2.604  12.875 -0.0492 -0.3377 -0.3037
  167TMC2    C4 2545   1.104   2.589  12.641  0.4139 -0.2810 -0.0069
  167TMC2    C5 2546   1.103   2.480  12.725  0.5996 -0.1430  0.2510
  167TMC2    C6 2547   1.029   2.490  12.848 -0.2678  0.1934 -0.2327
  167TMC2     C 2548   1.051   2.834  12.605 -0.2780 -0.8339  1.0029
  167TMC2     O 2549   1.002   2.933  12.652 -0.1533 -0.0525 -0.3600
  167TMC2     H 2550   0.934   2.816  12.826 -1.3911 -1.2986  3.1383
  167TMC2    H1 2551   1.156   2.575  12.547 -0.7704  0.2620 -0.7412
  167TMC2    H2 2552   1.026   2.398  12.905  0.2169  0.4575  0.2198
  167TMC2    C7 2553   1.173   2.355  12.689 -0.7137  0.4500  0.3606
  167TMC2    C8 2554   0.900   2.626  13.004 -0.3551  0.5259 -0.8538
  167TMC2    O1 2555   1.129   2.254  12.743 -0.0150  0.3390 -0.1721
  167TMC2    O2 2556   0.899   2.732  13.067 -0.0482 -0.1300  0.4168
  167TMC2    O5 2557   0.864   2.509  13.055 -0.4878  0.1368  0.4264
  167TMC2    H5 2558   0.860   2.442  12.984  0.7857  0.7406 -0.2301
  168MPD2     C 2559   1.068   3.034  12.379 -0.0758 -0.1723  0.1568
  168MPD2    C1 2560   1.065   2.897  12.361  0.3951  0.1621 -0.0736
  168MPD2    C2 2561   1.065   2.846  12.233 -0.5168 -0.1974 -0.7825
  168MPD2    C3 2562   1.072   2.932  12.118  0.1340 -0.5001  0.4277
  168MPD2    C4 2563   1.069   3.067  12.140  0.3481  0.0699 -0.7171
  168MPD2    C5 2564   1.071   3.120  12.268  0.2814 -0.0349  0.4767
  168MPD2     H 2565   1.082   2.739  12.230  0.4029 -0.0236 -1.9742
  168MPD2    H1 2566   1.061   3.131  12.054 -0.6395 -1.0830 -1.4939
  168MPD2    H2 2567   1.083   3.074  12.479  0.2068 -1.8276  0.7730
  168MPD2    H3 2568   1.077   3.227  12.286 -0.9236  0.2381 -0.7936
  168MPD2     N 2569   1.079   2.888  11.984 -0.1959 -0.0960  0.2017
  168MPD2    H5 2570   1.106   2.952  11.910 -1.9722 -0.6193 -0.8958
  168MPD2    N1 2571   1.064   2.803  12.475 -0.7530 -0.2088 -0.0128
  168MPD2    H7 2572   1.056   2.703  12.455 -0.6043 -0.2226 -0.0065
  169MPD1     C 2573   3.140   2.058   8.953 -0.0692  0.4493  0.8015
  169MPD1    C1 2574   3.164   2.016   9.084  0.5741  0.9479 -0.0534
  169MPD1    C2 2575   3.279   2.061   9.142  0.0143 -0.7514 -0.2195
  169MPD1    C3 2576   3.359   2.153   9.076  0.0316  0.1254 -1.0591
  169MPD1    C4 2577   3.316   2.197   8.949  0.2971  0.1640 -0.0681
  169MPD1    C5 2578   3.202   2.154   8.886 -0.1104 -0.0106  0.1067
  169MPD1     H 2579   3.306   2.020   9.239 -1.7296 -2.8069 -0.6001
  169MPD1    H1 2580   3.376   2.272   8.899 -0.5263 -0.5957 -2.1862
  169MPD1    H2 2581   3.052   2.021   8.901 -0.9793  2.5317  0.8366
  169MPD1    H3 2582   3.171   2.188   8.788 -0.7816  1.4865  0.8416
  169MPD1     N 2583   3.478   2.196   9.134  0.3205 -0.0945 -0.2927
  169MPD1    H5 2584   3.515   2.150   9.216  0.0820  0.3021  0.0393
  169MPD1    N1 2585   3.085   1.920   9.142 -0.3062 -0.4653 -0.5785
  169MPD1    H6 2586   2.992   1.920   9.100  0.2906  0.5912 -1.9156
  169MPD1    H7 2587   3.090   1.921   9.243 -1.1138  0.9439 -0.5560
  170MPD1     C 2588   2.812   0.224  12.934  0.0210 -0.0105  0.4537
  170MPD1    C1 2589   2.740   0.337  12.909 -0.8637  0.4803  0.4179
  170MPD1    C2 2590   2.680   0.396  13.013 -0.0438 -0.2950  0.1449
  170MPD1    C3 2591   2.659   0.334  13.141 -0.8463 -0.4396  0.0100
  170MPD1    C4 2592   2.720   0.216  13.166 -0.2375 -0.3697  0.3115
  170MPD1    C5 2593   2.791   0.171  13.058  0.2128  0.4381  0.2893
  170MPD1     H 2594   2.648   0.498  12.993  2.3277  0.3897 -0.1140
  170MPD1    H1 2595   2.726   0.165  13.261 -1.9218 -0.8950  0.1334
  170MPD1    H2 2596   2.880   0.169  12.871 -0.7181  0.5918 -0.8597
  170MPD1    H3 2597   2.860   0.091  13.084 -2.6951 -1.9898  0.4790
  170MPD1     N 2598   2.597   0.410  13.237 -0.4025 -1.0026  0.1723
  170MPD1    H5 2599   2.555   0.497  13.204  2.2317  1.1015  2.3423
  170MPD1    N1 2600   2.763   0.409  12.788 -0.3740  0.3291 -0.1449
  170MPD1    H6 2601   2.682   0.468  12.770 -1.6510 -1.0296  1.1489
  170MPD1    H7 2602   2.786   0.359  12.702 -0.4841  0.0667 -0.0215
  171MPD1     C 2603   0.768   1.565  15.254 -0.1568  0.1055 -0.2734
  171MPD1    C1 2604   0.837   1.620  15.360 -0.1095  0.0208  0.1628
  171MPD1    C2 2605   0.926   1.543  15.441  0.2335 -0.4795 -0.0434
  171MPD1    C3 2606   0.937   1.404  15.404  0.2662  0.0346 -0.1584
  171MPD1    C4 2607   0.881   1.362  15.287 -0.6826 -0.2941  0.6703
  171MPD1    C5 2608   0.797   1.436  15.213 -0.4170  0.5967  0.8262
  171MPD1     H 2609   0.977   1.579  15.529 -1.4353  1.2609  0.2196
  171MPD1    H1 2610   0.906   1.263  15.251 -2.5329 -0.7243  0.5604
  171MPD1    H2 2611   0.706   1.628  15.192 -0.7335  1.1839  1.3902
  171MPD1    H3 2612   0.750   1.392  15.126 -0.2175  0.1067  0.9699
  171MPD1     N 2613   1.012   1.312  15.475 -0.3587 -0.7508  0.3851
  171MPD1    H5 2614   1.031   1.222  15.432 -1.8011 -1.2196  0.7347
  171MPD1    N1 2615   0.823   1.756  15.385 -0.2890  0.2514 -0.0566
  171MPD1    H6 2616   0.724   1.779  15.389 -0.8670 -1.9517 -1.8046
  171MPD1    H7 2617   0.865   1.789  15.471  0.2424  0.8433 -0.5385
  172MPD1     C 2618   0.435   0.715  16.786 -0.2148  0.3935  0.3319
  172MPD1    C1 2619   0.505   0.800  16.861 -0.3325  0.2903 -0.4916
  172MPD1    C2 2620   0.505   0.790  17.001  0.1750  0.6933  0.9279
  172MPD1    C3 2621   0.450   0.675  17.057 -0.1064 -0.4557 -0.6071
  172MPD1    C4 2622   0.390   0.580  16.974  0.1920 -0.4854 -0.0255
  172MPD1    C5 2623   0.382   0.601  16.840  0.4514 -0.0408  0.3002
  172MPD1     H 2624   0.560   0.867  17.052 -0.8511  0.9138  1.6984
  172MPD1    H1 2625   0.361   0.485  17.016  3.1269 -0.9956  0.8593
  172MPD1    H2 2626   0.437   0.720  16.677 -1.3919 -3.6533  0.1178
  172MPD1    H3 2627   0.345   0.536  16.761  1.0704  0.8420 -0.7255
  172MPD1     N 2628   0.461   0.640  17.192  0.5040 -0.2613  0.3549
  172MPD1    H5 2629   0.437   0.545  17.217 -0.5262 -0.5971 -1.8899
  172MPD1    N1 2630   0.570   0.914  16.805  0.1115  0.7204  0.6524
  172MPD1    H6 2631   0.636   0.964  16.865  0.1182 -0.1693  1.3841
  172MPD1    H7 2632   0.629   0.888  16.726  0.1230  0.3067  0.7969
  173MPD1     C 2633   1.004   1.031  14.246 -0.6164  0.0130 -0.1888
  173MPD1    C1 2634   1.040   1.005  14.375  0.0606 -0.3569 -0.0996
  173MPD1    C2 2635   1.112   0.893  14.399  0.4016  0.4825  0.2822
  173MPD1    C3 2636   1.170   0.822  14.293 -0.7364  0.8727 -0.6222
  173MPD1    C4 2637   1.145   0.858  14.159 -1.0130  0.1323 -0.7203
  173MPD1    C5 2638   1.050   0.960  14.133  0.1300  0.1193 -0.7723
  173MPD1     H 2639   1.121   0.853  14.499  0.5446  0.4813  0.2689
  173MPD1    H1 2640   1.188   0.804  14.075  0.5724 -0.2139  0.3323
  173MPD1    H2 2641   0.945   1.120  14.226  0.4776  1.0409  1.1152
  173MPD1    H3 2642   1.033   0.989  14.030 -2.8136  1.7205  0.1878
  173MPD1     N 2643   1.244   0.705  14.330 -0.4480  0.7214  0.4966
  173MPD1    H5 2644   1.257   0.689  14.429 -0.5420  1.5042  0.6391
  173MPD1    N1 2645   0.958   1.053  14.478  0.0390  0.0818 -0.2427
  173MPD1    H6 2646   1.014   1.057  14.563 -1.8997  0.8330  1.0192
  173MPD1    H7 2647   0.941   1.152  14.465 -0.4065 -0.2447 -2.0558
  174MPD1     C 2648   1.914   0.076  13.879  0.4610 -0.4770  0.4864
  174MPD1    C1 2649   1.943   0.132  13.999 -0.5737 -0.3207 -0.2263
  174MPD1    C2 2650   1.845   0.183  14.072  0.2403  0.3542  0.3479
  174MPD1    C3 2651   1.711   0.174  14.042  0.3854 -0.7797 -0.1567
  174MPD1    C4 2652   1.683   0.115  13.919 -0.4757 -1.0536  0.4259
  174MPD1    C5 2653   1.780   0.065  13.839  0.1790  0.0865 -0.2377
  174MPD1     H 2654   1.873   0.235  14.163  1.7497 -1.9680  1.2023
  174MPD1    H1 2655   1.578   0.101  13.895 -0.0800 -1.0341 -1.3170
  174MPD1    H2 2656   1.990   0.052  13.805  0.3683 -0.6648  0.4540
  174MPD1    H3 2657   1.750   0.028  13.742  1.7446  1.1880 -1.1234
  174MPD1     N 2658   1.607   0.231  14.112  0.5977  0.4185  0.6623
  174MPD1    H5 2659   1.513   0.233  14.073  0.6884  1.7742  0.5187
  174MPD1    N1 2660   2.079   0.158  14.026 -0.3277 -0.0879  0.4052
  174MPD1    H6 2661   2.130   0.075  13.997 -0.7769  0.3268 -1.5093
  174MPD1    H7 2662   2.090   0.160  14.128 -0.9882  0.4997  0.4648
  175MPD1     C 2663   0.670   1.570  15.770  0.6842 -0.7963 -0.2129
  175MPD1    C1 2664   0.669   1.442  15.827 -0.3860 -0.1971  0.3138
  175MPD1    C2 2665   0.566   1.416  15.916 -0.4682 -1.0224 -0.2870
  175MPD1    C3 2666   0.475   1.515  15.947 -0.8603  0.1706 -0.4111
  175MPD1    C4 2667   0.471   1.633  15.868 -0.1142  0.6271 -0.2022
  175MPD1    C5 2668   0.568   1.657  15.789 -0.2711 -0.0060 -0.7735
  175MPD1     H 2669   0.569   1.316  15.959 -1.9726 -0.2687  1.5786
  175MPD1    H1 2670   0.402   1.717  15.873 -0.2631  0.2965  2.9717
  175MPD1    H2 2671   0.751   1.613  15.712  1.5836 -0.8556  0.9943
  175MPD1    H3 2672   0.579   1.755  15.743  2.7414 -0.6546 -1.4680
  175MPD1     N 2673   0.376   1.498  16.048  0.2019  0.0277 -0.0173
  175MPD1    H5 2674   0.313   1.577  16.052  1.1029  0.8268 -1.3394
  175MPD1    N1 2675   0.775   1.355  15.812  0.3276 -0.6879 -0.1877
  175MPD1    H6 2676   0.840   1.383  15.740 -2.2538 -0.5005 -2.4559
  175MPD1    H7 2677   0.743   1.258  15.816  0.2733 -0.5215  3.1536
  176MPD1     C 2678   2.459   2.801  16.147  0.3518 -0.1930  0.0077
  176MPD1    C1 2679   2.454   2.942  16.142  0.7203  0.3438 -0.3175
  176MPD1    C2 2680   2.386   3.015  16.243 -0.5182  0.1299  0.0232
  176MPD1    C3 2681   2.331   2.948  16.352 -0.6504  0.3431  1.0133
  176MPD1    C4 2682   2.349   2.811  16.362 -0.2908 -0.0521  0.5863
  176MPD1    C5 2683   2.413   2.739  16.261 -0.2241  0.2281  0.0470
  176MPD1     H 2684   2.370   3.121  16.226  0.2315  0.2552  0.0730
  176MPD1    H1 2685   2.312   2.750  16.444 -1.7489 -2.0140 -1.5542
  176MPD1    H2 2686   2.479   2.738  16.062 -2.3122 -0.7125 -0.2436
  176MPD1    H3 2687   2.423   2.631  16.275 -0.9056 -0.1688 -2.5248
  176MPD1     N 2688   2.273   3.028  16.457 -0.5430  0.1533 -0.1088
  176MPD1    H5 2689   2.273   3.128  16.445 -1.0140  0.3857  1.7796
  176MPD1    N1 2690   2.469   3.006  16.021  0.0351 -0.1185 -0.1014
  176MPD1    H6 2691   2.546   2.962  15.970  1.7013  1.1232  1.3297
  176MPD1    H7 2692   2.499   3.102  16.039 -1.4972  0.0211  1.5595
  177MPD1     C 2693   0.147   3.333  10.006 -0.0846  0.8284  0.2593
  177MPD1    C1 2694   0.018   3.304   9.963  0.0936  0.2302 -0.1076
  177MPD1    C2 2695   4.689   3.382   9.862  0.2516 -0.4232  0.3726
  177MPD1    C3 2696   0.030   3.495   9.814  0.2491  0.5247 -0.8447
  177MPD1    C4 2697   0.160   3.521   9.858 -0.6976 -0.0087 -0.4937
  177MPD1    C5 2698   0.217   3.430   9.944 -0.2328 -0.3698  0.1073
  177MPD1     H 2699   4.590   3.358   9.826  0.4708 -1.6670  0.6113
  177MPD1    H1 2700   0.225   3.595   9.813 -1.1340  0.2299 -0.7280
  177MPD1    H2 2701   0.206   3.277  10.078 -0.5872  0.1211  0.1230
  177MPD1    H3 2702   0.324   3.431   9.957  0.0952  2.5049 -2.8773
  177MPD1     N 2703   4.692   3.565   9.702 -0.7522 -0.4700  0.1435
  177MPD1    H5 2704   4.596   3.541   9.678 -1.0523 -1.5581  2.3939
  177MPD1    N1 2705   4.696   3.183  10.006  0.6805  0.4008  0.1387
  177MPD1    H6 2706   4.594   3.181  10.011  0.6869  0.3256  0.2324
  177MPD1    H7 2707   4.714   3.184  10.106 -0.7923 -0.1858  0.4131
  178MPD1     C 2708   2.394   0.667  17.674  0.7253  0.2793 -0.6095
  178MPD1    C1 2709   2.348   0.542  17.707 -0.8280  0.0553  0.2821
  178MPD1    C2 2710   2.371   0.439  17.609  0.6662 -0.0275 -0.1269
  178MPD1    C3 2711   2.438   0.468  17.488  0.2716 -0.2885  0.0901
  178MPD1    C4 2712   2.479   0.594  17.469  0.3945 -0.2284 -0.5935
  178MPD1    C5 2713   2.465   0.691  17.566  1.0200 -0.2226 -0.4759
  178MPD1     H 2714   2.340   0.337  17.627  0.3216 -0.1299 -1.3276
  178MPD1    H1 2715   2.534   0.623  17.380  0.0222  0.6315 -0.5403
  178MPD1    H2 2716   2.386   0.751   0.033 -1.5545  0.1080 -0.6771
  178MPD1    H3 2717   2.498   0.793  17.547  0.3314  0.0253 -0.3399
  178MPD1     N 2718   2.470   0.378  17.389 -0.3388  0.1391  0.5500
  178MPD1    H5 2719   2.525   0.403  17.308  0.6439 -1.2659  0.7830
  178MPD1    N1 2720   2.274   0.526   0.121  0.1779 -0.1673  0.5498
  178MPD1    H6 2721   2.307   0.588   0.195 -0.4721  0.9308 -0.0740
  178MPD1    H7 2722   2.284   0.430   0.153  1.2639 -0.5475 -0.9394
  179MPD1     C 2723   1.748   3.173  16.782 -0.3573 -0.3471  0.1639
  179MPD1    C1 2724   1.808   3.223  16.670 -0.0174 -0.8336 -0.3129
  179MPD1    C2 2725   1.828   3.147  16.559 -0.7025 -0.1214 -0.4813
  179MPD1    C3 2726   1.803   3.013  16.569  0.2280 -0.4995  0.3242
  179MPD1    C4 2727   1.735   2.959  16.669  0.2251  0.3843 -0.0753
  179MPD1    C5 2728   1.711   3.040  16.776 -0.3544 -0.5853  0.1487
  179MPD1     H 2729   1.884   3.197  16.480 -3.0316  0.3718 -1.8140
  179MPD1    H1 2730   1.698   2.857  16.670  0.2466  0.3846  0.6708
  179MPD1    H2 2731   1.724   3.235  16.868 -1.0525  1.1806 -1.1373
  179MPD1    H3 2732   1.661   2.999  16.863 -0.4248 -1.5433 -0.3494
  179MPD1     N 2733   1.831   2.926  16.472  0.4685 -0.8908 -0.2990
  179MPD1    H5 2734   1.802   2.830  16.492 -1.4717  0.3404  2.7403
  179MPD1    N1 2735   1.838   3.357  16.666 -0.3223  0.1553  0.1898
  179MPD1    H6 2736   1.902   3.394  16.596  2.2328  0.6468  2.7677
  179MPD1    H7 2737   1.856   3.403  16.755  1.0552  0.9152 -0.4903
  180MPD1     C 2738   1.287   3.675  15.392 -0.3055 -0.4915 -0.0767
  180MPD1    C1 2739   1.374   3.725  15.300 -0.0558  0.6414  0.0156
  180MPD1    C2 2740   1.341   3.702  15.164  0.3810 -0.1045 -0.7883
  180MPD1    C3 2741   1.216   3.652  15.125  0.0136  0.0589  0.3802
  180MPD1    C4 2742   1.134   3.612  15.226 -0.0345  0.3461  0.5169
  180MPD1    C5 2743   1.167   3.620  15.359  0.3880 -0.8181  0.2028
  180MPD1     H 2744   1.401   3.736  15.080  0.2804  1.8616 -0.0703
  180MPD1    H1 2745   1.035   3.571  15.207 -0.5469  0.4313  2.9583
  180MPD1    H2 2746   1.307   3.679  15.498  3.6089 -0.5665 -0.8125
  180MPD1    H3 2747   1.096   3.581  15.431  1.4285  0.7394  2.0576
  180MPD1     N 2748   1.188   3.629  14.991 -0.3265  0.9720 -0.5121
  180MPD1    H5 2749   1.259   3.639  14.919  1.2656  0.5952  0.9855
  180MPD1    N1 2750   1.505   3.756  15.338 -0.0118 -0.1138  0.1889
  180MPD1    H6 2751   1.524   3.795  15.431  0.6600  0.2208 -0.0872
  180MPD1    H7 2752   1.546   3.821  15.271  0.5408 -1.5385 -0.8485
  181MPD1     C 2753   2.905   0.111   9.141  0.9156  0.0811  0.3626
  181MPD1    C1 2754   2.874   0.240   9.168  0.1549  0.2955  0.3735
  181MPD1    C2 2755   2.940   0.306   9.272 -0.5512  0.2659  0.2880
  181MPD1    C3 2756   3.025   0.238   9.358  0.3292 -0.3291  0.5365
  181MPD1    C4 2757   3.057   0.105   9.327 -0.3800 -0.3468  0.0444
  181MPD1    C5 2758   2.990   0.046   9.223 -0.2556  0.3599  0.1088
  181MPD1     H 2759   2.902   0.406   9.289  2.2146  1.4198 -0.4170
  181MPD1    H1 2760   3.109   0.040   9.396  1.1869  1.2621  0.4095
  181MPD1    H2 2761   2.868   0.064   9.051 -0.3625  0.5488  0.6544
  181MPD1    H3 2762   3.001   4.668   9.198  1.3539  0.2352  1.3939
  181MPD1     N 2763   3.094   0.292   9.469 -0.0622 -0.2524 -0.1936
  181MPD1    H5 2764   3.139   0.227   9.532  0.6872  0.9393  0.5036
  181MPD1    N1 2765   2.761   0.298   9.102  0.2800  0.0318  0.0008
  181MPD1    H6 2766   2.745   0.267   9.006  0.4810 -2.6664  0.8507
  181MPD1    H7 2767   2.756   0.399   9.117 -0.3145 -0.2829  1.8551
  182MPD1     C 2768   0.409   0.265   1.578  0.3641  0.0997 -0.4515
  182MPD1    C1 2769   0.291   0.266   1.649  0.1462  0.0509 -0.3002
  182MPD1    C2 2770   0.171   0.268   1.580  0.2836 -0.2830 -0.1920
  182MPD1    C3 2771   0.167   0.249   1.439  0.3283  0.0195  0.3048
  182MPD1    C4 2772   0.285   0.247   1.371 -0.1627 -0.0126  0.3894
  182MPD1    C5 2773   0.404   0.258   1.440  0.2517  0.9404 -0.0898
  182MPD1     H 2774   0.079   0.269   1.637  0.8580 -2.9426  0.7359
  182MPD1    H1 2775   0.298   0.245   1.264  0.2340  0.7459  0.4243
  182MPD1    H2 2776   0.504   0.257   1.631  0.2015 -1.0124 -0.3322
  182MPD1    H3 2777   0.500   0.256   1.391 -0.3987  0.8133 -1.3443
  182MPD1     N 2778   0.050   0.229   1.365  0.0959  0.3595 -0.6636
  182MPD1    H5 2779   0.057   0.218   1.265  0.8453 -1.8908 -0.3617
  182MPD1    N1 2780   0.291   0.241   1.785 -0.1487  0.1762  0.0592
  182MPD1    H6 2781   0.373   0.286   1.823 -0.5222 -0.0678  1.1604
  182MPD1    H7 2782   0.208   0.280   1.830  1.1087  2.2513  0.5347
  183MPD1     C 2783   3.477   0.255   9.339 -0.1267 -0.2087 -1.0266
  183MPD1    C1 2784   3.503   0.365   9.261 -0.5528 -0.2564 -0.1012
  183MPD1    C2 2785   3.610   0.445   9.292 -0.2949  0.0291 -0.3358
  183MPD1    C3 2786   3.706   0.403   9.383  0.3562  0.1561  0.0235
  183MPD1    C4 2787   3.689   0.286   9.450  0.0367  0.1044 -0.3763
  183MPD1    C5 2788   3.573   0.213   9.426 -0.3549 -0.4279 -0.4451
  183MPD1     H 2789   3.624   0.543   9.247 -1.2947 -0.3758 -1.5270
  183MPD1    H1 2790   3.753   0.243   9.526  1.0270  0.5008 -0.9958
  183MPD1    H2 2791   3.391   0.189   9.331 -0.3775  0.3473 -2.7872
  183MPD1    H3 2792   3.561   0.130   9.495 -2.1059 -1.1889 -1.6727
  183MPD1     N 2793   3.815   0.497   9.401  0.4115 -0.5327 -0.0920
  183MPD1    H5 2794   3.823   0.573   9.334  3.1141  0.6846  1.5866
  183MPD1    N1 2795   3.407   0.413   9.165 -0.1666  0.8340  0.0313
  183MPD1    H6 2796   3.356   0.328   9.141  0.0279  1.0914 -1.2618
  183MPD1    H7 2797   3.463   0.444   9.086  1.1345 -0.0222  0.6199
  184MPD1     C 2798   3.907   3.376  10.351  0.0533  0.1607  0.0162
  184MPD1    C1 2799   3.848   3.311  10.245 -0.0085  0.2134  0.5424
  184MPD1    C2 2800   3.827   3.387  10.130  0.4410  0.5957  0.0732
  184MPD1    C3 2801   3.842   3.528  10.128 -0.1432  0.3991  0.2246
  184MPD1    C4 2802   3.896   3.585  10.241  0.5792  1.1398 -0.1277
  184MPD1    C5 2803   3.926   3.515  10.349 -0.9239  0.2653  0.1458
  184MPD1     H 2804   3.784   3.339  10.043  0.2306  0.4239  0.2665
  184MPD1    H1 2805   3.913   3.692  10.242 -0.0604  1.2358  0.2891
  184MPD1    H2 2806   3.939   3.329  10.443  0.5658  0.9174  0.2253
  184MPD1    H3 2807   3.970   3.560  10.436  0.1125  3.2676 -1.9120
  184MPD1     N 2808   3.822   3.607  10.012 -0.5858  0.4198 -0.9515
  184MPD1    H5 2809   3.862   3.701  10.021 -0.2272  0.1981 -0.2296
  184MPD1    N1 2810   3.857   3.172  10.233 -0.2233 -0.0314  0.2531
  184MPD1    H6 2811   3.839   3.129  10.324  1.6783 -2.6764 -0.6104
  184MPD1    H7 2812   3.792   3.146  10.159 -1.8116 -0.0497  1.6565
  185MPD1     C 2813   3.450   4.056   9.080  0.2298 -0.1071 -0.0874
  185MPD1    C1 2814   3.388   3.956   9.153 -0.4116 -0.6334  0.1352
  185MPD1    C2 2815   3.451   3.897   9.264 -0.2448 -0.4664  0.3519
  185MPD1    C3 2816   3.578   3.942   9.302  0.1418  0.3133  0.4379
  185MPD1    C4 2817   3.634   4.038   9.225 -0.1004  0.3170 -0.9814
  185MPD1    C5 2818   3.570   4.095   9.114  0.5593  0.2209  0.1503
  185MPD1     H 2819   3.414   3.804   9.306 -3.2267  0.4092 -0.2962
  185MPD1    H1 2820   3.728   4.079   9.259  0.3797 -1.1630 -0.5297
  185MPD1    H2 2821   3.395   4.104   9.000  0.4098 -0.9153 -0.6936
  185MPD1    H3 2822   3.620   4.177   9.064 -1.2113  0.3021 -1.4969
  185MPD1     N 2823   3.659   3.886   9.404 -0.4009 -0.3309 -0.1843
  185MPD1    H5 2824   3.751   3.927   9.420 -0.0549 -1.8702  1.7869
  185MPD1    N1 2825   3.260   3.909   9.106  0.4966 -0.2454  0.4793
  185MPD1    H6 2826   3.193   3.984   9.090  1.0281  0.6482  2.4905
  185MPD1    H7 2827   3.214   3.850   9.175  1.2254 -0.6605  0.6094
  186MPD1     C 2828   2.866   2.396  16.048  0.4945 -0.2029 -0.4863
  186MPD1    C1 2829   2.929   2.511  15.993  0.0984  0.3172 -0.1848
  186MPD1    C2 2830   2.899   2.631  16.048  0.2572 -0.6386 -0.1283
  186MPD1    C3 2831   2.832   2.643  16.165  0.3567 -0.5075 -0.4148
  186MPD1    C4 2832   2.798   2.531  16.229 -0.3726  0.0872  0.2416
  186MPD1    C5 2833   2.807   2.410  16.173 -0.5034 -0.3577  0.2830
  186MPD1     H 2834   2.942   2.722  16.007 -2.5741  0.9613  0.4155
  186MPD1    H1 2835   2.749   2.538  16.325 -0.6610  1.2165  0.0070
  186MPD1    H2 2836   2.874   2.302  15.995  0.1322 -0.6814  0.3098
  186MPD1    H3 2837   2.759   2.326  16.222 -0.5217 -0.3822  0.2233
  186MPD1     N 2838   2.810   2.766  16.236  0.1868 -0.2674  0.1932
  186MPD1    H5 2839   2.769   2.747  16.327  1.4803  0.2777  0.8824
  186MPD1    N1 2840   2.996   2.492  15.874 -0.3981 -0.8050  0.1524
  186MPD1    H6 2841   3.041   2.401  15.878  0.0951 -0.5359  0.6199
  186MPD1    H7 2842   3.065   2.564  15.853  0.0783 -1.7579 -1.5573
  187MPD1     C 2843   2.004   0.215   0.356 -0.0548 -1.0822 -0.1605
  187MPD1    C1 2844   2.028   0.080   0.339 -0.0031 -0.3172 -0.0025
  187MPD1    C2 2845   2.050   0.031   0.211 -0.6835  0.0618  0.4227
  187MPD1    C3 2846   2.048   0.115   0.102 -0.1789  1.1748  0.3431
  187MPD1    C4 2847   2.037   0.252   0.124  0.0299 -0.5642 -0.6743
  187MPD1    C5 2848   2.019   0.297   0.249 -0.3132 -0.2481  0.3512
  187MPD1     H 2849   2.076   4.652   0.205 -1.1078 -0.0201  0.0182
  187MPD1    H1 2850   2.049   0.326   0.045  1.6703 -2.4449 -2.1871
  187MPD1    H2 2851   1.991   0.264   0.452 -0.2585 -1.7064  0.1256
  187MPD1    H3 2852   2.013   0.404   0.268 -0.4294 -0.4825  1.6667
  187MPD1     N 2853   2.052   0.075  17.673  0.4331 -0.2153  0.2229
  187MPD1    H5 2854   2.038   0.153  17.610  0.4563  0.2958  0.8481
  187MPD1    N1 2855   2.039   0.001   0.457 -0.2511 -0.3391  0.1569
  187MPD1    H6 2856   1.979   0.029   0.534  0.7395  0.2823  0.7091
  187MPD1    H7 2857   2.019   4.629   0.443 -0.8110 -0.5252  2.2951
  188MPD1     C 2858   2.545   4.421   9.816 -0.7391 -0.0218  0.3740
  188MPD1    C1 2859   2.470   4.453   9.709  0.0791 -0.4057  0.0627
  188MPD1    C2 2860   2.345   4.389   9.688 -0.6196  0.0453  0.2355
  188MPD1    C3 2861   2.292   4.314   9.790 -0.3522 -0.0564 -0.2815
  188MPD1    C4 2862   2.360   4.315   9.907 -0.0369 -0.1818  0.3009
  188MPD1    C5 2863   2.490   4.360   9.924  0.7079  1.1462 -0.0706
  188MPD1     H 2864   2.298   4.394   9.590 -0.4011 -1.2525  0.0634
  188MPD1    H1 2865   2.318   4.272   9.996 -0.6854  1.2269  0.6766
  188MPD1    H2 2866   2.635   4.477   9.838 -1.8267  1.6520  0.5504
  188MPD1    H3 2867   2.541   4.352  10.019 -0.8338 -1.4543  0.5352
  188MPD1     N 2868   2.159   4.256   9.782 -0.4287  0.6579 -0.0133
  188MPD1    H5 2869   2.126   4.212   9.867 -2.0517 -1.1942 -1.5974
  188MPD1    N1 2870   2.527   4.516   9.596 -0.5165  0.7357  0.0462
  188MPD1    H6 2871   2.607   4.575   9.620 -0.2125  0.9006 -1.3496
  188MPD1    H7 2872   2.459   4.583   9.562 -1.6453 -0.1268  0.6274
  189MPD1     C 2873   3.539   4.675   0.679  0.1984  0.3306  0.3406
  189MPD1    C1 2874   3.404   4.637   0.682  0.6512  0.4002 -0.0524
  189MPD1    C2 2875   3.306   4.719   0.645 -0.7267  0.5721 -0.9303
  189MPD1    C3 2876   3.341   0.122   0.619  0.1484 -0.4298 -0.5703
  189MPD1    C4 2877   3.471   0.168   0.622  0.2820 -0.1682 -0.1614
  189MPD1    C5 2878   3.566   0.074   0.642  1.3744  0.2630 -0.4853
  189MPD1     H 2879   3.202   4.687   0.651 -0.0487 -1.0906  1.8302
  189MPD1    H1 2880   3.493   0.272   0.600  0.4334 -0.2637 -0.4663
  189MPD1    H2 2881   3.618   4.611   0.717 -1.7682 -0.9861  2.1925
  189MPD1    H3 2882   3.671   0.097   0.649  1.4172 -0.2486  0.5179
  189MPD1     N 2883   3.235   0.210   0.577  0.3848 -0.4128  0.5515
  189MPD1    H5 2884   3.148   0.157   0.578 -0.3898  0.8663  0.5161
  189MPD1    N1 2885   3.381   4.504   0.722  0.1859  0.2079  0.5128
  189MPD1    H6 2886   3.444   4.475   0.796  0.2834 -1.2176 -0.1153
  189MPD1    H7 2887   3.288   4.500   0.762 -0.4099 -0.1692 -0.8956
  190MPD1     C 2888   1.476   4.061  15.440  0.4989 -0.3872 -0.1579
  190MPD1    C1 2889   1.516   3.995  15.555  0.2936 -0.4691 -0.5284
  190MPD1    C2 2890   1.644   4.027  15.606 -0.4252  0.3211 -0.8369
  190MPD1    C3 2891   1.732   4.113  15.535  0.5774 -0.9102  0.2009
  190MPD1    C4 2892   1.684   4.177  15.417  0.1486  0.3764 -0.7437
  190MPD1    C5 2893   1.558   4.154  15.379  0.5391  0.3493  0.0145
  190MPD1     H 2894   1.683   3.983  15.697 -0.8227  0.0250 -0.8113
  190MPD1    H1 2895   1.731   4.244  15.346  0.5791  1.6018  0.6741
  190MPD1    H2 2896   1.377   4.045  15.398  1.7088 -3.1907 -1.8654
  190MPD1    H3 2897   1.523   4.201  15.288 -2.0893 -0.1927  0.7618
  190MPD1     N 2898   1.855   4.136  15.584 -0.0631  0.0799  0.4116
  190MPD1    H5 2899   1.894   4.076  15.656 -1.0893  0.5249  1.3380
  190MPD1    N1 2900   1.445   3.887  15.612 -0.1631 -0.2319 -0.4636
  190MPD1    H6 2901   1.349   3.921  15.623 -0.2177 -0.6353  0.3282
  190MPD1    H7 2902   1.472   3.874  15.710  1.8323  0.0664 -0.9737
  191MPD1     C 2903   1.361   0.706  13.374 -0.5104 -0.5311  0.4207
  191MPD1    C1 2904   1.231   0.754  13.364 -0.0946 -0.3462  0.4957
  191MPD1    C2 2905   1.209   0.865  13.277 -0.5930  0.3172  0.5028
  191MPD1    C3 2906   1.322   0.932  13.211  0.3868  0.0860  0.3901
  191MPD1    C4 2907   1.449   0.886  13.237 -0.2047 -0.2183  0.5189
  191MPD1    C5 2908   1.463   0.780  13.319  0.4334  0.2905  0.0800
  191MPD1     H 2909   1.107   0.901  13.271  1.0341  4.9398  0.3800
  191MPD1    H1 2910   1.535   0.935  13.194  0.1867 -0.1081  1.4155
  191MPD1    H2 2911   1.383   0.610  13.420 -2.4957 -0.1124  2.2574
  191MPD1    H3 2912   1.561   0.741  13.344 -0.9417 -1.5965  2.4870
  191MPD1     N 2913   1.302   1.048  13.132  0.1352  0.2857  0.6387
  191MPD1    H5 2914   1.210   1.090  13.124 -0.6820 -1.8584 -1.5294
  191MPD1    N1 2915   1.118   0.681  13.392 -0.2026 -0.4469  0.6713
  191MPD1    H6 2916   1.140   0.621  13.471  1.5360 -1.4094 -0.5301
  191MPD1    H7 2917   1.040   0.736  13.427  1.2762  0.4850  2.4595
  192MPD1     C 2918   0.676   1.623  13.206 -0.4339  0.3978 -1.0017
  192MPD1    C1 2919   0.794   1.694  13.187  0.3254 -0.3399  0.1222
  192MPD1    C2 2920   0.896   1.625  13.128  0.1851  0.0239  0.1934
  192MPD1    C3 2921   0.876   1.498  13.073 -0.1662 -0.4334  0.3749
  192MPD1    C4 2922   0.754   1.434  13.088  0.4646  0.1720 -0.1223
  192MPD1    C5 2923   0.657   1.496  13.162 -0.7541 -0.2101 -0.2151
  192MPD1     H 2924   0.997   1.666  13.130  0.1278  0.1679  0.1512
  192MPD1    H1 2925   0.750   1.334  13.047 -2.1554 -0.0321  0.6394
  192MPD1    H2 2926   0.593   1.672  13.255 -1.1145 -1.4450 -0.2990
  192MPD1    H3 2927   0.563   1.446  13.182 -0.6608 -0.1824  0.2870
  192MPD1     N 2928   0.975   1.425  13.010 -0.0518  0.5922 -0.1133
  192MPD1    H5 2929   0.946   1.328  12.997  0.5281  0.5439 -1.0597
  192MPD1    N1 2930   0.814   1.806  13.275  0.0324  0.1322 -0.4848
  192MPD1    H6 2931   0.882   1.876  13.247 -0.1456 -0.4204 -2.2984
  192MPD1    H7 2932   0.728   1.856  13.295 -0.0170  0.5268 -1.7048
  193MPD1     C 2933   1.235   1.246  16.448  0.3367 -0.6102 -0.4065
  193MPD1    C1 2934   1.165   1.317  16.543  0.2514 -0.6499 -0.2890
  193MPD1    C2 2935   1.236   1.396  16.627 -0.7290  0.2554 -0.8639
  193MPD1    C3 2936   1.374   1.403  16.629  0.5620 -0.1608  0.0059
  193MPD1    C4 2937   1.444   1.329  16.537 -0.3634 -0.0337 -0.8153
  193MPD1    C5 2938   1.372   1.253  16.449  0.2824  0.1326 -0.8528
  193MPD1     H 2939   1.178   1.442  16.707  0.0316 -3.2448  1.7164
  193MPD1    H1 2940   1.552   1.324  16.531 -0.4867 -0.6578 -2.6500
  193MPD1    H2 2941   1.200   1.184  16.366 -0.5113 -1.4825  0.6041
  193MPD1    H3 2942   1.422   1.195  16.372 -0.1411 -1.4737  0.1072
  193MPD1     N 2943   1.449   1.484  16.721  0.2733  0.5077 -0.1754
  193MPD1    H5 2944   1.550   1.476  16.722 -0.1289 -3.9340  3.3273
  193MPD1    N1 2945   1.023   1.319  16.540  0.3142  0.0299  0.5762
  193MPD1    H6 2946   0.987   1.224  16.532 -1.7579  0.8604  0.1849
  193MPD1    H7 2947   0.980   1.360  16.622  0.6032  1.9214 -0.2164
  194MPD1     C 2948   0.175   3.417  16.504  0.0609 -0.5165 -1.1477
  194MPD1    C1 2949   0.171   3.403  16.646  1.0575  0.1450  0.5145
  194MPD1    C2 2950   0.050   3.408  16.711 -0.2094 -0.5918 -0.2706
  194MPD1    C3 2951   4.655   3.381  16.643  0.0421  0.1547  0.1971
  194MPD1    C4 2952   4.662   3.367  16.509  0.6902 -0.3774  0.0651
  194MPD1    C5 2953   0.053   3.395  16.443 -0.7796  0.1286  0.4747
  194MPD1     H 2954   0.057   3.419  16.818  2.0105 -1.8167 -0.2959
  194MPD1    H1 2955   4.573   3.341  16.453  1.2174 -1.0885 -0.4369
  194MPD1    H2 2956   0.270   3.431  16.454 -0.0592  0.2388 -1.1649
  194MPD1    H3 2957   0.064   3.392  16.335  0.0721  0.4165  0.5483
  194MPD1     N 2958   4.525   3.362  16.707 -0.3845  0.4029  0.5690
  194MPD1    H5 2959   4.455   3.319  16.647 -1.3870  2.7202  0.0669
  194MPD1    N1 2960   0.293   3.411  16.711  0.0654 -0.3014 -0.2088
  194MPD1    H6 2961   0.300   3.343  16.786  3.5002  2.9326  2.4141
  194MPD1    H7 2962   0.360   3.383  16.640  1.0316  1.4455  0.0190
  195MPD1     C 2963   2.095   4.197  17.316 -0.0360  0.3920 -0.2937
  195MPD1    C1 2964   2.129   4.164  17.447 -0.3101 -0.0613 -0.0404
  195MPD1    C2 2965   2.073   4.048  17.500 -0.4342 -0.2108 -0.4308
  195MPD1    C3 2966   1.973   3.975  17.434  1.4529  0.0270  0.1859
  195MPD1    C4 2967   1.943   4.013  17.303  0.3128 -0.0161 -0.7057
  195MPD1    C5 2968   2.001   4.126  17.249 -0.7443  0.0290 -0.6028
  195MPD1     H 2969   2.098   4.012  17.600  1.3850 -0.2502 -0.8959
  195MPD1    H1 2970   1.865   3.961  17.249 -0.2237  0.8775 -0.7885
  195MPD1    H2 2971   2.147   4.283  17.273 -0.1931 -0.2068 -1.6490
  195MPD1    H3 2972   1.982   4.153  17.146 -2.2081 -4.6858 -1.5542
  195MPD1     N 2973   1.902   3.874  17.493  0.0503 -0.3194  0.8729
  195MPD1    H5 2974   1.840   3.823  17.432  0.3460  0.1700  0.1584
  195MPD1    N1 2975   2.250   4.214  17.499  0.6167 -0.1880 -0.0016
  195MPD1    H6 2976   2.258   4.208  17.600  0.3855 -2.0738 -0.0881
  195MPD1    H7 2977   2.269   4.307  17.463  2.1227 -1.0550 -1.4682
  196MPD1     C 2978   0.084   4.375   1.432 -0.0039  0.2475 -0.1406
  196MPD1    C1 2979   0.146   4.454   1.333 -0.0902  0.0463  0.3544
  196MPD1    C2 2980   0.270   4.415   1.280 -0.4616  0.5392  0.1296
  196MPD1    C3 2981   0.314   4.288   1.301 -0.1277 -0.3936  0.1067
  196MPD1    C4 2982   0.249   4.203   1.387  1.0050 -0.2185  0.4271
  196MPD1    C5 2983   0.136   4.249   1.453 -0.1283  1.1846  0.0292
  196MPD1     H 2984   0.329   4.481   1.216 -0.4113  1.2301  0.8815
  196MPD1    H1 2985   0.281   4.105   1.418  1.8572 -0.3239 -0.7644
  196MPD1    H2 2986   0.002   4.410   1.495 -1.0726 -3.1869  0.3740
  196MPD1    H3 2987   0.098   4.176   1.524  0.7784 -0.2178 -0.9196
  196MPD1     N 2988   0.432   4.237   1.235  0.1168 -0.2486  0.6209
  196MPD1    H5 2989   0.443   4.137   1.248 -0.9340 -0.7610 -2.3006
  196MPD1    N1 2990   0.104   4.586   1.321  0.4118 -0.0314  0.2163
  196MPD1    H6 2991   0.115   4.624   1.227 -0.3064  0.4379  0.3290
  196MPD1    H7 2992   0.012   4.604   1.360  0.7409  1.4449  0.3058
  197MPD1     C 2993   0.208   1.661   0.275  0.2400  0.5549  0.6573
  197MPD1    C1 2994   0.085   1.727   0.295  0.2288 -0.4261 -0.2211
  197MPD1    C2 2995   0.024   1.806   0.199  0.6471 -0.3529 -0.8556
  197MPD1    C3 2996   0.084   1.816   0.076  0.5555 -0.3164 -0.1691
  197MPD1    C4 2997   0.209   1.762   0.058 -0.2665 -0.5677 -0.2356
  197MPD1    C5 2998   0.271   1.691   0.154 -0.3068 -0.0499 -0.0151
  197MPD1     H 2999   4.664   1.861   0.231  1.9484  2.4637 -2.1384
  197MPD1    H1 3000   0.249   1.772  17.665 -0.5920  1.3714 -0.1659
  197MPD1    H2 3001   0.255   1.590   0.342  1.1941 -1.7403 -2.4056
  197MPD1    H3 3002   0.368   1.648   0.134 -1.2253 -0.4471 -3.5138
  197MPD1     N 3003   0.042   1.905  17.678 -0.1138 -0.1168  0.2038
  197MPD1    H5 3004   0.107   1.896  17.600  2.5529  1.1671  2.2910
  197MPD1    N1 3005   0.029   1.714   0.423 -0.0667 -0.3605  0.0958
  197MPD1    H6 3006   0.025   1.615   0.446 -2.0338 -0.6832 -1.5472
  197MPD1    H7 3007   4.656   1.735   0.422  0.4219  1.8730 -2.4780
  198MPD1     C 3008   1.605   0.899  16.411  0.1196  0.1724  0.6649
  198MPD1    C1 3009   1.697   0.822  16.477  0.0396 -0.1058  0.6708
  198MPD1    C2 3010   1.824   0.805  16.422 -0.0495 -0.1808  0.6027
  198MPD1    C3 3011   1.862   0.883  16.310  0.1934 -0.4887 -0.1460
  198MPD1    C4 3012   1.770   0.963  16.252 -0.1198  0.1135 -0.0277
  198MPD1    C5 3013   1.639   0.965  16.300 -0.3304  0.1757  0.0124
  198MPD1     H 3014   1.897   0.752  16.481  0.4089 -1.0772 -0.7708
  198MPD1    H1 3015   1.797   1.023  16.165  0.6647  0.1685  0.2525
  198MPD1    H2 3016   1.503   0.911  16.448 -1.0213 -3.6927 -1.2807
  198MPD1    H3 3017   1.563   1.021  16.246  1.1284  0.6220 -1.5899
  198MPD1     N 3018   1.991   0.874  16.257  0.1229 -0.1327 -0.0754
  198MPD1    H5 3019   2.060   0.829  16.316  1.3140  2.4577  0.4977
  198MPD1    N1 3020   1.660   0.747  16.592 -0.1072 -0.2733 -0.7581
  198MPD1    H6 3021   1.740   0.739  16.655 -0.8249  1.8281  0.3893
  198MPD1    H7 3022   1.582   0.790  16.641 -0.5232  0.0682 -1.7131
  199MPD1     C 3023   4.033   0.721   9.811 -0.3048  0.0970 -0.2301
  199MPD1    C1 3024   4.077   0.850   9.796 -0.2396 -0.0301 -0.8805
  199MPD1    C2 3025   3.986   0.953   9.778 -0.3439 -0.1468 -0.2037
  199MPD1    C3 3026   3.854   0.934   9.761  0.2722  0.1582  0.0612
  199MPD1    C4 3027   3.807   0.805   9.762  0.0513  0.4973 -0.1477
  199MPD1    C5 3028   3.901   0.698   9.780  0.0447 -0.7735 -0.1622
  199MPD1     H 3029   4.029   1.052   9.776  0.3340 -0.4438 -0.4577
  199MPD1    H1 3030   3.703   0.775   9.758  0.2262 -0.4032  1.8851
  199MPD1    H2 3031   4.099   0.640   9.842 -1.2556 -0.6767 -0.2439
  199MPD1    H3 3032   3.872   0.593   9.783 -0.7374 -0.5289  1.0368
  199MPD1     N 3033   3.764   1.036   9.718 -0.1467  0.1314  0.3813
  199MPD1    H5 3034   3.668   1.011   9.695 -0.4124  1.1966  0.3509
  199MPD1    N1 3035   4.215   0.874   9.815  0.7101 -0.3344 -0.3948
  199MPD1    H6 3036   4.248   0.954   9.761 -1.2798  1.5268  1.1616
  199MPD1    H7 3037   4.273   0.797   9.781  0.4157 -0.7858  0.1289
  200MPD1     C 3038   3.232   0.964  14.049  0.3934  1.2613  0.2028
  200MPD1    C1 3039   3.178   1.053  13.966  0.2052  0.2192 -0.5450
  200MPD1    C2 3040   3.207   1.189  13.975  0.4669 -0.3755  0.4929
  200MPD1    C3 3041   3.301   1.234  14.065  1.2614 -0.2767 -0.4740
  200MPD1    C4 3042   3.370   1.143  14.140 -0.0826 -0.0077 -0.1337
  200MPD1    C5 3043   3.333   1.004  14.137 -0.5608 -0.3109 -0.1216
  200MPD1     H 3044   3.141   1.259  13.926  3.7841  2.3130 -0.1027
  200MPD1    H1 3045   3.455   1.169  14.201 -1.6968  2.6284  1.0027
  200MPD1    H2 3046   3.204   0.860  14.043  1.1433  1.1119 -0.6418
  200MPD1    H3 3047   3.385   0.921  14.183  2.1273 -0.2846 -3.1230
  200MPD1     N 3048   3.324   1.371  14.062 -0.4333  0.3498 -0.4312
  200MPD1    H5 3049   3.268   1.424  13.995  0.3815  1.4304 -0.2703
  200MPD1    N1 3050   3.077   1.012  13.874  0.0636 -0.0515  0.3965
  200MPD1    H6 3051   3.078   1.068  13.789  0.9602  0.3067  0.6398
  200MPD1    H7 3052   3.099   0.918  13.843  0.2144  0.3704 -0.7644
  201MPD1     C 3053   1.132   0.235  12.826 -0.1144 -0.5717  0.9819
  201MPD1    C1 3054   1.141   0.287  12.958  0.0158 -1.0791 -0.3839
  201MPD1    C2 3055   1.077   0.209  13.058 -0.6820 -0.4295  0.5508
  201MPD1    C3 3056   1.004   0.097  13.022  0.3442 -0.0931 -0.1959
  201MPD1    C4 3057   1.012   0.050  12.899  0.1738  0.3875  0.0843
  201MPD1    C5 3058   1.081   0.114  12.808  0.0044 -0.1586 -1.1750
  201MPD1     H 3059   1.084   0.236  13.162  1.5085 -0.5399  0.4381
  201MPD1    H1 3060   0.946   4.702  12.855 -1.2957  0.5350  2.0202
  201MPD1    H2 3061   1.158   0.290  12.736 -1.5504  0.2176  1.0490
  201MPD1    H3 3062   1.074   0.062  12.714 -1.3377 -3.3499  0.6805
  201MPD1     N 3063   0.927   0.036  13.123  0.7599 -0.2049 -0.6040
  201MPD1    H5 3064   0.928   0.087  13.211  0.0797  0.3006 -0.8901
  201MPD1    N1 3065   1.228   0.397  12.996  0.7307  0.0703 -0.1559
  201MPD1    H6 3066   1.252   0.452  12.913  0.2486  1.2004  0.4540
  201MPD1    H7 3067   1.186   0.457  13.066 -2.3841 -0.7362 -1.3316
  202MPD1     C 3068   0.450   4.278   9.000  0.6696  0.0936  0.4152
  202MPD1    C1 3069   0.349   4.365   8.992  0.2724 -0.6801 -0.1205
  202MPD1    C2 3070   0.330   4.426   9.112 -0.1076 -0.5176 -0.1740
  202MPD1    C3 3071   0.366   4.373   9.233 -0.0337  0.3242 -0.5114
  202MPD1    C4 3072   0.437   4.262   9.240 -0.5672 -0.5339 -0.2464
  202MPD1    C5 3073   0.477   4.214   9.118  0.4456 -0.5128  0.1453
  202MPD1     H 3074   0.265   4.512   9.100  0.9512  0.1715 -0.9993
  202MPD1    H1 3075   0.477   4.223   9.333 -0.3950 -1.2809 -0.6342
  202MPD1    H2 3076   0.490   4.235   8.909  4.2268  0.9139  1.6221
  202MPD1    H3 3077   0.558   4.142   9.115  1.8245  0.9464  2.1310
  202MPD1     N 3078   0.341   4.437   9.357  0.5092  0.0372 -0.6697
  202MPD1    H5 3079   0.384   4.393   9.437 -2.4157  0.3242  1.0741
  202MPD1    N1 3080   0.327   4.439   8.872 -0.0274 -0.3877 -0.1184
  202MPD1    H6 3081   0.243   4.497   8.874 -0.2993 -0.8368  1.8448
  202MPD1    H7 3082   0.318   4.383   8.788  0.1136  0.3463 -0.6236
  203MPD1     C 3083   3.824   0.978  12.405 -0.0506 -0.4316  0.1977
  203MPD1    C1 3084   3.869   0.890  12.308 -0.1260 -0.5833 -0.5267
  203MPD1    C2 3085   3.856   0.758  12.330  0.7280 -0.0584 -0.2973
  203MPD1    C3 3086   3.798   0.710  12.445 -0.0925  0.3222 -0.1824
  203MPD1    C4 3087   3.738   0.793  12.536  0.6059 -0.2668 -0.3588
  203MPD1    C5 3088   3.759   0.930  12.511 -0.2717  1.0773  0.0056
  203MPD1     H 3089   3.903   0.690  12.260  1.1755  0.1522 -0.2010
  203MPD1    H1 3090   3.668   0.774  12.617 -0.0490  1.0797 -0.6124
  203MPD1    H2 3091   3.836   1.085  12.395 -0.7165 -0.5414 -1.8069
  203MPD1    H3 3092   3.715   1.008  12.573  1.2721  0.5537  1.7638
  203MPD1     N 3093   3.778   0.567  12.446 -0.1319  0.2063 -0.7115
  203MPD1    H5 3094   3.803   0.517  12.362  0.4887  0.3727 -0.6247
  203MPD1    N1 3095   3.911   0.935  12.185  0.4130 -0.4923 -0.1507
  203MPD1    H6 3096   3.942   0.857  12.129 -1.2133 -1.0065 -0.3479
  203MPD1    H7 3097   3.977   1.013  12.181 -1.1920  0.8727 -0.2886
  204MPD1     C 3098   3.475   1.791   0.174 -0.4014  0.1096 -0.7654
  204MPD1    C1 3099   3.544   1.679   0.207 -0.4496 -0.0929  0.5534
  204MPD1    C2 3100   3.589   1.606   0.099  0.6301  0.1430 -0.0514
  204MPD1    C3 3101   3.581   1.641  17.673 -0.3523  0.9512 -0.3769
  204MPD1    C4 3102   3.494   1.746  17.642 -0.0136  0.1941  0.8633
  204MPD1    C5 3103   3.444   1.818   0.041  0.4859  0.4362 -0.0085
  204MPD1     H 3104   3.631   1.508   0.114 -0.4052  0.0198  1.9984
  204MPD1    H1 3105   3.470   1.775  17.540 -1.6154 -2.0816  0.6046
  204MPD1    H2 3106   3.428   1.856   0.246  1.1555  0.8218 -0.3885
  204MPD1    H3 3107   3.382   1.906   0.033 -0.6580 -0.3212  0.6416
  204MPD1     N 3108   3.644   1.557  17.578 -0.6626  0.8969 -0.1639
  204MPD1    H5 3109   3.679   1.472  17.622 -3.4954  0.2018  0.7622
  204MPD1    N1 3110   3.531   1.620   0.328 -0.1827  0.0232 -0.0660
  204MPD1    H6 3111   3.608   1.560   0.355 -0.2614 -0.1309 -0.1813
  204MPD1    H7 3112   3.520   1.692   0.399 -0.5374  0.4892 -0.5937
  205MPD1     C 3113   4.074   0.083  16.525  0.4540  0.5019  0.1111
  205MPD1    C1 3114   4.204   0.086  16.574  0.5825 -0.3539  0.0899
  205MPD1    C2 3115   4.224   0.144  16.696 -0.2092  0.5743 -0.1568
  205MPD1    C3 3116   4.112   0.193  16.768 -0.6490 -0.0394 -0.3234
  205MPD1    C4 3117   3.982   0.187  16.711 -0.1725  0.1276 -0.7426
  205MPD1    C5 3118   3.961   0.138  16.589 -0.2526  0.1705  0.3003
  205MPD1     H 3119   4.314   0.134  16.755 -0.6616  0.3321  0.4890
  205MPD1    H1 3120   3.891   0.213  16.765 -0.0744  3.5256 -2.2025
  205MPD1    H2 3121   4.050   0.056  16.423  1.4008  0.6188 -0.1492
  205MPD1    H3 3122   3.863   0.145  16.544  1.4775  0.8719 -3.3769
  205MPD1     N 3123   4.122   0.256  16.899  0.1230 -0.3821  1.1626
  205MPD1    H5 3124   4.218   0.254  16.933 -0.1720 -0.8722  1.9690
  205MPD1    N1 3125   4.312   0.032  16.501  0.1033 -0.4315  0.2727
  205MPD1    H6 3126   4.397   0.015  16.553  1.3561  0.6707 -1.4158
  205MPD1    H7 3127   4.283   4.683  16.439 -1.1901  2.2769 -2.4513
  206MPD1     C 3128   3.897   2.866  16.538  0.0394 -0.5582 -0.0147
  206MPD1    C1 3129   3.871   3.002  16.548 -0.1214  0.1959  0.3563
  206MPD1    C2 3130   3.835   3.080  16.434  0.3737 -0.2498 -0.2118
  206MPD1    C3 3131   3.830   3.020  16.312  0.4529 -0.3078  0.2202
  206MPD1    C4 3132   3.859   2.883  16.302 -0.7248 -0.2608  0.3220
  206MPD1    C5 3133   3.897   2.811  16.414 -0.3186 -0.5688 -0.3415
  206MPD1     H 3134   3.810   3.185  16.449  0.0267 -0.5468  1.3079
  206MPD1    H1 3135   3.853   2.831  16.207  3.0003 -0.1417  0.0294
  206MPD1    H2 3136   3.918   2.805  16.625 -1.3829  0.9089  1.3469
  206MPD1    H3 3137   3.923   2.707  16.396 -1.2763 -1.1842  1.8971
  206MPD1     N 3138   3.803   3.087  16.192 -0.0650  0.3349 -0.2130
  206MPD1    H5 3139   3.796   3.038  16.103  2.0569 -0.8945  0.3148
  206MPD1    N1 3140   3.861   3.057  16.676 -0.1153  0.6047  0.0129
  206MPD1    H6 3141   3.917   3.003  16.742  2.6079  2.3893 -0.8337
  206MPD1    H7 3142   3.882   3.156  16.688 -0.2419  0.7269 -0.7593
  207MPD1     C 3143   1.419   0.738   9.430 -0.3456  0.2008  0.6372
  207MPD1    C1 3144   1.475   0.853   9.387  0.2466  0.1084 -0.0170
  207MPD1    C2 3145   1.493   0.950   9.481 -0.2416  0.2663 -0.2483
  207MPD1    C3 3146   1.448   0.935   9.613 -0.7831 -0.4704 -0.2379
  207MPD1    C4 3147   1.388   0.820   9.651  0.0687  0.4641 -0.2214
  207MPD1    C5 3148   1.365   0.721   9.558  0.4171  0.1003  0.5866
  207MPD1     H 3149   1.551   1.036   9.451  0.7806 -0.4998 -0.4657
  207MPD1    H1 3150   1.355   0.799   9.752 -0.8109  0.2639 -0.5489
  207MPD1    H2 3151   1.408   0.655   9.362 -0.4091 -0.1644  1.0904
  207MPD1    H3 3152   1.316   0.628   9.583  1.7507 -1.0140 -0.8971
  207MPD1     N 3153   1.457   1.029   9.710 -0.2679 -0.5126  0.1089
  207MPD1    H5 3154   1.427   1.005   9.803  1.3637 -1.8223  0.2867
  207MPD1    N1 3155   1.526   0.859   9.253 -0.0102  0.7019  0.5726
  207MPD1    H6 3156   1.548   0.955   9.230  1.1039  0.1952 -0.4701
  207MPD1    H7 3157   1.481   0.806   9.178 -2.9714  1.1040  2.0565
  208MPD1     C 3158   0.470   0.215  17.500 -0.1757 -0.5568  0.0494
  208MPD1    C1 3159   0.437   0.086  17.469 -0.2704 -0.0674 -0.1996
  208MPD1    C2 3160   0.359   0.015  17.557 -0.2392  0.5976  0.0186
  208MPD1    C3 3161   0.313   0.072  17.671  0.1660  0.1548 -0.3530
  208MPD1    C4 3162   0.342   0.204  17.700  0.1080  0.3846  0.3412
  208MPD1    C5 3163   0.412   0.276  17.609 -0.4196 -0.3341  0.2674
  208MPD1     H 3164   0.334   4.638  17.537  2.1737 -0.3464  1.8593
  208MPD1    H1 3165   0.292   0.257   0.072 -0.5991 -0.2160  0.2914
  208MPD1    H2 3166   0.538   0.273  17.438  1.2829 -1.3655  0.8833
  208MPD1    H3 3167   0.433   0.377  17.640  0.8351 -0.2460 -0.8517
  208MPD1     N 3168   0.217   4.718   0.032 -0.1836 -0.4231  0.0691
  208MPD1    H5 3169   0.206   4.626  17.697 -1.8958 -0.2848  0.2085
  208MPD1    N1 3170   0.518   0.015  17.380 -0.2000 -0.7792 -0.1181
  208MPD1    H6 3171   0.527   0.075  17.298 -0.2385  1.3771  1.4837
  208MPD1    H7 3172   0.477   4.653  17.350 -0.6298 -0.9939  1.1314
  209MPD1     C 3173   2.021   0.696  11.551  0.2389  0.4204 -0.3116
  209MPD1    C1 3174   1.989   0.830  11.576  0.4799 -0.5766 -0.0847
  209MPD1    C2 3175   1.956   0.918  11.469 -0.3138 -0.1157  1.2994
  209MPD1    C3 3176   1.958   0.867  11.335 -0.0107  0.2677 -0.4824
  209MPD1    C4 3177   2.004   0.741  11.317 -0.1817 -0.4043 -0.1488
  209MPD1    C5 3178   2.044   0.661  11.425 -0.6937  0.1642 -0.7583
  209MPD1     H 3179   1.937   1.025  11.473 -0.7681 -0.1573  0.2522
  209MPD1    H1 3180   2.031   0.709  11.217  0.0550  0.2468 -0.2927
  209MPD1    H2 3181   2.052   0.625  11.627  2.8554  1.0901 -0.7685
  209MPD1    H3 3182   2.078   0.559  11.414  1.5579  0.6447  1.9322
  209MPD1     N 3183   1.935   0.954  11.228 -0.8227 -0.2789  0.3816
  209MPD1    H5 3184   1.930   1.053  11.251 -0.5139 -0.2725  0.4255
  209MPD1    N1 3185   1.987   0.873  11.713 -0.1937 -0.2014 -0.5539
  209MPD1    H6 3186   2.055   0.827  11.774  0.1940  0.2502 -0.6444
  209MPD1    H7 3187   1.979   0.974  11.718 -0.2308 -0.1706 -1.1832
  210MPD1     C 3188   2.364   1.722  11.098  0.0371 -0.2606  0.1775
  210MPD1    C1 3189   2.327   1.695  10.967  0.5223 -0.4273  0.0955
  210MPD1    C2 3190   2.248   1.585  10.940  0.0775  0.0331 -0.6570
  210MPD1    C3 3191   2.217   1.491  11.045  0.3066  0.2114  0.3949
  210MPD1    C4 3192   2.253   1.525  11.173  0.6129  0.0602  0.2403
  210MPD1    C5 3193   2.321   1.638  11.210  0.2139 -0.0965 -0.1136
  210MPD1     H 3194   2.212   1.563  10.840  0.1745 -1.7754 -0.3072
  210MPD1    H1 3195   2.226   1.460  11.255 -0.7779  1.1464  0.6513
  210MPD1    H2 3196   2.420   1.813  11.117 -1.0431  0.2487  0.9246
  210MPD1    H3 3197   2.343   1.646  11.316  1.0161  2.9925 -0.5163
  210MPD1     N 3198   2.145   1.372  11.028 -0.3492 -0.6320  0.1110
  210MPD1    H5 3199   2.111   1.320  11.108  0.7053  0.7193  1.4144
  210MPD1    N1 3200   2.352   1.788  10.865  0.2466 -0.7868  0.0750
  210MPD1    H6 3201   2.373   1.752  10.772 -0.8938 -2.8275  0.6079
  210MPD1    H7 3202   2.428   1.852  10.890 -0.5232 -0.0651  0.5752
  211MPD1     C 3203   0.078   0.826  15.403 -0.1507 -0.1132 -0.4102
  211MPD1    C1 3204   0.163   0.872  15.498  0.1588 -0.3349 -0.0109
  211MPD1    C2 3205   0.127   0.877  15.631 -0.7947  0.5972 -0.0473
  211MPD1    C3 3206   0.004   0.823  15.672 -0.0285  0.6025  0.0582
  211MPD1    C4 3207   4.644   0.778  15.574  0.1064  0.1659 -0.6348
  211MPD1    C5 3208   4.683   0.779  15.441 -0.0086 -0.2802 -0.8095
  211MPD1     H 3209   0.195   0.937  15.691 -2.4389 -1.2231  3.6990
  211MPD1    H1 3210   4.549   0.730  15.597 -1.1307  2.0731 -1.7768
  211MPD1    H2 3211   0.102   0.834  15.298 -2.8706  1.8740 -0.8761
  211MPD1    H3 3212   4.609   0.742  15.371  0.5708 -0.6596 -1.2210
  211MPD1     N 3213   4.692   0.842  15.806  0.5108 -0.1864 -0.1498
  211MPD1    H5 3214   0.028   0.885  15.873 -1.4303  1.1525  0.8116
  211MPD1    N1 3215   0.290   0.893  15.451  0.2946  0.4630  0.0675
  211MPD1    H6 3216   0.281   0.934  15.358 -0.1982 -1.5434 -0.7693
  211MPD1    H7 3217   0.349   0.957  15.503  0.7161 -1.3453  1.8177
  212MPD1     C 3218   3.539   3.941  16.261  0.0066  0.7719  1.1287
  212MPD1    C1 3219   3.492   3.992  16.385 -0.6035  0.3018 -0.1628
  212MPD1    C2 3220   3.422   3.902  16.462 -0.3202 -0.2037 -0.2258
  212MPD1    C3 3221   3.429   3.768  16.433  0.0400 -0.1496 -0.5174
  212MPD1    C4 3222   3.486   3.722  16.313  0.0945  0.3380  0.0761
  212MPD1    C5 3223   3.538   3.809  16.222 -0.1536 -0.0187  0.8469
  212MPD1     H 3224   3.382   3.943  16.555 -0.2817  0.7611 -0.6335
  212MPD1    H1 3225   3.489   3.615  16.291  0.8293  0.3766  0.0042
  212MPD1    H2 3226   3.569   4.007  16.180 -2.6415 -1.4421 -1.6707
  212MPD1    H3 3227   3.571   3.789  16.121 -1.8675 -2.9171  0.8620
  212MPD1     N 3228   3.365   3.675  16.518  0.0674  0.2412  0.2265
  212MPD1    H5 3229   3.352   3.584  16.475  0.4575 -0.1480  0.9388
  212MPD1    N1 3230   3.471   4.129  16.404 -0.2261 -1.2818 -0.6353
  212MPD1    H6 3231   3.540   4.191  16.361 -0.7968 -0.4150 -0.3144
  212MPD1    H7 3232   3.474   4.154  16.503 -0.0344 -3.7599 -0.0326
  213MPD1     C 3233   1.252   4.178  15.771  0.2052 -0.4523  0.3430
  213MPD1    C1 3234   1.167   4.111  15.684  0.6875  0.1730 -0.3503
  213MPD1    C2 3235   1.153   4.182  15.569  0.4695 -0.2658  0.4500
  213MPD1    C3 3236   1.166   4.317  15.553 -0.2778 -0.0826 -0.0549
  213MPD1    C4 3237   1.215   4.387  15.657 -0.1809 -0.2179  0.2291
  213MPD1    C5 3238   1.259   4.316  15.763 -0.6338 -0.0122 -0.2550
  213MPD1     H 3239   1.127   4.117  15.486  1.6600  1.9228 -1.6104
  213MPD1    H1 3240   1.236   4.492  15.638 -0.1812  0.2225  2.6781
  213MPD1    H2 3241   1.288   4.140  15.865 -1.6587  0.7246  1.5237
  213MPD1    H3 3242   1.310   4.365  15.846  1.6165 -1.3002 -0.8749
  213MPD1     N 3243   1.129   4.363  15.420 -0.0346 -0.3770  0.4997
  213MPD1    H5 3244   1.108   4.296  15.347 -1.7125 -1.3233  1.8500
  213MPD1    N1 3245   1.166   3.968  15.685 -0.6304  0.0004 -0.1424
  213MPD1    H6 3246   1.092   3.930  15.627 -1.2138 -1.7587  1.7523
  213MPD1    H7 3247   1.155   3.927  15.778  0.1165 -0.6793 -0.3493
  214MPD1     C 3248   0.455   4.027  14.805 -0.7359 -0.7238  0.4867
  214MPD1    C1 3249   0.437   4.085  14.928  0.3249  0.1146  0.0934
  214MPD1    C2 3250   0.544   4.164  14.976  0.2466 -1.0122  0.2538
  214MPD1    C3 3251   0.662   4.188  14.902  1.3535 -0.2999 -0.6541
  214MPD1    C4 3252   0.663   4.139  14.774  0.9133 -0.2100  0.0892
  214MPD1    C5 3253   0.559   4.060  14.727  0.4816  0.3598 -0.2717
  214MPD1     H 3254   0.540   4.204  15.077 -0.8737  0.5928 -0.4295
  214MPD1    H1 3255   0.747   4.157  14.707  1.5492 -0.4027  0.8424
  214MPD1    H2 3256   0.381   3.955  14.771  0.9423 -1.4253 -1.6848
  214MPD1    H3 3257   0.566   4.032  14.622 -1.5373  0.1884 -0.3584
  214MPD1     N 3258   0.768   4.262  14.955  0.4979  0.1300  0.5491
  214MPD1    H5 3259   0.853   4.270  14.899 -0.3227  1.2809 -0.5184
  214MPD1    N1 3260   0.350   4.018  15.013  0.5537  0.4672  1.0654
  214MPD1    H6 3261   0.262   3.985  14.972  1.5492  0.0044 -0.6726
  214MPD1    H7 3262   0.329   4.082  15.090 -0.3460  1.9548 -0.4258
  215MPD1     C 3263   1.849   0.237  10.708 -0.1374 -0.4580 -0.9564
  215MPD1    C1 3264   1.885   0.368  10.705  0.4072  0.5851  0.3375
  215MPD1    C2 3265   1.870   0.440  10.817 -0.5877  0.0031  0.0586
  215MPD1    C3 3266   1.820   0.390  10.938 -0.5328 -0.0549  0.8050
  215MPD1    C4 3267   1.789   0.262  10.943  0.0794 -0.6864 -0.0729
  215MPD1    C5 3268   1.801   0.183  10.832  0.3607 -0.1537 -0.1017
  215MPD1     H 3269   1.895   0.544  10.800 -1.3222  0.4511  1.7963
  215MPD1    H1 3270   1.757   0.205  11.029 -1.1579 -0.0780 -0.1404
  215MPD1    H2 3271   1.856   0.169  10.623  2.5706 -0.8204 -0.4510
  215MPD1    H3 3272   1.760   0.082  10.833 -0.2441  0.0960 -0.1036
  215MPD1     N 3273   1.786   0.479  11.043  0.0249 -0.0776 -0.5675
  215MPD1    H5 3274   1.810   0.576  11.027 -0.7523  0.3714  1.0030
  215MPD1    N1 3275   1.913   0.423  10.584  1.0685  1.1416  0.0825
  215MPD1    H6 3276   1.986   0.494  10.592  0.3181  2.2186 -2.4146
  215MPD1    H7 3277   1.954   0.350  10.526  1.5919  1.3106  0.2413
  216MPD1     C 3278   3.794   2.522  16.045  0.4027  0.2704 -0.5524
  216MPD1    C1 3279   3.672   2.547  16.110 -0.3732  0.0578 -0.5901
  216MPD1    C2 3280   3.671   2.534  16.249 -0.6120 -0.5322  0.0740
  216MPD1    C3 3281   3.778   2.482  16.319  0.7472  0.2309 -0.0576
  216MPD1    C4 3282   3.893   2.453  16.252  0.7558 -0.3138 -0.5377
  216MPD1    C5 3283   3.905   2.471  16.114  0.7706 -0.2928 -0.0326
  216MPD1     H 3284   3.591   2.581  16.304 -0.6174  0.7914 -1.0584
  216MPD1    H1 3285   3.979   2.416  16.307  0.6818 -0.3804 -0.4668
  216MPD1    H2 3286   3.812   2.535  15.938 -1.8638  1.5556 -0.7785
  216MPD1    H3 3287   3.994   2.444  16.059  1.8217  2.1331  0.4825
  216MPD1     N 3288   3.761   2.486  16.456 -0.7782  0.1094  0.2759
  216MPD1    H5 3289   3.672   2.509  16.497  0.1059 -0.0263  2.2718
  216MPD1    N1 3290   3.574   2.617  16.044  0.2578  0.0670  0.9597
  216MPD1    H6 3291   3.582   2.586  15.947 -1.6297 -4.4451  2.2643
  216MPD1    H7 3292   3.483   2.592  16.082  0.7176 -1.5235  1.0451
  217MPD1     C 3293   4.616   0.703   9.274  0.4481 -0.4134  0.4238
  217MPD1    C1 3294   4.603   0.704   9.136  0.1808  0.2144  0.6389
  217MPD1    C2 3295   4.562   0.581   9.080 -0.2284 -0.1498 -0.6885
  217MPD1    C3 3296   4.558   0.462   9.158  0.1833  0.0224  0.0008
  217MPD1    C4 3297   4.611   0.464   9.279  0.1260  0.0115 -0.0384
  217MPD1    C5 3298   4.630   0.584   9.335  0.4027  0.0382 -0.4041
  217MPD1     H 3299   4.533   0.583   8.976 -0.8295 -0.2863 -0.5240
  217MPD1    H1 3300   4.632   0.370   9.330 -0.1472  0.0437  0.1334
  217MPD1    H2 3301   4.616   0.801   9.320 -0.0203 -0.2700  0.1091
  217MPD1    H3 3302   4.650   0.597   9.440 -1.9305  2.8409 -0.3079
  217MPD1     N 3303   4.531   0.334   9.112  0.0846 -0.2313  1.2165
  217MPD1    H5 3304   4.551   0.261   9.179  1.2748 -2.2405 -1.3793
  217MPD1    N1 3305   4.602   0.830   9.072 -0.6298 -0.1008  0.0638
  217MPD1    H6 3306   4.671   0.883   9.124 -0.1681  0.2152 -0.8679
  217MPD1    H7 3307   4.632   0.833   8.975 -0.4504  1.4296  0.1758
  218MPD1     C 3308   0.801   1.616  12.690  0.5071  0.3439 -0.9781
  218MPD1    C1 3309   0.908   1.655  12.620  0.0543 -0.1014 -0.2438
  218MPD1    C2 3310   0.990   1.550  12.574 -0.0181  0.7249  0.4849
  218MPD1    C3 3311   0.944   1.419  12.578 -0.4902  0.1488  0.3645
  218MPD1    C4 3312   0.825   1.387  12.654  0.0368 -0.1105  0.3353
  218MPD1    C5 3313   0.757   1.490  12.711  0.4049  0.4934  0.1174
  218MPD1     H 3314   1.086   1.578  12.533  0.6335 -1.5105  0.4711
  218MPD1    H1 3315   0.795   1.284  12.667 -5.0618  1.2184 -0.7277
  218MPD1    H2 3316   0.742   1.689  12.745  1.3421 -1.1283  1.9010
  218MPD1    H3 3317   0.673   1.462  12.773  0.6127 -1.3156 -0.4252
  218MPD1     N 3318   1.026   1.324  12.508 -0.5615 -0.1373  0.3641
  218MPD1    H5 3319   1.119   1.352  12.482 -1.1285  1.6085  0.2346
  218MPD1    N1 3320   0.945   1.788  12.619  0.0632  0.1662  0.2259
  218MPD1    H6 3321   1.003   1.808  12.538  2.8386 -3.0313  1.4399
  218MPD1    H7 3322   0.871   1.857  12.632  2.0199  2.1849  0.5670
  219MPD1     C 3323   1.508   1.013  11.701  0.5596  0.0287  0.3544
  219MPD1    C1 3324   1.504   1.129  11.774 -0.8234 -0.3673 -0.9179
  219MPD1    C2 3325   1.454   1.139  11.904  1.2704  0.3813  0.5803
  219MPD1    C3 3326   1.412   1.024  11.969  0.2964  0.1755  0.0796
  219MPD1    C4 3327   1.423   0.905  11.895 -0.0854  0.1442 -0.5756
  219MPD1    C5 3328   1.466   0.904  11.766 -0.5833 -0.3753  0.4728
  219MPD1     H 3329   1.438   1.238  11.945 -0.2469  0.8040 -1.0019
  219MPD1    H1 3330   1.408   0.805  11.933 -0.2187  1.9106  4.0409
  219MPD1    H2 3331   1.531   1.014  11.595  0.6029 -1.4198  0.3537
  219MPD1    H3 3332   1.466   0.809  11.714  0.1869 -1.8885  3.2081
  219MPD1     N 3333   1.374   1.024  12.101 -0.4851 -0.5010  0.6438
  219MPD1    H5 3334   1.350   0.934  12.140  0.8064 -1.2439 -0.2794
  219MPD1    N1 3335   1.535   1.245  11.694  0.1387  0.1233 -0.3275
  219MPD1    H6 3336   1.603   1.239  11.618  1.3097 -2.2002  0.9215
  219MPD1    H7 3337   1.568   1.319  11.756  0.8932 -0.4677 -0.0220
  220MPD1     C 3338   1.125   1.190   9.683  0.0592  0.0525  0.0936
  220MPD1    C1 3339   1.089   1.069   9.730 -0.2883  0.0848  0.1470
  220MPD1    C2 3340   1.092   1.043   9.864 -0.0893  0.3337 -0.4672
  220MPD1    C3 3341   1.133   1.140   9.950  0.1416  0.6512  0.1049
  220MPD1    C4 3342   1.165   1.266   9.907  0.2898 -0.0320  0.5513
  220MPD1    C5 3343   1.164   1.285   9.773 -0.2031  0.5966  0.8031
  220MPD1     H 3344   1.055   0.944   9.888 -0.0654  0.4286 -0.0548
  220MPD1    H1 3345   1.185   1.337   9.987  0.7322  0.5255 -0.0608
  220MPD1    H2 3346   1.134   1.219   9.579  0.3894 -0.9673 -0.1625
  220MPD1    H3 3347   1.195   1.380   9.731 -2.2338  0.9881  0.1872
  220MPD1     N 3348   1.130   1.101  10.087 -0.0483  0.7468 -0.8519
  220MPD1    H5 3349   1.093   1.008  10.104 -0.4680  0.6750 -2.1704
  220MPD1    N1 3350   1.040   0.967   9.639 -0.0824 -0.1942  0.5196
  220MPD1    H6 3351   1.034   0.873   9.677  1.4546 -0.7655 -0.6423
  220MPD1    H7 3352   1.089   0.969   9.549 -1.7151  0.8920 -0.3469
  221MPD1     C 3353   3.494   0.121  16.981  0.3979 -0.0496  0.4717
  221MPD1    C1 3354   3.444   0.056  16.866  0.1236 -0.1598 -0.1287
  221MPD1    C2 3355   3.528   4.696  16.794 -0.0488  0.3642  0.1469
  221MPD1    C3 3356   3.662   4.706  16.819 -0.0527 -0.1703 -0.9235
  221MPD1    C4 3357   3.710   0.066  16.916 -0.0184 -0.8474  0.8724
  221MPD1    C5 3358   3.630   0.137  16.993  0.2156 -1.2692  0.3672
  221MPD1     H 3359   3.480   4.638  16.716 -0.7090 -1.0240  1.5675
  221MPD1    H1 3360   3.817   0.075  16.932  0.1718 -0.0821 -0.8471
  221MPD1    H2 3361   3.438   0.184  17.049 -0.6511  2.7463 -2.9681
  221MPD1    H3 3362   3.672   0.201  17.071  1.2216 -0.1812 -1.0591
  221MPD1     N 3363   3.762   4.624  16.762 -0.4276 -0.3020 -0.0166
  221MPD1    H5 3364   3.855   4.641  16.799 -0.6592  3.2647 -1.0166
  221MPD1    N1 3365   3.307   0.060  16.843  0.1454 -0.4992  0.2137
  221MPD1    H6 3366   3.258   0.143  16.876  2.2080  0.3749  1.0497
  221MPD1    H7 3367   3.283   0.042  16.746 -1.6913 -1.1314  0.7747
  222MPD1     C 3368   3.822   3.860  16.844 -0.0889  0.4224 -0.0804
  222MPD1    C1 3369   3.701   3.807  16.812 -0.4094 -0.6741  0.0937
  222MPD1    C2 3370   3.608   3.787  16.913  0.2113 -0.0774  0.5775
  222MPD1    C3 3371   3.628   3.820  17.045  0.3717 -0.8046  0.4238
  222MPD1    C4 3372   3.751   3.874  17.078 -0.1324  0.6462 -0.3124
  222MPD1    C5 3373   3.843   3.897  16.976 -0.4221 -0.3044  0.2794
  222MPD1     H 3374   3.512   3.752  16.878  1.6104 -1.2288 -2.1442
  222MPD1    H1 3375   3.781   3.906  17.176  1.3100  2.4822 -1.3558
  222MPD1    H2 3376   3.895   3.873  16.765  1.2814 -1.9360  0.7981
  222MPD1    H3 3377   3.942   3.941  16.990  0.9783 -2.8182 -1.7735
  222MPD1     N 3378   3.539   3.801  17.152 -0.5311  0.3785  0.6418
  222MPD1    H5 3379   3.563   3.843  17.241 -0.8677 -2.5160  2.1115
  222MPD1    N1 3380   3.668   3.778  16.679  0.4491 -0.3183  0.4305
  222MPD1    H6 3381   3.573   3.802  16.654 -0.3860 -3.1176  0.9237
  222MPD1    H7 3382   3.730   3.815  16.607  2.2183 -1.0802  1.5569
  223MPD1     C 3383   3.020   3.075  17.556  0.0526 -0.9235  0.6975
  223MPD1    C1 3384   3.014   3.180  17.639  0.5528  0.5401 -0.5465
  223MPD1    C2 3385   3.063   3.300  17.595  0.1329 -0.6053 -0.1058
  223MPD1    C3 3386   3.088   3.319  17.462 -0.3753 -0.6140  0.3580
  223MPD1    C4 3387   3.093   3.209  17.378 -0.2585 -0.0453  0.6430
  223MPD1    C5 3388   3.068   3.087  17.424  0.1546 -0.3918  0.6392
  223MPD1     H 3389   3.078   3.381  17.665  0.3593 -0.8402  0.1152
  223MPD1    H1 3390   3.114   3.210  17.272  0.4584 -1.2412  0.7682
  223MPD1    H2 3391   2.996   2.974  17.587  0.5610 -1.3227 -0.2114
  223MPD1    H3 3392   3.065   2.999  17.360  1.7942 -0.6219  0.9027
  223MPD1     N 3393   3.120   3.445  17.411 -0.3053  0.5555 -0.1759
  223MPD1    H5 3394   3.146   3.446  17.313 -1.0793 -0.3265 -0.3855
  223MPD1    N1 3395   2.987   3.168   0.072 -0.4533  0.1127 -0.4846
  223MPD1    H6 3396   2.953   3.260   0.098 -3.0981 -1.3339  1.2195
  223MPD1    H7 3397   2.922   3.089   0.075  1.2621 -1.3529 -1.7276
  224MPD1     C 3398   4.001   0.533   9.083 -0.3847  1.1219  0.6809
  224MPD1    C1 3399   4.135   0.532   9.127 -0.0049 -0.0515  1.2362
  224MPD1    C2 3400   4.182   0.422   9.202  0.7134 -0.6454 -0.1694
  224MPD1    C3 3401   4.099   0.311   9.223 -0.2646  0.2079  0.3256
  224MPD1    C4 3402   3.975   0.309   9.166 -0.3785  0.7283 -0.2377
  224MPD1    C5 3403   3.927   0.423   9.102  0.3238  1.0898  0.7755
  224MPD1     H 3404   4.281   0.423   9.245  0.7504 -1.8818 -0.2207
  224MPD1    H1 3405   3.902   0.230   9.177  1.2088 -0.6460  0.3313
  224MPD1    H2 3406   3.959   0.622   9.036 -0.3719  0.9350  0.3207
  224MPD1    H3 3407   3.831   0.419   9.050  0.4814 -0.8927  0.6037
  224MPD1     N 3408   4.133   0.214   9.322 -0.2652 -0.5797 -0.9140
  224MPD1    H5 3409   4.065   0.141   9.343  0.2978 -1.1624 -1.1273
  224MPD1    N1 3410   4.216   0.647   9.129  0.7549 -0.0672  0.5935
  224MPD1    H6 3411   4.206   0.715   9.054  1.2697 -0.3282  0.2848
  224MPD1    H7 3412   4.316   0.625   9.122  0.8347  0.8969 -1.3792
  225MPD1     C 3413   0.437   1.220  12.979 -0.0406  0.4080  0.1921
  225MPD1    C1 3414   0.526   1.170  12.891 -0.2993 -0.5060  0.3135
  225MPD1    C2 3415   0.529   1.203  12.756 -0.2641 -0.3191  0.0376
  225MPD1    C3 3416   0.440   1.294  12.715 -0.4870 -0.7040  0.3197
  225MPD1    C4 3417   0.343   1.345  12.802  0.5130 -0.2983 -0.7434
  225MPD1    C5 3418   0.347   1.310  12.935 -0.2839 -0.6702  0.2811
  225MPD1     H 3419   0.598   1.147  12.693 -0.0824  0.2786 -0.2952
  225MPD1    H1 3420   0.269   1.418  12.771  0.7672  0.2538 -0.0460
  225MPD1    H2 3421   0.433   1.198  13.085  1.6232  2.3251  0.6399
  225MPD1    H3 3422   0.280   1.363  13.003  0.0954 -1.7252  1.4710
  225MPD1     N 3423   0.434   1.342  12.579  0.8040  0.0642  0.3793
  225MPD1    H5 3424   0.361   1.409  12.557  0.1857 -0.9890 -0.7656
  225MPD1    N1 3425   0.626   1.084  12.944  0.1151  0.3262  0.2995
  225MPD1    H6 3426   0.720   1.099  12.907 -0.3785 -3.7462 -2.6933
  225MPD1    H7 3427   0.635   1.098  13.044 -0.7993  0.2379  0.4004
  226MPD1     C 3428   4.176   1.827  10.305 -0.6405 -0.5779  0.2467
  226MPD1    C1 3429   4.185   1.945  10.229 -0.3507  0.2403 -0.3105
  226MPD1    C2 3430   4.149   1.931  10.096 -0.6452 -0.4236  0.5029
  226MPD1    C3 3431   4.109   1.805  10.041  0.1591  0.3182  0.2720
  226MPD1    C4 3432   4.078   1.707  10.126 -0.3517 -0.0064 -0.4762
  226MPD1    C5 3433   4.112   1.720  10.253 -1.4788 -0.4177 -0.6665
  226MPD1     H 3434   4.164   2.015  10.029 -1.9603  0.3013  1.1038
  226MPD1    H1 3435   4.041   1.615  10.085 -1.1133  0.0935 -0.0142
  226MPD1    H2 3436   4.198   1.825  10.411  0.1198 -1.5070  0.0629
  226MPD1    H3 3437   4.101   1.629  10.311  0.5777 -0.0227  0.3157
  226MPD1     N 3438   4.094   1.799   9.905  0.2333  0.4968  0.3682
  226MPD1    H5 3439   4.121   1.880   9.849 -1.0014  1.6154  1.3990
  226MPD1    N1 3440   4.247   2.061  10.274 -0.5797 -0.1131 -0.0190
  226MPD1    H6 3441   4.224   2.070  10.373  2.2187 -1.0581  0.7127
  226MPD1    H7 3442   4.226   2.147  10.225 -0.6384  1.1103  2.1731
  227MPD1     C 3443   4.395   2.364   9.336  0.7094  0.9815 -0.0235
  227MPD1    C1 3444   4.392   2.336   9.472  0.2422  0.0948  0.6480
  227MPD1    C2 3445   4.312   2.233   9.516 -0.7151 -0.0897  0.5569
  227MPD1    C3 3446   4.224   2.163   9.436 -0.0037  0.4284  0.5409
  227MPD1    C4 3447   4.216   2.200   9.302 -0.3656 -0.6535 -0.4950
  227MPD1    C5 3448   4.303   2.295   9.258  0.0025  0.0204 -0.3806
  227MPD1     H 3449   4.310   2.207   9.621 -1.0915  2.4629  1.1858
  227MPD1    H1 3450   4.150   2.144   9.237  0.7150 -1.3645 -0.9776
  227MPD1    H2 3451   4.449   2.443   9.285 -0.9379  2.0373 -0.1190
  227MPD1    H3 3452   4.312   2.307   9.150 -1.4887 -2.1461 -0.7519
  227MPD1     N 3453   4.145   2.061   9.494  0.2660 -0.2087  0.3733
  227MPD1    H5 3454   4.155   2.047   9.594 -1.6579 -1.3302  0.4115
  227MPD1    N1 3455   4.487   2.394   9.554 -0.6297  0.1531  0.4357
  227MPD1    H6 3456   4.526   2.483   9.523  0.5318 -0.5662 -0.1695
  227MPD1    H7 3457   4.455   2.407   9.650  2.5239  1.9366  1.2409
  228MPD1     C 3458   2.394   4.034  12.855  0.4449 -0.7540 -0.4893
  228MPD1    C1 3459   2.307   4.080  12.761  0.1650  0.0184 -0.3021
  228MPD1    C2 3460   2.175   4.022  12.758 -0.3538 -0.1180  0.1279
  228MPD1    C3 3461   2.147   3.918  12.847  0.4108 -0.0145  0.4288
  228MPD1    C4 3462   2.237   3.880  12.952  0.1616 -0.2371  0.4866
  228MPD1    C5 3463   2.359   3.945  12.952 -0.1593 -0.2244 -0.1907
  228MPD1     H 3464   2.097   4.059  12.692  2.2007  0.9766 -2.2542
  228MPD1    H1 3465   2.225   3.813  13.036 -1.4040 -2.3041 -1.3993
  228MPD1    H2 3466   2.494   4.074  12.862  1.9608 -4.1678 -2.8459
  228MPD1    H3 3467   2.438   3.910  13.018 -0.3422 -0.8187 -0.2823
  228MPD1     N 3468   2.019   3.855  12.837 -0.2173 -0.4125  0.3436
  228MPD1    H5 3469   1.956   3.885  12.764  0.4110 -0.1107 -0.0753
  228MPD1    N1 3470   2.351   4.177  12.666 -0.8229 -0.7941  0.3480
  228MPD1    H6 3471   2.451   4.160  12.655 -0.6094  1.0281 -0.5092
  228MPD1    H7 3472   2.311   4.160  12.574 -0.8887  0.3144  0.1744
  229MPD1     C 3473   1.457   2.910  14.189 -0.8537 -0.4810  0.0961
  229MPD1    C1 3474   1.465   2.965  14.310 -0.1318  0.5796  0.3942
  229MPD1    C2 3475   1.577   2.943  14.383 -0.6573  0.1501 -0.1382
  229MPD1    C3 3476   1.673   2.857  14.341  0.1176  0.0771  0.5951
  229MPD1    C4 3477   1.655   2.789  14.219 -1.2361 -0.0010  0.2278
  229MPD1    C5 3478   1.547   2.819  14.145 -0.4224  0.2524  0.0380
  229MPD1     H 3479   1.591   3.004  14.472  0.4483 -1.2406  0.6479
  229MPD1    H1 3480   1.724   2.712  14.184  0.0187  1.3092 -0.1676
  229MPD1    H2 3481   1.372   2.929  14.124 -0.8220 -0.2466  0.1247
  229MPD1    H3 3482   1.547   2.778  14.045 -0.8967 -0.1500  0.1982
  229MPD1     N 3483   1.789   2.835  14.416  0.0106 -0.4403  0.1912
  229MPD1    H5 3484   1.867   2.784  14.375 -0.7323 -2.4203  1.2405
  229MPD1    N1 3485   1.377   3.068  14.341 -1.0818 -0.0437  0.3736
  229MPD1    H6 3486   1.289   3.067  14.291 -2.2533 -0.6351  2.4639
  229MPD1    H7 3487   1.358   3.078  14.440 -0.7671  0.4218  0.3893
  230MPD1     C 3488   2.418   2.998  15.307 -0.9596  0.2516  0.6256
  230MPD1    C1 3489   2.475   2.896  15.229 -0.0646  0.1558 -0.4019
  230MPD1    C2 3490   2.412   2.858  15.110 -0.6119 -1.1442  0.3098
  230MPD1    C3 3491   2.296   2.929  15.072 -0.3366 -0.3634 -0.1593
  230MPD1    C4 3492   2.251   3.040  15.144 -0.0027  0.1244  0.5445
  230MPD1    C5 3493   2.307   3.062  15.261 -0.1503 -0.0838  0.2143
  230MPD1     H 3494   2.454   2.773  15.058  1.4452  1.3136 -2.1421
  230MPD1    H1 3495   2.155   3.084  15.116 -0.9299  0.0896  3.6842
  230MPD1    H2 3496   2.456   3.020  15.405  0.4842  1.1895 -0.1443
  230MPD1    H3 3497   2.262   3.140  15.322  0.2581 -0.9195  1.5840
  230MPD1     N 3498   2.236   2.891  14.946 -0.4009  0.1936  0.1820
  230MPD1    H5 3499   2.277   2.814  14.896  0.5285 -0.0599  1.3227
  230MPD1    N1 3500   2.580   2.813  15.277  0.1757  0.4459 -0.0747
  230MPD1    H6 3501   2.633   2.748  15.220  2.0950  2.5878 -0.7396
  230MPD1    H7 3502   2.644   2.865  15.338  0.5991 -0.6199  0.3853
  231MPD1     C 3503   0.117   4.167  15.359 -0.3869 -0.4928 -0.1679
  231MPD1    C1 3504   0.078   4.174  15.221 -0.1718  1.0014  0.1172
  231MPD1    C2 3505   0.150   4.255  15.138  0.3772  0.0654 -0.1854
  231MPD1    C3 3506   0.251   4.341  15.189  0.0086  0.0719  0.2931
  231MPD1    C4 3507   0.277   4.337  15.328 -0.4572 -0.8937  0.0362
  231MPD1    C5 3508   0.210   4.253  15.413 -0.8047  0.7013  0.6239
  231MPD1     H 3509   0.135   4.246  15.030 -1.8301  0.2793  0.0947
  231MPD1    H1 3510   0.353   4.395  15.379 -1.2716  0.1235  0.1067
  231MPD1    H2 3511   0.062   4.096  15.419  0.7581  0.0944  1.5780
  231MPD1    H3 3512   0.239   4.242  15.516 -0.3591 -0.3112  0.3892
  231MPD1     N 3513   0.326   4.408  15.090 -0.6042 -0.4273  0.0745
  231MPD1    H5 3514   0.296   4.389  14.995 -0.8074  2.6054 -0.4661
  231MPD1    N1 3515   4.704   4.089  15.164  0.3191  0.3641  0.1364
  231MPD1    H6 3516   4.641   4.050  15.234  0.9184  1.8408  1.4993
  231MPD1    H7 3517   4.657   4.134  15.086 -1.9374  0.9654  1.8553
  232MPD1     C 3518   3.450   2.298  17.478 -0.3261 -0.0456  0.0126
  232MPD1    C1 3519   3.362   2.407  17.479  0.2332  0.8245 -0.3609
  232MPD1    C2 3520   3.247   2.396  17.553  1.2087 -0.3363 -0.7930
  232MPD1    C3 3521   3.226   2.285  17.640  0.1854  0.1072  0.0143
  232MPD1    C4 3522   3.324   2.187  17.656  0.9259 -0.4069  0.3817
  232MPD1    C5 3523   3.426   2.190  17.560  0.0760 -0.2655 -0.1754
  232MPD1     H 3524   3.166   2.468  17.548 -0.1028 -1.8515 -1.5204
  232MPD1    H1 3525   3.318   2.104   0.018 -0.5148 -0.7911 -0.2022
  232MPD1    H2 3526   3.529   2.291  17.404  0.2888 -0.3927  0.7114
  232MPD1    H3 3527   3.495   2.106  17.555 -0.5459 -0.8299  0.7860
  232MPD1     N 3528   3.104   2.273   0.007 -0.1204  0.1111  0.1091
  232MPD1    H5 3529   3.047   2.356  17.707  1.9581  1.5676  0.2817
  232MPD1    N1 3530   3.368   2.502  17.375 -0.4007  0.1980 -0.3042
  232MPD1    H6 3531   3.462   2.521  17.340  0.4352  1.2227  2.4935
  232MPD1    H7 3532   3.334   2.593  17.406  0.3142  0.1408  0.6483
  233MPD1     C 3533   2.745   0.304   1.282  0.3393  1.0569 -0.0354
  233MPD1    C1 3534   2.831   0.362   1.371  0.9656  0.3760 -0.5751
  233MPD1    C2 3535   2.950   0.303   1.397  0.2204  0.5529  0.3369
  233MPD1    C3 3536   2.982   0.185   1.338 -0.0813  0.3207  0.2761
  233MPD1    C4 3537   2.894   0.115   1.265 -0.0746 -0.6450  0.4209
  233MPD1    C5 3538   2.785   0.187   1.228 -0.0148  0.1836  0.2783
  233MPD1     H 3539   3.021   0.361   1.454 -0.2763  0.1029  1.4015
  233MPD1    H1 3540   2.910   0.021   1.214 -2.1463 -1.0354  0.5042
  233MPD1    H2 3541   2.650   0.353   1.262  0.5076  1.2250 -0.4314
  233MPD1    H3 3542   2.715   0.142   1.158  0.0086 -0.3778  0.6155
  233MPD1     N 3543   3.116   0.136   1.346 -0.2830 -0.2112 -0.0055
  233MPD1    H5 3544   3.123   0.049   1.293  1.0117 -0.8089  1.1648
  233MPD1    N1 3545   2.819   0.499   1.389 -0.2796  0.2799 -0.0388
  233MPD1    H6 3546   2.722   0.531   1.393 -0.4221 -0.7484  4.8512
  233MPD1    H7 3547   2.868   0.530   1.472  0.2754  0.4028 -0.4142
  234MPD1     C 3548   1.031   3.897   9.519 -0.4915 -0.3632  0.1366
  234MPD1    C1 3549   0.963   3.999   9.592 -0.4035 -0.2046  0.1409
  234MPD1    C2 3550   0.824   3.991   9.586  0.3917 -0.0236 -0.0461
  234MPD1    C3 3551   0.749   3.909   9.507 -0.7520 -0.6682  0.2686
  234MPD1    C4 3552   0.825   3.820   9.431 -0.4754 -0.2437  0.0276
  234MPD1    C5 3553   0.958   3.824   9.432 -0.4205 -0.0876 -0.5784
  234MPD1     H 3554   0.758   4.047   9.652  0.2340 -1.1812  0.7851
  234MPD1    H1 3555   0.791   3.759   9.348  2.8412 -0.9661 -0.7987
  234MPD1    H2 3556   1.137   3.886   9.501 -0.4616  0.6368 -0.2414
  234MPD1    H3 3557   1.003   3.745   9.372 -1.5657 -1.2191  0.0682
  234MPD1     N 3558   0.612   3.933   9.493 -0.2656  0.1946  0.2004
  234MPD1    H5 3559   0.583   4.014   9.546 -1.9578 -0.6704  0.6226
  234MPD1    N1 3560   1.040   4.078   9.674  0.7414 -0.3794 -0.6870
  234MPD1    H6 3561   1.128   4.102   9.629 -0.1089 -0.4573 -2.3911
  234MPD1    H7 3562   0.999   4.171   9.686 -0.1582 -1.2053  2.8225
  235MPD1     C 3563   1.575   1.735  10.529  0.1164 -0.0080  0.1265
  235MPD1    C1 3564   1.513   1.735  10.408  0.5327  0.0139 -0.2218
  235MPD1    C2 3565   1.520   1.859  10.344 -0.1421 -0.2059  0.8247
  235MPD1    C3 3566   1.562   1.973  10.415 -0.5201 -0.4646  0.1698
  235MPD1    C4 3567   1.616   1.963  10.542 -0.3544 -0.5775  0.7093
  235MPD1    C5 3568   1.623   1.843  10.598 -0.0838  0.2763  0.6833
  235MPD1     H 3569   1.492   1.868  10.240  2.8692 -2.3295 -0.1711
  235MPD1    H1 3570   1.643   2.049  10.601 -1.5230  0.7960 -0.7538
  235MPD1    H2 3571   1.585   1.639  10.578  0.5031 -0.3234 -0.5714
  235MPD1    H3 3572   1.653   1.824  10.700 -1.4583  0.4610  1.1223
  235MPD1     N 3573   1.561   2.101  10.346 -0.6835 -0.1140 -0.1262
  235MPD1    H5 3574   1.520   2.097  10.254  1.7552 -1.5261 -1.1480
  235MPD1    N1 3575   1.480   1.618  10.342 -0.6027  0.0084  0.3190
  235MPD1    H6 3576   1.453   1.538  10.400  0.7470  0.5098  1.6477
  235MPD1    H7 3577   1.397   1.626  10.284 -0.3305  1.8141  0.1891
  236MPD1     C 3578   0.400   3.107   9.988  0.0018 -0.1691  0.3959
  236MPD1    C1 3579   0.353   2.988  10.034  0.1450 -0.5796  0.0553
  236MPD1    C2 3580   0.444   2.899  10.078 -0.3681 -0.2275 -0.4902
  236MPD1    C3 3581   0.579   2.932  10.095  0.6388 -0.2263 -0.1556
  236MPD1    C4 3582   0.626   3.057  10.055  0.2698  0.1604  0.0533
  236MPD1    C5 3583   0.530   3.136   9.992  0.2361  0.4162 -0.1972
  236MPD1     H 3584   0.412   2.798  10.102  1.2443 -0.9525 -1.3732
  236MPD1    H1 3585   0.726   3.097  10.047  0.6621 -0.8072  0.1775
  236MPD1    H2 3586   0.335   3.174   9.934 -0.4958 -0.4782  0.6202
  236MPD1    H3 3587   0.576   3.218   9.937  0.1012 -1.0685 -2.5140
  236MPD1     N 3588   0.678   2.845  10.152 -0.7226 -0.0650  0.2193
  236MPD1    H5 3589   0.770   2.886  10.159 -0.1479 -1.6770  2.0416
  236MPD1    N1 3590   0.222   2.952   9.996  0.1431  0.5168 -0.0023
  236MPD1    H6 3591   0.181   2.875  10.047  1.4457 -0.6897 -0.7625
  236MPD1    H7 3592   0.156   3.029  10.000 -1.4180 -0.9099  1.5598
  237MPD1     C 3593   1.450   0.703  14.980 -0.0488  0.6197  0.4132
  237MPD1    C1 3594   1.427   0.831  15.013 -0.9504  0.4006  0.7669
  237MPD1    C2 3595   1.302   0.863  15.071  0.3718  0.4184 -0.7151
  237MPD1    C3 3596   1.209   0.763  15.094 -0.3634 -0.0353  0.2159
  237MPD1    C4 3597   1.226   0.635  15.040  0.1916  0.6603  0.5952
  237MPD1    C5 3598   1.355   0.606  14.991 -0.5218  0.1212 -0.0847
  237MPD1     H 3599   1.286   0.969  15.084 -0.3580  0.2770 -0.4368
  237MPD1    H1 3600   1.150   0.557  15.041  0.8259  0.0341 -0.1855
  237MPD1    H2 3601   1.541   0.677  14.927 -0.6573 -1.4127  0.3485
  237MPD1    H3 3602   1.382   0.508  14.955 -0.7191 -0.5543  1.6061
  237MPD1     N 3603   1.093   0.787  15.171  0.6557 -0.8583 -0.3345
  237MPD1    H5 3604   1.029   0.709  15.174 -1.6620  1.0888  0.3778
  237MPD1    N1 3605   1.526   0.930  14.982 -0.4090 -0.6021  0.1508
  237MPD1    H6 3606   1.543   0.997  15.057 -2.3432 -1.5448  1.4244
  237MPD1    H7 3607   1.624   0.903  14.974 -0.3492  0.6109 -3.0637
  238MPD1     C 3608   2.424   4.525  14.973 -0.6640  0.4601  0.5289
  238MPD1    C1 3609   2.420   4.469  14.847 -0.1856 -0.0092  0.0339
  238MPD1    C2 3610   2.344   4.353  14.830  0.3879 -0.1663 -0.1845
  238MPD1    C3 3611   2.252   4.301  14.928 -0.0100  1.0211  0.2345
  238MPD1    C4 3612   2.263   4.357  15.051 -0.3271  0.0157 -0.7719
  238MPD1    C5 3613   2.341   4.468  15.069  0.3014 -0.4142  0.8401
  238MPD1     H 3614   2.336   4.319  14.727  0.1447 -1.7792  0.3717
  238MPD1    H1 3615   2.211   4.326  15.140  0.8510 -0.1761 -0.1542
  238MPD1    H2 3616   2.495   4.600  15.004  0.9832 -1.3161  1.0783
  238MPD1    H3 3617   2.337   4.512  15.168 -0.5767 -0.9939  1.0597
  238MPD1     N 3618   2.168   4.191  14.907 -0.1502 -0.5346 -0.0954
  238MPD1    H5 3619   2.102   4.175  14.983 -1.1268  0.3043 -0.7694
  238MPD1    N1 3620   2.528   4.488  14.761  0.5276 -0.0159 -0.1601
  238MPD1    H6 3621   2.566   4.582  14.771 -0.8579  0.6733 -1.3976
  238MPD1    H7 3622   2.508   4.474  14.662  1.8495  0.6785 -0.5254
  239MPD1     C 3623   2.698   0.059  14.906 -0.1348  0.7755 -0.4083
  239MPD1    C1 3624   2.794   0.046  14.815 -0.1069  0.0388  0.2368
  239MPD1    C2 3625   2.813   0.157  14.731 -0.0997  0.5630  0.6755
  239MPD1    C3 3626   2.712   0.247  14.714 -0.3346 -0.0892 -0.4379
  239MPD1    C4 3627   2.609   0.245  14.802 -0.4286  0.2528 -0.3675
  239MPD1    C5 3628   2.616   0.158  14.906 -0.1116 -0.2166  0.5930
  239MPD1     H 3629   2.894   0.141  14.661 -0.8758 -0.7469  0.0684
  239MPD1    H1 3630   2.534   0.323  14.797  0.4591  1.0725 -0.6454
  239MPD1    H2 3631   2.691   4.706  14.978  1.3811  1.3926  0.4059
  239MPD1    H3 3632   2.539   0.155  14.982 -0.5931 -0.5485  0.0920
  239MPD1     N 3633   2.706   0.345  14.610  0.1392  0.1367  0.0012
  239MPD1    H5 3634   2.620   0.388  14.578  2.0046  2.8102 -1.3869
  239MPD1    N1 3635   2.892   4.675  14.839 -1.0078  0.1306  0.5049
  239MPD1    H6 3636   2.859   4.587  14.877 -0.7157 -0.0914  0.2415
  239MPD1    H7 3637   2.962   4.658  14.767 -0.9952 -0.4157  0.6499
  240MPD1     C 3638   2.322   4.708  13.957  0.9573 -0.8222  0.1369
  240MPD1    C1 3639   2.215   4.635  13.918  0.2508 -0.1007 -1.1847
  240MPD1    C2 3640   2.139   4.572  14.014  0.0490 -0.2450  0.3836
  240MPD1    C3 3641   2.170   4.587  14.151  0.1374 -0.3555 -0.3677
  240MPD1    C4 3642   2.294   4.643  14.180  0.3388 -0.4272 -0.6503
  240MPD1    C5 3643   2.366   4.696  14.077  0.2516 -0.2985 -0.2635
  240MPD1     H 3644   2.045   4.526  13.987 -0.4782  0.0109  1.7873
  240MPD1    H1 3645   2.338   4.642  14.279 -0.3555 -1.2275 -0.3484
  240MPD1    H2 3646   2.378   0.029  13.877  0.3562 -1.8625 -0.9181
  240MPD1    H3 3647   2.446   0.040  14.099 -1.9706  2.1093  0.1245
  240MPD1     N 3648   2.085   4.530  14.250 -0.2397 -0.6401 -0.4269
  240MPD1    H5 3649   1.994   4.489  14.230 -1.8797  1.7210  2.0995
  240MPD1    N1 3650   2.194   4.604  13.781 -0.3976 -0.6029 -0.1514
  240MPD1    H6 3651   2.097   4.590  13.753 -0.0165 -1.5048 -0.9972
  240MPD1    H7 3652   2.247   4.660  13.715  1.4058 -2.0113  0.1087
  241MPD1     C 3653   2.093   0.013  15.220 -0.2561 -0.0686  0.4218
  241MPD1    C1 3654   2.042   4.614  15.219 -0.3914  0.1845 -0.3718
  241MPD1    C2 3655   2.017   4.549  15.100  0.5256 -0.3834  0.1485
  241MPD1    C3 3656   2.021   4.620  14.981 -0.2343 -0.1666  0.1452
  241MPD1    C4 3657   2.052   0.031  14.978 -0.4115 -1.1242  0.0240
  241MPD1    C5 3658   2.095   0.080  15.102 -0.1692 -0.4021  0.6927
  241MPD1     H 3659   2.003   4.442  15.102  1.9996 -0.5494  1.2097
  241MPD1    H1 3660   2.050   0.087  14.886 -0.9763  0.6809  1.1343
  241MPD1    H2 3661   2.128   0.067  15.307  1.3550  0.6592 -0.6869
  241MPD1    H3 3662   2.143   0.177  15.103  1.0308 -0.9811 -0.7423
  241MPD1     N 3663   2.000   4.565  14.850  0.6965 -0.2867  0.5638
  241MPD1    H5 3664   2.032   4.617  14.769  2.0127  0.5660  1.6143
  241MPD1    N1 3665   2.054   4.540  15.341 -0.2529  0.4168 -0.1980
  241MPD1    H6 3666   2.041   4.604  15.419 -1.9853 -1.2831  0.8917
  241MPD1    H7 3667   2.005   4.451  15.353 -0.0406  0.0869 -1.7481
  242MPD1     C 3668   1.317   3.192  15.994 -0.0288  0.1775 -0.1567
  242MPD1    C1 3669   1.222   3.273  15.934 -0.2206 -0.2907  0.0306
  242MPD1    C2 3670   1.235   3.302  15.797  0.1892 -0.3293 -0.3228
  242MPD1    C3 3671   1.339   3.244  15.721 -0.0379 -0.9311  0.9213
  242MPD1    C4 3672   1.428   3.160  15.786  0.1142  0.3569 -0.1562
  242MPD1    C5 3673   1.415   3.137  15.919  0.0140  0.0625 -0.5330
  242MPD1     H 3674   1.163   3.362  15.743 -0.5592 -0.9271 -0.0052
  242MPD1    H1 3675   1.504   3.116  15.723  0.5581  1.3237 -0.2906
  242MPD1    H2 3676   1.320   3.155  16.096 -0.6223 -2.2110 -1.0061
  242MPD1    H3 3677   1.472   3.066  15.976 -0.4592  1.7576  2.0426
  242MPD1     N 3678   1.363   3.276  15.583 -0.5399  0.2904 -0.0730
  242MPD1    H5 3679   1.451   3.249  15.540 -1.4544 -0.3488 -1.5583
  242MPD1    N1 3680   1.142   3.357  16.012  0.4313  0.6049  0.3443
  242MPD1    H6 3681   1.050   3.377  15.975  0.1947 -2.6539 -0.8274
  242MPD1    H7 3682   1.133   3.321  16.107 -2.6982  0.0966 -0.1580
  243MPD1     C 3683   4.115   1.336  17.472  0.3230  0.4926  0.4499
  243MPD1    C1 3684   4.053   1.444  17.523  0.2615  0.6642 -0.6300
  243MPD1    C2 3685   4.052   1.564  17.454  0.1826  0.0539 -0.1889
  243MPD1    C3 3686   4.134   1.584  17.350 -0.2615  0.5459  0.1547
  243MPD1    C4 3687   4.209   1.478  17.304 -0.1752 -0.0818  0.4397
  243MPD1    C5 3688   4.204   1.353  17.367 -0.5945 -0.2644 -0.0435
  243MPD1     H 3689   3.990   1.648  17.484  0.4559  0.6255 -1.2189
  243MPD1    H1 3690   4.265   1.481  17.211 -1.1957 -1.5150 -0.2201
  243MPD1    H2 3691   4.106   1.244  17.528 -0.9071  1.2830  1.5466
  243MPD1    H3 3692   4.251   1.262  17.332 -0.1278 -0.0114 -0.0771
  243MPD1     N 3693   4.118   1.708  17.271 -0.2717  0.0010 -0.0908
  243MPD1    H5 3694   4.036   1.764  17.294  0.8713  1.6499 -0.0031
  243MPD1    N1 3695   3.967   1.421  17.633 -0.6144 -0.2141 -0.1652
  243MPD1    H6 3696   3.990   1.342  17.693 -0.1463  0.2290  0.2280
  243MPD1    H7 3697   3.943   1.506  17.682 -2.2549  0.6618 -2.4806
  244MPD1     C 3698   3.820   2.469  17.529 -0.2719 -0.6529  0.3402
  244MPD1    C1 3699   3.772   2.341  17.540  0.6258  0.7779  0.2720
  244MPD1    C2 3700   3.813   2.245  17.450 -0.0516  0.1422 -0.0747
  244MPD1    C3 3701   3.892   2.273  17.337 -0.3240  0.9652 -0.0313
  244MPD1    C4 3702   3.938   2.399  17.328  0.0462  0.5279  0.1454
  244MPD1    C5 3703   3.902   2.489  17.426 -0.5907  0.1236 -0.0253
  244MPD1     H 3704   3.781   2.144  17.475 -2.3646  1.3241  1.7295
  244MPD1    H1 3705   4.008   2.433  17.253 -0.4928  1.4199  0.0486
  244MPD1    H2 3706   3.804   2.548  17.602 -2.4426  0.2307 -1.0806
  244MPD1    H3 3707   3.952   2.585  17.423 -0.4414  0.1004  1.7679
  244MPD1     N 3708   3.938   2.162  17.262  0.2228 -0.0230  0.8152
  244MPD1    H5 3709   3.921   2.066  17.289  1.5928 -0.2594  0.8532
  244MPD1    N1 3710   3.719   2.299  17.670 -0.9517  0.2501  0.4192
  244MPD1    H6 3711   3.662   2.215  17.665 -2.2291  1.2682 -1.8711
  244MPD1    H7 3712   3.661   2.369   0.008  0.4821  2.1629 -0.6929
  245MPD1     C 3713   0.234   2.238  13.198  0.2270  0.7499  0.0959
  245MPD1    C1 3714   0.205   2.320  13.306 -0.2239  0.4420 -0.0395
  245MPD1    C2 3715   0.277   2.433  13.316 -0.0344  0.2908 -0.3037
  245MPD1    C3 3716   0.380   2.462  13.230  0.0664 -0.4839 -0.4905
  245MPD1    C4 3717   0.414   2.374  13.126  0.1003 -0.3877  0.1431
  245MPD1    C5 3718   0.339   2.264  13.109 -0.2887  0.0623 -0.7053
  245MPD1     H 3719   0.248   2.502  13.394  0.0600 -1.1598  1.0267
  245MPD1    H1 3720   0.496   2.395  13.058  2.6796 -0.1674  3.3289
  245MPD1    H2 3721   0.176   2.147  13.186  0.3309  0.6917  0.0308
  245MPD1    H3 3722   0.352   2.193  13.029  0.9014 -0.0124 -0.4437
  245MPD1     N 3723   0.454   2.576  13.254 -0.4108  0.0373 -0.0660
  245MPD1    H5 3724   0.448   2.597  13.353  0.0136  1.0532 -0.2662
  245MPD1    N1 3725   0.118   2.273  13.412 -0.4225  0.0202  0.1341
  245MPD1    H6 3726   0.096   2.348  13.476  0.3860 -0.1050  0.5641
  245MPD1    H7 3727   0.175   2.209  13.468  0.2966  1.2995  0.8523
  246MPD1     C 3728   0.406   1.938  10.670  0.0135  0.5016  0.4117
  246MPD1    C1 3729   0.455   2.064  10.631 -0.1081 -0.2420 -0.7641
  246MPD1    C2 3730   0.521   2.074  10.507 -0.3632 -0.4313 -0.2966
  246MPD1    C3 3731   0.531   1.967  10.425 -0.0877  0.7085 -0.9227
  246MPD1    C4 3732   0.474   1.848  10.463  0.0667  0.5169  0.1255
  246MPD1    C5 3733   0.391   1.838  10.572 -0.3960 -0.4737 -0.2804
  246MPD1     H 3734   0.576   2.162  10.475 -0.2823 -0.3869 -0.0330
  246MPD1    H1 3735   0.481   1.758  10.403  0.0234  0.2037  0.5854
  246MPD1    H2 3736   0.354   1.913  10.762  0.7233  0.8149  0.8977
  246MPD1    H3 3737   0.349   1.740  10.596 -2.1649  0.0177 -1.3531
  246MPD1     N 3738   0.624   1.982  10.320 -0.6373 -0.3582 -0.5533
  246MPD1    H5 3739   0.674   2.071  10.312  2.1735 -1.8162  0.5425
  246MPD1    N1 3740   0.472   2.167  10.720 -0.2251  0.0173 -0.0387
  246MPD1    H6 3741   0.385   2.181  10.770 -0.5069 -0.9069 -0.2800
  246MPD1    H7 3742   0.479   2.256  10.672  1.4110  1.2336  2.4554
  247MPD1     C 3743   4.502   2.823  16.950  0.7149  0.3012 -0.2702
  247MPD1    C1 3744   4.528   2.726  17.040  0.3703  0.4528  0.1498
  247MPD1    C2 3745   4.571   2.606  16.988  0.0339 -0.2987 -0.2647
  247MPD1    C3 3746   4.591   2.588  16.858  0.5858 -0.3826 -0.7048
  247MPD1    C4 3747   4.563   2.687  16.762  0.8437  0.2565  0.5113
  247MPD1    C5 3748   4.523   2.806  16.816 -0.6320 -0.2214  0.2027
  247MPD1     H 3749   4.585   2.525  17.058  1.2468  0.6314  0.5586
  247MPD1    H1 3750   4.578   2.677  16.655  1.2150  1.8844  0.4162
  247MPD1    H2 3751   4.468   2.922  16.981  1.3758  0.9684 -1.6972
  247MPD1    H3 3752   4.491   2.888  16.752  0.2918 -1.0639 -1.3353
  247MPD1     N 3753   4.640   2.464  16.798 -0.7132  0.1898 -0.0555
  247MPD1    H5 3754   4.641   2.463  16.697  0.5980 -1.3969 -0.0322
  247MPD1    N1 3755   4.485   2.731  17.176  1.0034 -0.1308  0.4613
  247MPD1    H6 3756   4.549   2.677  17.234 -0.0289 -3.0627 -1.1271
  247MPD1    H7 3757   4.494   2.826  17.211  1.0209  0.3400 -0.8386
  248MPD1     C 3758   0.695   3.152   0.425 -0.4981 -0.1415  0.7473
  248MPD1    C1 3759   0.626   3.080   0.516  0.1061 -0.0418  0.2439
  248MPD1    C2 3760   0.574   2.959   0.477  0.6838  0.1546 -0.1403
  248MPD1    C3 3761   0.595   2.902   0.360  0.1239  0.1177 -0.5538
  248MPD1    C4 3762   0.673   2.977   0.263  0.6398 -0.3840 -0.7610
  248MPD1    C5 3763   0.715   3.102   0.296  0.2415  0.2968  0.4479
  248MPD1     H 3764   0.523   2.901   0.553 -0.6600 -0.0480 -1.2072
  248MPD1    H1 3765   0.689   2.936   0.164  1.6537  1.5392 -1.3890
  248MPD1    H2 3766   0.748   3.244   0.443 -0.3527 -0.4099  1.7272
  248MPD1    H3 3767   0.788   3.150   0.232  1.2641 -1.7838  0.0643
  248MPD1     N 3768   0.545   2.772   0.339  0.0124  0.2252  0.0916
  248MPD1    H5 3769   0.477   2.741   0.408 -1.1304 -0.2054 -1.2378
  248MPD1    N1 3770   0.620   3.126   0.649  0.1298  0.1295 -1.0150
  248MPD1    H6 3771   0.643   3.224   0.660 -0.1325  0.3474 -2.4843
  248MPD1    H7 3772   0.532   3.102   0.694 -0.8739 -2.1462 -4.1608
  249MPD1     C 3773   2.177   0.914  10.790  0.2699 -0.1325 -0.2540
  249MPD1    C1 3774   2.207   0.997  10.691  0.6374 -0.3179  0.3819
  249MPD1    C2 3775   2.146   0.990  10.572 -0.6491  0.5020 -0.3370
  249MPD1    C3 3776   2.045   0.907  10.546  0.1949 -0.2058 -0.1030
  249MPD1    C4 3777   2.006   0.829  10.649  0.0756 -0.2989  0.0660
  249MPD1    C5 3778   2.072   0.825  10.768 -0.2225 -0.6342 -0.0665
  249MPD1     H 3779   2.183   1.042  10.485  1.0212 -0.0821  0.0089
  249MPD1    H1 3780   1.912   0.775  10.651  1.0648 -1.9964  0.5183
  249MPD1    H2 3781   2.223   0.921  10.888  0.4808 -1.2136 -0.2796
  249MPD1    H3 3782   2.018   0.770  10.844  3.2252 -2.8413  0.8052
  249MPD1     N 3783   1.981   0.907  10.422 -0.5371  0.2011  0.7031
  249MPD1    H5 3784   2.012   0.984  10.364  0.8661  0.1640  1.3972
  249MPD1    N1 3785   2.322   1.077  10.696 -1.1005  0.1769 -0.4221
  249MPD1    H6 3786   2.345   1.102  10.792  1.0541 -2.0657 -0.3725
  249MPD1    H7 3787   2.328   1.156  10.631 -0.9469  0.0170 -0.6014
  250MPD2     C 3788   3.741   1.158  13.126 -0.6342  0.4909  0.4354
  250MPD2    C1 3789   3.683   1.207  13.012  0.0267 -0.8839  0.4473
  250MPD2    C2 3790   3.621   1.110  12.930 -0.6114  0.4577 -0.0606
  250MPD2    C3 3791   3.603   0.977  12.972 -0.3574  0.0449 -0.3077
  250MPD2    C4 3792   3.653   0.934  13.094 -0.1781  0.1587 -0.0942
  250MPD2    C5 3793   3.731   1.023  13.161 -0.1213  0.0608  0.4675
  250MPD2     H 3794   3.583   1.136  12.831  0.7675  0.9901 -0.4495
  250MPD2    H1 3795   3.645   0.832  13.131  1.6891  0.1495  0.2832
  250MPD2    H2 3796   3.789   1.233  13.188  2.9786 -0.6645 -0.9854
  250MPD2    H3 3797   3.768   0.991  13.258  1.1967  1.5711  0.4451
  250MPD2     N 3798   3.530   0.873  12.907  0.4081 -0.0689  0.5014
  250MPD2    H5 3799   3.518   0.789  12.963 -1.3578  0.0568  0.3020
  250MPD2    N1 3800   3.708   1.344  12.972  0.3112 -0.2077 -0.0551
  250MPD2    H7 3801   3.755   1.412  13.032  1.6138 -0.6661 -0.5419
  251TMC3    C1 3802   3.687   1.545  12.863  0.7840 -0.5518  0.7660
  251TMC3    C2 3803   3.587   1.644  12.848 -0.7154  0.2372  0.3214
  251TMC3    C3 3804   3.623   1.773  12.866 -0.5520 -0.8259  0.7350
  251TMC3    C4 3805   3.813   1.578  12.902  0.6075  0.7469  0.0284
  251TMC3    C5 3806   3.849   1.709  12.921  0.7560 -0.3784  0.5386
  251TMC3    C6 3807   3.752   1.807  12.907  0.1535  0.1804  0.2581
  251TMC3     C 3808   3.651   1.401  12.861 -0.6155 -0.6445  0.0260
  251TMC3     O 3809   3.553   1.360  12.799 -0.1812  0.3730  0.7854
  251TMC3     H 3810   3.486   1.613  12.824  0.1277 -1.2333 -1.3265
  251TMC3    H1 3811   3.889   1.501  12.910 -0.3212 -0.2040 -0.3187
  251TMC3    H2 3812   3.789   1.909  12.905 -3.2766  1.4716  2.2299
  251TMC3    C7 3813   3.976   1.737  12.991  0.1967  0.4975  0.2787
  251TMC3    C8 3814   3.516   1.867  12.850 -0.2538 -0.1108 -0.3906
  251TMC3    O1 3815   4.037   1.635  13.014 -0.3935 -0.5667  0.0121
  251TMC3    O2 3816   3.423   1.836  12.775  0.3692  0.8132 -0.0517
  252TMC3    C1 3817   3.666   2.314   9.195 -0.0347  0.5786  0.6451
  252TMC3    C2 3818   3.780   2.378   9.158  0.1348  0.5499 -0.0787
  252TMC3    C3 3819   3.888   2.382   9.242  0.1054  0.5883  0.4338
  252TMC3    C4 3820   3.664   2.236   9.315 -0.7766  0.2430 -0.1422
  252TMC3    C5 3821   3.783   2.241   9.390  0.2296 -0.3515  0.8194
  252TMC3    C6 3822   3.894   2.303   9.356 -0.4307  0.2155  0.1310
  252TMC3     C 3823   3.558   2.306   9.097  0.5493  0.3121 -0.3563
  252TMC3     O 3824   3.557   2.379   8.997 -0.1932 -0.3288  0.6913
  252TMC3     H 3825   3.790   2.437   9.067 -0.0843 -1.1183 -1.1869
  252TMC3    H1 3826   3.569   2.225   9.367 -1.6600  3.1510 -1.1247
  252TMC3    H2 3827   3.982   2.287   9.417  0.4297  0.8045 -0.9535
  252TMC3    C7 3828   3.791   2.201   9.525 -0.5777 -0.3033 -0.8875
  252TMC3    C8 3829   3.977   2.500   9.227 -0.9178 -0.5395 -0.1197
  252TMC3    O1 3830   3.875   2.237   9.604  0.1589 -0.0789 -0.7217
  252TMC3    O2 3831   3.987   2.561   9.123 -0.0743 -0.2121 -0.1313
  253MPD2     C 3832   4.301   1.090  15.663  0.2570  0.1168 -1.0195
  253MPD2    C1 3833   4.293   1.161  15.549  0.4741 -0.1209  0.3648
  253MPD2    C2 3834   4.397   1.239  15.512 -0.2564  0.0284 -0.0607
  253MPD2    C3 3835   4.515   1.235  15.585 -0.5358  0.5298  0.6019
  253MPD2    C4 3836   4.526   1.157  15.696  0.4778  0.9675 -0.7312
  253MPD2    C5 3837   4.422   1.081  15.728  0.1629  0.4034 -0.1733
  253MPD2     H 3838   4.386   1.292  15.419  2.1160 -1.0422 -0.9400
  253MPD2    H1 3839   4.613   1.156  15.761  0.5543  0.2553 -0.8429
  253MPD2    H2 3840   4.224   1.023  15.700  1.6133  0.5173  2.5324
  253MPD2    H3 3841   4.423   1.025  15.822 -0.2624  1.3687  0.4061
  253MPD2     N 3842   4.635   1.315  15.555  0.3140  0.0439 -0.3560
  253MPD2    H5 3843   4.724   1.290  15.599 -0.0724 -0.0381  0.3802
  253MPD2    N1 3844   4.178   1.178  15.475  0.0860  0.0727  0.2939
  253MPD2    H7 3845   4.188   1.236  15.392  1.5737  2.2121  1.9659
  254TMC3    C1 3846   0.033   1.453  15.415 -0.3276  0.8510  0.1169
  254TMC3    C2 3847   0.051   1.586  15.454 -0.3180 -0.2511  0.3125
  254TMC3    C3 3848   0.138   1.596  15.552  0.8721  0.1358  0.2731
  254TMC3    C4 3849   0.129   1.359  15.435 -0.5204 -0.2152  0.4163
  254TMC3    C5 3850   0.230   1.384  15.519  0.5640 -0.3186  0.0309
  254TMC3    C6 3851   0.230   1.507  15.585 -0.0619 -0.5599 -0.1909
  254TMC3     C 3852   4.627   1.417  15.466  0.8402  0.5951  0.2316
  254TMC3     O 3853   4.529   1.477  15.428 -0.1986  0.0612  0.4167
  254TMC3     H 3854   4.701   1.662  15.441 -0.3745 -0.2274  0.7810
  254TMC3    H1 3855   0.106   1.258  15.404  1.9075 -0.3564 -0.9565
  254TMC3    H2 3856   0.303   1.526  15.663  1.1630  0.0878 -1.5038
  254TMC3    C7 3857   0.256   1.278  15.614  0.6585 -0.4720  0.0586
  254TMC3    C8 3858   0.101   1.666  15.673  0.6950  0.0017 -0.3402
  254TMC3    O1 3859   0.156   1.234  15.675  0.6826 -0.6227 -0.0570
  254TMC3    O2 3860   0.143   1.626  15.779 -1.0832 -0.0800  0.1508
  255MPD2     C 3861   3.151   3.052   9.694  0.0157 -0.2787  0.0903
  255MPD2    C1 3862   3.253   3.144   9.678  0.2609 -0.1042 -0.1216
  255MPD2    C2 3863   3.354   3.116   9.584 -0.2119  0.0924 -0.1731
  255MPD2    C3 3864   3.357   2.996   9.510  0.1368 -0.2702  0.4156
  255MPD2    C4 3865   3.252   2.904   9.525  0.7161 -0.0158  0.0255
  255MPD2    C5 3866   3.154   2.933   9.620  0.0358 -0.2803  0.3093
  255MPD2     H 3867   3.432   3.187   9.560 -0.7758 -0.3850 -3.5454
  255MPD2    H1 3868   3.258   2.808   9.475 -2.3769 -0.9190  1.3697
  255MPD2    H2 3869   3.079   3.049   9.775 -0.2706  0.7415 -0.1307
  255MPD2    H3 3870   3.079   2.856   9.634 -1.6559  0.7498 -3.1929
  255MPD2     N 3871   3.456   2.970   9.410 -0.1148 -0.3243  0.2361
  255MPD2    H5 3872   3.433   2.890   9.352 -0.7120  0.6114 -0.8158
  255MPD2    N1 3873   3.245   3.269   9.745 -0.2585  0.1156 -0.7359
  255MPD2    H7 3874   3.157   3.282   9.794 -0.1192 -0.6176 -0.2944
  256TMC3    C1 3875   3.284   3.494   9.785  0.3219 -0.0498 -0.4178
  256TMC3    C2 3876   3.374   3.588   9.830  0.3052  0.5718 -1.1775
  256TMC3    C3 3877   3.335   3.710   9.872  0.0286 -0.0173 -1.1453
  256TMC3    C4 3878   3.150   3.524   9.791 -0.3024 -0.4150  0.3363
  256TMC3    C5 3879   3.111   3.652   9.826 -0.0221  0.6405 -0.2193
  256TMC3    C6 3880   3.204   3.749   9.859 -0.1708 -0.2344  0.0635
  256TMC3     C 3881   3.331   3.375   9.727 -0.1757 -0.5764  0.0828
  256TMC3     O 3882   3.438   3.380   9.673  0.0040 -0.4131  0.1399
  256TMC3     H 3883   3.477   3.557   9.840  0.3231  0.6873 -1.0039
  256TMC3    H1 3884   3.088   3.452   9.739 -0.4040 -1.6568  2.1776
  256TMC3    H2 3885   3.171   3.846   9.895  1.6656  0.1306  0.7269
  256TMC3    C7 3886   2.987   3.699   9.762  0.3604  0.2188 -0.5972
  256TMC3    C8 3887   3.443   3.810   9.873  0.8049  0.5931 -0.5198
  256TMC3    O1 3888   2.950   3.638   9.667  0.1208 -0.7319  0.3849
  256TMC3    O2 3889   3.547   3.795   9.932 -0.0465  0.3125  0.0212
  257MPD2     C 3890   2.448   1.264  13.218  0.1130 -0.2533  0.1982
  257MPD2    C1 3891   2.386   1.169  13.141  0.5958 -0.4522  0.3626
  257MPD2    C2 3892   2.384   1.033  13.183 -0.2436 -0.6035  0.3259
  257MPD2    C3 3893   2.418   0.999  13.309 -0.5716 -0.6550 -0.2535
  257MPD2    C4 3894   2.467   1.097  13.389 -0.3371  0.5486 -0.2016
  257MPD2    C5 3895   2.487   1.227  13.338 -0.0871  0.6227  0.1080
  257MPD2     H 3896   2.335   0.957  13.123 -1.6145  0.7046 -0.1910
  257MPD2    H1 3897   2.482   1.084  13.496  1.2179 -0.8055 -0.6062
  257MPD2    H2 3898   2.474   1.362  13.181  1.2983 -0.3406  0.8202
  257MPD2    H3 3899   2.535   1.301  13.402 -2.9045  1.7511  0.8823
  257MPD2     N 3900   2.409   0.864  13.349  0.2279  0.1541  0.0317
  257MPD2    H5 3901   2.390   0.794  13.279  0.4609 -0.9340  1.0606
  257MPD2    N1 3902   2.327   1.219  13.021 -0.7457 -0.4491  0.1812
  257MPD2    H7 3903   2.339   1.319  13.005 -0.6546 -0.2355  1.5964
  258TMC3    C1 3904   2.398   0.671  13.494 -0.1909  0.3147 -0.0576
  258TMC3    C2 3905   2.459   0.596  13.401  0.6355 -0.0896  0.7264
  258TMC3    C3 3906   2.511   0.478  13.453  0.3054  0.9068  0.5482
  258TMC3    C4 3907   2.377   0.632  13.624  0.5770  0.2658 -0.6583
  258TMC3    C5 3908   2.425   0.512  13.667 -0.3996  0.2244 -1.2415
  258TMC3    C6 3909   2.496   0.438  13.585  0.5543  0.5794 -0.3530
  258TMC3     C 3910   2.421   0.816  13.477  0.2327  0.3234  0.0088
  258TMC3     O 3911   2.432   0.876  13.581 -0.4331 -0.2638  0.3690
  258TMC3     H 3912   2.484   0.632  13.302 -1.4474 -1.1741 -0.1754
  258TMC3    H1 3913   2.339   0.703  13.697  2.6364  1.6295 -0.8952
  258TMC3    H2 3914   2.528   0.338  13.614 -0.8702  0.6751  1.5657
  258TMC3    C7 3915   2.409   0.464  13.807  0.8075  1.1442 -0.3239
  258TMC3    C8 3916   2.593   0.385  13.373  0.0559  0.5773  0.2785
  258TMC3    O1 3917   2.310   0.501  13.867  0.3613  0.1121  0.1505
  258TMC3    O2 3918   2.661   0.306  13.435 -0.0388 -0.0598  0.4798
  259MPD2     C 3919   2.003   2.777   0.706  0.1766  0.2844 -0.3526
  259MPD2    C1 3920   1.887   2.701   0.697  0.3481 -0.1231 -0.1176
  259MPD2    C2 3921   1.850   2.665   0.571 -0.2533  0.6344 -0.2424
  259MPD2    C3 3922   1.929   2.687   0.464  0.4113 -0.3863  0.6055
  259MPD2    C4 3923   2.043   2.765   0.478  0.4271  0.5148  0.1377
  259MPD2    C5 3924   2.076   2.815   0.601  0.1464  0.3438 -0.0962
  259MPD2     H 3925   1.761   2.604   0.560  1.0515 -1.8527  2.8992
  259MPD2    H1 3926   2.106   2.794   0.394  2.3712 -1.5553  0.8764
  259MPD2    H2 3927   2.043   2.820   0.798  0.1479  0.6945 -0.5329
  259MPD2    H3 3928   2.163   2.876   0.622  0.6234 -1.0067  1.8400
  259MPD2     N 3929   1.886   2.628   0.344  0.2277 -0.1026  0.4775
  259MPD2    H5 3930   1.788   2.608   0.324  0.9358 -0.5946 -2.4245
  259MPD2    N1 3931   1.806   2.692   0.815  0.2195  0.5943  0.2026
  259MPD2    H7 3932   1.855   2.725   0.898 -1.0293 -0.5985  1.4236
  260TMC3    C1 3933   1.895   2.565   0.119 -0.1856  0.0950  0.3881
  260TMC3    C2 3934   1.965   2.558   0.004 -0.8783 -0.6639 -0.6391
  260TMC3    C3 3935   1.924   2.468  17.616 -0.5626  0.0263 -0.0998
  260TMC3    C4 3936   1.784   2.479   0.140 -0.1959  0.3592  0.4670
  260TMC3    C5 3937   1.748   2.398   0.037  0.4937 -0.4648 -0.6461
  260TMC3    C6 3938   1.815   2.395  17.623 -0.1725  0.3227  0.0263
  260TMC3     C 3939   1.966   2.616   0.233 -0.0938  0.6746  0.4227
  260TMC3     O 3940   2.088   2.623   0.219  0.9585 -0.0707 -0.2559
  260TMC3     H 3941   2.054   2.619  17.707  0.2086 -2.0907  1.4756
  260TMC3    H1 3942   1.744   2.452   0.237  1.2583 -2.0006  0.4101
  260TMC3    H2 3943   1.791   2.341  17.533  1.1520  2.2046 -1.4630
  260TMC3    C7 3944   1.656   2.288   0.052 -0.6864  0.3876  0.2242
  260TMC3    C8 3945   2.025   2.418  17.529 -0.3706  0.2593  0.2948
  260TMC3    O1 3946   1.659   2.202  17.676 -0.0163  0.1907 -0.2178
  260TMC3    O2 3947   1.988   2.351  17.432  0.0294 -0.4190  0.3412
  261MPD2     C 3948   2.953   1.051  12.567  0.0500  0.0058  0.3203
  261MPD2    C1 3949   2.992   0.963  12.465 -0.6006  0.3362 -0.4379
  261MPD2    C2 3950   2.974   1.007  12.337 -0.3032  0.5588 -0.2261
  261MPD2    C3 3951   2.894   1.121  12.306  0.1515 -0.2674 -0.1596
  261MPD2    C4 3952   2.853   1.200  12.413 -0.1486  0.2129 -0.5531
  261MPD2    C5 3953   2.885   1.167  12.540 -0.3335 -0.0612 -0.3857
  261MPD2     H 3954   3.021   0.947  12.259  0.9924  0.3475  0.7086
  261MPD2    H1 3955   2.821   1.303  12.400 -0.5987 -0.1134 -2.0565
  261MPD2    H2 3956   2.957   1.015  12.669 -1.1524  0.8925  0.6861
  261MPD2    H3 3957   2.848   1.232  12.617  0.4488 -0.3571  0.2379
  261MPD2     N 3958   2.873   1.177  12.177 -0.3538 -0.3324 -0.2239
  261MPD2    H5 3959   2.818   1.262  12.179 -2.5164 -1.7426  0.1726
  261MPD2    N1 3960   3.060   0.841  12.499 -0.0701  0.3307  0.3421
  261MPD2    H7 3961   3.104   0.785  12.427  0.2825  0.3567  0.5396
  262TMC3    C1 3962   2.884   1.212  11.942 -0.5430  0.0696 -0.4847
  262TMC3    C2 3963   2.840   1.338  11.967 -0.4731 -0.4879  0.2571
  262TMC3    C3 3964   2.837   1.427  11.874 -0.3101 -0.0150 -0.5226
  262TMC3    C4 3965   2.936   1.189  11.813 -0.3920  0.2375 -0.0647
  262TMC3    C5 3966   2.934   1.290  11.721 -0.6978 -0.1586  0.2361
  262TMC3    C6 3967   2.898   1.416  11.750 -0.2685  0.1537 -0.2661
  262TMC3     C 3968   2.905   1.118  12.054  0.3640  0.0477  0.0050
  262TMC3     O 3969   2.954   1.008  12.030 -0.4620  0.0776  0.5566
  262TMC3     H 3970   2.775   1.358  12.051 -2.8542 -1.1631 -1.3890
  262TMC3    H1 3971   2.967   1.092  11.778  2.4820  0.0696  2.9568
  262TMC3    H2 3972   2.883   1.494  11.676 -1.9044 -2.2088 -2.4205
  262TMC3    C7 3973   2.995   1.264  11.590 -0.5137 -0.3221  0.3772
  262TMC3    C8 3974   2.744   1.541  11.866 -0.1947  0.6026  0.9132
  262TMC3    O1 3975   3.083   1.179  11.594 -0.5293 -0.3882  0.5577
  262TMC3    O2 3976   2.625   1.516  11.869 -0.3415 -0.4032  0.7537
  263MPD2     C 3977   3.684   0.408  11.409  0.3181 -0.6082  0.3724
  263MPD2    C1 3978   3.757   0.331  11.325 -0.2260 -0.1914 -0.6958
  263MPD2    C2 3979   3.747   0.363  11.193  0.5117 -0.5709  0.4717
  263MPD2    C3 3980   3.684   0.471  11.150 -0.4790  0.3498  0.8105
  263MPD2    C4 3981   3.614   0.550  11.233  0.1500  0.2592 -0.8467
  263MPD2    C5 3982   3.615   0.520  11.370 -0.2158 -0.1647  0.0269
  263MPD2     H 3983   3.796   0.296  11.122  0.5888  0.0302 -0.0440
  263MPD2    H1 3984   3.557   0.638  11.203 -0.1475  0.8106  1.3465
  263MPD2    H2 3985   3.665   0.386  11.513 -2.0653  3.1406  0.6964
  263MPD2    H3 3986   3.558   0.580  11.440  1.3103  2.2177 -0.7800
  263MPD2     N 3987   3.697   0.494  11.010 -0.2734  0.0323 -0.5041
  263MPD2    H5 3988   3.733   0.417  10.954  2.2603  1.3380 -0.6344
  263MPD2    N1 3989   3.840   0.226  11.378  0.6745  0.2176  0.4474
  263MPD2    H7 3990   3.819   0.193  11.471 -0.1628  0.1770  0.2457
  264TMC3    C1 3991   3.735   0.616  10.819 -1.1201 -0.1006 -1.2577
  264TMC3    C2 3992   3.683   0.716  10.747 -0.4619 -0.3271 -1.1192
  264TMC3    C3 3993   3.767   0.770  10.660 -0.0326 -0.3737 -0.1355
  264TMC3    C4 3994   3.855   0.561  10.801  0.2146  0.3911  0.4962
  264TMC3    C5 3995   3.924   0.603  10.693  1.5167  0.3411  0.6881
  264TMC3    C6 3996   3.874   0.708  10.614  0.4477 -0.0734 -0.1036
  264TMC3     C 3997   3.675   0.616  10.951 -0.2962 -0.2998  0.3932
  264TMC3     O 3998   3.629   0.726  10.987  0.2532 -0.0085  1.3118
  264TMC3     H 3999   3.592   0.764  10.781  0.9134  1.4204  0.0856
  264TMC3    H1 4000   3.904   0.490  10.867 -0.7114 -0.6704  0.0356
  264TMC3    H2 4001   3.933   0.761  10.540  2.0250  0.1218  1.2837
  264TMC3    C7 4002   4.072   0.613  10.688 -0.1444 -0.3275 -0.0208
  264TMC3    C8 4003   3.810   0.898  10.707 -0.1960  0.5228 -0.5399
  264TMC3    O1 4004   4.116   0.612  10.578 -0.4337  0.5421  0.2666
  264TMC3    O2 4005   3.879   0.957  10.631  0.9045  0.5048  0.0808
  265MPD2     C 4006   1.312   0.624  15.483 -0.0037  0.0577  0.8739
  265MPD2    C1 4007   1.392   0.717  15.430 -0.3765  0.4189  0.1733
  265MPD2    C2 4008   1.505   0.688  15.352  0.1612  0.0076 -0.0805
  265MPD2    C3 4009   1.524   0.558  15.318 -0.1443  0.1859 -1.0560
  265MPD2    C4 4010   1.434   0.461  15.367  0.0654 -0.3552  0.7023
  265MPD2    C5 4011   1.326   0.490  15.451 -0.8806 -0.4408  0.6766
  265MPD2     H 4012   1.571   0.769  15.320 -1.4422  0.5058 -2.0626
  265MPD2    H1 4013   1.449   0.358  15.337  2.2617 -0.1046  0.9614
  265MPD2    H2 4014   1.223   0.639  15.543  0.4151 -0.0053  1.5125
  265MPD2    H3 4015   1.258   0.417  15.493 -1.3006 -0.3958  0.0749
  265MPD2     N 4016   1.617   0.513  15.220 -0.2262  0.7433 -0.0478
  265MPD2    H5 4017   1.600   0.419  15.185  0.3075  0.1604  1.2532
  265MPD2    N1 4018   1.370   0.854  15.468  0.1295  0.1366 -0.2610
  265MPD2    H7 4019   1.448   0.914  15.442 -0.7409  1.1585 -0.5602
  266TMC3    C1 4020   1.275   1.049  15.549 -0.1291 -0.0515  0.2239
  266TMC3    C2 4021   1.382   1.088  15.626 -0.3562 -0.2119  0.0183
  266TMC3    C3 4022   1.376   1.200  15.706  0.1266 -0.1273  0.0710
  266TMC3    C4 4023   1.160   1.120  15.563 -0.0174 -0.0242  0.1454
  266TMC3    C5 4024   1.156   1.229  15.640  0.4607  0.1812 -0.3392
  266TMC3    C6 4025   1.261   1.274  15.713 -0.5402  0.0652 -0.3395
  266TMC3     C 4026   1.258   0.907  15.521 -0.3278  0.5034 -0.4026
  266TMC3     O 4027   1.150   0.856  15.548 -0.1050 -0.5278 -0.0576
  266TMC3     H 4028   1.465   1.019  15.639  0.4711  0.7362 -0.1937
  266TMC3    H1 4029   1.072   1.072  15.521 -1.8560  3.2359  0.2289
  266TMC3    H2 4030   1.268   1.378  15.743  0.9968 -0.3854  0.8565
  266TMC3    C7 4031   1.063   1.331  15.601  0.3171  0.1615  0.0556
  266TMC3    C8 4032   1.479   1.219  15.802  0.2119  0.3675  0.0590
  266TMC3    O1 4033   1.033   1.425  15.676  0.1225  0.2224  0.5816
  266TMC3    O2 4034   1.581   1.161  15.772  0.0562  0.0049  0.5495
  267MPD2     C 4035   3.345   2.966  17.197  1.4504 -0.2322  0.5091
  267MPD2    C1 4036   3.432   2.876  17.265  0.1010  0.5038  0.5281
  267MPD2    C2 4037   3.503   2.796  17.185  0.4884  0.3790  0.4804
  267MPD2    C3 4038   3.493   2.798  17.050  0.4734  0.3285 -0.2358
  267MPD2    C4 4039   3.404   2.886  16.982  0.5891 -0.0060  0.3801
  267MPD2    C5 4040   3.331   2.967  17.061  0.5281 -0.1692 -0.5690
  267MPD2     H 4041   3.578   2.724  17.217 -1.5030 -2.9311 -2.3577
  267MPD2    H1 4042   3.400   2.893  16.874  0.0406 -0.0587  0.3975
  267MPD2    H2 4043   3.288   3.037  17.256  0.9038 -1.0071  0.9077
  267MPD2    H3 4044   3.259   3.033  17.013  1.9111  1.5452 -0.2801
  267MPD2     N 4045   3.579   2.717  16.978  0.5456 -0.0207  0.0554
  267MPD2    H5 4046   3.640   2.656  17.031  1.1851  1.0270  0.5329
  267MPD2    N1 4047   3.458   2.893  17.405  0.0071  0.1011 -0.5015
  267MPD2    H7 4048   3.414   2.977  17.442 -0.9465 -1.0912  1.0395
  268TMC3    C1 4049   3.564   2.881  17.608 -0.6300  0.4093  0.9052
  268TMC3    C2 4050   3.584   3.014  17.608  0.9810  0.7338  0.6843
  268TMC3    C3 4051   3.626   3.074   0.018  0.1949  0.0194  0.5095
  268TMC3    C4 4052   3.590   2.802   0.012  0.7242 -0.8090 -0.2893
  268TMC3    C5 4053   3.621   2.862   0.132  0.0860  0.2188  0.4023
  268TMC3    C6 4054   3.633   2.998   0.132 -0.3959  0.6704 -0.4551
  268TMC3     C 4055   3.537   2.819  17.477 -0.1002  0.2642  0.6813
  268TMC3     O 4056   3.589   2.716  17.443  0.2951 -0.1168  0.7378
  268TMC3     H 4057   3.552   3.082  17.529 -1.8429 -2.8030 -1.2331
  268TMC3    H1 4058   3.561   2.699  17.702  1.3416 -1.2363  1.2272
  268TMC3    H2 4059   3.668   3.043   0.224 -0.9128 -1.1831  0.6611
  268TMC3    C7 4060   3.573   2.809   0.258 -0.0691 -0.6641 -0.0122
  268TMC3    C8 4061   3.708   3.190   0.006  0.6840 -0.8089  0.4618
  268TMC3    O1 4062   3.533   2.886   0.344  0.2156 -0.3366  0.3887
  268TMC3    O2 4063   3.754   3.226   0.113 -0.5407  0.1677  0.2597
  269MPD2     C 4064   4.335   1.525  15.684 -0.1508  0.1819 -0.7775
  269MPD2    C1 4065   4.200   1.526  15.674  0.7762  0.3027  1.0507
  269MPD2    C2 4066   4.140   1.641  15.628 -0.3680 -0.1640 -0.8674
  269MPD2    C3 4067   4.217   1.750  15.581 -0.2442  0.3768 -0.1590
  269MPD2    C4 4068   4.355   1.744  15.599 -0.6825  0.4375 -0.0511
  269MPD2    C5 4069   4.410   1.631  15.645  0.6617 -0.2336  0.0551
  269MPD2     H 4070   4.033   1.656  15.616 -0.5167 -0.9975 -0.5749
  269MPD2    H1 4071   4.428   1.818  15.569  0.7246 -0.8110  0.3042
  269MPD2    H2 4072   4.377   1.439  15.733  0.7546  0.6661 -0.7083
  269MPD2    H3 4073   4.518   1.635  15.655  0.7734 -0.3556 -1.1374
  269MPD2     N 4074   4.149   1.872  15.546 -0.4363 -0.6010  0.5745
  269MPD2    H5 4075   4.048   1.864  15.555 -0.2957 -2.8537  0.3123
  269MPD2    N1 4076   4.139   1.417  15.733  0.5285 -0.3239  0.6375
  269MPD2    H7 4077   4.200   1.340  15.759  0.3601 -0.4926  0.5319
  270TMC3    C1 4078   3.973   1.295  15.843  0.4632  0.3573 -0.3888
  270TMC3    C2 4079   3.840   1.293  15.875  0.2885 -0.0330 -0.6704
  270TMC3    C3 4080   3.801   1.180  15.948  0.1993 -0.0536 -0.1268
  270TMC3    C4 4081   4.063   1.202  15.879  0.5503 -0.0611  0.2875
  270TMC3    C5 4082   4.020   1.104  15.970 -0.3829 -0.0431  0.0303
  270TMC3    C6 4083   3.887   1.099  16.006 -0.1238 -0.3471 -0.0883
  270TMC3     C 4084   4.006   1.398  15.748  0.1493  0.4852  0.4904
  270TMC3     O 4085   3.915   1.466  15.699 -0.4116  0.0582 -0.5154
  270TMC3     H 4086   3.772   1.343  15.807 -0.3595 -0.1280 -0.0973
  270TMC3    H1 4087   4.167   1.197  15.848  0.9747 -1.1867  1.8574
  270TMC3    H2 4088   3.839   1.027  16.071  1.8976  0.8378  2.7063
  270TMC3    C7 4089   4.087   0.967  15.953  0.4989 -0.4547  0.1267
  270TMC3    C8 4090   3.699   1.102  15.874  0.3258  0.2800 -0.3270
  270TMC3    O1 4091   4.207   0.967  15.958 -0.3505 -0.3162 -0.8150
  270TMC3    O2 4092   3.727   0.983  15.859 -0.0907 -0.2878 -0.1109
  271MPD2     C 4093   3.002   0.828  14.301 -0.0056 -0.1214 -0.3482
  271MPD2    C1 4094   2.967   0.836  14.432  0.9155 -0.4296  0.0425
  271MPD2    C2 4095   2.858   0.917  14.463 -0.2156 -0.1535  0.2065
  271MPD2    C3 4096   2.796   0.987  14.366 -0.5653  0.2236 -0.9077
  271MPD2    C4 4097   2.830   0.982  14.232  0.2891 -0.1730 -0.3345
  271MPD2    C5 4098   2.942   0.904  14.198  0.6917  0.1868 -0.0381
  271MPD2     H 4099   2.830   0.916  14.568  2.4281 -4.5132  0.8566
  271MPD2    H1 4100   2.790   1.045  14.153  0.6860 -0.6799 -0.9425
  271MPD2    H2 4101   3.083   0.765  14.266 -0.2186  0.0497 -1.1646
  271MPD2    H3 4102   2.971   0.893  14.094 -1.8778  1.4085 -0.8722
  271MPD2     N 4103   2.675   1.050  14.399 -0.6569  0.5473  0.7672
  271MPD2    H5 4104   2.629   1.098  14.323  0.2165 -0.3338 -0.3243
  271MPD2    N1 4105   3.036   0.770  14.539  0.7104 -0.4490 -0.3419
  271MPD2    H7 4106   3.002   0.790  14.633 -0.4864  0.4370 -0.9578
  272TMC3    C1 4107   3.172   0.620  14.651  0.3013  0.9383 -0.0600
  272TMC3    C2 4108   3.298   0.563  14.659  0.0352 -0.2914 -0.3130
  272TMC3    C3 4109   3.354   0.531  14.783 -0.1241 -0.3205  0.6717
  272TMC3    C4 4110   3.099   0.633  14.769 -0.1289  1.0729 -0.2274
  272TMC3    C5 4111   3.147   0.590  14.889 -0.1929  0.2430  0.1256
  272TMC3    C6 4112   3.277   0.540  14.897  0.3661 -0.0079 -0.7144
  272TMC3     C 4113   3.137   0.681  14.523  0.0886  0.5371 -0.0139
  272TMC3     O 4114   3.202   0.655  14.425  0.5983  0.2765 -0.8450
  272TMC3     H 4115   3.354   0.545  14.568 -0.7202 -0.6931 -0.7076
  272TMC3    H1 4116   2.996   0.667  14.763 -0.5694 -0.2419 -0.2776
  272TMC3    H2 4117   3.299   0.478  14.984 -3.1051  0.7039  0.6813
  272TMC3    C7 4118   3.081   0.632  15.016  0.0550  0.2598  0.6736
  272TMC3    C8 4119   3.487   0.473  14.785  0.6124 -0.2334  0.1239
  272TMC3    O1 4120   3.128   0.586  15.118  0.4245 -0.0939 -0.8195
  272TMC3    O2 4121   3.537   0.436  14.678 -0.1833 -0.5536 -0.1412
  273MPD2     C 4122   4.406   3.380  11.495  0.5170  0.0133  0.7089
  273MPD2    C1 4123   4.425   3.513  11.524  0.1354 -0.7250  0.5788
  273MPD2    C2 4124   4.438   3.604  11.420 -0.3445  0.4533 -0.5761
  273MPD2    C3 4125   4.443   3.554  11.286  0.1262 -0.5850  0.3330
  273MPD2    C4 4126   4.422   3.419  11.265  0.5859 -0.3115 -0.3086
  273MPD2    C5 4127   4.398   3.330  11.366  0.6285 -0.2312 -0.2428
  273MPD2     H 4128   4.452   3.706  11.452 -1.0457  1.0699 -2.2466
  273MPD2    H1 4129   4.424   3.378  11.165 -0.8373  3.7045 -2.0026
  273MPD2    H2 4130   4.387   3.307  11.572  0.5355 -0.7115  0.0232
  273MPD2    H3 4131   4.373   3.227  11.348  0.9890 -0.4222  0.3317
  273MPD2     N 4132   4.453   3.634  11.167 -0.0243 -0.1181  0.1599
  273MPD2    H5 4133   4.455   3.591  11.076  2.3483 -1.4772  0.8654
  273MPD2    N1 4134   4.434   3.545  11.666  0.6269 -0.4170  0.3798
  273MPD2    H7 4135   4.440   3.474  11.738 -0.5462  0.0636  0.9469
  274TMC3    C1 4136   4.504   3.838  11.062 -0.4620 -0.0981  0.1622
  274TMC3    C2 4137   4.400   3.826  10.977  0.3306  0.0875  0.4726
  274TMC3    C3 4138   4.354   3.940  10.918  0.4184  0.2048  0.1459
  274TMC3    C4 4139   4.581   3.954  11.070  0.3342 -0.5909  0.2194
  274TMC3    C5 4140   4.521   4.064  11.014  0.1607 -0.5933 -0.0790
  274TMC3    C6 4141   4.417   4.062  10.925  0.2234 -0.1570  0.5904
  274TMC3     C 4142   4.496   3.765  11.175  0.6291  0.3704  0.0317
  274TMC3     O 4143   4.522   3.834  11.273 -0.5826 -0.3393 -0.4238
  274TMC3     H 4144   4.331   3.743  10.977  0.3651  0.0617  1.5757
  274TMC3    H1 4145   4.666   3.971  11.134  0.4066 -1.3436  0.3183
  274TMC3    H2 4146   4.344   4.142  10.917 -0.4866 -0.9630 -1.0421
  274TMC3    C7 4147   4.508   4.177  11.106  0.0019  0.1343 -0.3076
  274TMC3    C8 4148   4.238   3.939  10.834  0.2803 -0.6971  0.3792
  274TMC3    O1 4149   4.455   4.276  11.055  0.3386  0.0964  0.2012
  274TMC3    O2 4150   4.144   3.870  10.855 -0.3497  0.0572 -0.4775
  275MPD2     C 4151   4.125   2.122  14.850  0.2606  0.2729  0.2211
  275MPD2    C1 4152   4.142   1.982  14.862 -0.8147  0.2810 -0.5240
  275MPD2    C2 4153   4.072   1.901  14.778 -0.5725  0.1833  0.4426
  275MPD2    C3 4154   3.977   1.963  14.695 -0.8369  0.9752 -0.0452
  275MPD2    C4 4155   3.953   2.101  14.679  0.0883  0.4914 -0.1215
  275MPD2    C5 4156   4.037   2.180  14.758 -0.1820 -0.0896  0.4228
  275MPD2     H 4157   4.080   1.794  14.792 -1.6981 -0.0275 -0.5770
  275MPD2    H1 4158   3.890   2.141  14.600  0.2015 -0.2369 -0.5787
  275MPD2    H2 4159   4.191   2.188  14.905  1.1805 -0.3429 -0.1484
  275MPD2    H3 4160   4.038   2.288  14.745 -0.2011 -0.1081  0.2704
  275MPD2     N 4161   3.888   1.885  14.614 -0.1707 -0.0983 -0.0420
  275MPD2    H5 4162   3.814   1.941  14.574 -1.8228 -1.1729  1.4853
  275MPD2    N1 4163   4.224   1.929  14.960  0.4368  0.0168 -0.5558
  275MPD2    H7 4164   4.219   1.829  14.975 -1.0776  0.5015  2.0922
  276TMC3    C1 4165   4.410   1.925  15.098  0.3203  0.2319  0.5044
  276TMC3    C2 4166   4.444   1.803  15.046  1.0859  0.3724 -0.3981
  276TMC3    C3 4167   4.551   1.733  15.108 -0.0478 -0.0828 -0.7373
  276TMC3    C4 4168   4.487   1.989  15.191 -0.5542  0.1707  0.2980
  276TMC3    C5 4169   4.604   1.931  15.229  0.1678  0.1975 -0.4094
  276TMC3    C6 4170   4.634   1.790  15.199 -0.4980  0.6126 -0.2616
  276TMC3     C 4171   4.296   2.001  15.047  0.1192 -0.5316 -0.0156
  276TMC3     O 4172   4.286   2.119  15.079 -0.1038 -0.1070  0.1335
  276TMC3     H 4173   4.381   1.751  14.976  2.1137 -0.6275 -0.5712
  276TMC3    H1 4174   4.452   2.078  15.243 -2.3616 -0.2095 -0.2543
  276TMC3    H2 4175   4.722   1.746  15.245 -1.6526  0.3034  1.6749
  276TMC3    C7 4176   4.693   1.997  15.320  0.4640  0.0801 -0.9866
  276TMC3    C8 4177   4.573   1.598  15.074  0.0490 -0.0985 -0.3302
  276TMC3    O1 4178   0.032   1.925  15.397 -0.1918  0.3252 -0.0641
  276TMC3    O2 4179   4.686   1.551  15.091 -0.1655  0.5363 -0.1599
  277MPD2     C 4180   1.926   0.881  13.395 -0.4486 -0.5437  0.4389
  277MPD2    C1 4181   1.818   0.958  13.423  0.6697  0.0604  0.4705
  277MPD2    C2 4182   1.726   0.902  13.507 -0.1635  0.0911 -0.3359
  277MPD2    C3 4183   1.728   0.773  13.549  0.5031 -0.0790  0.4323
  277MPD2    C4 4184   1.837   0.697  13.519  0.0077 -0.2929  0.1218
  277MPD2    C5 4185   1.934   0.757  13.445 -0.5129  0.1040 -0.0381
  277MPD2     H 4186   1.634   0.958  13.522 -0.0306  0.5741 -1.3364
  277MPD2    H1 4187   1.848   0.594  13.549 -1.3743 -0.8987 -1.4113
  277MPD2    H2 4188   2.007   0.913  13.330 -1.6455  2.6415  0.5228
  277MPD2    H3 4189   2.019   0.695  13.421 -0.6136  0.5698 -1.6295
  277MPD2     N 4190   1.620   0.724  13.623 -0.5294  0.0727 -0.0159
  277MPD2    H5 4191   1.548   0.792  13.647  0.9512  2.1754 -1.5252
  277MPD2    N1 4192   1.796   1.077  13.353 -0.0999 -0.5964  0.4332
  277MPD2    H7 4193   1.884   1.108  13.313  0.2264 -0.8765  0.9375
  278TMC3    C1 4194   1.484   0.592  13.755  0.5011 -0.2762 -0.1294
  278TMC3    C2 4195   1.455   0.470  13.812 -0.1761 -0.3218 -0.0989
  278TMC3    C3 4196   1.328   0.451  13.853 -0.0781  0.6910  0.3019
  278TMC3    C4 4197   1.380   0.685  13.720  0.5580  0.3556  0.2235
  278TMC3    C5 4198   1.253   0.657  13.762 -0.4557 -1.5009 -0.1511
  278TMC3    C6 4199   1.227   0.544  13.836  0.2093 -0.8459  0.4666
  278TMC3     C 4200   1.602   0.601  13.665  0.0180 -0.1145 -0.2278
  278TMC3     O 4201   1.655   0.497  13.630  0.1771  0.2236 -0.3309
  278TMC3     H 4202   1.532   0.394  13.816 -1.8351 -2.0390 -1.1763
  278TMC3    H1 4203   1.400   0.784  13.682 -0.1229  0.7945  1.0212
  278TMC3    H2 4204   1.131   0.537  13.887 -0.9786 -1.6543 -1.8444
  278TMC3    C7 4205   1.160   0.761  13.782 -0.8144 -0.6965  0.8403
  278TMC3    C8 4206   1.299   0.317  13.899 -0.8507 -0.5508 -0.0004
  278TMC3    O1 4207   1.215   0.867  13.812 -0.1228  0.4588  0.2212
  278TMC3    O2 4208   1.390   0.257  13.957  0.3557  0.2785 -0.2153
  279MPD2     C 4209   1.099   0.707  17.679  0.2171  0.1622 -0.2828
  279MPD2    C1 4210   1.016   0.653  17.585 -0.1341  0.8752 -0.3328
  279MPD2    C2 4211   1.055   0.658  17.454 -0.5627 -0.0639 -0.4070
  279MPD2    C3 4212   1.166   0.728  17.417 -0.3780 -0.2357  0.9338
  279MPD2    C4 4213   1.253   0.768  17.513 -0.1829  0.4942 -0.4685
  279MPD2    C5 4214   1.225   0.760  17.642  0.1808  0.3583 -0.9823
  279MPD2     H 4215   0.988   0.628  17.374  1.3216 -0.5865 -1.7753
  279MPD2    H1 4216   1.345   0.817  17.485 -0.7588  0.6217 -2.1348
  279MPD2    H2 4217   1.074   0.709   0.077  0.2711 -1.3571 -0.2472
  279MPD2    H3 4218   1.293   0.805   0.005 -1.9447 -0.5200  1.6386
  279MPD2     N 4219   1.186   0.756  17.274  0.2255 -0.4223  0.2088
  279MPD2    H5 4220   1.266   0.815  17.256  0.4978 -0.2588  2.0100
  279MPD2    N1 4221   0.879   0.620  17.620 -0.3223 -0.2721 -0.7252
  279MPD2    H7 4222   0.850   0.644   0.007  0.3865  2.2792 -1.1409
  280TMC3    C1 4223   0.652   0.633  17.558  0.3953 -0.0614 -0.3047
  280TMC3    C2 4224   0.573   0.615  17.455 -0.0154  0.1743 -0.1773
  280TMC3    C3 4225   0.467   0.701  17.428  0.4362 -0.3652  0.5442
  280TMC3    C4 4226   0.638   0.743  17.638  0.4477  0.1319 -0.2046
  280TMC3    C5 4227   0.532   0.824  17.620  0.4573 -0.5301  0.3149
  280TMC3    C6 4228   0.442   0.802  17.514 -0.9289  0.2055  0.4849
  280TMC3     C 4229   0.782   0.576  17.537  0.0505 -0.8338 -0.3078
  280TMC3     O 4230   0.800   0.511  17.434  0.5436  0.0770  0.2240
  280TMC3     H 4231   0.580   0.532  17.385 -0.6619 -0.3460  0.3775
  280TMC3    H1 4232   0.712   0.773   0.003 -0.9672 -1.4302  1.8800
  280TMC3    H2 4233   0.387   0.889  17.481  0.3926  0.3519 -1.3728
  280TMC3    C7 4234   0.545   0.960  17.670 -0.5847 -0.9122 -0.0830
  280TMC3    C8 4235   0.463   0.738  17.289 -0.9980 -0.1397  0.5062
  280TMC3    O1 4236   0.650   1.000   0.012  0.1425 -0.1829 -0.0899
  280TMC3    O2 4237   0.453   0.858  17.271  0.7376  0.2343  0.2049
  281TMC3    C1 4238   4.505   1.531  13.561  0.1518  0.6453  0.1862
  281TMC3    C2 4239   4.519   1.632  13.473 -0.6143  0.5559  0.2621
  281TMC3    C3 4240   4.527   1.601  13.340  0.5703 -1.4586 -0.5864
  281TMC3    C4 4241   4.491   1.407  13.523 -0.0899 -0.1922 -0.0719
  281TMC3    C5 4242   4.497   1.374  13.388 -0.5074  0.1372 -0.4766
  281TMC3    C6 4243   4.532   1.471  13.291 -0.1597  0.4293 -0.2226
  281TMC3     C 4244   4.420   1.571  13.677 -0.2990 -0.9722 -0.7382
  281TMC3     O 4245   4.453   1.540  13.790  0.1323 -0.3306  0.1600
  281TMC3     H 4246   4.527   1.734  13.507  0.7161  1.3071 -2.2850
  281TMC3    H1 4247   4.458   1.336  13.598 -2.3450 -1.3104 -2.1338
  281TMC3    H2 4248   4.517   1.439  13.189  2.4949  1.4744 -0.9380
  281TMC3    C7 4249   4.443   1.249  13.342  0.7487 -0.1390  0.2001
  281TMC3    C8 4250   4.460   1.696  13.251  0.3263  0.3749  1.1672
  281TMC3    O1 4251   4.488   1.199  13.242 -0.0415  0.3078  0.6346
  281TMC3    O2 4252   4.438   1.642  13.140  0.3287  0.1031  0.4142
  282MPD2     C 4253   1.282   2.890  15.315 -0.4678  0.0686  0.1917
  282MPD2    C1 4254   1.151   2.931  15.343 -0.4661  0.4580  0.6230
  282MPD2    C2 4255   1.064   2.940  15.240 -0.2098  0.7813 -0.4856
  282MPD2    C3 4256   1.091   2.888  15.115  0.8724 -0.3082  0.3826
  282MPD2    C4 4257   1.225   2.855  15.085 -0.3590  0.6988  0.6982
  282MPD2    C5 4258   1.317   2.858  15.191  0.6194  0.2106  1.3574
  282MPD2     H 4259   0.962   2.969  15.263 -0.1147 -0.4536  1.4253
  282MPD2    H1 4260   1.252   2.823  14.985  1.2571 -2.0242  2.0244
  282MPD2    H2 4261   1.354   2.869  15.393  1.7892 -0.8319 -2.1362
  282MPD2    H3 4262   1.413   2.819  15.159 -0.1351 -2.3088  2.1426
  282MPD2     N 4263   0.978   2.877  15.027 -0.2995  0.4225  0.0263
  282MPD2    H5 4264   0.890   2.897  15.073  0.2564 -2.6775  2.4538
  282MPD2    N1 4265   1.105   2.967  15.471 -0.0997  0.0346 -0.9893
  282MPD2    H7 4266   1.012   3.006  15.486  0.6674  1.6919 -0.5597
  283TMC3    C1 4267   1.057   2.968  15.694  0.1054 -0.2994 -0.3951
  283TMC3    C2 4268   0.992   3.088  15.703  0.7681 -0.8693 -0.6755
  283TMC3    C3 4269   0.923   3.112  15.818 -0.3704 -0.4060 -0.5817
  283TMC3    C4 4270   1.074   2.881  15.800 -0.3133  0.3451  0.4452
  283TMC3    C5 4271   1.005   2.916  15.911 -0.5488 -0.4795  0.8349
  283TMC3    C6 4272   0.924   3.022  15.923  0.8814 -0.6203  0.3364
  283TMC3     C 4273   1.163   2.952  15.593  0.1540 -0.1975  0.6491
  283TMC3     O 4274   1.261   2.880  15.613 -0.0306  1.0108  0.3514
  283TMC3     H 4275   0.979   3.146  15.612 -1.6202  0.7736  0.7515
  283TMC3    H1 4276   1.136   2.791  15.798 -1.7610 -0.6237 -0.6755
  283TMC3    H2 4277   0.853   3.041  16.003  1.7869  0.1403  0.9598
  283TMC3    C7 4278   0.978   2.811  16.012  0.1648 -0.4709 -0.1650
  283TMC3    C8 4279   0.868   3.253  15.834 -0.4169 -0.9184 -0.1692
  283TMC3    O1 4280   0.950   2.845  16.125 -0.4579  0.4797 -0.5975
  283TMC3    O2 4281   0.850   3.287  15.949  0.0610 -0.3758 -0.1509
  284MPD2     C 4282   4.144   1.805  12.005  0.2169 -0.0507  0.3773
  284MPD2    C1 4283   4.182   1.754  11.882  0.0707  0.1463 -0.1460
  284MPD2    C2 4284   4.131   1.643  11.829  0.2690 -0.0106 -0.6257
  284MPD2    C3 4285   4.029   1.583  11.897 -0.3307 -0.6597  0.4304
  284MPD2    C4 4286   3.987   1.631  12.020 -0.3981  0.0621  0.6006
  284MPD2    C5 4287   4.044   1.738  12.073  1.2605 -0.6791  0.0249
  284MPD2     H 4288   4.170   1.596  11.739 -2.0300  0.8014 -2.0395
  284MPD2    H1 4289   3.912   1.579  12.079 -3.0256  2.0853 -0.9344
  284MPD2    H2 4290   4.196   1.886  12.054 -0.4608  0.1334  0.8040
  284MPD2    H3 4291   4.010   1.768  12.172  0.5302 -0.2389 -0.3545
  284MPD2     N 4292   3.975   1.465  11.852  0.4194 -0.4061 -0.1563
  284MPD2    H5 4293   3.920   1.415  11.921  0.7164 -0.2900  0.1636
  284MPD2    N1 4294   4.290   1.800  11.800  0.1797  0.5990  0.1834
  284MPD2    H7 4295   4.289   1.783  11.700  0.2440 -0.8248  0.4217
  285TMC3    C1 4296   4.488   1.919  11.755 -0.6652  0.3701 -1.0613
  285TMC3    C2 4297   4.511   1.849  11.638  0.1426  0.3078 -0.0801
  285TMC3    C3 4298   4.635   1.851  11.581  0.2371 -0.3226 -0.2679
  285TMC3    C4 4299   4.583   2.013  11.790  1.2099  0.6246  0.4433
  285TMC3    C5 4300   4.699   2.022  11.724 -0.4221 -0.3295 -0.1399
  285TMC3    C6 4301   0.003   1.943  11.613  0.3281 -1.2181 -0.2506
  285TMC3     C 4302   4.384   1.892  11.849 -0.0535  0.5733 -0.2091
  285TMC3     O 4303   4.393   1.949  11.955  0.5948  0.2259  0.3709
  285TMC3     H 4304   4.448   1.767  11.606  0.9811 -0.7191  0.9308
  285TMC3    H1 4305   4.550   2.088  11.862  1.7884 -0.9509  2.3306
  285TMC3    H2 4306   0.091   1.949  11.550  0.4542  1.8157  0.2097
  285TMC3    C7 4307   0.032   2.155  11.708  0.9585  0.1695 -0.2480
  285TMC3    C8 4308   4.659   1.772  11.455  0.6789 -0.7367  0.1848
  285TMC3    O1 4309   4.687   2.257  11.700  0.0892  0.6109 -0.0177
  285TMC3    O2 4310   4.558   1.721  11.410 -0.0583  0.7131  0.3210
  286MPD2     C 4311   4.400   0.438   0.844  0.4854 -0.2625 -0.0924
  286MPD2    C1 4312   4.501   0.476   0.922  0.0073  0.1842 -0.2095
  286MPD2    C2 4313   4.630   0.434   0.891  0.0328 -0.0892 -0.6366
  286MPD2    C3 4314   4.647   0.334   0.802  0.1806  0.1173 -0.6744
  286MPD2    C4 4315   4.546   0.296   0.718 -0.2173  0.4623 -0.0425
  286MPD2    C5 4316   4.423   0.359   0.737 -0.4717 -0.3581 -0.0298
  286MPD2     H 4317   4.708   0.470   0.956  1.0187 -0.4109 -1.6432
  286MPD2    H1 4318   4.556   0.224   0.638  2.1046 -0.3955  1.0062
  286MPD2    H2 4319   4.298   0.474   0.853  1.0082  1.4248 -1.1518
  286MPD2    H3 4320   4.332   0.339   0.681  0.6694 -0.8403 -1.7299
  286MPD2     N 4321   0.043   0.266   0.782  0.3276  0.4013  0.7719
  286MPD2    H5 4322   0.046   0.190   0.715  2.1042 -0.5147  1.8829
  286MPD2    N1 4323   4.491   0.587   1.009 -0.2606 -0.0758 -0.4741
  286MPD2    H7 4324   4.578   0.631   1.037 -0.1386  1.2416 -2.8953
  287TMC3    C1 4325   0.262   0.176   0.837 -0.3062  0.3613 -0.1484
  287TMC3    C2 4326   0.246   0.096   0.727  0.6227  0.1122  0.3452
  287TMC3    C3 4327   0.355   0.047   0.663  0.1918 -0.1611  0.1004
  287TMC3    C4 4328   0.390   0.200   0.878  0.8849 -0.0890  0.2725
  287TMC3    C5 4329   0.495   0.136   0.822  0.3822  0.4547 -0.2715
  287TMC3    C6 4330   0.480   0.059   0.712 -0.0328 -0.0405  0.2218
  287TMC3     C 4331   0.154   0.276   0.864  0.2835  0.3320 -0.5828
  287TMC3     O 4332   0.181   0.357   0.954  0.3420  0.1986 -0.4965
  287TMC3     H 4333   0.151   0.093   0.675  1.8742 -0.0626 -1.9520
  287TMC3    H1 4334   0.408   0.268   0.960 -0.9073 -0.1297  0.6937
  287TMC3    H2 4335   0.563   4.724   0.679 -0.6662  0.2334 -1.8946
  287TMC3    C7 4336   0.630   0.158   0.880 -0.7044  0.2431  0.5350
  287TMC3    C8 4337   0.337   4.665   0.577 -0.8644 -0.6349  0.3215
  287TMC3    O1 4338   0.730   0.133   0.820 -0.3176  0.2581 -0.2175
  287TMC3    O2 4339   0.246   4.587   0.607 -1.0996 -0.1853 -0.3677
  288TMC3    C1 4340   1.510   0.335  14.300  0.0729  0.2829  0.1099
  288TMC3    C2 4341   1.492   0.305  14.435  0.1829  0.3213 -0.7923
  288TMC3    C3 4342   1.401   0.379  14.503  0.1253  0.2903 -0.3824
  288TMC3    C4 4343   1.434   0.421  14.232 -0.8095  0.3148  0.7537
  288TMC3    C5 4344   1.337   0.486  14.297  0.5949 -0.3174  0.5706
  288TMC3    C6 4345   1.316   0.462  14.431  0.1336  0.0827  0.4611
  288TMC3     C 4346   1.625   0.264  14.246 -0.2985 -0.4798  0.1970
  288TMC3     O 4347   1.726   0.243  14.316 -0.4868 -0.2856  0.7904
  288TMC3     H 4348   1.559   0.230  14.477  0.0693  0.5681 -0.1764
  288TMC3    H1 4349   1.477   0.453  14.137  0.3788  0.4479  1.3301
  288TMC3    H2 4350   1.247   0.520  14.491  0.0724  0.3707  0.1134
  288TMC3    C7 4351   1.282   0.604  14.241  0.6943 -0.1345  0.1899
  288TMC3    C8 4352   1.370   0.344  14.643 -0.5416  0.5980 -0.1625
  288TMC3    O1 4353   1.300   0.620  14.124  0.0414 -0.8491 -0.5185
  288TMC3    O2 4354   1.456   0.368  14.728  0.6360 -0.2130 -0.0412
  289MPD2     C 4355   1.371   4.197  14.596  0.2845 -0.1752  0.1606
  289MPD2    C1 4356   1.432   4.276  14.507  0.0949  0.7861  0.4073
  289MPD2    C2 4357   1.361   4.342  14.405  0.4933 -0.2625  0.0754
  289MPD2    C3 4358   1.227   4.310  14.382 -0.0643 -0.2928  0.4970
  289MPD2    C4 4359   1.169   4.207  14.457  0.5555  0.1245 -0.4534
  289MPD2    C5 4360   1.242   4.153  14.562 -0.2232  1.1948 -0.3066
  289MPD2     H 4361   1.410   4.423  14.352  1.6539 -1.9297 -1.3967
  289MPD2    H1 4362   1.072   4.163  14.437  0.6963  0.6694 -2.4148
  289MPD2    H2 4363   1.421   4.158  14.684 -0.8682 -0.0921  0.8463
  289MPD2    H3 4364   1.198   4.078  14.626  0.8797 -0.3929 -1.4245
  289MPD2     N 4365   1.151   4.375  14.281  0.3908 -0.1207  0.1424
  289MPD2    H5 4366   1.054   4.348  14.269  0.9258 -2.7704  1.6742
  289MPD2    N1 4367   1.572   4.304  14.529  0.4445  0.0891  0.5826
  289MPD2    H7 4368   1.613   4.257  14.609 -3.0271 -2.2339  1.0299
  290TMC3    C1 4369   1.071   4.535  14.146  0.3709 -0.3805 -0.3729
  290TMC3    C2 4370   1.067   4.670  14.137 -0.1986  0.0086  0.5935
  290TMC3    C3 4371   0.972   0.006  14.070  0.3279 -0.1690  0.0701
  290TMC3    C4 4372   0.976   4.457  14.085  0.6464 -0.0129 -0.2536
  290TMC3    C5 4373   0.882   4.522  14.006  0.3935 -1.3592 -1.1720
  290TMC3    C6 4374   0.882   4.658  13.995 -0.1515  0.2459 -0.0751
  290TMC3     C 4375   1.184   4.480  14.210 -0.4731  0.1371  0.2082
  290TMC3     O 4376   1.288   4.544  14.208  0.0889 -0.4501 -0.7075
  290TMC3     H 4377   1.149   4.723  14.185  1.3660 -0.0975 -1.9451
  290TMC3    H1 4378   0.977   4.349  14.086 -0.9590 -0.0125  0.4313
  290TMC3    H2 4379   0.802   4.709  13.942  0.9386  2.9424  0.8830
  290TMC3    C7 4380   0.759   4.454  13.970 -0.0319  0.2346  0.5313
  290TMC3    C8 4381   0.965   0.152  14.058 -0.2997  0.5540 -0.1641
  290TMC3    O1 4382   0.681   4.521  13.913  0.5973  0.1857  0.2944
  290TMC3    O2 4383   0.894   0.185  13.966  0.0831 -0.1742 -0.6432
  291MPD2     C 4384   1.335   3.886   0.601  0.3412  0.2007  0.2735
  291MPD2    C1 4385   1.264   3.869   0.482 -0.2049 -0.2185 -0.4877
  291MPD2    C2 4386   1.331   3.860   0.363  0.9191 -0.2827 -0.9394
  291MPD2    C3 4387   1.467   3.844   0.366 -0.1878 -0.3880 -0.4958
  291MPD2    C4 4388   1.538   3.854   0.480  0.5457 -0.3132 -0.3808
  291MPD2    C5 4389   1.476   3.885   0.594 -0.1359 -0.5826  0.0028
  291MPD2     H 4390   1.274   3.852   0.271 -4.0270  0.4115  2.1062
  291MPD2    H1 4391   1.647   3.852   0.479  0.5574 -0.2292  0.3841
  291MPD2    H2 4392   1.292   3.911   0.698  1.6905  2.6705  0.2363
  291MPD2    H3 4393   1.547   3.899   0.675 -0.0413 -0.5713 -0.0821
  291MPD2     N 4394   1.535   3.793   0.255 -0.1634 -0.0732 -0.1392
  291MPD2    H5 4395   1.634   3.771   0.262  0.0169  1.1211  0.8704
  291MPD2    N1 4396   1.119   3.870   0.485 -0.4346 -0.5068 -0.9715
  291MPD2    H7 4397   1.077   3.874   0.393 -0.7357 -1.2393 -0.8640
  292TMC3    C1 4398   0.901   3.891   0.563  0.4722 -0.2265 -0.2971
  292TMC3    C2 4399   0.812   3.955   0.646 -0.3897  0.2030  0.5383
  292TMC3    C3 4400   0.677   3.933   0.628 -0.2857  0.0614 -0.0136
  292TMC3    C4 4401   0.859   3.798   0.472  0.3183  0.5373  0.3544
  292TMC3    C5 4402   0.722   3.785   0.451  0.4038 -0.7394 -0.4178
  292TMC3    C6 4403   0.631   3.853   0.525  0.4530  0.5391 -0.3314
  292TMC3     C 4404   1.039   3.912   0.588 -0.4681 -0.3738  0.0384
  292TMC3     O 4405   1.072   3.965   0.698 -0.2382 -0.6500 -0.9337
  292TMC3     H 4406   0.830   4.039   0.714 -2.8217 -1.7014  3.5427
  292TMC3    H1 4407   0.928   3.741   0.410 -0.9584 -1.4652  0.7824
  292TMC3    H2 4408   0.524   3.839   0.522  0.0872  3.2050 -0.1872
  292TMC3    C7 4409   0.673   3.674   0.363 -0.5637  0.2754  0.1528
  292TMC3    C8 4410   0.596   3.990   0.731  0.4022  0.2446  0.3443
  292TMC3    O1 4411   0.758   3.601   0.304 -0.1919 -0.4437 -0.3081
  292TMC3    O2 4412   0.610   4.099   0.777  0.2919  0.2360  0.4958
  293MPD2     C 4413   2.444   0.912  12.599  0.5636  0.1724 -0.4956
  293MPD2    C1 4414   2.377   0.882  12.715 -0.3858 -0.3419 -1.1926
  293MPD2    C2 4415   2.431   0.901  12.836  0.7540 -0.3497 -0.1416
  293MPD2    C3 4416   2.552   0.961  12.843 -0.2376  0.2521  0.0421
  293MPD2    C4 4417   2.614   1.001  12.726  0.0438  0.0861 -0.2665
  293MPD2    C5 4418   2.565   0.974  12.605 -0.0568 -0.3788  0.2454
  293MPD2     H 4419   2.387   0.873  12.931 -0.1120  1.8495  0.1136
  293MPD2    H1 4420   2.714   1.044  12.731  0.4702 -0.7680 -1.3938
  293MPD2    H2 4421   2.405   0.886  12.501 -0.5917  1.0032 -0.2473
  293MPD2    H3 4422   2.619   1.002  12.515 -1.4951  0.0025 -0.5021
  293MPD2     N 4423   2.619   0.972  12.968  0.2230 -0.0593  0.0059
  293MPD2    H5 4424   2.578   0.928  13.050  0.5645 -0.1525  0.1277
  293MPD2    N1 4425   2.247   0.832  12.699  0.4998 -0.1773 -0.2258
  293MPD2    H7 4426   2.204   0.824  12.607 -0.4999  0.2948  0.1976
  294TMC3    C1 4427   2.051   0.723  12.746 -0.2136  1.2024  0.2990
  294TMC3    C2 4428   1.999   0.613  12.799 -0.1096 -0.2224  0.2371
  294TMC3    C3 4429   1.895   0.550  12.735  0.3689  0.3346  0.1767
  294TMC3    C4 4430   2.007   0.786  12.632 -0.5466 -0.5156 -0.3046
  294TMC3    C5 4431   1.897   0.728  12.580  0.7743 -0.1633 -0.2762
  294TMC3    C6 4432   1.853   0.604  12.617 -0.5484 -0.1615 -1.5151
  294TMC3     C 4433   2.175   0.769  12.798  0.2342 -0.1064  0.3910
  294TMC3     O 4434   2.202   0.748  12.916  0.2343  0.4031  0.4831
  294TMC3     H 4435   2.049   0.564  12.882  0.6190  0.1138 -0.0110
  294TMC3    H1 4436   2.043   0.883  12.599 -0.7665 -0.1671  0.4734
  294TMC3    H2 4437   1.767   0.572  12.560  0.3664 -2.5105 -1.5974
  294TMC3    C7 4438   1.843   0.791  12.463 -0.2390  0.1541  0.3978
  294TMC3    C8 4439   1.887   0.407  12.764  0.9515  0.7977 -0.8717
  294TMC3    O1 4440   1.723   0.822  12.481 -0.3969  0.3500 -0.2291
  294TMC3    O2 4441   1.939   0.378  12.868 -0.3432  0.2581 -0.3322
  295MPD2     C 4442   2.362   4.442   0.036  0.1015  0.2555 -0.4112
  295MPD2    C1 4443   2.496   4.444   0.070  0.7796 -0.5668 -0.4438
  295MPD2    C2 4444   2.542   4.383   0.190 -0.2759  0.8487 -0.7243
  295MPD2    C3 4445   2.455   4.300   0.268  0.2084  0.3330 -0.3455
  295MPD2    C4 4446   2.324   4.304   0.220 -0.4229  0.1731 -0.3074
  295MPD2    C5 4447   2.274   4.374   0.115 -0.3315  0.3303  0.7153
  295MPD2     H 4448   2.646   4.397   0.217  0.3922 -2.8417 -1.3623
  295MPD2    H1 4449   2.250   4.245   0.272  0.4073 -1.4978 -1.0443
  295MPD2    H2 4450   2.321   4.496  17.659 -0.5438  2.4933  1.3292
  295MPD2    H3 4451   2.170   4.363   0.088 -0.0827 -1.5738  0.5506
  295MPD2     N 4452   2.496   4.237   0.387 -0.3464 -0.2782 -0.1606
  295MPD2    H5 4453   2.426   4.176   0.428 -0.6886  0.2993  0.1316
  295MPD2    N1 4454   2.593   4.510  17.693 -0.5829  0.3697 -0.7970
  295MPD2    H7 4455   2.690   4.506   0.014 -0.4110 -1.7789 -1.6677
  296TMC3    C1 4456   2.616   4.198   0.589  0.0357 -0.0478  0.2796
  296TMC3    C2 4457   2.689   4.270   0.684 -0.2476  0.4280  0.2625
  296TMC3    C3 4458   2.694   4.212   0.807  0.1023  0.4874  0.2592
  296TMC3    C4 4459   2.559   4.074   0.602 -0.3118  0.1383  0.2539
  296TMC3    C5 4460   2.580   4.020   0.727 -0.1118 -0.0862  0.0250
  296TMC3    C6 4461   2.639   4.090   0.834  0.1147 -0.1933 -0.7744
  296TMC3     C 4462   2.616   4.261   0.454 -0.7081  0.4205  0.4350
  296TMC3     O 4463   2.707   4.337   0.426  0.0112  0.8738  0.6257
  296TMC3     H 4464   2.725   4.369   0.657 -0.3612  0.3241 -0.2735
  296TMC3    H1 4465   2.514   4.013   0.523 -1.6900  0.7807  0.5395
  296TMC3    H2 4466   2.631   4.057   0.937  0.9588 -1.9191 -1.2539
  296TMC3    C7 4467   2.531   3.890   0.763 -0.9819 -0.1262  0.3090
  296TMC3    C8 4468   2.695   4.308   0.909 -0.0350 -0.1836 -0.0111
  296TMC3    O1 4469   2.443   3.842   0.689 -0.6475  0.4666 -0.0226
  296TMC3    O2 4470   2.663   4.422   0.880  0.4029  0.4736 -0.6458
  297MPD2     C 4471   0.545   1.524  16.814  0.1643 -1.1472 -0.3864
  297MPD2    C1 4472   0.540   1.575  16.685  1.0003 -0.1581 -0.1565
  297MPD2    C2 4473   0.618   1.681  16.652 -0.0557  0.0783 -0.6852
  297MPD2    C3 4474   0.705   1.746  16.744 -0.1179  0.3026 -0.0331
  297MPD2    C4 4475   0.695   1.707  16.878  0.8676  0.0306  0.6591
  297MPD2    C5 4476   0.619   1.594  16.906 -0.0909  0.3752  0.6882
  297MPD2     H 4477   0.611   1.723  16.552  1.6457  0.7607 -0.5140
  297MPD2    H1 4478   0.740   1.753  16.965  1.9296 -0.0531  0.1471
  297MPD2    H2 4479   0.494   1.433  16.843  0.1471 -0.7650  0.7724
  297MPD2    H3 4480   0.625   1.557  17.008  2.8698  0.6380  0.5884
  297MPD2     N 4481   0.773   1.862  16.692 -0.1974  0.0554  0.5265
  297MPD2    H5 4482   0.784   1.878  16.593 -0.6751  0.2229  0.4997
  297MPD2    N1 4483   0.453   1.511  16.586 -0.6195  0.0044  0.1123
  297MPD2    H7 4484   0.452   1.560  16.496 -1.3979 -0.2211  0.0025
  298TMC3    C1 4485   0.283   1.400  16.493 -0.1958  0.5145 -0.2686
  298TMC3    C2 4486   0.345   1.367  16.378  0.2314  0.2337  0.4762
  298TMC3    C3 4487   0.304   1.432  16.262 -0.0078  0.2635 -0.6792
  298TMC3    C4 4488   0.186   1.498  16.498  0.6835 -0.0991  0.0350
  298TMC3    C5 4489   0.154   1.557  16.380 -0.1092  0.2553  0.0872
  298TMC3    C6 4490   0.207   1.522  16.260  0.6261  0.0436 -0.1587
  298TMC3     C 4491   0.366   1.407  16.608 -0.3716  0.3778  0.2491
  298TMC3     O 4492   0.343   1.338  16.704 -0.3250 -0.8019 -0.3364
  298TMC3     H 4493   0.436   1.307  16.377  0.1569  0.1687 -3.3497
  298TMC3    H1 4494   0.151   1.551  16.586 -0.8829  2.0626 -1.9157
  298TMC3    H2 4495   0.164   1.560  16.168 -0.9058 -0.4320  0.3567
  298TMC3    C7 4496   0.057   1.662  16.396 -0.5531 -0.1854  0.1853
  298TMC3    C8 4497   0.373   1.394  16.140  0.1354 -0.1476  0.2004
  298TMC3    O1 4498   4.716   1.661  16.499  0.8134  0.2260  0.3223
  298TMC3    O2 4499   0.434   1.283  16.142 -0.6436 -0.0122  0.1288
  299MPD2     C 4500   0.932   1.277  10.796  0.1035  0.3205 -0.1143
  299MPD2    C1 4501   0.958   1.355  10.681  0.1859  0.7317 -0.4682
  299MPD2    C2 4502   0.899   1.318  10.560  0.5067 -0.3046  0.5788
  299MPD2    C3 4503   0.795   1.222  10.555  0.6293  0.3627 -0.1740
  299MPD2    C4 4504   0.756   1.166  10.678  0.2144  0.6504  0.5799
  299MPD2    C5 4505   0.823   1.195  10.797 -0.7038 -0.8063  0.0440
  299MPD2     H 4506   0.937   1.364  10.469  0.0116  0.8721  0.9572
  299MPD2    H1 4507   0.677   1.092  10.683 -0.8949  1.7120 -1.1789
  299MPD2    H2 4508   0.989   1.299  10.885  0.2710 -0.7506  0.0370
  299MPD2    H3 4509   0.790   1.147  10.888  0.1392 -1.6018 -0.0743
  299MPD2     N 4510   0.738   1.176  10.430 -0.3399  0.2936 -0.3754
  299MPD2    H5 4511   0.659   1.113  10.442  0.3969 -0.4837  0.4453
  299MPD2    N1 4512   1.071   1.441  10.693 -0.1064  0.5911  0.3519
  299MPD2    H7 4513   1.105   1.445  10.789  0.7529  0.6400  0.0431
  300TMC3    C1 4514   0.701   1.139  10.198 -0.5495  0.1888 -0.1232
  300TMC3    C2 4515   0.735   1.173  10.069 -0.0015  0.0174  0.6582
  300TMC3    C3 4516   0.636   1.167   9.972 -0.0426  0.2912 -0.7870
  300TMC3    C4 4517   0.583   1.071  10.231 -0.7131  0.5563  0.2644
  300TMC3    C5 4518   0.500   1.042  10.125  0.6338  0.0099 -0.2587
  300TMC3    C6 4519   0.519   1.098  10.001  0.1478  0.2171 -0.1983
  300TMC3     C 4520   0.768   1.205  10.302  0.0216 -1.1969 -0.7542
  300TMC3     O 4521   0.859   1.283  10.263 -0.0497 -0.3336 -0.1122
  300TMC3     H 4522   0.832   1.216  10.047  0.1334 -1.0372 -0.8846
  300TMC3    H1 4523   0.561   1.030  10.328 -1.8197  0.2760 -0.1029
  300TMC3    H2 4524   0.442   1.087   9.926 -1.1813  0.9393  1.0529
  300TMC3    C7 4525   0.363   0.999  10.147 -0.2413 -0.5852 -0.1626
  300TMC3    C8 4526   0.601   1.300   9.926  0.4527 -0.8625  0.5968
  300TMC3    O1 4527   0.318   0.942  10.046  0.3958  0.1987  0.0610
  300TMC3    O2 4528   0.691   1.383   9.950 -0.3409  0.1163 -0.2400
  301MPD2     C 4529   3.868   2.282   1.390  0.2294  0.2578 -0.1067
  301MPD2    C1 4530   3.782   2.292   1.283 -0.6076 -0.2894 -0.0064
  301MPD2    C2 4531   3.780   2.191   1.193 -0.1324 -0.2265 -0.2831
  301MPD2    C3 4532   3.862   2.085   1.202 -0.1454 -0.6965 -0.0051
  301MPD2    C4 4533   3.958   2.081   1.298 -0.2620 -0.4372 -0.5223
  301MPD2    C5 4534   3.968   2.187   1.382 -0.3282  0.4898 -0.3101
  301MPD2     H 4535   3.707   2.204   1.113 -0.0075 -1.8985 -0.6541
  301MPD2    H1 4536   4.036   2.006   1.306 -0.2510 -0.4497 -0.7541
  301MPD2    H2 4537   3.878   2.348   1.475 -0.2043 -0.2195  0.3090
  301MPD2    H3 4538   4.054   2.196   1.449 -0.3515 -0.1344 -0.1990
  301MPD2     N 4539   3.844   1.969   1.126 -0.3006 -0.4795 -0.4128
  301MPD2    H5 4540   3.913   1.895   1.122  0.1998  0.0102 -1.0583
  301MPD2    N1 4541   3.687   2.394   1.262 -0.0889 -0.2289  0.4989
  301MPD2    H7 4542   3.628   2.382   1.180 -0.3241  0.3272  0.5861
  302TMC3    C1 4543   3.743   1.859   0.946  0.1865  0.7658  0.0104
  302TMC3    C2 4544   3.816   1.745   0.935 -0.5976 -0.0409  0.6162
  302TMC3    C3 4545   3.817   1.668   0.822 -0.3501  0.4852  0.0581
  302TMC3    C4 4546   3.669   1.898   0.837 -0.0581 -0.1245  0.1678
  302TMC3    C5 4547   3.677   1.825   0.721  0.3615 -0.3905  0.6814
  302TMC3    C6 4548   3.754   1.715   0.712  0.6858  0.2337 -0.1159
  302TMC3     C 4549   3.730   1.944   1.061 -0.9710 -0.4038  0.1168
  302TMC3     O 4550   3.619   2.000   1.070 -0.1731  0.5333  0.0969
  302TMC3     H 4551   3.872   1.707   1.020  0.7243 -0.1513 -0.3066
  302TMC3    H1 4552   3.596   1.978   0.844  0.8914  0.8831 -1.3873
  302TMC3    H2 4553   3.738   1.653   0.625 -1.0466 -0.3499  0.6300
  302TMC3    C7 4554   3.622   1.881   0.600  0.1173  0.0799  0.0077
  302TMC3    C8 4555   3.888   1.545   0.809 -0.0870 -0.0440 -0.0652
  302TMC3    O1 4556   3.648   1.822   0.500  0.4000  0.4974 -0.5161
  302TMC3    O2 4557   3.929   1.520   0.698 -0.0230  0.1313 -0.1598
  303MPD2     C 4558   3.053   1.141  10.436 -0.6378  0.7073  0.6362
  303MPD2    C1 4559   2.950   1.051  10.459 -0.2765 -0.0648 -0.5223
  303MPD2    C2 4560   2.904   0.978  10.344 -0.2702 -0.5533  0.7652
  303MPD2    C3 4561   2.951   1.001  10.213  0.1006 -0.6429 -0.6380
  303MPD2    C4 4562   3.045   1.106  10.198  0.8377  0.6050  0.3590
  303MPD2    C5 4563   3.093   1.165  10.312 -0.1829 -0.0983  1.2974
  303MPD2     H 4564   2.843   0.892  10.370 -0.5082 -0.2289  1.2778
  303MPD2    H1 4565   3.073   1.142  10.100 -1.4031  1.0743 -0.1196
  303MPD2    H2 4566   3.082   1.207  10.517  0.0618 -0.1413  1.0808
  303MPD2    H3 4567   3.170   1.240  10.296 -0.5720 -0.1139 -0.6481
  303MPD2     N 4568   2.906   0.931  10.095 -0.0671 -0.2334 -0.0064
  303MPD2    H5 4569   2.932   0.960  10.001  2.7854  0.0423  0.8528
  303MPD2    N1 4570   2.907   1.015  10.594 -0.0784  0.7098 -0.2399
  303MPD2    H7 4571   2.953   1.062  10.671 -0.2576 -2.0509  1.5475
  304TMC3    C1 4572   2.760   0.934  10.755 -0.4833  0.4023  0.5481
  304TMC3    C2 4573   2.623   0.928  10.775 -0.3017 -0.4852  0.2307
  304TMC3    C3 4574   2.575   0.872  10.893 -0.2842  0.0792 -0.2935
  304TMC3    C4 4575   2.852   0.883  10.842  1.0766 -0.3512  0.0041
  304TMC3    C5 4576   2.801   0.821  10.954 -0.0214 -0.3083  0.5841
  304TMC3    C6 4577   2.669   0.828  10.986  0.0416  0.4138 -0.1445
  304TMC3     C 4578   2.798   0.943  10.618  1.2405  0.6680  0.1201
  304TMC3     O 4579   2.723   0.886  10.546 -0.3871 -0.0796  0.3445
  304TMC3     H 4580   2.558   0.971  10.700 -1.5511 -3.0150 -0.1473
  304TMC3    H1 4581   2.955   0.857  10.821  1.7998  2.3798  0.2858
  304TMC3    H2 4582   2.647   0.780  11.081 -2.1807 -0.7631 -1.2530
  304TMC3    C7 4583   2.856   0.693  10.982 -0.0798  0.4500  0.3432
  304TMC3    C8 4584   2.482   0.764  10.859  0.0682 -0.2752 -0.3048
  304TMC3    O1 4585   2.975   0.682  11.009  0.1881 -0.6022 -0.5534
  304TMC3    O2 4586   2.494   0.712  10.750 -0.0038 -0.3618 -0.1293
  305MPD2     C 4587   1.003   2.985  13.826 -0.0406 -0.3672 -0.9094
  305MPD2    C1 4588   1.016   2.861  13.875 -0.1611 -0.1562 -0.5899
  305MPD2    C2 4589   1.022   2.764  13.779 -0.1862 -0.5444 -0.5270
  305MPD2    C3 4590   1.012   2.783  13.641  0.2790  0.7863 -0.6881
  305MPD2    C4 4591   0.999   2.913  13.605  0.3654  0.7535 -0.3192
  305MPD2    C5 4592   0.985   3.015  13.694 -1.1485 -0.8541  0.0195
  305MPD2     H 4593   1.022   2.660  13.810 -1.0570 -0.1902  0.6632
  305MPD2    H1 4594   1.013   2.944  13.502 -4.3596 -0.3907 -1.3173
  305MPD2    H2 4595   0.990   3.067  13.895  4.0076  0.5975 -1.2898
  305MPD2    H3 4596   0.972   3.115  13.655 -1.4186  0.7971  4.3946
  305MPD2     N 4597   1.020   2.677  13.538  0.1892  0.5297  0.3986
  305MPD2    H5 4598   1.055   2.714  13.451 -0.2047 -3.5667 -1.4582
  305MPD2    N1 4599   1.034   2.839  14.015 -0.1710  0.3030  0.3937
  305MPD2    H7 4600   1.028   2.927  14.066 -1.6872  0.7464 -0.5494
  306TMC3    C1 4601   1.075   2.750  14.221 -0.3674 -0.1772  0.7483
  306TMC3    C2 4602   1.187   2.696  14.278 -0.1041 -0.1997 -0.8086
  306TMC3    C3 4603   1.210   2.736  14.409 -1.1592  0.2140  0.4824
  306TMC3    C4 4604   1.000   2.853  14.278 -0.3173 -0.1441 -0.1498
  306TMC3    C5 4605   1.040   2.899  14.405 -0.0837 -0.4882 -0.4492
  306TMC3    C6 4606   1.139   2.834  14.475  0.2508  0.2346 -0.1777
  306TMC3     C 4607   1.063   2.723  14.080 -0.2459  0.1403  0.2717
  306TMC3     O 4608   1.084   2.608  14.040  0.8685 -0.1183  0.8098
  306TMC3     H 4609   1.246   2.626  14.219  0.7789 -0.5064  0.4552
  306TMC3    H1 4610   0.904   2.878  14.233 -0.7993  0.9261  1.4996
  306TMC3    H2 4611   1.159   2.864  14.577  1.9187 -2.4737  0.2746
  306TMC3    C7 4612   0.968   3.009  14.464  0.2951 -0.6443  0.0841
  306TMC3    C8 4613   1.308   2.657  14.475 -0.1530  0.3702 -0.1982
  306TMC3    O1 4614   0.866   3.043  14.406  0.6197 -0.1740 -0.4761
  306TMC3    O2 4615   1.410   2.631  14.413 -0.5229 -0.1217  0.2394
  307MPD2     C 4616   3.209   0.008   1.006  0.4291  0.6702 -0.0627
  307MPD2    C1 4617   3.259   0.133   1.003  0.2814 -0.3587  0.6678
  307MPD2    C2 4618   3.176   0.242   0.989 -0.0268  0.5088  0.9169
  307MPD2    C3 4619   3.047   0.223   0.951  1.5112  0.5404 -0.6205
  307MPD2    C4 4620   2.990   0.097   0.953 -0.3644 -0.0063  0.2833
  307MPD2    C5 4621   3.077   4.723   0.980 -0.3993  0.4533  0.0996
  307MPD2     H 4622   3.209   0.345   0.994  3.6338 -0.5932 -1.3462
  307MPD2    H1 4623   2.890   0.070   0.922 -0.3853 -1.2745  1.4575
  307MPD2    H2 4624   3.265   4.646   1.035 -0.8369  0.2534  1.0849
  307MPD2    H3 4625   3.033   4.625   0.988  1.0091 -0.1942 -0.1269
  307MPD2     N 4626   2.972   0.334   0.920 -0.0212 -0.0778  0.0306
  307MPD2    H5 4627   3.016   0.424   0.939 -1.9015  0.3004  2.6763
  307MPD2    N1 4628   3.399   0.158   1.021  0.7084 -0.6228  0.3000
  307MPD2    H7 4629   3.423   0.255   1.038 -0.5479 -0.1161 -0.8409
  308TMC3    C1 4630   2.720   0.636   0.762 -0.5814  0.6457  0.0090
  308TMC3    C2 4631   2.765   0.731   0.854 -0.7191 -0.2280  0.2679
  308TMC3    C3 4632   2.821   0.677   0.967  0.0707  0.8034 -0.2771
  308TMC3    C4 4633   2.721   0.499   0.782 -0.3036  0.0285  0.3322
  308TMC3    C5 4634   2.783   0.456   0.894  0.7097 -0.2357 -0.7562
  308TMC3    C6 4635   2.823   0.540   0.992 -0.6536  0.4816 -0.1962
  308TMC3     C 4636   2.657   0.675   0.633  0.1020  0.1430 -0.3716
  308TMC3     O 4637   2.556   0.618   0.597  0.1501 -0.4516 -0.1571
  308TMC3     H 4638   2.748   0.837   0.842 -2.8515 -0.7907 -1.4699
  308TMC3    H1 4639   2.690   0.437   0.699 -0.8715 -1.1902  1.4779
  308TMC3    H2 4640   2.873   0.516   1.085  0.8801  2.0969 -0.6033
  308TMC3    C7 4641   2.843   0.327   0.874 -0.1929 -0.3743 -0.2976
  308TMC3    C8 4642   2.885   0.763   1.066 -0.0856 -0.2726 -0.1912
  308TMC3    O1 4643   2.785   0.239   0.812 -0.3365  0.3249 -0.0659
  308TMC3    O2 4644   2.906   0.723   1.180  0.0432 -0.3080  0.2463
  309MPD2     C 4645   3.246   1.291  16.805  0.5481  0.0807  0.0741
  309MPD2    C1 4646   3.261   1.422  16.762 -0.5114  0.0541 -0.6522
  309MPD2    C2 4647   3.153   1.503  16.777  0.1740 -0.8438  0.9736
  309MPD2    C3 4648   3.026   1.464  16.819  0.6164 -0.3609  0.2547
  309MPD2    C4 4649   3.012   1.332  16.861 -0.2315 -0.1445 -0.2652
  309MPD2    C5 4650   3.123   1.247  16.842 -0.2498  1.1439  0.8462
  309MPD2     H 4651   3.156   1.601  16.731 -0.3604 -1.3563 -0.1529
  309MPD2    H1 4652   2.919   1.286  16.894 -0.1021  0.7691  1.3923
  309MPD2    H2 4653   3.318   1.213  16.784  2.4194  1.6343  0.7377
  309MPD2    H3 4654   3.103   1.142  16.858 -1.1097  1.0470 -0.8076
  309MPD2     N 4655   2.909   1.547  16.837 -0.1002  0.2139 -0.5441
  309MPD2    H5 4656   2.831   1.504  16.886  2.9036 -3.8560  0.6343
  309MPD2    N1 4657   3.365   1.473  16.686 -0.3401 -0.0545 -0.2220
  309MPD2    H7 4658   3.350   1.566  16.646 -1.1616  0.3260  0.9896
  310TMC3    C1 4659   3.544   1.474  16.541 -0.1684  0.2358  0.1810
  310TMC3    C2 4660   3.473   1.562  16.466 -0.3614 -0.8958  0.5452
  310TMC3    C3 4661   3.530   1.609  16.353  0.5442  0.2907 -0.0086
  310TMC3    C4 4662   3.656   1.412  16.499  0.1941  0.4170  0.5209
  310TMC3    C5 4663   3.704   1.447  16.376  0.1527  0.8657 -0.0750
  310TMC3    C6 4664   3.644   1.550  16.304 -0.2958 -0.1439 -0.4834
  310TMC3     C 4665   3.480   1.404  16.648 -0.4220  0.4872 -0.7159
  310TMC3     O 4666   3.524   1.294  16.679 -0.1482  0.2137 -0.0056
  310TMC3     H 4667   3.381   1.609  16.499  0.2999  1.5044 -1.0003
  310TMC3    H1 4668   3.714   1.344  16.560  0.8656  1.9805  1.6459
  310TMC3    H2 4669   3.673   1.563  16.201  1.3268  0.1811  0.0027
  310TMC3    C7 4670   3.831   1.391  16.325 -0.2806 -0.2398  0.3547
  310TMC3    C8 4671   3.447   1.691  16.264 -0.0188  0.2782  1.1005
  310TMC3    O1 4672   3.868   1.285  16.371 -0.4434  0.4055  0.6281
  310TMC3    O2 4673   3.324   1.699  16.282 -0.1419 -0.2041 -0.3984
  311MPD2     C 4674   0.245   2.109  12.704  0.5434 -0.6897 -0.5752
  311MPD2    C1 4675   0.261   2.236  12.758  0.2340  0.0008 -0.3471
  311MPD2    C2 4676   0.168   2.292  12.848  0.2939  0.1180 -0.0572
  311MPD2    C3 4677   0.059   2.220  12.885 -0.6284 -0.1774  0.1014
  311MPD2    C4 4678   0.052   2.090  12.838  0.0260  0.3889  0.1974
  311MPD2    C5 4679   0.136   2.038  12.745 -0.4374 -0.8136 -0.1319
  311MPD2     H 4680   0.178   2.389  12.896 -1.7053  1.4575 -2.3479
  311MPD2    H1 4681   4.692   2.029  12.863  0.5349 -0.5987 -0.4535
  311MPD2    H2 4682   0.311   2.073  12.625 -0.2935  0.5723 -1.8361
  311MPD2    H3 4683   0.122   1.943  12.695 -1.0204 -0.8536  0.1097
  311MPD2     N 4684   4.699   2.273  12.979  0.5343  0.1160 -0.2388
  311MPD2    H5 4685   4.718   2.370  13.004  1.1064 -0.1648  0.4067
  311MPD2    N1 4686   0.377   2.316  12.743 -0.0037  0.1817 -0.2562
  311MPD2    H7 4687   0.389   2.396  12.804 -0.5991 -0.6110  0.8784
  312TMC3    C1 4688   4.497   2.311  13.086  0.3640 -0.0310 -0.6193
  312TMC3    C2 4689   4.363   2.305  13.054  0.2742  0.0682  0.2225
  312TMC3    C3 4690   4.287   2.418  13.078 -0.1726 -0.3469 -0.2322
  312TMC3    C4 4691   4.561   2.423  13.131  0.0155 -0.3489  0.1958
  312TMC3    C5 4692   4.478   2.527  13.160 -0.1935 -0.3363  0.3829
  312TMC3    C6 4693   4.344   2.534  13.130 -0.6367  0.2706  0.8018
  312TMC3     C 4694   4.579   2.215  13.016 -0.7182  1.1391 -0.1404
  312TMC3     O 4695   4.514   2.136  12.948  0.1240  0.6130 -0.5302
  312TMC3     H 4696   4.311   2.213  13.031 -0.6582  0.3934  1.0216
  312TMC3    H1 4697   4.660   2.416  13.173  0.4004  2.0373 -0.3198
  312TMC3    H2 4698   4.284   2.620  13.157 -0.4545  1.0105 -1.1316
  312TMC3    C7 4699   4.538   2.630  13.239 -0.8713  0.1477  0.3233
  312TMC3    C8 4700   4.163   2.423  13.003  0.0495  0.4090  0.3513
  312TMC3    O1 4701   4.460   2.673  13.327  0.0846  0.3948 -0.2329
  312TMC3    O2 4702   4.125   2.309  12.974 -0.2093 -0.0716 -0.3553
  313MPD2     C 4703   4.589   1.556  10.544  0.0860  0.4402 -0.2625
  313MPD2    C1 4704   4.459   1.568  10.581  0.7287  0.5889  0.7607
  313MPD2    C2 4705   4.364   1.489  10.518  0.5605 -0.2259 -0.4181
  313MPD2    C3 4706   4.395   1.396  10.418  1.0633 -0.3090  0.4648
  313MPD2    C4 4707   4.526   1.374  10.392 -0.2594  0.1532  0.0360
  313MPD2    C5 4708   4.623   1.452  10.456  0.2862  0.4003 -0.1780
  313MPD2     H 4709   4.262   1.487  10.556  1.4362  2.3753  1.9692
  313MPD2    H1 4710   4.561   1.307  10.314  2.3192  0.1963  1.1574
  313MPD2    H2 4711   4.670   1.624  10.569 -0.4587  0.8408  0.4036
  313MPD2    H3 4712   0.001   1.451  10.426  0.3359  0.1486  0.0066
  313MPD2     N 4713   4.313   1.309  10.346  0.3180 -0.1677 -0.0355
  313MPD2    H5 4714   4.357   1.242  10.283  1.0556  0.0810  0.2125
  313MPD2    N1 4715   4.404   1.656  10.682 -0.5919  0.0160 -0.0939
  313MPD2    H7 4716   4.306   1.643  10.706 -0.2518 -0.8052  0.8473
  314TMC3    C1 4717   4.389   1.835  10.837 -0.6706 -0.0446 -0.5493
  314TMC3    C2 4718   4.456   1.915  10.932  0.1921 -0.0069 -0.0202
  314TMC3    C3 4719   4.427   2.048  10.952  0.1009 -0.1785  0.6990
  314TMC3    C4 4720   4.281   1.881  10.770 -0.3554  0.3476 -0.0701
  314TMC3    C5 4721   4.260   2.015  10.788 -0.0846  0.0520 -0.7502
  314TMC3    C6 4722   4.328   2.102  10.873  0.4905  0.6565  0.0684
  314TMC3     C 4723   4.478   1.740  10.765 -0.0134 -0.0357  0.1015
  314TMC3     O 4724   4.596   1.757  10.775 -0.3899  0.3160  0.1797
  314TMC3     H 4725   4.545   1.877  10.981 -0.8425 -1.9973  0.2806
  314TMC3    H1 4726   4.227   1.848  10.682  1.4437  0.0947 -1.0662
  314TMC3    H2 4727   4.305   2.208  10.871 -1.3176  0.2598 -0.4646
  314TMC3    C7 4728   4.184   2.079  10.680 -0.5434  0.3638 -0.3068
  314TMC3    C8 4729   4.526   2.145  11.004 -0.2179  0.0197 -0.0524
  314TMC3    O1 4730   4.084   2.022  10.647  0.4417 -0.1494 -0.5479
  314TMC3    O2 4731   4.528   2.256  10.951  0.4875  0.0671  0.1882
  315MPD2     C 4732   4.340   0.901   0.343  0.1131  0.4156  0.4937
  315MPD2    C1 4733   4.450   0.903   0.259 -0.5378 -0.0611 -0.0602
  315MPD2    C2 4734   4.474   1.018   0.188 -0.7112 -0.4087 -0.3985
  315MPD2    C3 4735   4.400   1.135   0.204 -0.2158 -0.0238  0.5434
  315MPD2    C4 4736   4.295   1.135   0.298  0.8860  0.4382  0.6436
  315MPD2    C5 4737   4.263   1.014   0.363  0.2948 -0.4095 -0.1016
  315MPD2     H 4738   4.558   1.021   0.119  0.5972 -3.1001  1.0853
  315MPD2    H1 4739   4.239   1.223   0.329 -0.0911 -1.1139  3.3246
  315MPD2    H2 4740   4.309   0.823   0.412  0.8322 -0.6522 -0.3874
  315MPD2    H3 4741   4.183   1.018   0.437  0.3786  2.4039 -0.1764
  315MPD2     N 4742   4.443   1.250   0.134 -0.0811 -0.4963  0.1469
  315MPD2    H5 4743   4.536   1.240   0.095 -0.2768 -0.3440 -0.3626
  315MPD2    N1 4744   4.544   0.802   0.240 -0.7024 -0.4442 -0.2057
  315MPD2    H7 4745   4.626   0.823   0.183 -2.0614 -0.1973 -2.0602
  316TMC3    C1 4746   4.443   1.457   0.021 -1.0894 -0.4211 -0.6691
  316TMC3    C2 4747   4.575   1.440  17.699 -0.3060 -1.0234 -0.0238
  316TMC3    C3 4748   4.634   1.530  17.616  0.5784 -0.2073 -0.1788
  316TMC3    C4 4749   4.361   1.549  17.670  0.3029 -0.4757 -0.2461
  316TMC3    C5 4750   4.421   1.632  17.578 -0.2458  0.2338  0.4424
  316TMC3    C6 4751   4.554   1.620  17.548 -0.1786  0.5130  0.4160
  316TMC3     C 4752   4.371   1.365   0.106  0.6672  0.1013  0.3223
  316TMC3     O 4753   4.262   1.400   0.144  0.1143  0.3749 -0.1323
  316TMC3     H 4754   4.633   1.382   0.062  0.6525 -0.6279 -0.4884
  316TMC3    H1 4755   4.255   1.556  17.689  0.6569  2.9100  0.5989
  316TMC3    H2 4756   4.608   1.689  17.484 -0.5204 -0.1376 -0.5842
  316TMC3    C7 4757   4.359   1.758  17.562  0.7086  0.4997  0.1796
  316TMC3    C8 4758   0.050   1.503  17.580  0.2205 -0.3025 -0.9760
  316TMC3    O1 4759   4.267   1.778  17.640 -0.2069  0.8137  0.1423
  316TMC3    O2 4760   0.105   1.601  17.534 -0.0083  0.4307 -0.2340
  317MPD2     C 4761   0.997   4.366  12.597 -0.3920  0.2345 -0.2230
  317MPD2    C1 4762   1.063   4.243  12.578  0.4392  0.0564  0.4444
  317MPD2    C2 4763   1.138   4.192  12.679 -0.3521 -0.1475  0.0549
  317MPD2    C3 4764   1.161   4.267  12.800  0.2962  0.5488 -0.0339
  317MPD2    C4 4765   1.103   4.390  12.809  0.1727  0.1508  1.3198
  317MPD2    C5 4766   1.020   4.437  12.712 -1.2329  0.3852  0.8425
  317MPD2     H 4767   1.184   4.094  12.665  1.4479  0.9411 -1.6282
  317MPD2    H1 4768   1.110   4.443  12.904 -2.4580  2.6140  0.1280
  317MPD2    H2 4769   0.927   4.409  12.525 -0.0253 -1.3123 -1.4981
  317MPD2    H3 4770   0.965   4.530  12.722 -0.4852  0.8801  0.3901
  317MPD2     N 4771   1.251   4.205  12.893 -0.1135 -0.0313  0.1367
  317MPD2    H5 4772   1.292   4.118  12.861  2.0037  0.8003  0.5363
  317MPD2    N1 4773   1.043   4.163  12.462  0.3818  0.3035 -0.6789
  317MPD2    H7 4774   1.092   4.075  12.468  0.9848  0.5154 -2.4654
  318TMC3    C1 4775   1.352   4.172  13.096 -0.3602 -0.0215 -0.2465
  318TMC3    C2 4776   1.306   4.051  13.110  0.7008 -0.4442  0.3074
  318TMC3    C3 4777   1.372   3.971  13.201  0.0530 -0.4394  0.8037
  318TMC3    C4 4778   1.448   4.228  13.170 -0.2608  0.1105 -1.0860
  318TMC3    C5 4779   1.517   4.143  13.252  0.2668 -0.4422 -0.6687
  318TMC3    C6 4780   1.482   4.012  13.269 -1.1250 -0.3728 -0.6461
  318TMC3     C 4781   1.276   4.262  13.012 -0.0592 -0.5747  0.5252
  318TMC3     O 4782   1.267   4.377  13.058  0.1014 -0.0087 -0.3644
  318TMC3     H 4783   1.221   4.022  13.049  1.0096  0.2220 -0.4236
  318TMC3    H1 4784   1.477   4.328  13.140  1.5111  0.4734  1.8253
  318TMC3    H2 4785   1.517   3.944  13.346  0.0480 -1.2413 -1.9375
  318TMC3    C7 4786   1.651   4.186  13.298  0.2574 -0.3200 -0.4145
  318TMC3    C8 4787   1.327   3.836  13.226  0.3414 -0.0138  0.1207
  318TMC3    O1 4788   1.661   4.304  13.310  0.1945 -0.1713 -0.6011
  318TMC3    O2 4789   1.405   3.755  13.272 -0.2422 -0.6791  0.2919
  319MPD2     C 4790   2.592   1.305  16.247  0.8117  0.1169  0.2712
  319MPD2    C1 4791   2.459   1.296  16.290 -0.5858 -0.2765  0.1120
  319MPD2    C2 4792   2.361   1.278  16.198 -0.1871 -0.1094  0.6808
  319MPD2    C3 4793   2.388   1.273  16.061 -0.0237 -0.7818 -0.0649
  319MPD2    C4 4794   2.524   1.269  16.026  0.2552 -0.4073 -0.3352
  319MPD2    C5 4795   2.618   1.283  16.114 -0.0575 -0.3365 -0.6021
  319MPD2     H 4796   2.260   1.274  16.237  0.8607 -0.8604  3.3315
  319MPD2    H1 4797   2.552   1.264  15.921 -0.9491  0.4842 -0.7025
  319MPD2    H2 4798   2.682   1.326  16.302  0.6445 -0.5974  0.8125
  319MPD2    H3 4799   2.721   1.298  16.083  0.5498 -0.1490  1.5021
  319MPD2     N 4800   2.288   1.262  15.962  0.0468 -0.3585  0.4800
  319MPD2    H5 4801   2.318   1.227  15.872  1.4242 -1.7584  1.4790
  319MPD2    N1 4802   2.416   1.324  16.422 -1.1272  0.4333 -0.2726
  319MPD2    H7 4803   2.318   1.315  16.446 -0.9654 -1.8844 -0.5399
  320TMC3    C1 4804   2.083   1.296  15.866  0.2932 -0.0830  0.2664
  320TMC3    C2 4805   2.001   1.391  15.811 -0.3572 -0.4265 -0.5780
  320TMC3    C3 4806   1.888   1.353  15.742  0.2362 -0.6349 -0.3844
  320TMC3    C4 4807   2.064   1.166  15.837  0.4245 -0.0464  0.5624
  320TMC3    C5 4808   1.967   1.128  15.749 -0.1986  0.1166 -0.0922
  320TMC3    C6 4809   1.866   1.218  15.716  0.3184  0.1553 -0.5865
  320TMC3     C 4810   2.163   1.322  15.978  0.3496  0.2593  0.7154
  320TMC3     O 4811   2.138   1.416  16.048 -0.3412 -0.1816  0.2907
  320TMC3     H 4812   2.021   1.492  15.845 -0.2173 -0.0993 -1.6269
  320TMC3    H1 4813   2.115   1.088  15.892  0.4037 -0.5166 -0.0887
  320TMC3    H2 4814   1.776   1.189  15.664  0.6129  0.8013 -1.4493
  320TMC3    C7 4815   1.941   0.988  15.761  0.0917  0.7714 -0.2081
  320TMC3    C8 4816   1.791   1.464  15.708  0.5174  0.7233  0.1414
  320TMC3    O1 4817   2.041   0.922  15.729 -0.6149  0.4706  0.4830
  320TMC3    O2 4818   1.789   1.577  15.755  0.3259  0.3476  0.2651
  321TMC3    C1 4819   2.430   1.350  16.652 -0.2531  0.7552 -0.4420
  321TMC3    C2 4820   2.351   1.237  16.680 -1.1149  0.6463 -0.2072
  321TMC3    C3 4821   2.347   1.196  16.805 -0.1040 -0.1481  0.9067
  321TMC3    C4 4822   2.496   1.413  16.752 -0.0072 -0.1455 -1.3304
  321TMC3    C5 4823   2.467   1.385  16.883 -0.1033  0.2754 -0.0009
  321TMC3    C6 4824   2.388   1.278  16.911  0.2147  0.5922 -0.2116
  321TMC3     C 4825   2.507   1.345  16.526  0.1636  0.2430 -0.3881
  321TMC3     O 4826   2.628   1.356  16.530  0.3144 -0.2171  0.0127
  321TMC3     H 4827   2.336   1.165  16.601 -1.1599  1.9353 -1.3617
  321TMC3    H1 4828   2.584   1.471  16.726  0.9329 -0.3847  1.3364
  321TMC3    H2 4829   2.378   1.241  17.012 -0.4662  0.7411 -0.2230
  321TMC3    C7 4830   2.579   1.392  16.971  0.1001  0.5284  0.1019
  321TMC3    C8 4831   2.394   1.060  16.813  0.2673 -0.5601  0.0519
  321TMC3    O1 4832   2.685   1.375  16.918 -0.2211  0.4629  0.7808
  321TMC3    O2 4833   2.368   0.980  16.726 -0.1885 -0.7319  0.7575
  322MPD2     C 4834   1.035   1.965  14.033 -0.0227  0.0916 -0.4251
  322MPD2    C1 4835   1.068   1.960  14.165 -0.3675 -0.0996  0.0897
  322MPD2    C2 4836   1.091   1.835  14.227  0.3817 -0.2859  0.0429
  322MPD2    C3 4837   1.090   1.722  14.143  0.1704  0.1264 -0.1064
  322MPD2    C4 4838   1.062   1.732  14.010  0.7205  0.3133  0.1064
  322MPD2    C5 4839   1.042   1.852  13.951  0.0722  0.2603  0.2781
  322MPD2     H 4840   1.112   1.814  14.331  2.0662  0.6849 -0.0982
  322MPD2    H1 4841   1.053   1.642  13.950 -2.3409  3.3554 -3.9907
  322MPD2    H2 4842   1.017   2.058  13.980 -2.4782 -0.5750 -0.7516
  322MPD2    H3 4843   1.027   1.857  13.844  2.1894  0.6897  0.0060
  322MPD2     N 4844   1.111   1.595  14.199 -0.3556  0.6211  0.3421
  322MPD2    H5 4845   1.140   1.604  14.296  2.7431 -1.3891 -0.3825
  322MPD2    N1 4846   1.086   2.084  14.234 -0.2367  0.1277 -0.6533
  322MPD2    H7 4847   1.094   2.167  14.176 -2.8039  1.6072  1.1243
  323TMC3    C1 4848   1.211   2.218  14.380  0.3245 -0.0010 -0.8064
  323TMC3    C2 4849   1.316   2.236  14.290 -0.4280  0.3420  0.0708
  323TMC3    C3 4850   1.425   2.293  14.347  0.5642  0.2950  0.2291
  323TMC3    C4 4851   1.221   2.244  14.510  0.0592 -0.4182 -0.5175
  323TMC3    C5 4852   1.331   2.303  14.563  0.5132  0.0695 -1.0155
  323TMC3    C6 4853   1.440   2.323  14.482  0.4047  0.4025 -0.2125
  323TMC3     C 4854   1.134   2.093  14.360  0.1994 -0.4009  0.4603
  323TMC3     O 4855   1.108   2.022  14.453 -0.0388 -0.1710  0.4127
  323TMC3     H 4856   1.314   2.192  14.191 -2.5067  0.7380 -0.0536
  323TMC3    H1 4857   1.136   2.225  14.575  0.8062 -0.7425  0.3747
  323TMC3    H2 4858   1.526   2.375  14.523  1.9272 -1.7994 -0.6359
  323TMC3    C7 4859   1.374   2.245  14.688  0.6104  0.8860 -0.5360
  323TMC3    C8 4860   1.508   2.368  14.257 -0.6157 -0.2586  0.4407
  323TMC3    O1 4861   1.311   2.143  14.716 -0.1185  0.1966 -0.2994
  323TMC3    O2 4862   1.626   2.385  14.278  0.4609  0.1802 -0.4339
  324MPD2     C 4863   2.695   2.954  13.959  1.0560  0.0354 -0.2577
  324MPD2    C1 4864   2.654   3.080  14.003  0.4539  0.4898  0.2061
  324MPD2    C2 4865   2.518   3.112  14.006  0.1217  0.0440 -0.2524
  324MPD2    C3 4866   2.411   3.025  13.962  0.0819  0.0672  0.3098
  324MPD2    C4 4867   2.460   2.905  13.907  0.4548  0.2464 -0.2813
  324MPD2    C5 4868   2.592   2.875  13.914  0.4907 -0.5224  0.2169
  324MPD2     H 4869   2.487   3.212  14.033  0.8021  0.6027 -1.5074
  324MPD2    H1 4870   2.392   2.829  13.871 -0.7035  0.2303  1.9305
  324MPD2    H2 4871   2.792   2.906  13.959  0.3321 -1.4414 -0.7619
  324MPD2    H3 4872   2.619   2.776  13.879  0.4348 -1.0564  1.6979
  324MPD2     N 4873   2.275   3.057  13.978 -0.5056  0.4655 -0.0929
  324MPD2    H5 4874   2.205   2.991  13.947 -0.7828  0.8806 -0.3507
  324MPD2    N1 4875   2.741   3.181  14.055 -0.4404  0.6864  0.6250
  324MPD2    H7 4876   2.707   3.273  14.078  1.7344  1.4557  0.8105
  325TMC3    C1 4877   2.082   3.159  14.063 -0.2323 -0.2598  0.7123
  325TMC3    C2 4878   2.006   3.107  13.971  0.3363 -0.5814  0.0031
  325TMC3    C3 4879   1.880   3.072  14.011 -0.6789 -0.2760 -0.1679
  325TMC3    C4 4880   2.042   3.189  14.183 -0.2966  1.1500  0.2454
  325TMC3    C5 4881   1.917   3.161  14.217 -0.0281  0.5880 -0.8372
  325TMC3    C6 4882   1.833   3.100  14.128  0.2700  0.9086  0.6935
  325TMC3     C 4883   2.227   3.169  14.040  0.4058 -0.5780 -0.0528
  325TMC3     O 4884   2.285   3.246  14.113  0.0688  0.5973 -0.4271
  325TMC3     H 4885   2.041   3.099  13.868  0.0593 -2.0640  0.0296
  325TMC3    H1 4886   2.104   3.238  14.258  2.4921  3.3289 -3.5163
  325TMC3    H2 4887   1.736   3.058  14.153  0.8124 -1.3030 -0.9647
  325TMC3    C7 4888   1.884   3.164  14.356  0.0850 -0.1586  0.2828
  325TMC3    C8 4889   1.806   3.006  13.905  0.7414  0.1877 -0.0766
  325TMC3    O1 4890   1.987   3.151  14.426  0.0243 -0.1139 -0.1545
  325TMC3    O2 4891   1.870   2.951  13.818 -0.2788  0.9336  0.2074
  326MPD2     C 4892   3.888   4.174  11.076 -0.0508 -0.0991  0.2640
  326MPD2    C1 4893   3.872   4.243  10.959 -0.0823  0.6041  0.0771
  326MPD2    C2 4894   3.981   4.314  10.912 -0.3847 -0.1188 -0.7410
  326MPD2    C3 4895   4.109   4.300  10.958 -0.6303 -0.6947  0.0472
  326MPD2    C4 4896   4.118   4.227  11.077  0.4359  0.1496 -0.0801
  326MPD2    C5 4897   4.010   4.171  11.142  0.1557 -0.9920 -0.0924
  326MPD2     H 4898   3.966   4.375  10.824 -0.3315  0.2972 -0.4595
  326MPD2    H1 4899   4.214   4.206  11.123  0.8327  1.5315 -0.2531
  326MPD2    H2 4900   3.807   4.115  11.117 -1.7826  1.5200 -0.8592
  326MPD2    H3 4901   4.023   4.107  11.229 -1.0252 -2.0853 -0.7141
  326MPD2     N 4902   4.222   4.359  10.893  0.4431 -0.4274  0.7223
  326MPD2    H5 4903   4.300   4.373  10.956  1.4317 -2.9571  0.0697
  326MPD2    N1 4904   3.750   4.240  10.890  0.3793 -0.3278  0.5026
  326MPD2    H7 4905   3.749   4.281  10.797  2.5384 -1.6306 -0.0817
  327TMC3    C1 4906   3.533   4.192  10.840 -0.1497 -0.3265  0.0019
  327TMC3    C2 4907   3.444   4.280  10.808 -0.6062  0.3034 -0.1532
  327TMC3    C3 4908   3.418   4.302  10.674 -0.1397 -0.4114 -0.3610
  327TMC3    C4 4909   3.595   4.113  10.742 -0.1246 -1.2212 -0.7622
  327TMC3    C5 4910   3.572   4.146  10.612 -0.9598  0.2134 -0.2257
  327TMC3    C6 4911   3.480   4.236  10.572 -1.2261  0.1953 -0.3311
  327TMC3     C 4912   3.628   4.209  10.943 -0.2786  0.0603 -0.4071
  327TMC3     O 4913   3.593   4.199  11.058 -0.1548 -0.0501  0.0211
  327TMC3     H 4914   3.408   4.337  10.894  2.0837  0.6840  0.7313
  327TMC3    H1 4915   3.674   4.044  10.766  0.6037  0.0648  0.5363
  327TMC3    H2 4916   3.448   4.261  10.471 -0.6962  2.4008  0.0446
  327TMC3    C7 4917   3.693   4.158  10.533 -1.2223 -0.1371 -0.4411
  327TMC3    C8 4918   3.336   4.418  10.637 -0.1365  0.2940  0.0838
  327TMC3    O1 4919   3.684   4.234  10.438  0.4138 -0.1094 -0.8751
  327TMC3    O2 4920   3.291   4.424  10.522 -0.0395  0.0083 -0.1242
  328MPD2     C 4921   2.006   3.609  16.418  0.4014  0.0679 -0.1981
  328MPD2    C1 4922   2.052   3.597  16.547  0.7065 -0.0770 -0.9167
  328MPD2    C2 4923   2.010   3.694  16.636 -0.2471 -0.1123 -0.2661
  328MPD2    C3 4924   1.930   3.799  16.601  0.0280  0.0936 -0.3608
  328MPD2    C4 4925   1.882   3.810  16.466  0.6872  0.0408 -0.0100
  328MPD2    C5 4926   1.918   3.708  16.380  0.3616 -0.0617  0.0115
  328MPD2     H 4927   2.028   3.677  16.742 -2.7542 -1.5851 -0.0748
  328MPD2    H1 4928   1.800   3.879  16.449  0.0381 -0.6395  0.3281
  328MPD2    H2 4929   2.021   3.524  16.351 -0.1248  0.7651 -1.1981
  328MPD2    H3 4930   1.868   3.705  16.283 -0.5568 -0.4041  0.4977
  328MPD2     N 4931   1.882   3.903  16.695  0.2385  0.2879 -0.2676
  328MPD2    H5 4932   1.849   3.992  16.662  1.9101  2.0007  2.6607
  328MPD2    N1 4933   2.127   3.482  16.580  0.5669 -0.3365 -0.1102
  328MPD2    H7 4934   2.116   3.405  16.515  5.1733  0.1581 -1.4373
  329TMC3    C1 4935   2.179   3.318  16.733 -0.0163  0.6723 -0.6685
  329TMC3    C2 4936   2.121   3.282  16.852 -0.0266 -0.5608 -0.9594
  329TMC3    C3 4937   2.085   3.151  16.866  0.3404  0.6369  0.2477
  329TMC3    C4 4938   2.202   3.224  16.634  0.0286 -0.0159  0.5019
  329TMC3    C5 4939   2.164   3.095  16.656 -0.2300 -0.0658  0.1533
  329TMC3    C6 4940   2.105   3.055  16.772 -0.1365 -0.3027  0.4755
  329TMC3     C 4941   2.177   3.455  16.703 -0.2406  0.6356 -0.0216
  329TMC3     O 4942   2.181   3.527  16.800  0.0513  1.1197  0.7422
  329TMC3     H 4943   2.101   3.354  16.930  1.2693 -0.5209 -0.6667
  329TMC3    H1 4944   2.259   3.254  16.547  0.2711 -0.5866  0.4652
  329TMC3    H2 4945   2.056   2.959  16.780 -1.9186  0.5934  0.2838
  329TMC3    C7 4946   2.219   2.988  16.576  0.3095 -0.3847 -0.1430
  329TMC3    C8 4947   2.024   3.097  16.982  0.2343 -0.1447 -0.6466
  329TMC3    O1 4948   2.222   2.876  16.630 -0.1522  0.2121 -0.0175
  329TMC3    O2 4949   2.048   2.980  17.019  0.1020 -0.3049  0.1613
  330TMC3    C1 4950   4.615   3.902   9.385  0.5949 -0.0397  0.1614
  330TMC3    C2 4951   4.568   3.809   9.297  0.2938  0.0101 -0.4470
  330TMC3    C3 4952   4.570   3.675   9.327 -0.2693 -0.3119  0.5651
  330TMC3    C4 4953   4.655   3.861   9.508 -0.3679 -0.1324 -0.5543
  330TMC3    C5 4954   4.644   3.728   9.541  0.4731 -0.1758 -0.1341
  330TMC3    C6 4955   4.602   3.630   9.454  0.0955 -0.1031  0.6539
  330TMC3     C 4956   4.563   4.037   9.394 -0.4189 -0.3174  0.3277
  330TMC3     O 4957   4.606   4.098   9.489  0.2354  0.3223  0.9508
  330TMC3     H 4958   4.542   3.843   9.197  1.0222  1.3367 -0.1915
  330TMC3    H1 4959   4.716   3.918   9.577  1.3350 -1.2527 -1.1080
  330TMC3    H2 4960   4.606   3.525   9.482 -0.2695 -0.4057 -0.4302
  330TMC3    C7 4961   0.005   3.683   9.646  0.3316  0.3850  0.5327
  330TMC3    C8 4962   4.485   3.595   9.245  0.1692  0.6771  0.4243
  330TMC3    O1 4963   0.107   3.741   9.683 -0.5877 -0.2204  0.0201
  330TMC3    O2 4964   4.471   3.640   9.132 -0.4142  0.2179  0.2662
  331MPD2     C 4965   1.995   2.463  12.594 -1.0071  0.3762  0.1123
  331MPD2    C1 4966   2.116   2.507  12.550 -0.5445  0.1708  0.5042
  331MPD2    C2 4967   2.192   2.420  12.467 -0.2294 -0.1149  0.2508
  331MPD2    C3 4968   2.155   2.295  12.448  0.2643 -0.4527 -0.4787
  331MPD2    C4 4969   2.034   2.250  12.497 -0.3329 -0.9512 -0.8674
  331MPD2    C5 4970   1.954   2.331  12.565 -0.3860 -0.0403 -0.0296
  331MPD2     H 4971   2.291   2.453  12.438 -0.8277  0.9132 -0.6093
  331MPD2    H1 4972   2.005   2.147  12.483  0.7303 -1.0978 -2.0351
  331MPD2    H2 4973   1.930   2.528  12.652 -1.1396 -1.6508  2.2253
  331MPD2    H3 4974   1.858   2.296  12.601 -0.5746 -0.1143 -0.6094
  331MPD2     N 4975   2.248   2.208  12.384  0.1016  0.3636  0.3479
  331MPD2    H5 4976   2.324   2.260  12.340  0.1979  0.7791  1.0075
  331MPD2    N1 4977   2.160   2.640  12.589 -0.3553 -0.5188  0.3308
  331MPD2    H7 4978   2.094   2.706  12.629 -0.6658 -0.5125 -0.1840
  332TMC3    C1 4979   2.374   2.030  12.328 -0.4806 -0.6612  0.4121
  332TMC3    C2 4980   2.439   2.112  12.238 -0.3457  0.2991 -0.0631
  332TMC3    C3 4981   2.570   2.094  12.218  0.0599 -0.0751  0.2436
  332TMC3    C4 4982   2.439   1.949  12.416  0.7866  0.5968 -0.3461
  332TMC3    C5 4983   2.571   1.944  12.391 -0.4859 -0.4629 -0.6001
  332TMC3    C6 4984   2.642   2.010  12.300 -0.0200  1.0110 -0.7736
  332TMC3     C 4985   2.247   2.072  12.386  0.5067 -0.6356 -0.1812
  332TMC3     O 4986   2.183   1.990  12.449  1.0114  0.0910 -0.2351
  332TMC3     H 4987   2.388   2.174  12.165 -1.0798 -0.0106  0.1891
  332TMC3    H1 4988   2.388   1.889  12.490 -2.3513  0.0093 -2.9708
  332TMC3    H2 4989   2.735   1.967  12.263 -0.7071  1.2168 -2.7490
  332TMC3    C7 4990   2.650   1.892  12.497 -0.5504 -0.3550  0.0839
  332TMC3    C8 4991   2.651   2.166  12.121 -0.5158  0.3990 -0.6695
  332TMC3    O1 4992   2.596   1.797  12.556 -0.0195  0.0599 -0.4371
  332TMC3    O2 4993   2.771   2.133  12.124 -0.6814  0.3572 -0.1364
  333MPD2     C 4994   2.567   2.799  10.897  0.0858  0.4592 -0.4376
  333MPD2    C1 4995   2.687   2.731  10.870 -0.3699  0.4116  0.2579
  333MPD2    C2 4996   2.702   2.597  10.909 -0.3801 -0.4283  0.2615
  333MPD2    C3 4997   2.613   2.546  11.001  0.2611 -0.5099 -0.5992
  333MPD2    C4 4998   2.502   2.621  11.044  0.5595  0.7677  0.0778
  333MPD2    C5 4999   2.472   2.739  10.973  0.7820  0.2607  0.2126
  333MPD2     H 5000   2.784   2.535  10.877  0.5104 -0.0036  1.7745
  333MPD2    H1 5001   2.422   2.580  11.105  0.7042 -1.5156 -1.2816
  333MPD2    H2 5002   2.547   2.893  10.846 -3.0494 -0.4136 -0.8067
  333MPD2    H3 5003   2.375   2.783  10.993  0.2071 -0.0238 -1.9776
  333MPD2     N 5004   2.644   2.417  11.048 -0.1995 -0.1822 -0.3617
  333MPD2    H5 5005   2.720   2.370  11.001  2.4285  1.5341  2.1754
  333MPD2    N1 5006   2.789   2.803  10.802 -0.9859  0.0633  0.0653
  333MPD2    H7 5007   2.771   2.903  10.795 -0.9551 -0.1031 -2.3514
  334TMC3    C1 5008   3.014   2.850  10.723 -0.7767 -0.1750 -0.1078
  334TMC3    C2 5009   3.145   2.809  10.722 -0.3069  0.0691 -0.6807
  334TMC3    C3 5010   3.230   2.869  10.634 -0.0273  0.3790 -0.3990
  334TMC3    C4 5011   2.969   2.949  10.639 -0.1064  0.1870 -0.7959
  334TMC3    C5 5012   3.059   3.001  10.554  0.8276 -0.3067  0.3212
  334TMC3    C6 5013   3.188   2.961  10.547 -0.0231 -0.1743 -0.5458
  334TMC3     C 5014   2.917   2.750  10.777  0.2282 -0.2198  0.4236
  334TMC3     O 5015   2.964   2.642  10.803 -0.0611  0.4494 -0.0326
  334TMC3     H 5016   3.176   2.741  10.800  1.1247 -0.0670 -1.3821
  334TMC3    H1 5017   2.875   2.998  10.661  0.3858  0.7920 -0.0585
  334TMC3    H2 5018   3.254   3.009  10.476  0.7952  3.0635  2.3752
  334TMC3    C7 5019   3.037   3.139  10.510  0.2643  0.0292 -0.2185
  334TMC3    C8 5020   3.374   2.860  10.647  0.6048  0.0923  0.7531
  334TMC3    O1 5021   3.143   3.199  10.485  0.3475  0.0221  0.3503
  334TMC3    O2 5022   3.440   2.914  10.562 -0.4331 -0.3526 -0.2543
  335TMC3    C1 5023   2.468   0.168  17.273 -0.5304 -0.5542  0.0189
  335TMC3    C2 5024   2.391   0.074  17.228  0.1880  0.0553 -0.9607
  335TMC3    C3 5025   2.443   4.697  17.161  0.5039 -0.5889 -0.1322
  335TMC3    C4 5026   2.603   0.169  17.241 -0.2991 -0.9188  0.4118
  335TMC3    C5 5027   2.647   0.064  17.168 -0.0940  0.2785 -0.2172
  335TMC3    C6 5028   2.571   4.688  17.127 -0.7835  0.5916 -0.0795
  335TMC3     C 5029   2.415   0.251  17.374 -0.6165  0.9266  0.8501
  335TMC3     O 5030   2.322   0.203  17.434 -0.3290 -0.6494  0.0931
  335TMC3     H 5031   2.285   0.072  17.253  0.8844  0.3953  2.0834
  335TMC3    H1 5032   2.665   0.239  17.294  0.3716 -1.1369 -0.0881
  335TMC3    H2 5033   2.620   4.599  17.088 -0.7933  0.4910  0.1366
  335TMC3    C7 5034   2.794   0.040  17.165 -1.1581 -0.3790  0.5984
  335TMC3    C8 5035   2.358   4.601  17.095  0.3161 -0.0984 -0.1345
  335TMC3    O1 5036   2.826   4.668  17.105  0.5104  0.6075  0.6850
  335TMC3    O2 5037   2.252   4.641  17.056  0.2847  0.5836  1.1458
  336MPD2     C 5038   2.368   2.517  15.978  0.0934 -0.5915  0.7092
  336MPD2    C1 5039   2.258   2.470  16.046  0.0871 -0.3745 -0.4951
  336MPD2    C2 5040   2.259   2.334  16.079  0.1366 -0.7693  0.3118
  336MPD2    C3 5041   2.369   2.245  16.054 -0.7496 -0.0015  0.2777
  336MPD2    C4 5042   2.472   2.306  15.990 -0.1142  0.0618 -0.0037
  336MPD2    C5 5043   2.472   2.435  15.948  0.1505  0.4343 -0.1981
  336MPD2     H 5044   2.172   2.288  16.126  0.4436 -1.9530 -0.2703
  336MPD2    H1 5045   2.568   2.258  15.976  1.2113  2.1571  1.8669
  336MPD2    H2 5046   2.379   2.621  15.948  1.4233 -1.1935 -0.8760
  336MPD2    H3 5047   2.559   2.468  15.893 -0.1124  0.0205 -0.8686
  336MPD2     N 5048   2.383   2.109  16.092  0.2337 -0.2748 -0.0378
  336MPD2    H5 5049   2.469   2.063  16.062 -0.5186 -1.3096 -0.6159
  336MPD2    N1 5050   2.145   2.542  16.076 -0.2988  0.3158  0.2425
  336MPD2    H7 5051   2.064   2.498  16.118 -1.0907  2.2715  0.7334
  337TMC3    C1 5052   1.987   2.715  16.093  0.4700  0.6275 -0.6032
  337TMC3    C2 5053   1.867   2.648  16.071  0.4735  0.0813  0.5944
  337TMC3    C3 5054   1.763   2.687  16.157 -0.5492  0.7567  0.2814
  337TMC3    C4 5055   2.004   2.801  16.199  0.1330 -0.2479  0.2101
  337TMC3    C5 5056   1.897   2.830  16.279 -0.1034  0.2637  0.7230
  337TMC3    C6 5057   1.779   2.773  16.264  0.6921  0.4859  0.3388
  337TMC3     C 5058   2.112   2.666  16.029  0.9896 -0.0648  0.1303
  337TMC3     O 5059   2.190   2.747  15.977 -0.6452 -0.4405 -0.2210
  337TMC3     H 5060   1.859   2.573  15.993  0.4937  0.7741 -0.0730
  337TMC3    H1 5061   2.101   2.848  16.200 -0.5756  1.1941  0.3433
  337TMC3    H2 5062   1.693   2.802  16.323  1.3280 -0.8797  1.9258
  337TMC3    C7 5063   1.899   2.948  16.356  0.6055  0.1560 -0.2306
  337TMC3    C8 5064   1.627   2.647  16.123 -0.1280  0.0119  0.1189
  337TMC3    O1 5065   1.961   3.043  16.312  0.0039  0.1176  0.9993
  337TMC3    O2 5066   1.541   2.645  16.212 -0.8775  0.0086 -0.1813
  338MPD2     C 5067   3.295   1.586   0.627  0.6048  0.8379 -0.6438
  338MPD2    C1 5068   3.175   1.649   0.628 -0.4213  0.3766 -0.5410
  338MPD2    C2 5069   3.155   1.743   0.731 -0.0134 -0.1998  0.7607
  338MPD2    C3 5070   3.249   1.754   0.834 -0.0276  0.0522 -0.4545
  338MPD2    C4 5071   3.371   1.695   0.822 -0.4108 -0.6561  0.2618
  338MPD2    C5 5072   3.392   1.614   0.712  0.2132 -0.1982  0.3859
  338MPD2     H 5073   3.058   1.790   0.742 -0.1602  0.2948 -2.5985
  338MPD2    H1 5074   3.454   1.724   0.885 -1.4753  1.0529  0.8587
  338MPD2    H2 5075   3.325   1.516   0.549  1.2072  0.3840 -0.0042
  338MPD2    H3 5076   3.488   1.573   0.685 -1.0557 -1.0746 -2.7616
  338MPD2     N 5077   3.213   1.837   0.939  0.4703  0.1537 -0.3727
  338MPD2    H5 5078   3.128   1.890   0.928 -0.8231 -1.6112  1.2277
  338MPD2    N1 5079   3.082   1.617   0.526  0.3810  0.0770 -0.2641
  338MPD2    H7 5080   2.995   1.669   0.525 -0.5654 -1.4769  1.8124
  339TMC3    C1 5081   3.188   1.926   1.156  0.4129 -0.0247  0.6694
  339TMC3    C2 5082   3.144   1.867   1.270  0.3969 -0.7030 -0.7177
  339TMC3    C3 5083   3.009   1.847   1.286  0.6272 -0.2434 -0.3254
  339TMC3    C4 5084   3.097   2.007   1.089 -0.4757 -0.1928 -0.2023
  339TMC3    C5 5085   2.963   2.000   1.121 -0.7556 -0.0455  0.0505
  339TMC3    C6 5086   2.915   1.907   1.211  0.3591 -0.1128 -0.2315
  339TMC3     C 5087   3.270   1.842   1.064 -0.6487  0.1341 -0.2052
  339TMC3     O 5088   3.349   1.764   1.105 -0.7002  0.2621 -0.2614
  339TMC3     H 5089   3.211   1.803   1.327  1.6183 -1.3911 -2.8884
  339TMC3    H1 5090   3.127   2.055   0.996  0.5805  0.4450  0.4636
  339TMC3    H2 5091   2.810   1.908   1.241  0.5902 -0.7493  0.5963
  339TMC3    C7 5092   2.886   2.018   1.002 -0.5219 -0.3920 -1.2844
  339TMC3    C8 5093   2.971   1.742   1.377  0.7710 -0.7599  0.6147
  339TMC3    O1 5094   2.949   2.001   0.897 -0.0784 -0.1985 -0.0599
  339TMC3    O2 5095   3.064   1.696   1.445  0.0044 -0.1818 -0.1914
  340MPD2     C 5096   2.592   4.020   9.681  0.2131 -0.0388  0.3047
  340MPD2    C1 5097   2.647   3.929   9.586  0.1103 -0.1082 -0.3449
  340MPD2    C2 5098   2.759   3.851   9.637 -0.4645  0.0190  0.2328
  340MPD2    C3 5099   2.802   3.862   9.767 -0.4851  0.5362  0.0061
  340MPD2    C4 5100   2.741   3.953   9.850 -0.2910 -0.2377  0.3038
  340MPD2    C5 5101   2.634   4.034   9.808  0.3043  0.6602  1.0699
  340MPD2     H 5102   2.821   3.795   9.568 -0.9329 -2.6332  1.9959
  340MPD2    H1 5103   2.779   3.958   9.952  0.7623  1.0839 -0.1618
  340MPD2    H2 5104   2.518   4.096   9.659  1.6513  0.8706 -1.4665
  340MPD2    H3 5105   2.590   4.105   9.877 -0.6482  1.4918 -0.3969
  340MPD2     N 5106   2.915   3.802   9.819  0.1485 -0.5192  0.4241
  340MPD2    H5 5107   2.952   3.822   9.911  0.3111  1.0757  0.0255
  340MPD2    N1 5108   2.613   3.924   9.449  0.8379 -0.3733 -0.1311
  340MPD2    H7 5109   2.528   3.969   9.418  0.7142 -1.1125 -0.8555
  341TMC3    C1 5110   2.610   3.836   9.229  0.5848  1.1217  0.1402
  341TMC3    C2 5111   2.477   3.808   9.228 -0.0218  0.3845  0.1133
  341TMC3    C3 5112   2.429   3.759   9.108  0.2005  0.5802  0.3504
  341TMC3    C4 5113   2.684   3.837   9.116  0.2416 -0.8274  0.3896
  341TMC3    C5 5114   2.634   3.777   9.006 -0.3980  0.5251  0.6790
  341TMC3    C6 5115   2.503   3.737   8.999 -0.1983 -0.1849 -0.5985
  341TMC3     C 5116   2.688   3.864   9.354  0.5854  0.1234 -0.1046
  341TMC3     O 5117   2.809   3.853   9.350 -0.0628 -0.4927  0.3182
  341TMC3     H 5118   2.427   3.796   9.323  0.2754  6.0867  0.9686
  341TMC3    H1 5119   2.787   3.867   9.131 -0.2927  1.6189 -0.8662
  341TMC3    H2 5120   2.457   3.690   8.913 -0.5715 -1.3890  0.2451
  341TMC3    C7 5121   2.721   3.745   8.887  0.2942  0.2900 -0.1635
  341TMC3    C8 5122   2.317   3.665   9.139 -0.5620  0.5624 -0.0492
  341TMC3    O1 5123   2.668   3.667   8.807 -0.0288 -0.3609 -0.7674
  341TMC3    O2 5124   2.325   3.614   9.251 -0.1156 -0.2355 -0.3502
  342MPD2     C 5125   0.251   2.276  17.656 -0.1736  0.6611  0.1593
  342MPD2    C1 5126   0.366   2.285  17.583 -0.0446  0.5348  0.9440
  342MPD2    C2 5127   0.414   2.413  17.565  0.0697 -0.5494  0.4439
  342MPD2    C3 5128   0.343   2.528  17.620 -0.1464  0.3963 -0.2251
  342MPD2    C4 5129   0.224   2.513  17.680 -0.4721 -0.1710 -0.0003
  342MPD2    C5 5130   0.180   2.384  17.702  0.3031  0.5228  0.4480
  342MPD2     H 5131   0.508   2.431  17.514  0.3626 -1.2690  0.7203
  342MPD2    H1 5132   0.171   2.598   0.013 -1.5048  0.3016 -2.2987
  342MPD2    H2 5133   0.204   2.181  17.678  1.5303 -0.0778  0.5404
  342MPD2    H3 5134   0.088   2.366   0.049 -0.4094  0.1959 -0.8768
  342MPD2     N 5135   0.384   2.666  17.606  0.5697  0.2888  0.1536
  342MPD2    H5 5136   0.331   2.729  17.665 -0.9395 -2.0202  1.2639
  342MPD2    N1 5137   0.435   2.180  17.524  0.1028 -0.6604 -0.2927
  342MPD2    H7 5138   0.523   2.202  17.479  1.4607 -1.2158  2.1464
  343TMC3    C1 5139   0.494   1.971  17.456  0.1110  0.8072 -0.2993
  343TMC3    C2 5140   0.626   2.001  17.489  0.3673 -0.6603  0.1358
  343TMC3    C3 5141   0.722   1.927  17.432 -0.2826 -0.3416  0.5686
  343TMC3    C4 5142   0.453   1.855  17.384 -1.0694 -0.1973  0.3393
  343TMC3    C5 5143   0.555   1.775  17.340 -0.0071 -0.2033  0.3631
  343TMC3    C6 5144   0.686   1.814  17.363  0.1180 -0.3594  0.4870
  343TMC3     C 5145   0.390   2.051  17.521  0.7955 -0.1746  0.4775
  343TMC3     O 5146   0.280   2.002  17.544 -0.7107 -0.1035 -0.0398
  343TMC3     H 5147   0.653   2.081  17.556 -1.8651  0.3744 -0.1883
  343TMC3    H1 5148   0.352   1.819  17.371 -1.2331  0.6111 -0.5941
  343TMC3    H2 5149   0.764   1.757  17.313 -1.2314 -1.8594  0.1009
  343TMC3    C7 5150   0.525   1.644  17.292 -0.5359  0.1129 -0.3154
  343TMC3    C8 5151   0.849   1.942  17.482 -0.6694 -0.8722 -0.2503
  343TMC3    O1 5152   0.417   1.618  17.237 -0.0614  0.0486 -0.3822
  343TMC3    O2 5153   0.861   2.012  17.578 -0.4256  0.1556  0.5415
  344MPD2     C 5154   1.369   2.206  10.842  0.8112 -0.4715  0.0338
  344MPD2    C1 5155   1.337   2.169  10.718  0.1976 -0.0593 -0.1349
  344MPD2    C2 5156   1.368   2.262  10.616 -0.3401  0.3877 -0.7619
  344MPD2    C3 5157   1.417   2.388  10.649  0.5917 -0.5960 -0.8239
  344MPD2    C4 5158   1.452   2.416  10.771  0.1563  0.0087 -0.0279
  344MPD2    C5 5159   1.428   2.327  10.871 -0.4295  0.1101 -0.2663
  344MPD2     H 5160   1.343   2.237  10.514  2.4664  1.3526 -1.6658
  344MPD2    H1 5161   1.494   2.508  10.808 -0.9962  0.6827 -0.3851
  344MPD2    H2 5162   1.358   2.142  10.929  1.7703 -2.2777 -1.1670
  344MPD2    H3 5163   1.452   2.347  10.975  0.4799  0.7507 -0.5957
  344MPD2     N 5164   1.437   2.496  10.557  0.1067  0.0502 -0.2003
  344MPD2    H5 5165   1.490   2.576  10.591 -1.1221  0.6624  0.2559
  344MPD2    N1 5166   1.301   2.035  10.691  0.1074  0.0429  0.4659
  344MPD2    H7 5167   1.303   2.012  10.592  0.4405  0.5568  0.3566
  345TMC3    C1 5168   1.467   2.607  10.352  0.1991 -0.4157  0.2432
  345TMC3    C2 5169   1.569   2.690  10.401 -1.0622  0.4968 -0.1422
  345TMC3    C3 5170   1.621   2.779  10.314 -0.5135 -0.3986  0.3202
  345TMC3    C4 5171   1.412   2.619  10.226  0.0046  0.3641 -0.1916
  345TMC3    C5 5172   1.467   2.718  10.151  0.0820 -0.6508 -0.6794
  345TMC3    C6 5173   1.581   2.787  10.187 -0.2047  0.4886 -0.3058
  345TMC3     C 5174   1.414   2.493  10.425 -0.4884  0.2195 -0.2825
  345TMC3     O 5175   1.355   2.412  10.361  0.4766  0.1697  0.1775
  345TMC3     H 5176   1.597   2.699  10.505 -0.5741 -2.3155 -0.0397
  345TMC3    H1 5177   1.318   2.566  10.212 -0.1685  0.4612  0.6427
  345TMC3    H2 5178   1.618   2.870  10.127 -0.3583 -0.5380 -1.8245
  345TMC3    C7 5179   1.387   2.786  10.054 -0.3313 -0.4309 -0.0434
  345TMC3    C8 5180   1.742   2.843  10.357 -0.7968  0.2009  0.6271
  345TMC3    O1 5181   1.426   2.896  10.022  0.9580 -0.4918  0.6232
  345TMC3    O2 5182   1.733   2.893  10.468 -0.0511 -0.1313  0.7953
  346MPD2     C 5183   0.915   3.853  14.001  0.0231 -0.0773  0.5800
  346MPD2    C1 5184   0.897   3.718  14.001  0.0156  0.1286  0.0810
  346MPD2    C2 5185   0.899   3.646  14.117 -0.0915 -0.2741  0.2790
  346MPD2    C3 5186   0.916   3.710  14.241 -0.7054 -0.0656 -0.3226
  346MPD2    C4 5187   0.941   3.846  14.245  0.3748  0.3593  0.0917
  346MPD2    C5 5188   0.939   3.921  14.123  0.0438 -0.0274 -0.3716
  346MPD2     H 5189   0.885   3.538  14.106  0.3551 -0.1777 -1.3334
  346MPD2    H1 5190   0.966   3.901  14.335 -1.0748 -0.6177  1.0703
  346MPD2    H2 5191   0.922   3.910  13.909 -0.0368  2.2736  2.0350
  346MPD2    H3 5192   0.969   4.024  14.114  1.0079 -0.3810 -1.2283
  346MPD2     N 5193   0.917   3.630  14.359  0.4525  0.4754  0.0863
  346MPD2    H5 5194   0.938   3.532  14.344 -0.0676  0.8264 -2.9154
  346MPD2    N1 5195   0.875   3.667  13.869 -0.2599  0.3016  0.5229
  346MPD2    H7 5196   0.873   3.737  13.796 -2.3510 -3.3201 -2.8570
  347TMC3    C1 5197   0.993   3.608  14.579 -0.5546  0.4734  0.7026
  347TMC3    C2 5198   1.100   3.533  14.529 -0.2028  0.5219  0.6275
  347TMC3    C3 5199   1.191   3.482  14.621 -0.4589 -0.2293  0.2158
  347TMC3    C4 5200   0.984   3.636  14.714 -1.0066 -0.3519 -0.4587
  347TMC3    C5 5201   1.079   3.580  14.797  0.2779 -0.1521 -0.3476
  347TMC3    C6 5202   1.185   3.516  14.752  0.4659  0.0605 -0.4903
  347TMC3     C 5203   0.904   3.679  14.485 -0.7828  0.3821 -0.4318
  347TMC3     O 5204   0.849   3.784  14.514 -0.1795 -0.2853 -0.4947
  347TMC3     H 5205   1.108   3.502  14.426  1.6811  1.4496  0.4905
  347TMC3    H1 5206   0.896   3.690  14.747 -0.6822 -0.7155  1.0068
  347TMC3    H2 5207   1.252   3.466  14.821  0.7845 -0.4709 -1.1884
  347TMC3    C7 5208   1.066   3.592  14.941 -0.4477 -0.1179 -0.7137
  347TMC3    C8 5209   1.308   3.414  14.567 -0.3268 -0.0620  0.2734
  347TMC3    O1 5210   0.959   3.579  14.995 -0.0982  0.3147  0.4323
  347TMC3    O2 5211   1.334   3.420  14.447 -0.0110 -0.1077  0.1058
  348MPD2     C 5212   0.179   2.795  11.810 -0.3077  0.4590 -0.2104
  348MPD2    C1 5213   0.240   2.917  11.840  0.2657 -0.6367 -0.4764
  348MPD2    C2 5214   0.233   3.024  11.754 -0.9148 -0.3625  0.1069
  348MPD2    C3 5215   0.139   3.021  11.651  0.0718 -0.6232 -0.4496
  348MPD2    C4 5216   0.066   2.906  11.635  0.3349 -0.3241  0.0157
  348MPD2    C5 5217   0.086   2.795  11.709  0.1457  0.3138 -0.7302
  348MPD2     H 5218   0.288   3.116  11.774  0.4409 -1.6576  2.3151
  348MPD2    H1 5219   4.721   2.904  11.554 -0.4343  1.2501  0.6674
  348MPD2    H2 5220   0.187   2.707  11.873  0.0503 -0.2082 -1.1783
  348MPD2    H3 5221   0.030   2.703  11.693  0.1565 -0.1083  1.6787
  348MPD2     N 5222   0.124   3.131  11.568 -0.3311  0.4874  0.3570
  348MPD2    H5 5223   0.197   3.202  11.569 -3.1458  3.4011 -0.7128
  348MPD2    N1 5224   0.328   2.931  11.953 -0.3688 -0.4619 -0.4006
  348MPD2    H7 5225   0.381   3.018  11.955  1.8173 -1.7827 -0.3490
  349TMC3    C1 5226   0.466   2.841  12.129 -0.3220 -0.2548 -0.0887
  349TMC3    C2 5227   0.482   2.729  12.200 -0.3090  0.0180 -0.1815
  349TMC3    C3 5228   0.605   2.664  12.176 -0.0535 -0.5976 -0.2399
  349TMC3    C4 5229   0.570   2.900  12.069 -0.3601  0.2496  0.5123
  349TMC3    C5 5230   0.683   2.835  12.051  0.3452 -0.5166  0.2407
  349TMC3    C6 5231   0.713   2.717  12.108 -0.2844  0.8069 -0.2843
  349TMC3     C 5232   0.344   2.834  12.049  0.5031  0.7842 -0.9968
  349TMC3     O 5233   0.279   2.734  12.074  0.2768  0.1666  0.4600
  349TMC3     H 5234   0.409   2.671  12.256  1.0803 -2.2488 -0.7086
  349TMC3    H1 5235   0.549   2.986  12.006 -3.2235 -2.7694 -2.6173
  349TMC3    H2 5236   0.792   2.647  12.084 -2.3146 -1.5106 -0.3055
  349TMC3    C7 5237   0.727   2.852  11.920 -0.6451 -0.1674  0.5277
  349TMC3    C8 5238   0.609   2.529  12.227 -0.0116 -0.1760 -0.1735
  349TMC3    O1 5239   0.750   2.751  11.857  0.1563 -0.0876  0.0961
  349TMC3    O2 5240   0.521   2.496  12.306 -0.1591  0.3041  0.3107
  350MPD2     C 5241   3.335   1.029   9.880  0.5006 -0.6276 -0.1456
  350MPD2    C1 5242   3.423   0.921   9.896  0.0674  0.0377  0.2708
  350MPD2    C2 5243   3.545   0.937   9.959  0.0901 -0.1665  0.0233
  350MPD2    C3 5244   3.586   1.062   9.998  0.2660  0.2123  0.6080
  350MPD2    C4 5245   3.497   1.169   9.987  0.3310  0.8468 -0.2737
  350MPD2    C5 5246   3.376   1.153   9.922  0.2819  0.3265 -0.5981
  350MPD2     H 5247   3.615   0.855   9.962  0.9313  0.5596  0.1472
  350MPD2    H1 5248   3.521   1.272  10.015  1.7886  0.1005  1.2320
  350MPD2    H2 5249   3.238   1.026   9.830  0.6282  0.6941 -0.4920
  350MPD2    H3 5250   3.306   1.235   9.916 -0.5776 -0.4659 -1.2377
  350MPD2     N 5251   3.722   1.076  10.045 -0.0860  0.8753 -0.1275
  350MPD2    H5 5252   3.783   0.995  10.042  1.8285  2.3819 -1.9372
  350MPD2    N1 5253   3.395   0.791   9.850  0.1547 -0.2993  0.2946
  350MPD2    H7 5254   3.466   0.726   9.880 -0.9598 -2.2577 -1.3725
  351TMC3    C1 5255   3.279   0.614   9.760 -0.2489 -0.5470 -0.2290
  351TMC3    C2 5256   3.388   0.535   9.791 -0.3019  0.2177  0.5562
  351TMC3    C3 5257   3.384   0.407   9.741 -0.2285  0.3320 -0.2506
  351TMC3    C4 5258   3.176   0.572   9.676  0.0752 -0.5645 -0.4140
  351TMC3    C5 5259   3.178   0.447   9.626 -0.1875  0.2027 -0.2261
  351TMC3    C6 5260   3.287   0.359   9.655 -1.0439 -0.2079  0.1700
  351TMC3     C 5261   3.276   0.754   9.793  0.6404  0.1987  0.5759
  351TMC3     O 5262   3.171   0.817   9.770 -0.1818 -0.5998  0.1453
  351TMC3     H 5263   3.470   0.567   9.854  1.1451 -0.2233 -1.0859
  351TMC3    H1 5264   3.105   0.648   9.644  2.0663  2.0990  1.5210
  351TMC3    H2 5265   3.291   0.266   9.600 -1.7947  1.1813 -2.2377
  351TMC3    C7 5266   3.085   0.422   9.515  0.1848  0.5223 -0.2663
  351TMC3    C8 5267   3.500   0.325   9.767 -0.1014  0.4230 -0.5312
  351TMC3    O1 5268   3.022   0.516   9.466 -0.0343 -0.0017  0.7376
  351TMC3    O2 5269   3.604   0.383   9.788  0.3441 -0.3720 -0.5398
  352MPD2     C 5270   3.323   3.279   1.079  0.4025  0.2721  0.3885
  352MPD2    C1 5271   3.224   3.215   1.142  0.0948  0.2018  0.2539
  352MPD2    C2 5272   3.260   3.111   1.227 -0.3292  0.0963  0.4600
  352MPD2    C3 5273   3.389   3.060   1.241 -0.5050  0.4255 -0.1819
  352MPD2    C4 5274   3.488   3.124   1.171  0.0913  0.2047  0.2453
  352MPD2    C5 5275   3.455   3.241   1.107  1.6688  0.7825 -0.6970
  352MPD2     H 5276   3.179   3.047   1.260 -1.6442  1.7150  0.4372
  352MPD2    H1 5277   3.593   3.096   1.179 -0.4933 -1.9812  0.1278
  352MPD2    H2 5278   3.307   3.353   1.001  0.2448  1.9126  2.0017
  352MPD2    H3 5279   3.537   3.291   1.057  1.4623  2.2167  0.4087
  352MPD2     N 5280   3.425   2.939   1.306 -0.2038 -0.2421 -0.2898
  352MPD2    H5 5281   3.521   2.910   1.292 -0.4007 -1.4089  0.7577
  352MPD2    N1 5282   3.094   3.252   1.096  0.2575 -0.0269 -0.3519
  352MPD2    H7 5283   3.091   3.318   1.019 -0.3649 -1.4227 -1.5306
  353TMC3    C1 5284   3.370   2.716   1.374 -0.4163 -0.0910 -0.5063
  353TMC3    C2 5285   3.502   2.675   1.367 -0.0918  0.8485  0.4792
  353TMC3    C3 5286   3.523   2.546   1.337  0.0612  0.2222  0.2203
  353TMC3    C4 5287   3.270   2.635   1.358  0.7872  0.5323  0.3437
  353TMC3    C5 5288   3.295   2.510   1.327  0.1138 -0.2896  0.2797
  353TMC3    C6 5289   3.424   2.458   1.318  0.4549 -0.1700 -0.2538
  353TMC3     C 5290   3.335   2.860   1.372 -0.4394 -0.0711 -0.3016
  353TMC3     O 5291   3.224   2.891   1.409  0.2705  0.4131 -0.5086
  353TMC3     H 5292   3.582   2.747   1.376  0.7513  0.2806 -2.4468
  353TMC3    H1 5293   3.171   2.678   1.356  1.0354  1.0620 -0.5092
  353TMC3    H2 5294   3.440   2.358   1.279  0.1865  0.5027 -2.1003
  353TMC3    C7 5295   3.197   2.430   1.256  0.2069  0.0300 -0.4274
  353TMC3    C8 5296   3.657   2.499   1.351 -0.1834  0.3892  0.8764
  353TMC3    O1 5297   3.239   2.353   1.170 -0.4938  0.7852  0.2238
  353TMC3    O2 5298   3.724   2.538   1.447 -0.3383  0.5802  0.5000
  354TMC3    C1 5299   4.369   4.210  13.129  0.3090  0.2220 -0.4696
  354TMC3    C2 5300   4.320   4.346  13.118 -1.4489 -0.0472  0.0174
  354TMC3    C3 5301   4.316   4.402  12.997 -0.6113  0.0165  0.3167
  354TMC3    C4 5302   4.409   4.138  13.019  0.0025  0.5090 -0.2077
  354TMC3    C5 5303   4.426   4.212  12.908  0.0052 -0.2444 -0.0198
  354TMC3    C6 5304   4.373   4.334  12.896 -0.4954 -0.6963  0.2500
  354TMC3     C 5305   4.303   4.139  13.241  0.4094 -0.0170 -0.2422
  354TMC3     O 5306   4.207   4.197  13.289 -0.1748  0.2981 -0.0201
  354TMC3     H 5307   4.267   4.395  13.198 -0.3749  0.9590  0.1086
  354TMC3    H1 5308   4.467   4.046  13.020 -1.4558 -0.3877  1.3044
  354TMC3    H2 5309   4.379   4.380  12.797  1.6581 -0.7864  0.3280
  354TMC3    C7 5310   4.503   4.158  12.798 -0.0646 -0.2532 -0.2698
  354TMC3    C8 5311   4.245   4.523  12.960 -0.0390 -0.5157 -0.4108
  354TMC3    O1 5312   4.492   4.040  12.765 -0.2197  0.2620 -0.1114
  354TMC3    O2 5313   4.228   4.564  12.847  0.0360 -0.8002 -0.5484
  355MPD2     C 5314   4.016   0.448  11.538 -0.4595  0.1068  1.1134
  355MPD2    C1 5315   4.087   0.470  11.424  0.2343  0.1325 -0.7304
  355MPD2    C2 5316   4.221   0.438  11.429 -0.5970 -0.0094 -0.2036
  355MPD2    C3 5317   4.296   0.417  11.544  0.6481 -0.0280  0.2918
  355MPD2    C4 5318   4.220   0.418  11.661  0.3501  0.0858 -0.0373
  355MPD2    C5 5319   4.083   0.418  11.659 -0.0566  0.1089  0.1425
  355MPD2     H 5320   4.276   0.434  11.335  0.2247  2.3772  0.1779
  355MPD2    H1 5321   4.271   0.402  11.755  0.7492  0.1647 -0.2405
  355MPD2    H2 5322   3.908   0.463  11.540 -0.1290  2.7676 -0.4913
  355MPD2    H3 5323   4.025   0.414  11.750  1.5234  1.4056  1.2230
  355MPD2     N 5324   4.439   0.403  11.551 -0.7752  0.4001 -0.3490
  355MPD2    H5 5325   4.479   0.378  11.641  0.8393  1.9876 -0.6425
  355MPD2    N1 5326   4.017   0.520  11.312 -0.5927  0.3367  0.7873
  355MPD2    H7 5327   3.916   0.529  11.324 -0.4040 -0.2789  2.8877
  356TMC3    C1 5328   4.666   0.428  11.483 -0.7111  0.2843  0.6225
  356TMC3    C2 5329   0.021   0.488  11.386 -0.0017  0.5858  0.0240
  356TMC3    C3 5330   0.133   0.554  11.439 -0.1767 -0.9180 -0.9465
  356TMC3    C4 5331   4.697   0.423  11.615 -0.5070  0.0055  0.0980
  356TMC3    C5 5332   0.092   0.484  11.654 -0.0554 -0.0234 -0.2382
  356TMC3    C6 5333   0.172   0.548  11.568  0.2142 -0.2751  0.2916
  356TMC3     C 5334   4.522   0.417  11.442 -0.1267 -0.4492 -0.6916
  356TMC3     O 5335   4.504   0.433  11.321  0.5695  0.1026  0.1681
  356TMC3     H 5336   4.720   0.503  11.282  2.4125 -1.1413 -0.8754
  356TMC3    H1 5337   4.635   0.377  11.691 -1.6174 -0.1216 -0.8944
  356TMC3    H2 5338   0.271   0.583  11.594  0.9541 -1.2364 -1.2344
  356TMC3    C7 5339   0.109   0.496  11.794  0.3397 -0.4649  0.2017
  356TMC3    C8 5340   0.212   0.625  11.334  0.1483 -0.0604  0.0975
  356TMC3    O1 5341   0.037   0.419  11.857  0.1499 -0.6487 -0.1319
  356TMC3    O2 5342   0.176   0.599  11.221 -0.2409 -0.1689 -0.2842
  357MPD2     C 5343   3.963   0.577   1.205  0.0218  0.6114  0.5733
  357MPD2    C1 5344   4.004   0.462   1.256  0.0403 -1.1633 -0.5194
  357MPD2    C2 5345   3.922   0.385   1.332  0.8807  0.7396 -0.2320
  357MPD2    C3 5346   3.785   0.421   1.342  0.3229 -0.1043 -0.2321
  357MPD2    C4 5347   3.741   0.545   1.285 -0.5664 -0.8107 -0.4010
  357MPD2    C5 5348   3.837   0.626   1.235 -0.3940 -0.4423 -1.1581
  357MPD2     H 5349   3.952   0.290   1.374 -1.9267 -1.1028 -2.3448
  357MPD2    H1 5350   3.638   0.578   1.295 -0.1137  0.3449  0.4075
  357MPD2    H2 5351   4.032   0.638   1.148  0.1512  0.7514  0.8819
  357MPD2    H3 5352   3.803   0.716   1.186  0.6911  0.0070 -1.0904
  357MPD2     N 5353   3.678   0.339   1.390  0.6464 -0.0732 -0.0461
  357MPD2    H5 5354   3.582   0.370   1.387  0.2193 -1.2070  2.3402
  357MPD2    N1 5355   4.135   0.419   1.230 -0.6262 -0.2425 -0.5628
  357MPD2    H7 5356   4.178   0.467   1.151  0.4058 -0.4592 -0.1424
  358TMC3    C1 5357   4.347   0.322   1.252  0.2847  1.2264 -0.3313
  358TMC3    C2 5358   4.362   0.260   1.129 -0.1029  0.9105 -0.3197
  358TMC3    C3 5359   4.472   0.185   1.107  0.4933  0.2120  0.0321
  358TMC3    C4 5360   4.433   0.299   1.357  0.1130 -0.0704 -0.0009
  358TMC3    C5 5361   4.542   0.225   1.325  0.2258  0.6923  0.2508
  358TMC3    C6 5362   4.573   0.173   1.198 -0.0210 -0.0897 -0.0864
  358TMC3     C 5363   4.206   0.321   1.294 -0.3268  0.5041  0.1583
  358TMC3     O 5364   4.178   0.264   1.399  0.3340  0.0712  0.5625
  358TMC3     H 5365   4.277   0.268   1.063 -1.4981  0.7640  1.4794
  358TMC3    H1 5366   4.418   0.361   1.444 -0.2895  0.7676 -0.6637
  358TMC3    H2 5367   4.645   0.093   1.187  0.4739  0.3280  0.0993
  358TMC3    C7 5368   4.652   0.240   1.418 -0.6055  0.4353  0.4140
  358TMC3    C8 5369   4.470   0.092   0.992 -0.5931  0.0701 -0.5368
  358TMC3    O1 5370   4.613   0.278   1.530 -0.1735 -0.6916  0.5220
  358TMC3    O2 5371   4.580   0.038   0.965  0.3146  0.0420  0.3093
  359MPD2     C 5372   4.474   3.312  12.410  0.0101  0.0903 -0.0673
  359MPD2    C1 5373   4.485   3.446  12.400  0.2852  0.2045  0.2966
  359MPD2    C2 5374   4.462   3.515  12.516  0.2117  0.0297 -0.6718
  359MPD2    C3 5375   4.430   3.447  12.633  0.3533  0.3287  0.0985
  359MPD2    C4 5376   4.423   3.308  12.641  0.1725  0.7519  0.3475
  359MPD2    C5 5377   4.441   3.238  12.523 -0.3635 -0.4511 -0.5919
  359MPD2     H 5378   4.467   3.623  12.507  2.5923 -0.0880 -0.9585
  359MPD2    H1 5379   4.399   3.259  12.735 -1.1870  1.6507  0.4722
  359MPD2    H2 5380   4.490   3.253  12.321  0.8076  0.6110 -0.2679
  359MPD2    H3 5381   4.436   3.131  12.509 -2.4724 -0.3923 -0.1757
  359MPD2     N 5382   4.391   3.505  12.756  0.2950 -0.3815 -0.0555
  359MPD2    H5 5383   4.364   3.438  12.828 -2.2807  0.3740 -0.2970
  359MPD2    N1 5384   4.526   3.513  12.280 -1.0445  0.9131 -0.4374
  359MPD2    H7 5385   4.560   3.607  12.298  1.4939  0.1087 -0.9500
  360TMC3    C1 5386   4.543   3.570  12.055 -0.9902  0.3628  0.6840
  360TMC3    C2 5387   4.617   3.679  12.090  0.1886  0.1207 -0.3236
  360TMC3    C3 5388   4.611   3.792  12.021 -0.1144  0.3433 -0.1129
  360TMC3    C4 5389   4.473   3.565  11.939 -0.3868 -0.1653  0.0557
  360TMC3    C5 5390   4.474   3.678  11.855 -0.5225  0.1652  0.5819
  360TMC3    C6 5391   4.533   3.796  11.904 -0.2232 -0.2656 -0.1215
  360TMC3     C 5392   4.520   3.463  12.154  0.3508 -0.0418  0.4815
  360TMC3     O 5393   4.475   3.353  12.117  0.2625 -0.3866 -0.0249
  360TMC3     H 5394   4.698   3.671  12.162  1.3055  1.4594 -1.4257
  360TMC3    H1 5395   4.434   3.469  11.907  0.1389  0.2811 -1.9125
  360TMC3    H2 5396   4.545   3.887  11.846 -0.7511  2.1340  3.5573
  360TMC3    C7 5397   4.451   3.676  11.713  1.2007 -0.6668 -0.3971
  360TMC3    C8 5398   0.010   3.863  12.011 -0.1471 -0.2426  0.7348
  360TMC3    O1 5399   4.470   3.782  11.653  0.4743 -0.0618  0.2704
  360TMC3    O2 5400   0.117   3.814  12.040 -0.2307 -0.1419 -0.2211
  361MPD2     C 5401   1.225   2.560  16.843  0.4810 -0.6166  0.0447
  361MPD2    C1 5402   1.285   2.683  16.888 -0.8737 -0.4001 -0.1715
  361MPD2    C2 5403   1.420   2.709  16.886  0.3558 -0.2336  0.0077
  361MPD2    C3 5404   1.500   2.597  16.863  0.2304  0.4300 -0.4215
  361MPD2    C4 5405   1.446   2.478  16.822  0.6280 -0.0672 -0.2692
  361MPD2    C5 5406   1.313   2.459  16.816 -0.0288  0.4336 -0.3975
  361MPD2     H 5407   1.462   2.805  16.915  1.3363  0.0394 -2.2481
  361MPD2    H1 5408   1.508   2.391  16.802  2.1807  0.6664  1.4474
  361MPD2    H2 5409   1.119   2.537  16.839  0.3293  0.6323 -2.8761
  361MPD2    H3 5410   1.286   2.355  16.799  0.6971  0.8380 -3.9983
  361MPD2     N 5411   1.635   2.599  16.872 -0.3918 -0.0138  0.0502
  361MPD2    H5 5412   1.677   2.509  16.851 -1.1688 -0.4033  0.1643
  361MPD2    N1 5413   1.198   2.793  16.907 -0.4627  0.6011  0.7812
  361MPD2    H7 5414   1.237   2.886  16.920 -0.9531  0.8767  0.2315
  362TMC3    C1 5415   1.017   2.923  16.983 -0.0332  0.4704 -0.7222
  362TMC3    C2 5416   0.905   2.929  17.060 -0.3782  0.2555  0.7873
  362TMC3    C3 5417   0.846   3.047  17.094 -0.6849 -0.1555  0.2243
  362TMC3    C4 5418   1.064   3.036  16.924 -0.2161  0.0726  0.2591
  362TMC3    C5 5419   0.988   3.148  16.935  0.9339 -0.5594  0.3869
  362TMC3    C6 5420   0.875   3.154  17.023  0.0954  0.0238 -0.4094
  362TMC3     C 5421   1.070   2.789  16.948 -0.5529 -0.1939  0.0293
  362TMC3     O 5422   0.988   2.702  16.976  0.4743  0.3168 -0.2612
  362TMC3     H 5423   0.890   2.842  17.123 -2.3954 -0.4796 -0.6889
  362TMC3    H1 5424   1.150   3.038  16.858  0.8090  1.0278  1.6186
  362TMC3    H2 5425   0.818   3.246  17.034  0.7290  0.4284 -0.4972
  362TMC3    C7 5426   1.000   3.267  16.852 -0.4361  0.4263 -0.2414
  362TMC3    C8 5427   0.720   3.034  17.169 -0.1235  0.1107 -0.5111
  362TMC3    O1 5428   0.934   3.362  16.884 -0.2143 -0.1825  0.1890
  362TMC3    O2 5429   0.682   2.922  17.192 -0.2296  0.3019 -0.1789
  363TMC3    C1 5430   4.011   0.580   9.474  0.7249  0.1952 -0.0440
  363TMC3    C2 5431   4.139   0.538   9.503  0.6080 -0.5391  0.3070
  363TMC3    C3 5432   4.239   0.632   9.495 -0.1959  0.7961  0.1076
  363TMC3    C4 5433   3.972   0.704   9.448  0.3053  0.3068  0.1766
  363TMC3    C5 5434   4.078   0.793   9.427 -0.0738  0.6326  0.3118
  363TMC3    C6 5435   4.210   0.762   9.453 -0.8111 -0.0635  0.5574
  363TMC3     C 5436   3.917   0.470   9.482 -0.0568  0.6575 -0.9989
  363TMC3     O 5437   3.947   0.379   9.558 -0.7014  0.2360  1.1895
  363TMC3     H 5438   4.166   0.437   9.530 -2.3382 -1.3849  0.0486
  363TMC3    H1 5439   3.869   0.732   9.428  0.1432 -0.5517 -0.2067
  363TMC3    H2 5440   4.289   0.836   9.457  0.5220 -1.4344 -0.8156
  363TMC3    C7 5441   4.049   0.931   9.403  0.4221  0.3261  0.3548
  363TMC3    C8 5442   4.354   0.605   9.576  0.2111  0.2497 -0.5710
  363TMC3    O1 5443   4.135   1.012   9.426 -0.3321 -0.1876 -0.9399
  363TMC3    O2 5444   4.390   0.704   9.635 -0.1040  0.4741 -0.4357
  364MPD2     C 5445   3.114   0.133  10.770  0.1804 -0.3221 -0.9508
  364MPD2    C1 5446   3.083   0.040  10.673  0.4672  0.2334 -0.3514
  364MPD2    C2 5447   3.163   4.654  10.652  0.1372 -0.1861  0.6014
  364MPD2    C3 5448   3.265   4.629  10.739 -0.3340 -0.2394  0.0883
  364MPD2    C4 5449   3.287   4.711  10.845 -0.2218 -0.1141  0.5453
  364MPD2    C5 5450   3.208   0.101  10.868  0.0758 -0.0993  0.0188
  364MPD2     H 5451   3.133   4.588  10.572  0.8570 -1.1651  1.1444
  364MPD2    H1 5452   3.361   4.691  10.921  1.8975 -0.3468 -1.5767
  364MPD2    H2 5453   3.062   0.227  10.788 -2.8369 -1.9747 -0.9265
  364MPD2    H3 5454   3.214   0.162  10.956 -1.3780  2.0586 -1.3863
  364MPD2     N 5455   3.340   4.512  10.736 -0.7085 -0.7825 -0.4046
  364MPD2    H5 5456   3.403   4.505  10.815 -1.8128 -1.1576  0.4349
  364MPD2    N1 5457   2.978   0.070  10.579 -0.4705 -0.7867  0.6711
  364MPD2    H7 5458   2.935   0.162  10.591 -0.9196 -0.7860 -0.8604
  365TMC3    C1 5459   2.846   0.074  10.384 -0.5983  0.8708  0.0726
  365TMC3    C2 5460   2.788   4.718  10.292 -0.6976 -0.1197  0.1817
  365TMC3    C3 5461   2.770   0.022  10.159  0.3530  0.0712  0.2168
  365TMC3    C4 5462   2.872   0.200  10.341 -0.0105 -0.1826 -0.4575
  365TMC3    C5 5463   2.838   0.238  10.211  0.0078  0.1595  0.5346
  365TMC3    C6 5464   2.797   0.146  10.116 -0.1865  0.7430  0.5964
  365TMC3     C 5465   2.944   0.005  10.460  0.1657  0.3087 -0.4141
  365TMC3     O 5466   2.981   4.628  10.405 -1.0982 -0.6739 -0.4283
  365TMC3     H 5467   2.759   4.620  10.327 -0.0043  0.0390  1.1971
  365TMC3    H1 5468   2.925   0.263  10.412 -0.6263  0.1650 -0.3067
  365TMC3    H2 5469   2.792   0.183  10.014  1.4007 -0.5368  0.0639
  365TMC3    C7 5470   2.887   0.376  10.169  0.4640 -0.3807  0.4539
  365TMC3    C8 5471   2.828   4.646  10.073  0.9504 -0.4129 -0.2076
  365TMC3    O1 5472   2.904   0.390  10.046 -0.0801  0.0670  0.1310
  365TMC3    O2 5473   2.812   4.663   9.954  0.2267  0.3853 -0.5397
  366MPD2     C 5474   1.888   1.094  15.138  0.2126  0.1685 -0.7485
  366MPD2    C1 5475   1.961   1.160  15.226 -1.0240 -0.4429 -0.2011
  366MPD2    C2 5476   2.088   1.109  15.264 -0.0064 -0.2801  0.6036
  366MPD2    C3 5477   2.137   0.993  15.201 -0.1217  0.1871 -0.4972
  366MPD2    C4 5478   2.061   0.941  15.097 -0.1108 -0.4503 -0.2109
  366MPD2    C5 5479   1.935   0.987  15.076 -0.2822  0.3628  0.1891
  366MPD2     H 5480   2.153   1.160  15.334 -2.3171  1.1975  1.6672
  366MPD2    H1 5481   2.116   0.866  15.042 -0.7358 -0.0885 -1.3220
  366MPD2    H2 5482   1.791   1.125  15.101  0.2974  1.3532  0.0126
  366MPD2    H3 5483   1.875   0.944  14.997  0.0405 -0.8563  0.6038
  366MPD2     N 5484   2.267   0.948  15.225  0.2701  0.0579  0.5587
  366MPD2    H5 5485   2.309   0.895  15.149  0.7349 -2.0796  2.2832
  366MPD2    N1 5486   1.935   1.287  15.278 -0.5295  0.3501  0.2600
  366MPD2    H7 5487   2.014   1.340  15.314  0.0980 -1.2583  1.2496
  367TMC3    C1 5488   1.834   1.491  15.306  0.2140  0.0633 -0.1571
  367TMC3    C2 5489   1.935   1.530  15.386  0.2979  0.3083  0.5795
  367TMC3    C3 5490   1.950   1.668  15.407 -0.9601  0.2187 -0.5072
  367TMC3    C4 5491   1.739   1.579  15.258  0.0592 -0.1729 -0.8757
  367TMC3    C5 5492   1.757   1.712  15.289 -0.6850 -0.0282 -0.7769
  367TMC3    C6 5493   1.857   1.763  15.367 -0.0283  0.1106  0.5347
  367TMC3     C 5494   1.821   1.357  15.258  0.6546 -0.0145 -0.0031
  367TMC3     O 5495   1.718   1.312  15.207  0.7529 -0.6248 -0.0899
  367TMC3     H 5496   2.000   1.465  15.443 -0.0619  1.2858  2.0751
  367TMC3    H1 5497   1.660   1.537  15.197 -0.1352 -0.9741 -0.0692
  367TMC3    H2 5498   1.871   1.870  15.377  1.8829 -0.0161 -0.6060
  367TMC3    C7 5499   1.656   1.810  15.252 -0.0045 -0.1427 -0.0275
  367TMC3    C8 5500   2.078   1.707  15.466 -0.1467 -0.2505  0.4069
  367TMC3    O1 5501   1.672   1.924  15.300  0.0419  0.6037 -0.3419
  367TMC3    O2 5502   2.157   1.616  15.483  0.2000  0.3059  0.3870
  368MPD2     C 5503   2.765   3.040  13.111 -0.1113  0.5558 -0.6374
  368MPD2    C1 5504   2.765   3.160  13.042  0.1287  0.4745  0.0254
  368MPD2    C2 5505   2.879   3.200  12.971  0.1782  0.3512  0.3886
  368MPD2    C3 5506   2.983   3.114  12.970 -0.4734  0.5101 -0.0250
  368MPD2    C4 5507   2.988   2.995  13.036 -0.8282 -0.2378 -0.1962
  368MPD2    C5 5508   2.880   2.962  13.107 -0.3347  0.3737  0.0515
  368MPD2     H 5509   2.887   3.294  12.916  1.1449  0.7347  1.1780
  368MPD2    H1 5510   3.074   2.929  13.040 -0.1186  0.6371 -0.9945
  368MPD2    H2 5511   2.680   3.006  13.169  0.0392  1.1333 -0.0825
  368MPD2    H3 5512   2.878   2.874  13.170 -0.4453 -0.4154 -1.0331
  368MPD2     N 5513   3.103   3.150  12.905 -0.0320 -0.2291 -0.0281
  368MPD2    H5 5514   3.190   3.103  12.930  1.1548  1.9988  0.0376
  368MPD2    N1 5515   2.653   3.250  13.052  0.6601  0.0304 -0.2844
  368MPD2    H7 5516   2.568   3.212  13.092 -0.8109  2.2294 -1.3355
  369TMC3    C1 5517   2.555   3.454  12.985 -0.5781 -0.0112  0.1461
  369TMC3    C2 5518   2.588   3.575  12.929  0.6018  0.1756 -0.9326
  369TMC3    C3 5519   2.495   3.625  12.842  0.6018  0.1269 -0.2433
  369TMC3    C4 5520   2.439   3.391  12.962  0.1282 -0.1161  0.5189
  369TMC3    C5 5521   2.341   3.448  12.878  0.3306  0.0847 -0.3550
  369TMC3    C6 5522   2.372   3.568  12.828 -0.0802  0.4048  0.3415
  369TMC3     C 5523   2.674   3.388  13.039 -1.1905  0.2340  0.8735
  369TMC3     O 5524   2.776   3.455  13.040 -0.4789  0.3741 -0.6724
  369TMC3     H 5525   2.671   3.637  12.962  1.2289 -1.0198 -0.2833
  369TMC3    H1 5526   2.414   3.303  13.020  0.4187 -2.5757 -3.1670
  369TMC3    H2 5527   2.319   3.620  12.749 -1.7070 -0.6924  0.7085
  369TMC3    C7 5528   2.201   3.423  12.911 -0.2328  0.3962 -0.9311
  369TMC3    C8 5529   2.548   3.682  12.722 -0.0247  0.6437 -1.0202
  369TMC3    O1 5530   2.176   3.395  13.029  0.0532 -0.2517 -0.4562
  369TMC3    O2 5531   2.469   3.757  12.661  0.5475 -0.4844 -0.1954
  370TMC3    C1 5532   2.744   3.974  16.272 -0.6364  0.7314  0.0589
  370TMC3    C2 5533   2.684   3.892  16.359 -0.0015  0.3830 -0.2250
  370TMC3    C3 5534   2.653   3.766  16.321 -0.1960  0.2105  0.9984
  370TMC3    C4 5535   2.778   3.929  16.143  0.0749 -0.0340  0.2144
  370TMC3    C5 5536   2.740   3.797  16.109 -0.6645 -0.2130 -0.0233
  370TMC3    C6 5537   2.675   3.712  16.200 -0.3080  0.4535  0.2401
  370TMC3     C 5538   2.816   4.078  16.330  0.4120  0.3768 -0.0573
  370TMC3     O 5539   2.841   4.068  16.449  0.8749  0.4887 -0.0966
  370TMC3     H 5540   2.658   3.933  16.456 -0.2163 -2.8791  1.1228
  370TMC3    H1 5541   2.840   3.984  16.073 -2.9401  1.0888 -1.6081
  370TMC3    H2 5542   2.653   3.606  16.190  0.7494  0.1778  0.8334
  370TMC3    C7 5543   2.783   3.753  15.978  0.0221  0.3383 -1.0035
  370TMC3    C8 5544   2.629   3.671  16.424  0.3743 -0.2414 -0.3975
  370TMC3    O1 5545   2.806   3.838  15.894 -0.2408 -0.2567 -0.9525
  370TMC3    O2 5546   2.639   3.550  16.405  0.1958 -0.3520  0.6163
  371TMC3    C1 5547   4.109   2.084  15.451  0.5079 -0.2723 -0.0795
  371TMC3    C2 5548   3.988   2.090  15.512 -0.4287 -0.2325 -0.2344
  371TMC3    C3 5549   3.923   2.214  15.512  0.2148  0.1264 -0.5715
  371TMC3    C4 5550   4.144   2.185  15.362 -0.9091 -0.1491 -0.5786
  371TMC3    C5 5551   4.068   2.294  15.344  0.4181 -0.2091 -0.3348
  371TMC3    C6 5552   3.956   2.309  15.423  0.6837  0.5083  0.4203
  371TMC3     C 5553   4.204   1.992  15.503  0.1917  0.6533 -0.5049
  371TMC3     O 5554   4.316   2.027  15.469  0.0077  0.3394  0.2363
  371TMC3     H 5555   3.952   2.007  15.572 -2.3357  0.7093 -0.0591
  371TMC3    H1 5556   4.238   2.174  15.311 -0.1262 -0.5073  0.9371
  371TMC3    H2 5557   3.899   2.399  15.405 -1.4562 -0.8177  0.5185
  371TMC3    C7 5558   4.091   2.406  15.251  0.2719  0.5756 -1.2767
  371TMC3    C8 5559   3.789   2.216  15.560 -0.0607  0.1564 -0.4151
  371TMC3    O1 5560   4.037   2.507  15.283 -0.3933 -0.2263  0.2115
  371TMC3    O2 5561   3.743   2.103  15.586 -0.2761 -0.5516 -0.1312
  372MPD2     C 5562   2.717   3.014  13.505 -0.4687 -0.2738 -0.1356
  372MPD2    C1 5563   2.841   2.971  13.480  0.4910 -0.4019  1.1801
  372MPD2    C2 5564   2.874   2.831  13.493  0.0703 -0.9724  0.8191
  372MPD2    C3 5565   2.780   2.739  13.536 -1.1139 -0.5735  0.8701
  372MPD2    C4 5566   2.655   2.793  13.571 -0.1937 -0.3887  0.1871
  372MPD2    C5 5567   2.627   2.924  13.560 -0.5765 -0.2643 -0.3812
  372MPD2     H 5568   2.977   2.805  13.472  0.1299  1.4101 -1.8747
  372MPD2    H1 5569   2.577   2.732  13.615 -0.6877  0.2308  0.1668
  372MPD2    H2 5570   2.681   3.116  13.491  0.5464  0.0929 -0.0725
  372MPD2    H3 5571   2.525   2.957  13.571 -0.7428 -0.1667 -2.3097
  372MPD2     N 5572   2.802   2.599  13.534  0.3089 -0.4801  0.3506
  372MPD2    H5 5573   2.890   2.567  13.495  1.9235 -0.2589  3.7399
  372MPD2    N1 5574   2.939   3.054  13.418 -0.2609  0.4108  0.7137
  372MPD2    H7 5575   3.026   3.015  13.384 -1.5230 -0.8112 -1.0954
  373TMC3    C1 5576   2.757   2.369  13.562  0.4143  0.1230 -0.0523
  373TMC3    C2 5577   2.717   2.279  13.659 -0.4679 -0.5356 -0.6085
  373TMC3    C3 5578   2.787   2.165  13.660  0.3510  0.5208  0.5304
  373TMC3    C4 5579   2.841   2.338  13.461  0.3099  0.2779  0.0140
  373TMC3    C5 5580   2.889   2.208  13.455 -0.2426  0.0605 -0.3985
  373TMC3    C6 5581   2.866   2.122  13.560  0.0757 -0.2733  0.0507
  373TMC3     C 5582   2.708   2.502  13.580 -0.3258  0.7738  0.3697
  373TMC3     O 5583   2.618   2.514  13.663 -0.2698 -1.0552 -0.2967
  373TMC3     H 5584   2.665   2.306  13.751  1.1801 -1.4928  0.6083
  373TMC3    H1 5585   2.871   2.407  13.383  2.0992  0.1884  0.6069
  373TMC3    H2 5586   2.917   2.027  13.566  2.0566  0.9542  2.3764
  373TMC3    C7 5587   3.011   2.190  13.379 -0.2666 -0.2076  0.5205
  373TMC3    C8 5588   2.842   2.140  13.797  0.1239  0.5191 -0.6051
  373TMC3    O1 5589   3.091   2.279  13.363  0.2126  0.9677 -0.8420
  373TMC3    O2 5590   2.755   2.162  13.881  0.0071 -0.2768  0.0298
  374TMC3    C1 5591   3.811   3.663   9.786  0.1399 -0.5574 -0.1838
  374TMC3    C2 5592   3.910   3.749   9.809  0.4255  0.1799 -0.1538
  374TMC3    C3 5593   3.919   3.846   9.714 -0.4549 -0.3637  0.3556
  374TMC3    C4 5594   3.725   3.662   9.677 -0.0380 -0.0973 -0.0379
  374TMC3    C5 5595   3.742   3.764   9.585 -0.3234  0.0211 -0.3853
  374TMC3    C6 5596   3.833   3.863   9.613 -0.3056  0.4367  0.2051
  374TMC3     C 5597   3.784   3.569   9.888 -0.4055 -0.1133 -0.1597
  374TMC3     O 5598   3.720   3.468   9.863 -1.0327 -0.2933 -0.4502
  374TMC3     H 5599   3.982   3.751   9.890  0.7496  1.6094 -0.4686
  374TMC3    H1 5600   3.642   3.594   9.663 -0.2726 -0.5024  3.3227
  374TMC3    H2 5601   3.841   3.950   9.549  0.8275  1.0365  1.1616
  374TMC3    C7 5602   3.636   3.782   9.489  0.1177 -0.0415  0.0762
  374TMC3    C8 5603   4.042   3.927   9.722 -0.4525  0.9349 -0.3573
  374TMC3    O1 5604   3.536   3.715   9.495  0.2234  0.4408 -0.0731
  374TMC3    O2 5605   4.024   4.042   9.684 -0.0754 -0.5058 -0.2403
  375MPD2     C 5606   4.070   4.252  17.093 -0.2042 -0.1843 -0.0730
  375MPD2    C1 5607   3.992   4.232  16.980 -1.0472 -0.1292  0.7866
  375MPD2    C2 5608   4.044   4.166  16.867 -0.9758  0.1338 -0.7098
  375MPD2    C3 5609   4.179   4.121  16.863 -0.0148 -0.2363 -0.3269
  375MPD2    C4 5610   4.253   4.138  16.979  0.6741 -0.6118 -0.2484
  375MPD2    C5 5611   4.204   4.210  17.087  0.0185  0.4901  0.6330
  375MPD2     H 5612   3.988   4.159  16.774 -2.8358  3.6956  0.1384
  375MPD2    H1 5613   4.355   4.101  16.980  1.1910  0.8311  0.2276
  375MPD2    H2 5614   4.038   4.296  17.187  1.5149 -0.6769  0.7400
  375MPD2    H3 5615   4.271   4.222  17.172 -0.6549 -0.1627  1.2586
  375MPD2     N 5616   4.242   4.059  16.757  0.2300 -0.0082 -0.3195
  375MPD2    H5 5617   4.343   4.051  16.755 -0.0514 -3.0358 -1.6053
  375MPD2    N1 5618   3.859   4.267  16.979  0.1092 -0.1127  0.6274
  375MPD2    H7 5619   3.796   4.217  16.918  0.4816 -1.0952  1.0418
  376TMC3    C1 5620   4.271   4.006  16.528  0.8790 -0.8275  0.2719
  376TMC3    C2 5621   4.398   4.051  16.532 -0.2205  0.3301  0.2986
  376TMC3    C3 5622   4.488   4.000  16.442 -0.1050  0.4505 -0.0478
  376TMC3    C4 5623   4.225   3.942  16.416  0.6552  0.3809  0.1752
  376TMC3    C5 5624   4.314   3.900  16.327 -0.0357 -0.5507 -0.1916
  376TMC3    C6 5625   4.448   3.923  16.339 -0.3631  0.0788  0.8258
  376TMC3     C 5626   4.180   4.028  16.637  0.2060  0.3338 -0.0758
  376TMC3     O 5627   4.061   4.016  16.609  0.1533  0.0052 -0.4328
  376TMC3     H 5628   4.427   4.132  16.598  1.9715  0.1529 -0.4551
  376TMC3    H1 5629   4.123   3.906  16.409  0.0990  1.3618  2.9663
  376TMC3    H2 5630   4.520   3.876  16.272  0.1213  2.1464 -0.0967
  376TMC3    C7 5631   4.276   3.860  16.186  0.3579 -0.0955  0.4647
  376TMC3    C8 5632   4.635   4.034  16.441  0.1322 -0.3050  0.1940
  376TMC3    O1 5633   4.351   3.893  16.098 -0.3620  0.0886 -0.7276
  376TMC3    O2 5634   4.680   4.055  16.330  0.0010  0.1940 -0.0056
  377MPD2     C 5635   1.576   3.501  12.066 -0.4981 -0.6256  0.9175
  377MPD2    C1 5636   1.641   3.467  12.179 -0.3343  0.1194 -0.6369
  377MPD2    C2 5637   1.573   3.422  12.292  0.0492  0.6862 -0.5902
  377MPD2    C3 5638   1.434   3.430  12.301 -0.6708 -0.4977 -1.2169
  377MPD2    C4 5639   1.368   3.467  12.185 -0.1950 -0.0248 -1.0756
  377MPD2    C5 5640   1.438   3.496  12.068 -0.1894  0.4636 -0.5603
  377MPD2     H 5641   1.626   3.404  12.384 -0.5033 -0.5406 -0.5159
  377MPD2    H1 5642   1.260   3.470  12.179 -0.1932 -0.7649 -1.5383
  377MPD2    H2 5643   1.628   3.537  11.978  0.4002 -0.3705  1.5516
  377MPD2    H3 5644   1.386   3.505  11.974  1.2814 -1.5314 -1.5685
  377MPD2     N 5645   1.354   3.418  12.416  0.0642  0.0566 -0.2313
  377MPD2    H5 5646   1.258   3.448  12.406 -0.2429 -0.4737  1.0314
  377MPD2    N1 5647   1.787   3.474  12.180 -0.1942 -0.8097  0.1669
  377MPD2    H7 5648   1.835   3.524  12.105 -0.3675 -0.4673  0.2811
  378TMC3    C1 5649   2.184   3.604  12.151 -0.0550 -0.7443  0.0605
  378TMC3    C2 5650   2.054   3.568  12.154 -0.5957  0.0868  0.4028
  378TMC3    C3 5651   2.013   3.485  12.251 -0.3487  0.5276 -0.4512
  378TMC3    C4 5652   2.275   3.557  12.245  0.4874 -0.1871  0.2613
  378TMC3    C5 5653   2.229   3.464  12.336  0.2370 -0.0395 -0.5446
  378TMC3    C6 5654   2.098   3.436  12.342  0.9213  0.5560 -0.8805
  378TMC3     C 5655   2.235   3.699  12.050  0.5171  0.0863 -0.9570
  378TMC3     O 5656   2.157   3.762  11.981  0.1767  0.3756  0.1330
  378TMC3     H 5657   1.990   3.613  12.080  1.7928  1.3613 -0.8786
  378TMC3    H1 5658   2.369   3.607  12.262 -0.1933  0.8910  0.8205
  378TMC3    H2 5659   2.059   3.372  12.420  2.6931 -1.6715 -1.8261
  378TMC3    C7 5660   2.310   3.427  12.460 -0.1867 -1.0933  0.3341
  378TMC3    C8 5661   1.879   3.435  12.279 -0.0504 -0.4751 -0.5942
  378TMC3    O1 5662   2.247   3.387  12.558 -0.2055 -0.9539  0.0952
  378TMC3    O2 5663   1.855   3.365  12.370  0.7069  0.0283  0.3610
  379MPD2     C 5664   3.445   1.947  15.802  0.1530 -0.0467  0.1062
  379MPD2    C1 5665   3.338   1.881  15.861 -0.0195  0.0746  0.8189
  379MPD2    C2 5666   3.363   1.817  15.985 -0.0179  0.0747 -0.5338
  379MPD2    C3 5667   3.485   1.827  16.055 -0.0926  0.5258  0.4529
  379MPD2    C4 5668   3.576   1.908  15.998  0.3017 -0.3810 -1.1329
  379MPD2    C5 5669   3.566   1.955  15.872 -0.3508 -0.6419  0.3712
  379MPD2     H 5670   3.289   1.755  16.034 -0.6081  2.3242  1.4334
  379MPD2    H1 5671   3.670   1.924  16.048 -0.8699  3.1743 -0.1171
  379MPD2    H2 5672   3.441   1.989  15.702  0.7054 -0.7142 -0.1879
  379MPD2    H3 5673   3.653   2.010  15.838  0.3336 -0.5661  2.2549
  379MPD2     N 5674   3.526   1.741  16.163  0.4153 -0.0859  0.2097
  379MPD2    H5 5675   3.626   1.732  16.179  0.9070  3.5105 -0.8241
  379MPD2    N1 5676   3.214   1.886  15.791  0.0969 -0.4912 -0.5855
  379MPD2    H7 5677   3.216   1.919  15.695 -1.4573 -2.4523 -1.2828
  380TMC3    C1 5678   2.993   1.878  15.748  0.6240  0.6878  0.4469
  380TMC3    C2 5679   3.023   1.901  15.615  0.1987  0.2177  0.4787
  380TMC3    C3 5680   2.919   1.929  15.534  0.2769 -0.7230  0.8518
  380TMC3    C4 5681   2.866   1.889  15.794 -0.3064 -0.0689 -0.2533
  380TMC3    C5 5682   2.768   1.914  15.710  0.3621  0.1263  0.4345
  380TMC3    C6 5683   2.794   1.945  15.578  0.0491 -0.1814  0.5730
  380TMC3     C 5684   3.099   1.850  15.845  0.2170 -0.2600 -0.7220
  380TMC3     O 5685   3.063   1.801  15.951  0.6320 -0.2666  0.0673
  380TMC3     H 5686   3.123   1.887  15.576  0.2049  0.6499  0.3440
  380TMC3    H1 5687   2.847   1.878  15.900  0.8211 -0.9674 -0.1355
  380TMC3    H2 5688   2.716   1.971  15.508  0.3857 -0.2222  0.1813
  380TMC3    C7 5689   2.636   1.937  15.756 -0.4452 -0.2284 -0.4929
  380TMC3    C8 5690   2.961   1.998  15.416  0.0674  0.1052  0.6415
  380TMC3    O1 5691   2.628   1.967  15.876 -0.6578 -0.1753 -0.5577
  380TMC3    O2 5692   2.885   2.081  15.371  0.1435  0.2300  0.0538
  381TMC3    C1 5693   2.763   3.002  16.264 -0.0878  0.8539  0.6909
  381TMC3    C2 5694   2.825   3.121  16.247  0.6942  0.3021  0.0881
  381TMC3    C3 5695   2.817   3.217  16.344 -0.4358 -0.2771  0.3554
  381TMC3    C4 5696   2.680   2.984  16.372 -0.7127 -0.3506  0.9196
  381TMC3    C5 5697   2.668   3.082  16.472 -0.3674 -0.1024  0.3541
  381TMC3    C6 5698   2.735   3.202  16.458  0.2825 -0.0128 -0.1676
  381TMC3     C 5699   2.802   2.891  16.181 -0.1981  0.3578 -0.1443
  381TMC3     O 5700   2.853   2.926  16.075  0.1585 -0.1112  0.4609
  381TMC3     H 5701   2.883   3.150  16.160 -0.1691  0.8255 -0.3118
  381TMC3    H1 5702   2.627   2.893  16.397 -2.9168  0.6738 -0.0276
  381TMC3    H2 5703   2.731   3.279  16.534 -1.6479 -0.2174 -0.0383
  381TMC3    C7 5704   2.621   3.043  16.599  0.0535  0.1641 -0.0366
  381TMC3    C8 5705   2.846   3.355  16.298  0.3904  0.1223 -0.0263
  381TMC3    O1 5706   2.634   2.927  16.638  0.3191 -0.3262  0.2539
  381TMC3    O2 5707   2.827   3.388  16.180  0.0585 -0.0906 -0.1018
  382MPD2     C 5708   1.887   0.459  16.786  0.0498  0.3267  0.1067
  382MPD2    C1 5709   1.932   0.488  16.913 -0.6151 -0.6723 -0.0977
  382MPD2    C2 5710   1.964   0.385  17.002 -0.7150 -0.3868  0.4878
  382MPD2    C3 5711   1.961   0.249  16.966 -0.5588  0.1792  0.4048
  382MPD2    C4 5712   1.928   0.219  16.834 -0.2786  0.8980 -0.0035
  382MPD2    C5 5713   1.892   0.328  16.749 -0.2023 -0.3148  0.2338
  382MPD2     H 5714   1.994   0.414  17.102 -0.6612  1.1284  0.0283
  382MPD2    H1 5715   1.935   0.119  16.793  0.3735 -0.3918  3.2104
  382MPD2    H2 5716   1.864   0.529  16.707  0.9125  0.5371  0.0388
  382MPD2    H3 5717   1.866   0.305  16.646 -2.2659 -0.9528  0.9039
  382MPD2     N 5718   1.997   0.142  17.057 -0.0343 -0.3281  0.6285
  382MPD2    H5 5719   1.979   0.047  17.027 -0.0836  0.5844 -2.2439
  382MPD2    N1 5720   1.956   0.620  16.956  0.0705  0.0745 -0.1602
  382MPD2    H7 5721   1.983   0.623  17.054 -2.2066 -0.9149  0.4908
  383TMC3    C1 5722   2.010   0.035  17.275  0.6405 -0.8121 -0.0543
  383TMC3    C2 5723   1.944   4.649  17.231 -0.9186  0.1594 -0.6037
  383TMC3    C3 5724   1.926   4.542  17.314  0.2104 -0.0556  0.7005
  383TMC3    C4 5725   2.055   0.038  17.406  0.2595 -0.1550 -0.1246
  383TMC3    C5 5726   2.032   4.658  17.486 -0.7863 -0.2220  0.0248
  383TMC3    C6 5727   1.978   4.541  17.446  0.0313 -0.2696  0.2224
  383TMC3     C 5728   2.014   0.153  17.195 -0.1121 -0.8683  0.5304
  383TMC3     O 5729   2.025   0.253  17.266  0.1491  0.1130 -0.5055
  383TMC3     H 5730   1.900   4.641  17.132 -0.4662 -1.1979 -0.6974
  383TMC3    H1 5731   2.085   0.134  17.448 -2.9277  1.2843 -1.0791
  383TMC3    H2 5732   1.957   4.469  17.524  0.2478  0.2869  0.7943
  383TMC3    C7 5733   2.060   4.668  17.630 -0.3091 -0.0676  0.7637
  383TMC3    C8 5734   1.849   4.425  17.272 -0.0350  0.1180  0.3467
  383TMC3    O1 5735   2.067   4.573  17.701 -0.4232 -0.1313 -0.4681
  383TMC3    O2 5736   1.794   4.433  17.162 -0.3374 -0.0669  0.0299
  384MPD2     C 5737   3.639   1.846  12.125  0.5374 -0.3655  0.0224
  384MPD2    C1 5738   3.504   1.822  12.126 -0.4934 -1.2436 -0.5500
  384MPD2    C2 5739   3.445   1.819  11.998 -0.4359 -0.0243  0.5537
  384MPD2    C3 5740   3.521   1.822  11.886  0.1955 -0.8189 -0.3733
  384MPD2    C4 5741   3.656   1.839  11.893 -0.5051 -0.0620 -0.3509
  384MPD2    C5 5742   3.716   1.862  12.013 -1.1442 -0.0642  0.8470
  384MPD2     H 5743   3.338   1.816  11.983 -0.3740  0.6768 -0.0271
  384MPD2    H1 5744   3.719   1.843  11.805 -1.6358  0.4147 -1.1429
  384MPD2    H2 5745   3.690   1.846  12.221 -0.9290  0.6567  0.8196
  384MPD2    H3 5746   3.823   1.879  12.019 -1.1930  1.8519 -4.4279
  384MPD2     N 5747   3.476   1.814  11.747  0.0495  0.8707 -0.2885
  384MPD2    H5 5748   3.551   1.799  11.680 -0.3533 -1.8922 -0.1065
  384MPD2    N1 5749   3.439   1.796  12.250  0.1438  0.0435 -0.3466
  384MPD2    H7 5750   3.494   1.786  12.334  0.6068 -2.1273 -0.9117
  385TMC3    C1 5751   3.356   1.646  11.630  0.2999 -0.2912 -0.3995
  385TMC3    C2 5752   3.481   1.618  11.574 -0.8511 -0.4385 -0.2042
  385TMC3    C3 5753   3.527   1.489  11.579  0.7364  0.3183  0.3047
  385TMC3    C4 5754   3.273   1.538  11.663 -0.0847  0.9848 -0.3518
  385TMC3    C5 5755   3.334   1.417  11.693  0.3044  0.5018 -0.0436
  385TMC3    C6 5756   3.456   1.388  11.640  0.1500  0.2145 -0.0111
  385TMC3     C 5757   3.352   1.763  11.713 -0.0866  0.6452  0.1562
  385TMC3     O 5758   3.250   1.804  11.768  0.0999 -0.4491  0.0957
  385TMC3     H 5759   3.549   1.694  11.537  0.9161 -2.3295 -0.8237
  385TMC3    H1 5760   3.183   1.563  11.717  0.3586  1.4614  0.1632
  385TMC3    H2 5761   3.506   1.293  11.654  0.2510 -0.0586 -2.1696
  385TMC3    C7 5762   3.298   1.371  11.828 -0.1065 -0.6351  0.1045
  385TMC3    C8 5763   3.616   1.447  11.477 -0.3629 -0.1761  0.0716
  385TMC3    O1 5764   3.263   1.471  11.896 -0.4641 -0.6527  0.0039
  385TMC3    O2 5765   3.671   1.536  11.410 -0.2924 -0.1140  0.3089
  386TMC3    C1 5766   3.778   3.934  11.665  0.2751  0.2782  0.1305
  386TMC3    C2 5767   3.791   3.921  11.531  0.3456 -1.0023 -0.0774
  386TMC3    C3 5768   3.719   4.010  11.454 -0.8353  0.3266 -0.1884
  386TMC3    C4 5769   3.684   4.016  11.724  0.0776  0.3792  0.0697
  386TMC3    C5 5770   3.616   4.106  11.648  0.3317 -0.6733  1.1106
  386TMC3    C6 5771   3.647   4.108  11.510  0.6479 -0.2119 -0.4866
  386TMC3     C 5772   3.862   3.855  11.761 -0.2246  0.4013 -0.5108
  386TMC3     O 5773   3.876   3.896  11.872  0.1219  0.0088  0.2624
  386TMC3     H 5774   3.866   3.854  11.491  0.3995  0.5561 -2.5931
  386TMC3    H1 5775   3.690   4.023  11.832 -0.8670 -0.0979  0.1519
  386TMC3    H2 5776   3.611   4.188  11.446 -1.3947 -0.0153  0.9137
  386TMC3    C7 5777   3.475   4.117  11.688  0.0299 -0.2192 -0.0753
  386TMC3    C8 5778   3.657   3.961  11.332 -0.4278  0.5716  0.6537
  386TMC3    O1 5779   3.449   4.072  11.801  0.0704  0.3486 -0.1591
  386TMC3    O2 5780   3.535   3.977  11.327 -0.2297 -0.0764  0.5447
  387MPD2     C 5781   1.462   3.861   9.353  0.4315  0.3706 -0.4819
  387MPD2    C1 5782   1.504   3.834   9.480 -0.1187 -0.5302  0.4575
  387MPD2    C2 5783   1.434   3.746   9.556 -0.6437 -0.1780 -0.5046
  387MPD2    C3 5784   1.327   3.677   9.497 -0.3274  0.2092 -0.3034
  387MPD2    C4 5785   1.289   3.691   9.368 -0.6762  0.0770 -0.3527
  387MPD2    C5 5786   1.359   3.784   9.294  0.0681  0.3032  0.2194
  387MPD2     H 5787   1.457   3.734   9.662 -1.0744 -1.4466 -0.5463
  387MPD2    H1 5788   1.215   3.627   9.320 -0.0164 -0.7184 -0.3011
  387MPD2    H2 5789   1.515   3.918   9.277 -0.2049  0.1041 -1.1295
  387MPD2    H3 5790   1.347   3.804   9.188 -1.4889 -2.0978 -0.0374
  387MPD2     N 5791   1.252   3.597   9.590 -0.0281 -0.0671  0.0171
  387MPD2    H5 5792   1.291   3.596   9.683  0.9207  0.4757 -0.3826
  387MPD2    N1 5793   1.616   3.898   9.547  0.3887 -0.2773 -0.1005
  387MPD2    H7 5794   1.637   3.859   9.638  1.7677 -0.0989 -0.3498
  388TMC3    C1 5795   1.764   4.067   9.604 -0.5140 -0.2945  0.1147
  388TMC3    C2 5796   1.893   4.111   9.583  0.2881 -0.3453  0.0096
  388TMC3    C3 5797   1.967   4.147   9.692  0.2716  0.1518  0.1999
  388TMC3    C4 5798   1.705   4.064   9.729 -0.0916  0.5582  0.5130
  388TMC3    C5 5799   1.783   4.104   9.833  0.2938  0.2445  0.3551
  388TMC3    C6 5800   1.913   4.139   9.817  0.5733 -0.0262  0.1393
  388TMC3     C 5801   1.696   3.999   9.498 -0.6482  0.1145 -0.1018
  388TMC3     O 5802   1.724   4.041   9.386 -0.2099 -0.0487 -0.1551
  388TMC3     H 5803   1.927   4.118   9.481  1.1214 -0.3218  0.2899
  388TMC3    H1 5804   1.603   4.032   9.745  0.2317  0.2671  1.9204
  388TMC3    H2 5805   1.966   4.153   9.910  0.0142 -3.2932  0.9252
  388TMC3    C7 5806   1.750   4.043   9.961  0.4393 -0.2732 -0.0972
  388TMC3    C8 5807   2.091   4.218   9.660  0.3403 -0.0877 -0.0261
  388TMC3    O1 5808   1.836   4.018  10.044  0.4890  0.0081 -0.0139
  388TMC3    O2 5809   2.114   4.254   9.544 -0.0658 -0.5727 -0.0823
  389MPD2     C 5810   0.727   1.817  11.234  0.1888  0.2801 -0.1252
  389MPD2    C1 5811   0.656   1.716  11.181  0.1163 -0.0702  0.1464
  389MPD2    C2 5812   0.604   1.617  11.268 -0.0151  0.1446  0.6373
  389MPD2    C3 5813   0.603   1.638  11.403 -0.0055  0.0016  0.0477
  389MPD2    C4 5814   0.671   1.748  11.454  0.8174  0.0429  0.1215
  389MPD2    C5 5815   0.741   1.829  11.373 -0.3519  0.2592 -0.1210
  389MPD2     H 5816   0.550   1.534  11.225  1.0206 -0.8145  1.1881
  389MPD2    H1 5817   0.679   1.752  11.562  0.8772  1.4602  0.0658
  389MPD2    H2 5818   0.795   1.870  11.170  1.3865  0.5408  1.3546
  389MPD2    H3 5819   0.818   1.894  11.413  0.3446 -0.8734  0.3672
  389MPD2     N 5820   0.538   1.549  11.494 -0.4971  0.2012  0.2391
  389MPD2    H5 5821   0.531   1.587  11.588 -1.2010 -0.9107  0.6284
  389MPD2    N1 5822   0.663   1.699  11.043 -0.6072  0.1100  0.3790
  389MPD2    H7 5823   0.700   1.775  10.987 -2.6535 -0.6168 -1.9529
  390TMC3    C1 5824   0.382   1.398  11.575  0.3909 -0.5975 -0.1865
  390TMC3    C2 5825   0.347   1.268  11.597 -0.2930 -0.7208  0.0553
  390TMC3    C3 5826   0.252   1.243  11.696  0.4640  0.3234  0.9859
  390TMC3    C4 5827   0.316   1.498  11.632  0.2888 -0.3763  0.5895
  390TMC3    C5 5828   0.215   1.474  11.726 -0.1167 -1.0092  0.1529
  390TMC3    C6 5829   0.188   1.342  11.760  0.3232 -1.0768 -0.3121
  390TMC3     C 5830   0.467   1.437  11.466  0.1468  0.8389 -0.3666
  390TMC3     O 5831   0.469   1.359  11.372  0.0428  0.1308  0.2971
  390TMC3     H 5832   0.386   1.186  11.537 -0.0191 -1.7267  1.6102
  390TMC3    H1 5833   0.334   1.599  11.597  1.9067 -0.4058  1.3547
  390TMC3    H2 5834   0.125   1.328  11.847  0.0500 -1.3458 -0.5534
  390TMC3    C7 5835   0.105   1.572  11.751 -0.2606 -0.0245  0.4873
  390TMC3    C8 5836   0.169   1.133  11.657 -0.0750  0.3607 -0.4129
  390TMC3    O1 5837   0.146   1.679  11.802 -0.7104  0.8539 -0.0698
  390TMC3    O2 5838   0.197   1.071  11.557  0.4941 -0.1292  0.9113
  391MPD2     C 5839   4.667   3.107  10.791 -0.1385 -0.6421 -0.2482
  391MPD2    C1 5840   4.679   3.240  10.829 -0.6590 -0.3695 -0.7942
  391MPD2    C2 5841   4.656   3.337  10.737 -0.2207 -0.1209 -0.3710
  391MPD2    C3 5842   4.640   3.301  10.599 -0.0294  0.7076 -0.1610
  391MPD2    C4 5843   4.621   3.172  10.564 -0.0600  0.2615 -0.3654
  391MPD2    C5 5844   4.630   3.076  10.658 -0.4465  0.0177 -0.0502
  391MPD2     H 5845   4.679   3.439  10.766 -0.4623 -0.1207 -0.1862
  391MPD2    H1 5846   4.600   3.146  10.461  2.2465 -1.6587 -0.3601
  391MPD2    H2 5847   4.683   3.033  10.869  0.0842 -0.3114  0.0212
  391MPD2    H3 5848   4.632   2.972  10.625  0.2592  0.3624 -1.0756
  391MPD2     N 5849   4.664   3.405  10.504  0.0568  0.1093  0.2343
  391MPD2    H5 5850   4.676   3.499  10.541 -0.1371  1.5792 -3.4399
  391MPD2    N1 5851   4.726   3.260  10.961  0.1793 -0.2621 -0.0379
  391MPD2    H7 5852   0.018   3.175  11.013 -0.1997  0.1167  0.7235
  392TMC3    C1 5853   4.692   3.513  10.301  0.4738 -0.5415  0.1846
  392TMC3    C2 5854   4.625   3.539  10.189 -0.1229  0.5593  0.0723
  392TMC3    C3 5855   4.647   3.652  10.121  0.0393 -0.1721  0.0032
  392TMC3    C4 5856   0.048   3.600  10.350 -0.6642  0.1745 -0.3435
  392TMC3    C5 5857   0.070   3.717  10.284  0.6051  0.1393 -0.3439
  392TMC3    C6 5858   0.004   3.749  10.168 -0.1386 -0.3021  0.4397
  392TMC3     C 5859   4.666   3.386  10.366  0.2474  0.5724  0.0043
  392TMC3     O 5860   4.629   3.287  10.298  0.5242 -0.1864  0.1851
  392TMC3     H 5861   4.580   3.452  10.141  1.7157 -0.1972 -0.2984
  392TMC3    H1 5862   0.115   3.575  10.432 -1.6647  1.5859  0.9022
  392TMC3    H2 5863   0.002   3.848  10.125  0.0311  0.1855  1.5804
  392TMC3    C7 5864   0.127   3.826  10.364  0.1422 -0.1326  0.4861
  392TMC3    C8 5865   4.562   3.678  10.015  0.0542 -0.0593 -0.1414
  392TMC3    O1 5866   0.109   3.823  10.483  0.8551  0.0557  0.0355
  392TMC3    O2 5867   4.468   3.601  10.004  0.3547 -0.1462 -0.3620
  393TMC3    C1 5868   3.579   1.385  10.488  0.0839  1.0565 -1.1626
  393TMC3    C2 5869   3.478   1.418  10.579  0.2191  0.2627 -0.5304
  393TMC3    C3 5870   3.405   1.318  10.639  0.6194 -0.1358  0.1858
  393TMC3    C4 5871   3.603   1.256  10.461  0.2577  0.3853 -0.6125
  393TMC3    C5 5872   3.520   1.158  10.513 -1.4602 -0.2321 -0.1824
  393TMC3    C6 5873   3.418   1.183  10.601  0.0396  0.0145 -0.3146
  393TMC3     C 5874   3.666   1.492  10.450 -0.7665 -0.6212 -0.3681
  393TMC3     O 5875   3.781   1.478  10.480  0.3576 -0.1713 -0.4866
  393TMC3     H 5876   3.468   1.517  10.623  1.4640 -0.0607  0.4826
  393TMC3    H1 5877   3.674   1.231  10.383 -1.7490 -0.2859 -2.2163
  393TMC3    H2 5878   3.341   1.112  10.631 -1.5245  2.6426  1.7841
  393TMC3    C7 5879   3.540   1.025  10.461 -0.1552 -0.2561 -0.2638
  393TMC3    C8 5880   3.270   1.357  10.686 -0.3662  0.3498  0.1548
  393TMC3    O1 5881   3.460   0.942  10.500  0.7185  0.5911 -1.1117
  393TMC3    O2 5882   3.228   1.472  10.659 -0.6958  0.3704  0.4611
  394TMC3    C1 5883   0.648   1.615  10.825  0.4449  0.2757 -0.1972
  394TMC3    C2 5884   0.620   1.512  10.738  0.2446  0.1209 -0.1396
  394TMC3    C3 5885   0.639   1.535  10.609  0.2275  0.3452 -0.0551
  394TMC3    C4 5886   0.724   1.725  10.784 -0.9166 -0.3267  0.1722
  394TMC3    C5 5887   0.766   1.729  10.654 -0.2185  0.2402  1.2442
  394TMC3    C6 5888   0.722   1.636  10.561  0.1140  0.1694  0.1699
  394TMC3     C 5889   0.619   1.588  10.969  0.4502 -0.1550  0.5865
  394TMC3     O 5890   0.578   1.480  11.002  0.3033  0.7437 -0.0561
  394TMC3     H 5891   0.568   1.422  10.770  0.8885 -0.9160 -2.0088
  394TMC3    H1 5892   0.739   1.807  10.854 -1.6496 -0.8847  0.9749
  394TMC3    H2 5893   0.725   1.653  10.454  0.8335 -1.9874 -0.1578
  394TMC3    C7 5894   0.829   1.846  10.598  0.2826  0.1682  1.0394
  394TMC3    C8 5895   0.528   1.490  10.530 -0.9412  0.3728 -0.7550
  394TMC3    O1 5896   0.825   1.947  10.666  0.6319 -0.0939  0.0917
  394TMC3    O2 5897   0.420   1.466  10.584  0.2792 -0.0476  0.2742
  395TMC3    C1 5898   4.585   3.964  14.128 -0.4228  1.1485 -0.3649
  395TMC3    C2 5899   4.452   3.980  14.166 -0.3725  0.1706  0.3311
  395TMC3    C3 5900   4.427   4.073  14.259  1.0178 -0.1051 -0.5563
  395TMC3    C4 5901   4.684   4.052  14.173 -0.1015 -0.1302  0.0771
  395TMC3    C5 5902   4.652   4.159  14.256 -0.1283  0.8322  0.5424
  395TMC3    C6 5903   4.525   4.158  14.306 -0.1745 -0.3544 -0.4854
  395TMC3     C 5904   4.617   3.836  14.177  0.5179 -0.3393  0.9812
  395TMC3     O 5905   4.720   3.829  14.243  0.4094  0.5267 -0.1630
  395TMC3     H 5906   4.370   3.925  14.121  1.6681 -0.0112 -3.2150
  395TMC3    H1 5907   0.059   4.020  14.155  0.4725  2.5745 -1.4250
  395TMC3    H2 5908   4.502   4.217  14.394 -1.6975 -0.3646 -0.8786
  395TMC3    C7 5909   0.034   4.225  14.328  0.8378  0.0035  0.3047
  395TMC3    C8 5910   4.330   4.036  14.362 -0.0634 -0.4823  0.2082
  395TMC3    O1 5911   0.006   4.308  14.411 -0.6246 -0.5755 -0.5284
  395TMC3    O2 5912   4.317   4.102  14.463  0.6319  0.1403 -0.3955
  396MPD2     C 5913   4.448   0.597  16.794  0.1974 -0.4521  0.5939
  396MPD2    C1 5914   4.578   0.590  16.835 -0.2896 -0.5910 -0.2076
  396MPD2    C2 5915   4.676   0.625  16.745  0.8260  0.3939  0.5142
  396MPD2    C3 5916   4.639   0.677  16.618  0.2540  0.5737  0.4333
  396MPD2    C4 5917   4.506   0.695  16.581 -0.0143 -0.5178 -0.2794
  396MPD2    C5 5918   4.417   0.642  16.670 -0.4556 -0.1125 -0.3555
  396MPD2     H 5919   0.052   0.589  16.754  0.0894 -1.6633  0.7255
  396MPD2    H1 5920   4.471   0.731  16.485  2.5357  1.7040 -0.3647
  396MPD2    H2 5921   4.372   0.576  16.868 -0.8234  1.2559  0.0185
  396MPD2    H3 5922   4.311   0.634  16.649 -0.1889 -0.1072 -1.7384
  396MPD2     N 5923   0.027   0.700  16.537  0.0480 -0.4968 -0.8271
  396MPD2    H5 5924   0.116   0.698  16.584 -0.9731 -0.4740  1.1088
  396MPD2    N1 5925   4.598   0.533  16.965  0.1510  0.5270  0.4088
  396MPD2    H7 5926   4.521   0.507  17.026 -0.2661 -0.4812 -0.5403
  397TMC3    C1 5927   4.713   0.476  17.160  0.2552 -0.1518  0.3904
  397TMC3    C2 5928   0.111   0.459  17.219  0.6915  0.1751 -0.8067
  397TMC3    C3 5929   0.149   0.338  17.263 -1.0281  0.2825  0.6481
  397TMC3    C4 5930   4.629   0.371  17.180 -0.3695 -0.6090  0.1318
  397TMC3    C5 5931   4.664   0.253  17.244 -0.1033 -0.1097 -0.5719
  397TMC3    C6 5932   0.069   0.230  17.273  0.6003 -0.4828  0.1585
  397TMC3     C 5933   4.716   0.511  17.018  0.0450 -0.5252 -0.1453
  397TMC3     O 5934   0.105   0.523  16.974  0.1640  0.4815  0.9234
  397TMC3     H 5935   0.182   0.532  17.183  1.9043 -0.6572 -0.0649
  397TMC3    H1 5936   4.523   0.383  17.158 -0.1420 -1.8797 -1.6459
  397TMC3    H2 5937   0.110   0.138  17.314 -1.3051 -1.2040  0.4521
  397TMC3    C7 5938   4.576   0.139  17.243 -0.1150 -0.3676 -0.7148
  397TMC3    C8 5939   0.290   0.306  17.239 -0.7711  0.1444 -0.2333
  397TMC3    O1 5940   4.489   0.133  17.161  0.0743 -0.0182 -0.7841
  397TMC3    O2 5941   0.374   0.394  17.268 -0.0939  0.1823  0.5786
  398MPD2     C 5942   3.112   0.939   0.204 -0.1278  0.0570  0.5532
  398MPD2    C1 5943   3.150   0.896   0.326 -0.6613 -0.3138 -0.0339
  398MPD2    C2 5944   3.224   0.966   0.419 -0.0339 -0.7292  0.2358
  398MPD2    C3 5945   3.280   1.083   0.373  0.5141  0.2656  0.9107
  398MPD2    C4 5946   3.257   1.119   0.241  0.5431 -0.2413  0.1119
  398MPD2    C5 5947   3.168   1.054   0.162  0.2954 -0.0462 -0.2350
  398MPD2     H 5948   3.234   0.943   0.525 -1.9680 -0.3114  0.5016
  398MPD2    H1 5949   3.314   1.201   0.199 -1.7790  0.6958 -1.2369
  398MPD2    H2 5950   3.046   0.894   0.132  0.1168 -1.0098  0.9947
  398MPD2    H3 5951   3.163   1.092   0.061  0.6799 -1.5010 -0.7917
  398MPD2     N 5952   3.368   1.147   0.463 -0.0654  0.1807 -0.3339
  398MPD2    H5 5953   3.357   1.109   0.557 -1.8317  0.1216 -0.5612
  398MPD2    N1 5954   3.101   0.766   0.378 -0.3943  0.1693 -0.6983
  398MPD2    H7 5955   3.130   0.730   0.469 -1.9650 -0.2023 -0.3396
  399TMC3    C1 5956   2.998   0.566   0.386 -0.0416  0.3064 -0.4093
  399TMC3    C2 5957   3.109   0.522   0.459 -0.2555 -0.4420  0.1287
  399TMC3    C3 5958   3.104   0.403   0.522 -0.4099  0.3992  0.1990
  399TMC3    C4 5959   2.885   0.498   0.372 -0.0125 -0.2392  1.0452
  399TMC3    C5 5960   2.886   0.372   0.439 -0.2666 -0.5535  0.0039
  399TMC3    C6 5961   2.990   0.328   0.515  0.7083  0.1064 -0.3630
  399TMC3     C 5962   3.016   0.680   0.304  0.1473 -0.1929 -0.1878
  399TMC3     O 5963   2.953   0.694   0.202  0.2808  0.0519 -0.1303
  399TMC3     H 5964   3.206   0.570   0.458 -0.0495 -0.8486  0.7262
  399TMC3    H1 5965   2.799   0.541   0.323  0.4281 -3.0295 -2.1291
  399TMC3    H2 5966   2.986   0.232   0.566 -0.0941 -0.0505 -0.7195
  399TMC3    C7 5967   2.771   0.287   0.425 -0.3733  0.7021  0.6188
  399TMC3    C8 5968   3.232   0.347   0.565 -0.5265  0.2103 -0.1579
  399TMC3    O1 5969   2.746   0.220   0.526  0.3481  0.1840 -0.1826
  399TMC3    O2 5970   3.329   0.422   0.577 -0.1208  0.3282  0.2042
  400TMC3    C1 5971   1.823   3.993  16.893 -0.1063  0.4333 -0.9365
  400TMC3    C2 5972   1.736   3.968  16.995  0.2875  0.9385  0.1830
  400TMC3    C3 5973   1.660   4.070  17.042  0.3074 -0.9083  0.3212
  400TMC3    C4 5974   1.847   4.118  16.848  0.6514 -0.0144 -0.5617
  400TMC3    C5 5975   1.765   4.215  16.895 -0.0025 -1.1738 -0.1410
  400TMC3    C6 5976   1.674   4.200  16.997 -0.6164 -0.3373 -0.7325
  400TMC3     C 5977   1.876   3.877  16.831  0.2563 -0.0757 -0.1398
  400TMC3     O 5978   1.888   3.771  16.897 -0.7420  0.5170 -0.2692
  400TMC3     H 5979   1.718   3.863  17.014  0.9102  0.4083 -2.0473
  400TMC3    H1 5980   1.917   4.139  16.768 -1.0494 -1.9175 -2.5731
  400TMC3    H2 5981   1.599   4.273  17.024 -0.4877 -0.7905  0.8174
  400TMC3    C7 5982   1.765   4.339  16.819 -0.5465  0.6043  0.3221
  400TMC3    C8 5983   1.526   4.032  17.067  0.5552  0.2140 -0.2839
  400TMC3    O1 5984   1.805   4.336  16.704 -0.2411  0.3022  0.1959
  400TMC3    O2 5985   1.503   3.932  17.136  0.4642  0.1275  0.1264
  401MPD2     C 5986   4.249   3.192   0.929  0.3680  0.2321  0.3664
  401MPD2    C1 5987   4.368   3.119   0.930  0.3603  0.2927 -0.1610
  401MPD2    C2 5988   4.372   2.993   0.878 -0.2987 -0.0980 -0.0537
  401MPD2    C3 5989   4.255   2.941   0.824  0.5625 -0.0489 -0.2576
  401MPD2    C4 5990   4.144   3.017   0.816 -0.7981 -0.6911  0.2745
  401MPD2    C5 5991   4.144   3.143   0.870 -0.3454 -0.0317  0.4889
  401MPD2     H 5992   4.457   2.926   0.880 -1.7521 -1.9082  0.6288
  401MPD2    H1 5993   4.054   2.983   0.766 -1.7912  3.9569 -1.1495
  401MPD2    H2 5994   4.236   3.287   0.979  0.6533  0.7777 -0.6171
  401MPD2    H3 5995   4.058   3.206   0.853  0.8775  1.5536  0.1765
  401MPD2     N 5996   4.258   2.801   0.807  0.3155  0.4393  0.1930
  401MPD2    H5 5997   4.350   2.760   0.821 -0.6430 -1.1081  2.0576
  401MPD2    N1 5998   4.488   3.163   0.990 -0.3048  0.1152  0.5448
  401MPD2    H7 5999   4.565   3.097   0.985 -1.2001 -0.8226 -1.1226
  402TMC3    C1 6000   4.192   2.592   0.841 -0.2435  0.0826  0.3835
  402TMC3    C2 6001   4.259   2.599   0.957 -0.1287  1.3089 -0.1353
  402TMC3    C3 6002   4.370   2.520   0.979 -0.8268  0.0525  0.0226
  402TMC3    C4 6003   4.228   2.502   0.751 -0.5188 -0.3872  0.6290
  402TMC3    C5 6004   4.333   2.416   0.775  0.0083  0.7146 -0.4562
  402TMC3    C6 6005   4.407   2.431   0.883 -0.0893  0.1058 -0.2355
  402TMC3     C 6006   4.150   2.719   0.788 -0.6574  0.2791 -0.0048
  402TMC3     O 6007   4.034   2.755   0.788 -0.3255 -0.2337  0.3916
  402TMC3     H 6008   4.228   2.669   1.034 -0.4558 -0.0620  0.9712
  402TMC3    H1 6009   4.168   2.484   0.663  0.7699  0.3192 -0.3961
  402TMC3    H2 6010   4.484   2.356   0.901  0.7779  0.5173 -2.3190
  402TMC3    C7 6011   4.375   2.325   0.674  0.1310 -0.4660  0.7689
  402TMC3    C8 6012   4.484   2.572   1.045 -0.5007  0.6673  0.3420
  402TMC3    O1 6013   4.287   2.268   0.611 -0.5120 -0.4559 -0.1427
  402TMC3    O2 6014   4.586   2.505   1.039  0.1031  0.4339 -0.8629
  403MPD2     C 6015   3.215   1.371  13.113 -0.3705 -0.3399  0.4479
  403MPD2    C1 6016   3.175   1.330  13.241  0.4426  0.0935 -0.1202
  403MPD2    C2 6017   3.250   1.359  13.354  0.4608 -0.6762 -0.0144
  403MPD2    C3 6018   3.365   1.431  13.338 -0.1168 -0.2579 -0.2602
  403MPD2    C4 6019   3.413   1.454  13.210  0.7808  0.2180  0.4390
  403MPD2    C5 6020   3.336   1.425  13.100 -0.1671  0.7802  0.3999
  403MPD2     H 6021   3.214   1.345  13.455  0.5304 -0.2101  0.0767
  403MPD2    H1 6022   3.505   1.506  13.188  0.8696 -0.9482 -1.9521
  403MPD2    H2 6023   3.167   1.328  13.026  1.3915  1.6639 -1.5203
  403MPD2    H3 6024   3.376   1.455  13.003  0.0579  0.5392  0.4175
  403MPD2     N 6025   3.429   1.482  13.454  0.6828  0.1787  0.0050
  403MPD2    H5 6026   3.383   1.455  13.541 -2.1344  0.8755 -1.2611
  403MPD2    N1 6027   3.056   1.257  13.250 -0.1398 -0.4328  0.2784
  403MPD2    H7 6028   3.011   1.247  13.159  0.7210 -0.5403 -0.1283
  404TMC3    C1 6029   2.879   1.122  13.323 -0.3528 -0.4274  0.5143
  404TMC3    C2 6030   2.852   1.014  13.402 -0.6924  0.8929  0.2239
  404TMC3    C3 6031   2.783   0.913  13.348 -0.7994  0.5753 -0.8446
  404TMC3    C4 6032   2.838   1.133  13.194  0.0325 -0.1807  0.6735
  404TMC3    C5 6033   2.760   1.029  13.143  0.4192  0.2466 -0.2251
  404TMC3    C6 6034   2.745   0.913  13.215  0.4368  0.0215 -0.5432
  404TMC3     C 6035   2.999   1.196  13.360  0.0367 -0.0224 -0.7515
  404TMC3     O 6036   3.034   1.194  13.476 -0.6423  0.0166 -0.6458
  404TMC3     H 6037   2.889   1.019  13.504  3.8916 -1.1412 -1.3148
  404TMC3    H1 6038   2.853   1.226  13.140 -0.4874 -1.2201 -1.2789
  404TMC3    H2 6039   2.678   0.833  13.185  2.1114 -1.0640 -1.4321
  404TMC3    C7 6040   2.736   1.034  12.995 -0.8777 -0.1865 -0.2070
  404TMC3    C8 6041   2.763   0.791  13.421  0.1768  0.3413  0.4983
  404TMC3    O1 6042   2.810   1.103  12.928 -0.7375 -0.2103 -0.6663
  404TMC3    O2 6043   2.739   0.695  13.351 -0.7252  0.3364 -0.0494
  405MPD2     C 6044   2.906   1.558  14.484  0.3327 -0.8452 -0.7415
  405MPD2    C1 6045   2.925   1.622  14.362 -0.1056 -0.0920  0.2697
  405MPD2    C2 6046   2.823   1.635  14.276  0.1789 -0.6286  0.2923
  405MPD2    C3 6047   2.695   1.590  14.313  0.5448 -0.3743 -0.1208
  405MPD2    C4 6048   2.678   1.531  14.439 -0.0590  0.4521 -0.4210
  405MPD2    C5 6049   2.777   1.509  14.521 -0.4124  0.4719 -0.5500
  405MPD2     H 6050   2.840   1.675  14.177  1.9960 -0.3958  0.7140
  405MPD2    H1 6051   2.578   1.514  14.477  0.2684 -0.2072  0.1415
  405MPD2    H2 6052   2.984   1.536  14.555  1.9511 -0.7210 -2.4833
  405MPD2    H3 6053   2.761   1.466  14.619 -0.1924 -0.9588 -1.1420
  405MPD2     N 6054   2.600   1.615  14.209 -0.1651  0.2857  0.1335
  405MPD2    H5 6055   2.637   1.664  14.128 -1.7979 -1.1682 -1.5045
  405MPD2    N1 6056   3.056   1.656  14.333  0.1739  0.1048  0.8100
  405MPD2    H7 6057   3.123   1.615  14.397 -0.6022 -0.9177  0.9788
  406TMC3    C1 6058   2.254   1.774  13.950  0.3649  0.5814  0.3487
  406TMC3    C2 6059   2.332   1.757  13.842  0.2894 -0.6880  0.1748
  406TMC3    C3 6060   2.455   1.691  13.856  0.0727 -0.8252  0.2027
  406TMC3    C4 6061   2.290   1.720  14.073 -0.5480 -0.2536  0.0658
  406TMC3    C5 6062   2.409   1.652  14.078 -0.1422 -0.2566 -0.7655
  406TMC3    C6 6063   2.494   1.637  13.973  0.0337  0.5316 -1.5277
  406TMC3     C 6064   2.146   1.871  13.951  0.0362  0.1208  0.0966
  406TMC3     O 6065   2.084   1.895  13.847  0.4626 -0.5005 -0.3501
  406TMC3     H 6066   2.303   1.808  13.751 -1.0544  1.7405  1.9558
  406TMC3    H1 6067   2.211   1.687  14.140  0.4749 -1.3639  0.7459
  406TMC3    H2 6068   2.581   1.573  13.986 -1.3243 -0.2824  3.6792
  406TMC3    C7 6069   2.463   1.596  14.204  0.0532 -0.1663  0.4831
  406TMC3    C8 6070   2.551   1.713  13.751  0.1854  0.7539  0.2574
  406TMC3    O1 6071   2.390   1.550  14.290  0.2827 -0.0194  0.7300
  406TMC3    O2 6072   2.514   1.712  13.633 -0.1957 -0.7991  0.2626
  407MPD2     C 6073   0.451   3.448   9.640  0.1074 -0.0644 -0.1066
  407MPD2    C1 6074   0.562   3.396   9.707 -0.4088  0.2310  0.7065
  407MPD2    C2 6075   0.627   3.481   9.795  0.2780  0.2608 -0.2120
  407MPD2    C3 6076   0.584   3.608   9.831  0.4827 -0.0213  0.6302
  407MPD2    C4 6077   0.481   3.658   9.764 -0.3436 -0.1794 -0.2833
  407MPD2    C5 6078   0.424   3.578   9.662  0.6780 -0.2206 -0.3758
  407MPD2     H 6079   0.721   3.448   9.838 -0.2832  0.0842  0.8608
  407MPD2    H1 6080   0.441   3.756   9.786 -3.1403 -1.3589 -0.1765
  407MPD2    H2 6081   0.379   3.408   9.569 -1.0863 -2.0813  2.2387
  407MPD2    H3 6082   0.348   3.629   9.604  0.4187 -0.0938  0.0762
  407MPD2     N 6083   0.654   3.701   9.913 -0.1318  0.1994 -0.0904
  407MPD2    H5 6084   0.618   3.796   9.912  0.8360  0.5484 -1.3862
  407MPD2    N1 6085   0.604   3.274   9.679  0.6404 -0.1363 -0.6724
  407MPD2    H7 6086   0.694   3.243   9.714 -0.5566 -1.7933  0.9515
  408TMC3    C1 6087   0.618   3.049   9.588 -0.5289  0.0554  0.8792
  408TMC3    C2 6088   0.750   3.066   9.551 -0.2273 -0.5100 -0.5182
  408TMC3    C3 6089   0.820   2.969   9.490  0.9952 -0.2987 -0.4774
  408TMC3    C4 6090   0.565   2.928   9.591 -0.1070  0.0909 -0.3001
  408TMC3    C5 6091   0.643   2.823   9.551  0.3428  0.0497 -0.1472
  408TMC3    C6 6092   0.766   2.845   9.496  0.0126 -0.1478  0.1080
  408TMC3     C 6093   0.534   3.168   9.619  0.1936  0.0321 -0.5325
  408TMC3     O 6094   0.422   3.172   9.571 -0.2753 -0.1963 -0.5900
  408TMC3     H 6095   0.798   3.163   9.561  0.6623 -1.0650  0.6255
  408TMC3    H1 6096   0.468   2.917   9.639  1.3356 -0.2943  2.5569
  408TMC3    H2 6097   0.826   2.765   9.454 -0.3562  0.5134 -1.7099
  408TMC3    C7 6098   0.647   2.701   9.623  0.1391  0.6816 -0.4838
  408TMC3    C8 6099   0.962   2.961   9.530 -0.1788 -0.3509  0.3434
  408TMC3    O1 6100   0.738   2.615   9.607  0.2458 -0.7092  0.2564
  408TMC3    O2 6101   0.986   2.857   9.590  0.6016  0.2608 -0.0740
  409MPD2     C 6102   0.383   4.143  17.181 -0.2577 -0.0389 -0.0166
  409MPD2    C1 6103   0.490   4.128  17.263  0.4348  0.4200 -0.0619
  409MPD2    C2 6104   0.613   4.179  17.230 -0.1667 -0.3882  0.2453
  409MPD2    C3 6105   0.631   4.235  17.100 -0.2258  0.4606 -0.1106
  409MPD2    C4 6106   0.519   4.243  17.019 -0.0712 -0.0408 -0.5016
  409MPD2    C5 6107   0.397   4.203  17.064 -0.1707  0.3088 -0.3799
  409MPD2     H 6108   0.699   4.177  17.296 -0.5845  1.9137  0.8881
  409MPD2    H1 6109   0.533   4.293  16.924  3.1935 -1.9713 -1.0384
  409MPD2    H2 6110   0.283   4.114  17.211 -0.7052  0.3351 -1.1707
  409MPD2    H3 6111   0.309   4.211  17.002 -0.4716 -0.0393  0.0067
  409MPD2     N 6112   0.754   4.286  17.052 -0.4641  0.1223  0.0323
  409MPD2    H5 6113   0.762   4.292  16.951 -1.0599 -1.2951 -0.0953
  409MPD2    N1 6114   0.471   4.066  17.386 -0.2461  0.9859  0.1530
  409MPD2    H7 6115   0.559   4.061  17.437  0.5056  1.6043 -1.0771
  410TMC3    C1 6116   0.987   4.356  17.069 -0.1810 -0.4764  0.0983
  410TMC3    C2 6117   1.097   4.376  17.149 -0.0939  0.0080  0.1783
  410TMC3    C3 6118   1.212   4.409  17.086 -0.9077  0.1186  0.0943
  410TMC3    C4 6119   0.980   4.382  16.933  0.1331  0.9214 -0.0685
  410TMC3    C5 6120   1.101   4.424  16.881 -0.5909 -0.3130 -0.2313
  410TMC3    C6 6121   1.215   4.436  16.955 -0.4269 -0.3056  0.2715
  410TMC3     C 6122   0.864   4.309  17.129  0.2744 -0.1679 -0.2928
  410TMC3     O 6123   0.870   4.301  17.252 -0.1555  0.0784 -0.5611
  410TMC3     H 6124   1.101   4.354  17.255  3.2828 -0.9847 -0.1485
  410TMC3    H1 6125   0.890   4.393  16.873 -0.1338 -0.6635  0.0549
  410TMC3    H2 6126   1.309   4.457  16.907 -1.3017  1.4723 -0.6714
  410TMC3    C7 6127   1.112   4.449  16.738 -0.2319 -0.1571 -0.6451
  410TMC3    C8 6128   1.343   4.388  17.149  0.5513 -0.2168 -0.6133
  410TMC3    O1 6129   1.040   4.380  16.671 -0.1581  0.0835 -0.5270
  410TMC3    O2 6130   1.437   4.443  17.100 -0.4677  0.2787  0.0530
  411MPD2     C 6131   0.758   0.171  14.416  0.1363  0.2109 -0.0660
  411MPD2    C1 6132   0.644   0.223  14.352  0.6115  0.1885 -0.1845
  411MPD2    C2 6133   0.545   0.134  14.313  0.5431  0.1857 -0.4056
  411MPD2    C3 6134   0.562   4.720  14.332  0.3090  0.0617 -0.4975
  411MPD2    C4 6135   0.685   4.674  14.372 -0.2402  0.1327 -0.4960
  411MPD2    C5 6136   0.778   0.037  14.423  0.1567 -0.1220  1.3358
  411MPD2     H 6137   0.456   0.173  14.266  0.1996 -0.1754 -0.0502
  411MPD2    H1 6138   0.702   4.568  14.366 -0.3947 -0.0536  2.3685
  411MPD2    H2 6139   0.840   0.235  14.447 -2.0805  3.5152 -1.0783
  411MPD2    H3 6140   0.872   4.726  14.461 -0.0397 -2.7025 -0.7343
  411MPD2     N 6141   0.470   4.626  14.279 -0.6068  0.0798 -0.5138
  411MPD2    H5 6142   0.499   4.531  14.258 -0.4335 -0.5151  2.4339
  411MPD2    N1 6143   0.636   0.358  14.314 -0.1658  0.2916  0.3081
  411MPD2    H7 6144   0.712   0.421  14.339 -0.9303  1.8759 -1.3848
  412TMC3    C1 6145   0.286   4.568  14.161 -0.4687  0.1968 -0.5233
  412TMC3    C2 6146   0.149   4.541  14.160 -0.4515  0.2733 -1.0268
  412TMC3    C3 6147   0.109   4.444  14.071  0.1610 -1.1784 -0.4568
  412TMC3    C4 6148   0.368   4.540  14.051 -0.2576 -0.3088 -0.6217
  412TMC3    C5 6149   0.317   4.464  13.952  0.5977  0.5247  0.6488
  412TMC3    C6 6150   0.196   4.401  13.969 -0.2173  0.0549 -0.6660
  412TMC3     C 6151   0.333   4.652  14.263 -0.4863  0.3483 -0.3953
  412TMC3     O 6152   0.257   0.012  14.302 -0.0276  0.2989 -0.1698
  412TMC3     H 6153   0.089   4.568  14.247  2.1514 -1.6409  1.3549
  412TMC3    H1 6154   0.461   4.595  14.039 -1.5708  2.0186 -0.1130
  412TMC3    H2 6155   0.166   4.331  13.891  0.3942 -0.1793 -0.6927
  412TMC3    C7 6156   0.337   4.508  13.808 -0.6484 -0.3395 -0.5735
  412TMC3    C8 6157   4.694   4.454  14.031  0.1636 -0.2103 -0.5933
  412TMC3    O1 6158   0.235   4.486  13.743  0.1748  0.2537  0.0136
  412TMC3    O2 6159   4.605   4.448  14.111 -0.1553 -0.6179 -0.1288
  413MPD2     C 6160   1.862   3.644  15.362 -0.4664 -0.9118 -0.1113
  413MPD2    C1 6161   1.819   3.552  15.270 -0.6755  0.0235 -1.3141
  413MPD2    C2 6162   1.913   3.486  15.199 -0.2802 -0.1951  0.6167
  413MPD2    C3 6163   2.043   3.522  15.206 -1.0213 -0.5557  0.3015
  413MPD2    C4 6164   2.087   3.622  15.294  0.7722  0.7862  0.4788
  413MPD2    C5 6165   1.994   3.683  15.378  0.2375  0.3996  0.1184
  413MPD2     H 6166   1.888   3.418  15.118  1.3399  1.3938 -1.2118
  413MPD2    H1 6167   2.188   3.658  15.310  1.2097  0.6851 -2.1356
  413MPD2    H2 6168   1.803   3.696  15.437  0.6608 -0.0131  0.1492
  413MPD2    H3 6169   2.013   3.762  15.450  1.5687 -0.8689  1.1506
  413MPD2     N 6170   2.131   3.447  15.120  0.1663  0.0384 -0.0162
  413MPD2    H5 6171   2.090   3.387  15.050 -2.0417  1.0121  0.4244
  413MPD2    N1 6172   1.682   3.526  15.254 -0.3582 -0.5315 -0.2827
  413MPD2    H7 6173   1.619   3.596  15.293  0.4638  1.6480 -2.9308
  414TMC3    C1 6174   2.320   3.399  14.997 -0.6710  1.1638  0.0380
  414TMC3    C2 6175   2.427   3.318  15.026  0.4333  0.2568  0.3355
  414TMC3    C3 6176   2.458   3.221  14.931 -1.2230 -0.3010 -0.6506
  414TMC3    C4 6177   2.252   3.388  14.881 -0.0499 -0.5465  0.2747
  414TMC3    C5 6178   2.274   3.284  14.797  0.4568  0.4066 -0.0026
  414TMC3    C6 6179   2.375   3.199  14.825  0.1298 -0.7413 -0.5923
  414TMC3     C 6180   2.265   3.471  15.110  0.1519 -0.2949 -0.4616
  414TMC3     O 6181   2.336   3.517  15.197  0.7546 -0.2664  0.3624
  414TMC3     H 6182   2.492   3.352  15.106  0.3530  0.9559  0.0998
  414TMC3    H1 6183   2.176   3.460  14.854  1.1432  0.0677 -1.4501
  414TMC3    H2 6184   2.377   3.108  14.766 -2.2957 -0.8836 -0.4361
  414TMC3    C7 6185   2.171   3.256  14.694 -0.8902 -0.5079  0.1853
  414TMC3    C8 6186   2.576   3.144  14.929 -0.0613 -0.5009 -0.0899
  414TMC3    O1 6187   2.056   3.278  14.732  0.0268 -0.4058 -0.0797
  414TMC3    O2 6188   2.572   3.041  14.860 -0.5488 -0.6512  0.0483
  415TMC3    C1 6189   2.803   0.759   9.962 -0.3472 -0.4334  0.2732
  415TMC3    C2 6190   2.865   0.811   9.849 -0.0809 -0.8195  0.5137
  415TMC3    C3 6191   2.829   0.747   9.731 -0.0941  0.2786  0.4885
  415TMC3    C4 6192   2.725   0.643   9.960  0.3322  0.6578 -0.1393
  415TMC3    C5 6193   2.708   0.581   9.843  0.1864 -0.2078 -0.3552
  415TMC3    C6 6194   2.761   0.631   9.725 -0.1718 -0.3958 -0.1347
  415TMC3     C 6195   2.826   0.820  10.095  0.1066  0.0749  0.0172
  415TMC3     O 6196   2.775   0.760  10.191  0.2901 -0.0083 -0.5202
  415TMC3     H 6197   2.917   0.906   9.851 -0.7887 -0.3782 -1.5304
  415TMC3    H1 6198   2.679   0.604  10.050  0.2102 -1.4673 -1.1196
  415TMC3    H2 6199   2.735   0.588   9.628  0.0079  1.4677 -1.0133
  415TMC3    C7 6200   2.626   0.458   9.828 -0.1640 -0.6318  0.2540
  415TMC3    C8 6201   2.822   0.837   9.614  0.2745 -0.3250 -0.2961
  415TMC3    O1 6202   2.648   0.391   9.726 -0.2322  0.0409 -0.0569
  415TMC3    O2 6203   2.719   0.835   9.550  0.1358 -0.1119 -0.4989
  416MPD2     C 6204   4.479   4.317  11.605  0.6224 -0.3025 -0.3771
  416MPD2    C1 6205   4.417   4.380  11.500  0.3826 -0.4834 -0.3323
  416MPD2    C2 6206   4.446   4.326  11.374  0.4456 -1.2749  0.1332
  416MPD2    C3 6207   4.501   4.197  11.361 -0.2112  0.3297  0.3312
  416MPD2    C4 6208   4.528   4.128  11.473  0.1890 -1.1452  0.5148
  416MPD2    C5 6209   4.537   4.193  11.593  0.3644 -0.5278 -0.8979
  416MPD2     H 6210   4.434   4.386  11.285 -2.2362  1.6687  2.4655
  416MPD2    H1 6211   4.580   4.034  11.466  1.3635 -0.3606 -1.2920
  416MPD2    H2 6212   4.475   4.366  11.701 -0.3375 -0.9431 -0.0869
  416MPD2    H3 6213   4.584   4.151  11.681  0.2040 -1.7765 -1.4039
  416MPD2     N 6214   4.522   4.132  11.239  0.7141  0.9354  0.0926
  416MPD2    H5 6215   4.537   4.032  11.252  0.1782  0.7565 -0.7048
  416MPD2    N1 6216   4.344   4.503  11.523 -0.9492 -0.2732  0.0515
  416MPD2    H7 6217   4.318   4.524  11.619  0.0229  2.2966 -0.2635
  417TMC3    C1 6218   4.182   4.671  11.475  0.4498 -0.7504 -0.0617
  417TMC3    C2 6219   4.149   4.672  11.613  0.1302 -0.5997 -0.2730
  417TMC3    C3 6220   4.060   0.049  11.653 -0.6018 -0.2697  0.1852
  417TMC3    C4 6221   4.129   0.028  11.379 -0.0752  0.0292 -0.0078
  417TMC3    C5 6222   4.042   0.120  11.425  0.6258  0.3040 -0.3521
  417TMC3    C6 6223   4.005   0.129  11.557  0.7824  0.0369  0.2160
  417TMC3     C 6224   4.285   4.581  11.429  0.8796 -0.8637 -0.1319
  417TMC3     O 6225   4.297   4.572  11.308  0.1933 -0.0207  0.0872
  417TMC3     H 6226   4.176   4.596  11.685  1.6085  0.0792 -0.1109
  417TMC3    H1 6227   4.143   0.004  11.274  1.7514  2.7632 -0.3804
  417TMC3    H2 6228   3.932   0.199  11.594  0.1733  0.8180 -2.4119
  417TMC3    C7 6229   3.954   0.181  11.321 -0.1432  0.2668 -0.0059
  417TMC3    C8 6230   4.067   0.088  11.794 -0.0924  1.1005  0.3029
  417TMC3    O1 6231   4.000   0.194  11.210  0.3832 -0.2027 -0.2182
  417TMC3    O2 6232   4.001   0.184  11.831 -0.6083  0.2833  0.4221
  418TMC3    C1 6233   3.690   1.172   0.675  0.7250 -0.1433  0.5551
  418TMC3    C2 6234   3.660   1.238   0.563 -0.3577 -0.3181 -0.0745
  418TMC3    C3 6235   3.533   1.282   0.553  0.2141 -0.1929  0.2806
  418TMC3    C4 6236   3.605   1.152   0.779 -0.6431 -0.0328  0.0723
  418TMC3    C5 6237   3.489   1.225   0.781 -0.1120  0.0509  0.0255
  418TMC3    C6 6238   3.448   1.280   0.660  0.7888  0.1763 -0.1428
  418TMC3     C 6239   3.794   1.074   0.666 -1.4064  0.1265 -0.3096
  418TMC3     O 6240   3.891   1.092   0.591 -0.1513 -0.2272  0.6255
  418TMC3     H 6241   3.725   1.228   0.477 -0.2032 -1.5268  0.1846
  418TMC3    H1 6242   3.626   1.102   0.873  0.7908 -0.7519 -0.6252
  418TMC3    H2 6243   3.342   1.281   0.642  0.8348 -0.5040 -0.4715
  418TMC3    C7 6244   3.380   1.147   0.835 -0.9683  0.5646  0.6569
  418TMC3    C8 6245   3.463   1.242   0.433  0.4346 -0.5319 -0.6300
  418TMC3    O1 6246   3.336   1.068   0.758 -0.5746  0.3821  0.0379
  418TMC3    O2 6247   3.504   1.266   0.319 -0.4312 -0.4517 -0.3770
  419MPD2     C 6248   1.557   4.112  12.416  0.3414  0.8426 -0.3294
  419MPD2    C1 6249   1.516   4.230  12.360 -1.0308 -0.1627 -0.5090
  419MPD2    C2 6250   1.464   4.327  12.435 -1.1115  0.1757  0.2334
  419MPD2    C3 6251   1.462   4.316  12.573  0.6896  0.1625 -0.1654
  419MPD2    C4 6252   1.499   4.194  12.627  0.0199 -0.7272  0.5461
  419MPD2    C5 6253   1.546   4.088  12.548 -0.3323  0.5491  0.0870
  419MPD2     H 6254   1.442   4.424  12.390  0.0532  0.8225  1.0704
  419MPD2    H1 6255   1.494   4.188  12.735  2.5113  0.7794  0.7488
  419MPD2    H2 6256   1.593   4.031  12.354  0.9711  1.0512 -0.2388
  419MPD2    H3 6257   1.581   3.992  12.583 -3.6804 -0.3781  0.8461
  419MPD2     N 6258   1.444   4.432  12.660  0.4342 -0.1142  0.5106
  419MPD2    H5 6259   1.478   4.416  12.754 -0.2494  0.5014  0.8541
  419MPD2    N1 6260   1.553   4.275  12.231 -0.0181 -0.6450 -0.1676
  419MPD2    H7 6261   1.517   4.369  12.214 -2.3541 -1.7696 -1.4788
  420TMC3    C1 6262   1.387   4.651  12.724 -0.3604  0.3187 -0.0366
  420TMC3    C2 6263   1.404   0.054  12.677  0.5014  0.2360 -0.4526
  420TMC3    C3 6264   1.469   0.143  12.762  0.2276 -0.4226 -0.3274
  420TMC3    C4 6265   1.409   4.617  12.853 -0.0984 -0.9525  0.5668
  420TMC3    C5 6266   1.453   4.714  12.936 -0.6693  0.1051 -0.1270
  420TMC3    C6 6267   1.484   0.114  12.893  0.0610 -0.0938  0.2754
  420TMC3     C 6268   1.389   4.553  12.621 -0.4264  0.6672 -0.7795
  420TMC3     O 6269   1.354   4.594  12.509 -0.5281  0.1289  0.5699
  420TMC3     H 6270   1.379   0.080  12.575  1.3762 -0.6676 -0.8996
  420TMC3    H1 6271   1.397   4.517  12.894  0.1075 -0.5843  1.5294
  420TMC3    H2 6272   1.517   0.192  12.960  1.5823 -0.2741 -0.2640
  420TMC3    C7 6273   1.525   4.673  13.052  0.0765  0.4857 -0.1091
  420TMC3    C8 6274   1.479   0.283  12.711  0.3158  0.0513  0.5085
  420TMC3    O1 6275   1.499   4.561  13.093  0.1119  0.2095  0.6130
  420TMC3    O2 6276   1.420   0.310  12.609  0.0376  0.4033 -0.2449
  421TMC3    C1 6277   3.575   1.589  13.590  0.3105  0.0339  0.0149
  421TMC3    C2 6278   3.607   1.718  13.616 -0.0002  0.0370  0.4409
  421TMC3    C3 6279   3.680   1.733  13.730 -0.0601  0.3920  0.2615
  421TMC3    C4 6280   3.609   1.478  13.663  0.0399 -0.0118  1.0229
  421TMC3    C5 6281   3.689   1.502  13.773  0.2640 -0.2249 -0.1207
  421TMC3    C6 6282   3.719   1.628  13.807  0.0442  0.3178 -0.5785
  421TMC3     C 6283   3.536   1.570  13.457  1.0908  0.1829 -0.3179
  421TMC3     O 6284   3.589   1.633  13.365 -0.1160  0.3515 -0.9272
  421TMC3     H 6285   3.562   1.789  13.547 -0.5674 -1.3831 -0.6489
  421TMC3    H1 6286   3.565   1.379  13.656 -0.1609 -0.0323  2.4912
  421TMC3    H2 6287   3.790   1.640  13.889 -0.3483  0.6013 -0.2825
  421TMC3    C7 6288   3.725   1.399  13.869 -0.0799 -0.1247  0.3854
  421TMC3    C8 6289   3.692   1.870  13.791  0.1893 -0.3422 -0.4911
  421TMC3    O1 6290   3.798   1.440  13.959 -0.2124 -0.9543  0.2689
  421TMC3    O2 6291   3.682   1.961  13.719 -0.1075 -0.3070  0.1970
  422TMC3    C1 6292   0.782   2.474  12.567  0.3396  0.0209 -0.1955
  422TMC3    C2 6293   0.743   2.600  12.586 -0.4366  0.3065 -0.5321
  422TMC3    C3 6294   0.635   2.622  12.664 -0.0711 -0.3985  0.7145
  422TMC3    C4 6295   0.696   2.375  12.596 -0.4683  0.2007  0.2882
  422TMC3    C5 6296   0.582   2.392  12.670  0.3198  0.4659  0.2197
  422TMC3    C6 6297   0.548   2.521  12.703  0.6202  0.4832  0.7383
  422TMC3     C 6298   0.874   2.452  12.452  0.2396 -1.0044  0.5422
  422TMC3     O 6299   0.904   2.555  12.389  0.4870  0.3867 -0.0884
  422TMC3     H 6300   0.808   2.683  12.559  0.0424  0.2291  0.4037
  422TMC3    H1 6301   0.715   2.274  12.560  0.0937  0.8518 -1.2446
  422TMC3    H2 6302   0.467   2.538  12.773  2.0528 -0.9254  2.7516
  422TMC3    C7 6303   0.482   2.291  12.657  0.1419 -0.0095  0.3860
  422TMC3    C8 6304   0.597   2.761  12.680 -0.0235 -0.5578 -0.3486
  422TMC3    O1 6305   0.495   2.208  12.569 -0.4775 -0.0477 -0.2198
  422TMC3    O2 6306   0.688   2.845  12.698  0.1842 -0.2159 -0.9199
  423MPD2     C 6307   2.797   3.659   0.526 -0.1923  0.6276  0.3727
  423MPD2    C1 6308   2.726   3.545   0.545  0.0793 -0.0158 -0.0655
  423MPD2    C2 6309   2.643   3.499   0.444  0.2656 -0.1456  0.6540
  423MPD2    C3 6310   2.634   3.572   0.324 -0.0565  0.9848 -0.2612
  423MPD2    C4 6311   2.692   3.694   0.320  0.0251  0.5428  0.1572
  423MPD2    C5 6312   2.773   3.740   0.419  0.2770 -0.2100  0.9738
  423MPD2     H 6313   2.606   3.398   0.457 -0.6222  0.2150  0.9687
  423MPD2    H1 6314   2.688   3.750   0.227 -1.5223  0.7875  0.3683
  423MPD2    H2 6315   2.864   3.699   0.602  1.2075 -0.7924 -0.1190
  423MPD2    H3 6316   2.823   3.834   0.398 -0.0617 -0.2809 -0.1816
  423MPD2     N 6317   2.567   3.533   0.209 -0.3698  0.3658 -0.8737
  423MPD2    H5 6318   2.571   3.596   0.130  0.9896  1.2675 -0.0858
  423MPD2    N1 6319   2.731   3.454   0.658 -0.2417  0.4711  0.0232
  423MPD2    H7 6320   2.686   3.365   0.640  0.1091  0.3701 -0.3464
  424TMC3    C1 6321   2.772   3.366   0.871  0.3038  0.6712  0.2812
  424TMC3    C2 6322   2.878   3.342   0.956 -1.0017 -0.6787 -0.6426
  424TMC3    C3 6323   2.866   3.238   1.047  0.1314  0.7914  0.1361
  424TMC3    C4 6324   2.656   3.289   0.877  0.6846  0.6380 -0.8477
  424TMC3    C5 6325   2.642   3.200   0.982 -0.1214 -0.8641  0.3132
  424TMC3    C6 6326   2.751   3.168   1.060  0.3573  0.1285  0.8852
  424TMC3     C 6327   2.787   3.479   0.778 -0.2179 -0.0718  0.5017
  424TMC3     O 6328   2.876   3.560   0.801  0.0376  0.3226  0.8752
  424TMC3     H 6329   2.968   3.401   0.949 -2.3269  1.0874 -2.8478
  424TMC3    H1 6330   2.570   3.322   0.820 -1.1932 -1.7409  0.5878
  424TMC3    H2 6331   2.740   3.095   1.140  1.2702 -2.1921 -1.1000
  424TMC3    C7 6332   2.509   3.177   1.031  0.0152 -0.2858 -0.6549
  424TMC3    C8 6333   2.977   3.191   1.130 -1.1676 -0.5291  0.4953
  424TMC3    O1 6334   2.418   3.187   0.948 -0.0941  0.3500  0.4692
  424TMC3    O2 6335   2.949   3.104   1.214 -0.5859  0.5202 -0.0119
  425MPD2     C 6336   1.256   3.043  17.281 -0.5727  0.3079  0.0802
  425MPD2    C1 6337   1.212   2.917  17.295  0.5371  0.6948  0.0962
  425MPD2    C2 6338   1.095   2.890  17.367  0.1634 -0.4978  0.2878
  425MPD2    C3 6339   1.022   2.999  17.400  0.6545  0.4007  0.3481
  425MPD2    C4 6340   1.061   3.130  17.370  0.2308 -0.0029  0.0474
  425MPD2    C5 6341   1.181   3.150  17.310  0.1775 -0.1033 -0.9555
  425MPD2     H 6342   1.056   2.789  17.378  2.4574 -1.3740  0.4307
  425MPD2    H1 6343   1.007   3.218  17.405  2.4850  0.7067  1.7685
  425MPD2    H2 6344   1.358   3.062  17.250  0.0215  0.1761  1.9706
  425MPD2    H3 6345   1.214   3.252  17.293 -1.8230  0.6832 -0.0888
  425MPD2     N 6346   0.895   2.973  17.458  0.0252 -0.1013  0.1712
  425MPD2    H5 6347   0.866   2.876  17.465 -1.5930  0.4168  0.6777
  425MPD2    N1 6348   1.302   2.810  17.265  0.1729  0.1578  0.2328
  425MPD2    H7 6349   1.397   2.839  17.240 -0.4046  1.5233 -0.4110
  426TMC3    C1 6350   1.402   2.597  17.234 -0.0953  0.5834 -0.3341
  426TMC3    C2 6351   1.394   2.473  17.179 -0.9393  0.0400 -0.5281
  426TMC3    C3 6352   1.509   2.404  17.171 -0.1670  0.2959 -0.3004
  426TMC3    C4 6353   1.512   2.642  17.295 -0.0113 -0.5235 -0.1741
  426TMC3    C5 6354   1.627   2.573  17.276  0.9332  0.6761  0.1305
  426TMC3    C6 6355   1.634   2.452  17.203 -0.3447 -0.3668  0.2244
  426TMC3     C 6356   1.279   2.676  17.261  0.0423  0.5064  0.5434
  426TMC3     O 6357   1.172   2.615  17.272  0.4551  0.4518 -0.4133
  426TMC3     H 6358   1.303   2.443  17.129 -0.8007  0.3464 -0.9578
  426TMC3    H1 6359   1.515   2.742  17.335  1.8233 -0.6604  0.0133
  426TMC3    H2 6360   1.725   2.399  17.177  1.1362  1.7322  1.0566
  426TMC3    C7 6361   1.747   2.639  17.317 -0.7502 -0.2144  0.9099
  426TMC3    C8 6362   1.507   2.275  17.100  0.0196  0.0062  0.8200
  426TMC3    O1 6363   1.849   2.615  17.264 -0.0293  0.5548  0.0000
  426TMC3    O2 6364   1.612   2.253  17.039  0.4167 -0.4328  0.3341
  427MPD2     C 6365   4.545   0.306  15.218  0.0745 -0.6418  0.3028
  427MPD2    C1 6366   4.450   0.207  15.250 -0.7049  0.1156 -0.7987
  427MPD2    C2 6367   4.356   0.234  15.347 -0.7190 -0.5141  0.2787
  427MPD2    C3 6368   4.347   0.364  15.404  0.0860  0.3900  0.1351
  427MPD2    C4 6369   4.433   0.462  15.365 -0.1054 -0.2321 -0.2784
  427MPD2    C5 6370   4.526   0.433  15.267 -0.1148  0.0064  0.5842
  427MPD2     H 6371   4.282   0.159  15.372 -0.2704 -0.6566  1.1737
  427MPD2    H1 6372   4.435   0.562  15.408  1.7701 -0.5014  0.2669
  427MPD2    H2 6373   4.628   0.286  15.151  0.1962 -2.5182  1.0021
  427MPD2    H3 6374   4.586   0.516  15.231  0.3095 -0.3003  0.5918
  427MPD2     N 6375   4.236   0.393  15.484 -0.7223  0.8188 -0.4737
  427MPD2    H5 6376   4.221   0.486  15.521 -0.3933  1.2364 -1.3764
  427MPD2    N1 6377   4.442   0.097  15.161 -0.0609 -0.2052  0.6188
  427MPD2    H7 6378   4.519   0.095  15.094  0.6186  4.1526  1.2460
  428TMC3    C1 6379   4.368   4.636  15.052  0.3070 -1.1461  0.7889
  428TMC3    C2 6380   4.370   4.499  15.079 -0.2661 -0.4194  0.4182
  428TMC3    C3 6381   4.464   4.430  15.019 -0.0224 -0.0092  0.2266
  428TMC3    C4 6382   4.442   4.682  14.947  0.6266 -0.6800 -0.2106
  428TMC3    C5 6383   4.533   4.605  14.880 -0.4610  0.1747 -0.0563
  428TMC3    C6 6384   4.551   4.479  14.916 -0.4467 -0.4544 -0.9204
  428TMC3     C 6385   4.347   4.724  15.163 -0.6729  0.2500 -0.2031
  428TMC3     O 6386   4.258   4.696  15.246  0.3125  0.3334  0.1545
  428TMC3     H 6387   4.311   4.466  15.164  0.7357  1.0145  1.6726
  428TMC3    H1 6388   4.428   0.059  14.919  0.3226  0.0436  2.6326
  428TMC3    H2 6389   4.626   4.414  14.874 -1.7079 -2.8730  0.5862
  428TMC3    C7 6390   4.654   4.688  14.869 -0.6082  0.5665  0.0916
  428TMC3    C8 6391   4.444   4.289  15.005 -0.4050  0.8269  0.5432
  428TMC3    O1 6392   4.657   0.051  14.955 -0.3507 -0.0678  0.3383
  428TMC3    O2 6393   4.538   4.212  14.988 -0.2011 -0.1223 -0.3389
  429MPD2     C 6394   1.234   0.214   0.201  0.4865 -0.4854 -0.2583
  429MPD2    C1 6395   1.316   0.116   0.149  0.4687  0.0529  1.0561
  429MPD2    C2 6396   1.399   0.155   0.045  0.0985  0.2070 -0.8769
  429MPD2    C3 6397   1.407   0.287   0.002 -0.4129  0.0154  0.0222
  429MPD2    C4 6398   1.326   0.384   0.058 -0.3273  0.0714  0.2376
  429MPD2    C5 6399   1.247   0.346   0.167  0.2871  0.1733 -0.4155
  429MPD2     H 6400   1.454   0.079  17.699  0.0209 -0.9540  0.6745
  429MPD2    H1 6401   1.332   0.488   0.028 -0.9109 -0.4965 -1.8410
  429MPD2    H2 6402   1.159   0.192   0.277 -0.1342 -0.7676 -0.9581
  429MPD2    H3 6403   1.186   0.428   0.205 -1.2613 -1.3928  0.4743
  429MPD2     N 6404   1.491   0.313  17.605 -0.6091 -0.1037 -0.4116
  429MPD2    H5 6405   1.539   0.229  17.576  0.2947 -0.9168  3.5460
  429MPD2    N1 6406   1.322   4.710   0.187 -0.0149  0.0305  0.4817
  429MPD2    H7 6407   1.384   4.655   0.128  2.6248  1.2097  2.1401
  430TMC3    C1 6408   1.580   0.413  17.413  0.2439  0.3202  0.1734
  430TMC3    C2 6409   1.613   0.523  17.344  0.5620 -0.0163 -0.0830
  430TMC3    C3 6410   1.657   0.517  17.209 -0.3331  0.5455 -0.3453
  430TMC3    C4 6411   1.558   0.294  17.344 -0.2222  0.3438  0.7871
  430TMC3    C5 6412   1.605   0.278  17.211 -0.0205 -0.0991  0.2000
  430TMC3    C6 6413   1.646   0.392  17.142  0.0595 -0.2791  0.1245
  430TMC3     C 6414   1.520   0.437  17.546  0.0166  0.1435  0.0380
  430TMC3     O 6415   1.488   0.547  17.583 -0.1368  0.1998 -0.3251
  430TMC3     H 6416   1.605   0.617  17.398  0.0750 -0.7589  1.1264
  430TMC3    H1 6417   1.532   0.207  17.403  2.7692 -1.7310 -0.9756
  430TMC3    H2 6418   1.668   0.394  17.036  1.1833 -0.0952  0.3521
  430TMC3    C7 6419   1.613   0.147  17.148  0.3701  0.3337 -1.3084
  430TMC3    C8 6420   1.629   0.639  17.130 -0.0397  0.1714 -0.9337
  430TMC3    O1 6421   1.645   0.054  17.220  0.5352  0.2627  0.2214
  430TMC3    O2 6422   1.669   0.745  17.181  0.0679 -0.3571  0.3485
  431MPD2     C 6423   1.857   0.112  12.767  0.1582 -0.4848 -0.0454
  431MPD2    C1 6424   1.830   0.189  12.654  0.8141 -0.2292 -0.1869
  431MPD2    C2 6425   1.810   0.124  12.530 -0.0875  0.0127  0.2797
  431MPD2    C3 6426   1.816   4.713  12.531 -0.4435  0.3742  0.5704
  431MPD2    C4 6427   1.833   4.642  12.647 -0.7023 -0.6634 -0.1960
  431MPD2    C5 6428   1.868   4.702  12.759  0.4215  0.2103 -0.5056
  431MPD2     H 6429   1.801   0.187  12.442  0.1646 -1.8958 -1.0974
  431MPD2    H1 6430   1.844   4.534  12.643 -3.1672 -0.9454  0.7042
  431MPD2    H2 6431   1.880   0.149  12.866 -1.8090  0.8345 -0.0925
  431MPD2    H3 6432   1.898   4.648  12.848  0.1362 -0.8884 -1.0812
  431MPD2     N 6433   1.809   4.639  12.415  0.2527 -0.1992  0.4215
  431MPD2    H5 6434   1.815   4.538  12.417 -3.2194 -0.3753  1.1960
  431MPD2    N1 6435   1.829   0.327  12.664  0.5515 -0.3435 -0.6625
  431MPD2    H7 6436   1.803   0.381  12.582  1.1350 -0.3268 -0.8418
  432TMC3    C1 6437   1.788   4.596  12.191  0.2295  0.9093  0.1341
  432TMC3    C2 6438   1.850   4.608  12.071  0.5360  0.4515 -0.4061
  432TMC3    C3 6439   1.863   4.495  11.991 -0.3785  1.0967  0.0431
  432TMC3    C4 6440   1.727   4.477  12.229 -0.4613  0.0501 -0.7134
  432TMC3    C5 6441   1.736   4.367  12.140 -0.0005  0.4878 -0.8327
  432TMC3    C6 6442   1.808   4.372  12.024  0.7667  0.1224 -0.4629
  432TMC3     C 6443   1.808   4.698  12.286  0.3316  0.0802  0.5814
  432TMC3     O 6444   1.823   0.085  12.248  1.1300 -0.7422 -0.2545
  432TMC3     H 6445   1.878   4.711  12.049 -1.4582  0.7114 -1.6727
  432TMC3    H1 6446   1.668   4.473  12.320 -1.3427  0.7181 -1.2582
  432TMC3    H2 6447   1.822   4.281  11.966 -0.1000  1.2613 -2.4476
  432TMC3    C7 6448   1.666   4.246  12.167  0.1721  0.2109 -0.8151
  432TMC3    C8 6449   1.943   4.502  11.871 -0.5803 -0.3263 -0.1494
  432TMC3    O1 6450   1.731   4.143  12.156  0.2325  0.3552 -0.2671
  432TMC3    O2 6451   1.962   4.398  11.797 -0.5732  0.5495 -0.1112
  433MPD2     C 6452   0.540   3.853  10.730  0.8915  0.1646  0.5500
  433MPD2    C1 6453   0.575   3.740  10.798 -0.0218  0.0515 -0.7414
  433MPD2    C2 6454   0.581   3.739  10.936  0.2219 -0.5034 -0.1555
  433MPD2    C3 6455   0.545   3.856  11.009  1.1939 -0.2758 -0.1284
  433MPD2    C4 6456   0.509   3.967  10.936  0.0493 -0.2336  0.7837
  433MPD2    C5 6457   0.507   3.965  10.799  0.5592 -0.3992  0.5398
  433MPD2     H 6458   0.616   3.653  10.991 -0.5395 -0.0366  1.0543
  433MPD2    H1 6459   0.471   4.054  10.988  2.1338 -0.2948  2.3927
  433MPD2    H2 6460   0.553   3.852  10.623 -0.9841  1.2830  0.3007
  433MPD2    H3 6461   0.485   4.057  10.745 -0.0781 -1.5958 -1.2361
  433MPD2     N 6462   0.554   3.848  11.152 -0.0104  0.6074 -0.9265
  433MPD2    H5 6463   0.591   3.764  11.196  1.8104  1.5909 -0.5650
  433MPD2    N1 6464   0.625   3.633  10.720  1.1178 -0.3193  0.8442
  433MPD2    H7 6465   0.642   3.656  10.623 -1.3405 -1.0147  0.2396
  434TMC3    C1 6466   0.710   3.419  10.676 -0.4286  0.3349  0.0930
  434TMC3    C2 6467   0.755   3.302  10.738  0.1334  0.8455  0.3396
  434TMC3    C3 6468   0.878   3.255  10.690  0.5376 -0.0284 -0.4196
  434TMC3    C4 6469   0.762   3.466  10.559 -0.7094 -0.0388 -0.2914
  434TMC3    C5 6470   0.870   3.406  10.510  0.3365  0.0252  0.2210
  434TMC3    C6 6471   0.937   3.308  10.579 -0.3636  0.2236 -0.6038
  434TMC3     C 6472   0.639   3.508  10.767  0.3670  0.4603 -0.4887
  434TMC3     O 6473   0.626   3.462  10.879 -0.1327 -0.6169  0.3268
  434TMC3     H 6474   0.711   3.266  10.831  0.4733 -1.1115 -0.2490
  434TMC3    H1 6475   0.715   3.541  10.496  0.5046 -1.4253 -2.8336
  434TMC3    H2 6476   1.019   3.259  10.528  0.0101  1.4907 -1.2371
  434TMC3    C7 6477   0.895   3.411  10.367 -0.1739 -0.3153  0.1517
  434TMC3    C8 6478   0.970   3.228  10.796 -0.0735 -0.4742  0.1411
  434TMC3    O1 6479   1.003   3.445  10.328  0.2819 -0.0187 -0.3348
  434TMC3    O2 6480   0.925   3.181  10.896 -0.1336  0.3727  0.4637
  435MPD2     C 6481   2.721   4.244  15.506  0.1932 -0.0838 -0.1435
  435MPD2    C1 6482   2.663   4.157  15.597  0.0667 -0.0068  0.1700
  435MPD2    C2 6483   2.748   4.070  15.662 -0.7145 -0.1986  0.1736
  435MPD2    C3 6484   2.883   4.052  15.628 -0.0043  0.1709  0.7268
  435MPD2    C4 6485   2.937   4.145  15.549 -0.3436  0.0304 -0.6830
  435MPD2    C5 6486   2.859   4.235  15.487 -0.9320 -0.2689  0.0520
  435MPD2     H 6487   2.708   3.983  15.713 -0.0880 -1.3003 -1.2161
  435MPD2    H1 6488   3.043   4.148  15.523  0.0081 -0.0161  0.7692
  435MPD2    H2 6489   2.665   4.306  15.438 -1.3641  0.4672  1.6397
  435MPD2    H3 6490   2.908   4.305  15.421  1.0243 -0.3149  1.4843
  435MPD2     N 6491   2.957   3.952  15.687 -0.1815  0.0110 -0.0391
  435MPD2    H5 6492   2.919   3.893  15.760 -0.3915  1.3733  0.9636
  435MPD2    N1 6493   2.526   4.143  15.617 -0.2536  0.0464 -0.5838
  435MPD2    H7 6494   2.507   4.061  15.673 -0.8125  0.4423 -0.1881
  436TMC3    C1 6495   2.172   4.162  15.816  0.2067  0.6519 -0.2775
  436TMC3    C2 6496   2.290   4.152  15.752 -0.6732  1.0301  0.0128
  436TMC3    C3 6497   2.297   4.179  15.613 -0.1703 -0.0226 -0.1161
  436TMC3    C4 6498   2.056   4.186  15.745 -0.1731 -0.1020 -0.0710
  436TMC3    C5 6499   2.065   4.222  15.612  0.0943 -0.1457 -0.1155
  436TMC3    C6 6500   2.185   4.225  15.547  0.4365 -0.1563  0.4596
  436TMC3     C 6501   2.162   4.185  15.957  0.9709  0.1733  0.7540
  436TMC3     O 6502   2.211   4.103  16.033 -0.0359 -0.2242 -0.3167
  436TMC3     H 6503   2.374   4.130  15.817 -0.8958  0.7546  0.2041
  436TMC3    H1 6504   1.964   4.191  15.803 -0.4013 -1.7669 -0.2862
  436TMC3    H2 6505   2.191   4.238  15.439 -1.0400  3.5068  0.8183
  436TMC3    C7 6506   1.938   4.234  15.540  0.1409 -0.5041  0.2886
  436TMC3    C8 6507   2.423   4.212  15.557 -0.5546 -0.0634  0.4657
  436TMC3    O1 6508   1.929   4.299  15.435 -0.0344  0.4186 -0.3061
  436TMC3    O2 6509   2.430   4.308  15.484  0.0848  0.0025 -0.2173
  437TMC3    C1 6510   1.335   1.205  12.964  0.2300 -0.4621  0.0964
  437TMC3    C2 6511   1.220   1.279  12.999 -0.3490  0.5376 -0.1218
  437TMC3    C3 6512   1.168   1.358  12.903 -0.5671 -0.2727 -0.1563
  437TMC3    C4 6513   1.391   1.212  12.834  0.1056  0.5421  0.5940
  437TMC3    C5 6514   1.334   1.307  12.752 -0.2411  0.8510 -0.4758
  437TMC3    C6 6515   1.228   1.387  12.787 -0.4777  0.0010 -0.0384
  437TMC3     C 6516   1.394   1.112  13.049 -0.0333 -0.5960 -0.2441
  437TMC3     O 6517   1.501   1.071  13.013 -0.4159  0.3751 -0.2604
  437TMC3     H 6518   1.202   1.305  13.103 -1.4034  0.4202 -0.2840
  437TMC3    H1 6519   1.480   1.160  12.800  0.1015  1.1019 -0.2680
  437TMC3    H2 6520   1.178   1.459  12.723  0.6520 -1.5968 -2.7377
  437TMC3    C7 6521   1.380   1.334  12.611  0.0256  0.8095  0.9655
  437TMC3    C8 6522   1.090   1.471  12.955  0.3008 -0.3304  0.4781
  437TMC3    O1 6523   1.314   1.407  12.543  0.2212 -0.4432 -0.0970
  437TMC3    O2 6524   1.128   1.588  12.927 -0.3219  0.3292 -0.1426
  438MPD2     C 6525   3.833   1.731  16.595 -0.1916  0.2370  0.5203
  438MPD2    C1 6526   3.938   1.644  16.640  0.1845  0.3417 -0.1785
  438MPD2    C2 6527   3.924   1.589  16.764 -0.5679 -0.1148  0.2492
  438MPD2    C3 6528   3.816   1.617  16.845  0.4273  0.0002 -0.4903
  438MPD2    C4 6529   3.719   1.690  16.795 -0.0966  0.8807 -0.4142
  438MPD2    C5 6530   3.726   1.746  16.674 -0.0575  0.5433 -0.4425
  438MPD2     H 6531   4.007   1.531  16.802  0.2166 -0.1741 -1.5667
  438MPD2    H1 6532   3.628   1.702  16.854 -0.1791  2.2431 -0.8027
  438MPD2    H2 6533   3.840   1.791  16.505 -0.0753 -0.6139 -0.0374
  438MPD2    H3 6534   3.645   1.810  16.640  0.9755  1.3004 -1.4629
  438MPD2     N 6535   3.788   1.569  16.977  0.4742 -0.4361 -0.5879
  438MPD2    H5 6536   3.698   1.585  17.022 -0.1158 -0.7245 -1.6887
  438MPD2    N1 6537   4.056   1.627  16.561 -0.5177 -0.0175 -0.6421
  438MPD2    H7 6538   4.133   1.573  16.598 -0.3578  2.1012  2.1313
  439TMC3    C1 6539   4.209   1.661  16.390  0.2712  1.2235 -0.0692
  439TMC3    C2 6540   4.239   1.755  16.297  0.5758  0.0091  0.1058
  439TMC3    C3 6541   4.366   1.748  16.241  0.1828 -0.5630  0.1359
  439TMC3    C4 6542   4.280   1.548  16.417  0.1918  0.1448 -0.4209
  439TMC3    C5 6543   4.402   1.545  16.361 -0.4879  0.6740 -0.7015
  439TMC3    C6 6544   4.449   1.648  16.277 -0.2083 -1.0745  0.0916
  439TMC3     C 6545   4.079   1.676  16.436 -0.2034  0.0981  0.1730
  439TMC3     O 6546   3.999   1.737  16.365 -0.0393  0.7346  0.0620
  439TMC3     H 6547   4.172   1.838  16.277  0.1224  0.2476  2.6734
  439TMC3    H1 6548   4.238   1.474  16.485  1.6036 -0.0568  0.2411
  439TMC3    H2 6549   4.548   1.640  16.234  0.2076  0.8839  0.6740
  439TMC3    C7 6550   4.486   1.442  16.426 -0.9926  0.3613  0.5641
  439TMC3    C8 6551   4.384   1.837  16.125 -0.4207  0.8508 -0.9661
  439TMC3    O1 6552   4.450   1.396  16.532 -0.1528 -0.2348 -0.2468
  439TMC3    O2 6553   4.309   1.934  16.111  1.0614 -0.2282  0.2579
  440MPD2     C 6554   2.549   2.790  14.311  0.6121  0.9419 -0.4935
  440MPD2    C1 6555   2.525   2.752  14.446 -0.0243  0.2898 -0.3461
  440MPD2    C2 6556   2.635   2.708  14.520  0.1185  0.4665  0.6388
  440MPD2    C3 6557   2.763   2.703  14.463  0.4690  0.0403  1.2123
  440MPD2    C4 6558   2.785   2.742  14.332 -0.3492  0.0169  0.5118
  440MPD2    C5 6559   2.673   2.780  14.254  0.8672 -0.3915 -0.2476
  440MPD2     H 6560   2.617   2.702  14.627 -0.2353  0.5441  0.5838
  440MPD2    H1 6561   2.881   2.731  14.283 -0.2269  0.4496  0.6511
  440MPD2    H2 6562   2.466   2.840  14.261 -2.4155 -2.8580  0.7458
  440MPD2    H3 6563   2.699   2.821  14.157  0.0485 -2.8418 -1.5066
  440MPD2     N 6564   2.866   2.664  14.544 -0.1667  0.0934 -0.6269
  440MPD2    H5 6565   2.959   2.687  14.510 -0.3090 -0.2135 -1.2160
  440MPD2    N1 6566   2.400   2.778  14.516  0.1803 -0.0035 -0.1631
  440MPD2    H7 6567   2.399   2.751  14.614  0.4679 -3.7608 -1.1829
  441TMC3    C1 6568   2.980   2.568  14.724 -0.0952 -0.4407 -0.5727
  441TMC3    C2 6569   3.052   2.678  14.751 -0.5933 -0.3742 -0.0092
  441TMC3    C3 6570   3.135   2.672  14.863 -0.2484  0.6667  0.1227
  441TMC3    C4 6571   2.987   2.451  14.790  0.1672 -0.1076 -0.2910
  441TMC3    C5 6572   3.076   2.447  14.890  0.6084 -0.0577 -0.1168
  441TMC3    C6 6573   3.142   2.553  14.939  0.6463  0.3888 -0.9128
  441TMC3     C 6574   2.853   2.593  14.660  0.0946  0.2535  0.8193
  441TMC3     O 6575   2.760   2.533  14.709 -0.0287  0.0095 -0.9143
  441TMC3     H 6576   3.021   2.769  14.702  0.7819 -0.4267 -0.9724
  441TMC3    H1 6577   2.919   2.367  14.773 -0.1888  0.3351 -1.0344
  441TMC3    H2 6578   3.209   2.540  15.023  1.7218  1.6892 -1.5538
  441TMC3    C7 6579   3.065   2.339  14.984  0.2041 -0.6763 -0.0362
  441TMC3    C8 6580   3.140   2.796  14.941  0.0198  0.3492  0.2401
  441TMC3    O1 6581   3.042   2.382  15.097 -0.0466  0.2617 -0.3066
  441TMC3    O2 6582   3.213   2.791  15.041 -0.0256 -0.9486  0.2142
  442MPD2     C 6583   0.741   2.922  16.722 -0.4306  0.1491 -0.1669
  442MPD2    C1 6584   0.665   2.818  16.766 -0.4887 -0.5148  0.2409
  442MPD2    C2 6585   0.713   2.691  16.749  0.4788  0.0662  0.3202
  442MPD2    C3 6586   0.836   2.668  16.690 -0.1971 -0.0448  0.1372
  442MPD2    C4 6587   0.918   2.773  16.650 -0.2712  0.6970 -0.3248
  442MPD2    C5 6588   0.858   2.899  16.656 -0.3227  1.0745 -0.3380
  442MPD2     H 6589   0.649   2.609  16.782  1.4698 -0.6236  0.5264
  442MPD2    H1 6590   1.023   2.769  16.623  0.1960  3.4879  1.0398
  442MPD2    H2 6591   0.717   3.028  16.725 -0.0067  0.2708 -1.1144
  442MPD2    H3 6592   0.920   2.984  16.631  1.7805 -0.4393 -0.2247
  442MPD2     N 6593   0.885   2.540  16.674 -0.5629 -0.1854 -0.3955
  442MPD2    H5 6594   0.974   2.527  16.627 -2.5808 -0.8705 -3.9777
  442MPD2    N1 6595   0.541   2.837  16.831 -0.0591  0.8803 -0.2864
  442MPD2    H7 6596   0.504   2.759  16.884  1.7055  0.7107  0.7089
  443TMC3    C1 6597   0.345   2.941  16.892  0.7437  0.0130  0.1175
  443TMC3    C2 6598   0.237   3.005  16.838  0.2181 -0.0200  0.2534
  443TMC3    C3 6599   0.110   2.994  16.902 -0.8010 -0.0923 -0.3385
  443TMC3    C4 6600   0.341   2.874  17.011  0.2820 -0.6948 -0.3512
  443TMC3    C5 6601   0.223   2.892  17.083  0.0423  1.0260  0.0144
  443TMC3    C6 6602   0.107   2.949  17.031  0.1320  0.0408  0.1863
  443TMC3     C 6603   0.471   2.953  16.822  0.5852 -0.2276  0.1893
  443TMC3     O 6604   0.478   3.038  16.734  0.2475 -0.4489  0.3323
  443TMC3     H 6605   0.245   3.058  16.744  2.4544  1.7242  1.4149
  443TMC3    H1 6606   0.422   2.835  17.071 -0.0727 -1.8859 -0.6478
  443TMC3    H2 6607   0.009   2.953  17.079  1.2495 -0.2102  2.4890
  443TMC3    C7 6608   0.202   2.804  17.197  0.7025  0.3137 -0.2765
  443TMC3    C8 6609   4.720   3.070  16.854 -0.8322 -0.2000  0.1664
  443TMC3    O1 6610   0.241   2.688  17.192 -0.3719  0.1089  0.1931
  443TMC3    O2 6611   4.642   3.119  16.937  0.5424 -0.0541  0.0814
  444MPD2     C 6612   1.158   1.930  17.554 -0.5982  1.1139 -0.6685
  444MPD2    C1 6613   1.096   1.889  17.436  0.3762  0.7052 -0.3433
  444MPD2    C2 6614   1.175   1.868  17.324  0.3728 -0.0927  0.1788
  444MPD2    C3 6615   1.313   1.863  17.329  0.1782 -0.3729  0.3374
  444MPD2    C4 6616   1.374   1.900  17.448 -0.0005  0.8401  0.6647
  444MPD2    C5 6617   1.292   1.939  17.551 -0.5453 -0.5021  0.6348
  444MPD2     H 6618   1.132   1.867  17.224 -3.1034  0.6346  1.6773
  444MPD2    H1 6619   1.482   1.902  17.457  0.0954 -0.1332 -0.1753
  444MPD2    H2 6620   1.107   1.941  17.649  1.2724  3.1585  0.0925
  444MPD2    H3 6621   1.347   1.966  17.640  1.5876 -0.4762 -0.7050
  444MPD2     N 6622   1.383   1.850  17.211  0.0114 -0.3782  0.0241
  444MPD2    H5 6623   1.318   1.835  17.135  0.0629  0.1578 -0.1267
  444MPD2    N1 6624   0.955   1.885  17.408  0.9772  0.4319 -0.0662
  444MPD2    H7 6625   0.928   1.858  17.314  0.1567 -0.5344  0.4548
  445TMC3    C1 6626   1.539   1.790  17.062  0.0292  0.3977  0.1150
  445TMC3    C2 6627   1.443   1.714  16.999  0.0315  0.5151  0.2104
  445TMC3    C3 6628   1.483   1.652  16.882  0.1056 -0.2494 -0.1645
  445TMC3    C4 6629   1.661   1.812  17.002 -0.0055 -0.2731 -0.0013
  445TMC3    C5 6630   1.680   1.773  16.870  0.0177  0.2806 -0.8407
  445TMC3    C6 6631   1.589   1.695  16.804  0.4928 -0.4106  0.0683
  445TMC3     C 6632   1.514   1.845  17.186 -0.4923  0.7493 -0.6273
  445TMC3     O 6633   1.605   1.900  17.245 -0.1917 -0.4979 -0.0452
  445TMC3     H 6634   1.359   1.673  17.054  0.8143 -1.9628 -0.4645
  445TMC3    H1 6635   1.730   1.880  17.051 -0.0183 -1.4323  1.6152
  445TMC3    H2 6636   1.614   1.659  16.705 -1.1340 -1.8178  0.1696
  445TMC3    C7 6637   1.808   1.776  16.801 -0.3249  0.0823  0.2192
  445TMC3    C8 6638   1.390   1.569  16.810 -0.1050  0.2932  0.1709
  445TMC3    O1 6639   1.804   1.774  16.681 -0.1228 -0.1296 -0.1813
  445TMC3    O2 6640   1.273   1.580  16.848  0.1028 -0.4056 -0.2607
  446MPD2     C 6641   0.794   2.882  11.271  0.3435  0.0038  0.3391
  446MPD2    C1 6642   0.724   2.960  11.174 -0.7692 -0.2588  0.3254
  446MPD2    C2 6643   0.751   3.094  11.180  0.3403 -0.3819 -0.5529
  446MPD2    C3 6644   0.847   3.153  11.264  0.4068 -0.1639  0.4206
  446MPD2    C4 6645   0.911   3.073  11.355 -0.4090  0.0417 -0.2834
  446MPD2    C5 6646   0.886   2.939  11.353  0.1489 -0.1040 -0.2750
  446MPD2     H 6647   0.697   3.155  11.108  1.2452 -1.7597 -2.4084
  446MPD2    H1 6648   0.986   3.107  11.426 -0.9982  1.3635 -0.3003
  446MPD2    H2 6649   0.769   2.778  11.285 -1.3565  0.5215  1.0918
  446MPD2    H3 6650   0.943   2.874  11.418 -1.9172 -0.5973  1.0360
  446MPD2     N 6651   0.879   3.291  11.243 -0.1342 -0.0207  0.1041
  446MPD2    H5 6652   0.816   3.338  11.178 -0.8556 -1.6362 -0.3613
  446MPD2    N1 6653   0.624   2.901  11.085 -0.3842 -0.5489 -0.4125
  446MPD2    H7 6654   0.576   2.965  11.023 -0.6911  0.8020  1.2262
  447TMC3    C1 6655   1.041   3.473  11.236  0.0083 -0.4604  0.0188
  447TMC3    C2 6656   0.992   3.516  11.116  0.6044 -0.3829  0.1846
  447TMC3    C3 6657   1.058   3.619  11.053 -0.2539  0.3659 -0.0937
  447TMC3    C4 6658   1.154   3.528  11.290  0.1305 -0.6782 -0.0417
  447TMC3    C5 6659   1.218   3.625  11.220  0.6934  0.2160  0.2025
  447TMC3    C6 6660   1.172   3.666  11.099  1.4131  0.2521  1.1506
  447TMC3     C 6661   0.992   3.346  11.291 -0.3110  0.3325  0.1891
  447TMC3     O 6662   1.054   3.309  11.391 -0.2200  0.1886 -0.5268
  447TMC3     H 6663   0.890   3.493  11.086  0.7046  0.5784 -0.9144
  447TMC3    H1 6664   1.206   3.481  11.373  0.6938  0.2892  0.1531
  447TMC3    H2 6665   1.226   3.745  11.048  0.2551  0.9260  0.9719
  447TMC3    C7 6666   1.361   3.616  11.223  0.3370 -0.0155  0.3070
  447TMC3    C8 6667   1.051   3.620  10.909  0.3394  0.1622 -0.6849
  447TMC3    O1 6668   1.434   3.629  11.121  0.5760  0.0888  0.3052
  447TMC3    O2 6669   0.942   3.651  10.871  0.4007  0.1592 -0.2427
  448TMC3    C1 6670   4.372   3.347  16.893 -0.2024  0.5403  0.1878
  448TMC3    C2 6671   4.303   3.244  16.835 -0.0829 -0.1263  0.7474
  448TMC3    C3 6672   4.198   3.198  16.908 -0.0804 -0.4045 -0.2673
  448TMC3    C4 6673   4.354   3.397  17.023 -0.1410  0.5321  0.3944
  448TMC3    C5 6674   4.248   3.340  17.092  0.4986 -0.5560 -0.6263
  448TMC3    C6 6675   4.171   3.236  17.034 -0.8667  0.1388 -0.6705
  448TMC3     C 6676   4.503   3.395  16.839 -0.0576  0.4756 -0.8409
  448TMC3     O 6677   4.572   3.465  16.915  0.2367  0.1521  0.6274
  448TMC3     H 6678   4.319   3.217  16.732 -0.7687  0.9301  0.3562
  448TMC3    H1 6679   4.415   3.471  17.073 -0.4555 -0.5271  2.3233
  448TMC3    H2 6680   4.083   3.199  17.086 -1.2113  0.3791 -1.0867
  448TMC3    C7 6681   4.218   3.400  17.229 -0.2274  0.4266  0.2796
  448TMC3    C8 6682   4.136   3.073  16.856 -0.1072  0.0174 -0.2766
  448TMC3    O1 6683   4.285   3.492  17.278 -0.0206 -0.1751 -0.4887
  448TMC3    O2 6684   4.189   3.008  16.767 -0.3018 -0.0354  0.5228
  449MPD2     C 6685   0.720   1.947  14.005 -0.5102  0.1665 -1.1905
  449MPD2    C1 6686   0.632   1.838  13.970  0.1169  0.2278  0.7180
  449MPD2    C2 6687   0.547   1.786  14.065 -0.3675 -0.8893 -0.0751
  449MPD2    C3 6688   0.540   1.836  14.194  0.2478  0.3036  0.0295
  449MPD2    C4 6689   0.624   1.944  14.220 -0.1038 -0.0684  0.0753
  449MPD2    C5 6690   0.718   1.989  14.133  0.1159  0.1587 -0.3844
  449MPD2     H 6691   0.489   1.699  14.036  0.9206 -0.7897 -3.0052
  449MPD2    H1 6692   0.629   1.981  14.322 -1.4159 -0.2804  0.2144
  449MPD2    H2 6693   0.793   1.989  13.937  1.6871 -1.9208 -0.1107
  449MPD2    H3 6694   0.775   2.077  14.159 -0.8159  1.4442 -2.6915
  449MPD2     N 6695   0.447   1.773  14.280 -0.7462  0.4636 -0.6340
  449MPD2    H5 6696   0.404   1.683  14.264 -1.7090  1.3443 -3.0434
  449MPD2    N1 6697   0.625   1.784  13.838  0.1306 -0.1486  0.3889
  449MPD2    H7 6698   0.555   1.710  13.836  0.9951 -0.9787  0.9934
  450TMC3    C1 6699   0.658   1.730  13.608  0.0907  0.0339  0.7678
  450TMC3    C2 6700   0.740   1.631  13.563 -0.5455 -0.3901 -0.1371
  450TMC3    C3 6701   0.675   1.519  13.510 -0.0062  0.1215 -0.5936
  450TMC3    C4 6702   0.524   1.711  13.608  0.5482  0.1269  0.1425
  450TMC3    C5 6703   0.467   1.595  13.565  0.5459 -0.6090 -0.5909
  450TMC3    C6 6704   0.541   1.494  13.506 -0.1489  0.0634  0.8249
  450TMC3     C 6705   0.703   1.803  13.721 -0.1534  0.0456 -0.3873
  450TMC3     O 6706   0.809   1.862  13.701  0.1410 -0.3024 -0.2710
  450TMC3     H 6707   0.842   1.638  13.597 -0.8774 -0.6388  0.9474
  450TMC3    H1 6708   0.473   1.788  13.665 -1.4638 -0.3122 -1.0574
  450TMC3    H2 6709   0.499   1.395  13.496 -0.1058  0.2990 -1.5121
  450TMC3    C7 6710   0.392   1.544  13.682  0.6748  0.4069 -0.2952
  450TMC3    C8 6711   0.753   1.397  13.477 -0.5531 -0.0041  0.4870
  450TMC3    O1 6712   0.436   1.582  13.788  0.2526 -0.0048 -0.0579
  450TMC3    O2 6713   0.689   1.293  13.485 -0.5210 -0.1137  0.5884
  451MPD2     C 6714   2.462   0.431   1.456  0.9953 -0.1098  0.0307
  451MPD2    C1 6715   2.406   0.352   1.365 -0.1617 -0.7945 -0.1153
  451MPD2    C2 6716   2.428   0.219   1.384 -0.2639  0.1457  0.1889
  451MPD2    C3 6717   2.495   0.167   1.495 -0.2595  0.2944 -0.0634
  451MPD2    C4 6718   2.544   0.262   1.591  0.2482  0.4603  0.0618
  451MPD2    C5 6719   2.524   0.391   1.572  0.4679  0.5805 -0.0254
  451MPD2     H 6720   2.397   0.147   1.310  2.2153 -0.6320 -0.1034
  451MPD2    H1 6721   2.587   0.231   1.685  1.1205 -0.0686 -0.5115
  451MPD2    H2 6722   2.470   0.538   1.441  1.8034 -0.4137 -1.6477
  451MPD2    H3 6723   2.568   0.464   1.640  1.4767 -1.0913  1.1382
  451MPD2     N 6724   2.505   0.021   1.506  0.1049 -0.4437 -0.0798
  451MPD2    H5 6725   2.468   4.706   1.421  1.5291 -1.1017 -0.3719
  451MPD2    N1 6726   2.351   0.409   1.250 -0.2318 -0.2998  0.9246
  451MPD2    H7 6727   2.336   0.509   1.241 -0.7725 -0.3380  1.3684
  452TMC3    C1 6728   2.580   4.541   1.589 -0.2553  0.2604 -0.0339
  452TMC3    C2 6729   2.676   4.477   1.658 -0.6645 -0.1533  0.5884
  452TMC3    C3 6730   2.695   4.341   1.629 -0.1847 -0.4556 -0.5502
  452TMC3    C4 6731   2.507   4.485   1.492  0.2090 -0.1391  0.1374
  452TMC3    C5 6732   2.530   4.351   1.465 -0.1352 -0.1305 -0.2689
  452TMC3    C6 6733   2.627   4.270   1.531  0.2750  0.1243 -0.7116
  452TMC3     C 6734   2.586   4.693   1.597  0.3284 -0.1913  0.7921
  452TMC3     O 6735   2.645   0.013   1.693 -0.0318 -0.2733 -0.0778
  452TMC3     H 6736   2.711   4.526   1.749  0.1795  0.7665 -0.2351
  452TMC3    H1 6737   2.420   4.532   1.448 -0.8695 -1.3306  1.0201
  452TMC3    H2 6738   2.646   4.167   1.503 -2.3160 -0.3834 -0.5867
  452TMC3    C7 6739   2.467   4.307   1.342 -1.1103  0.5270 -0.3329
  452TMC3    C8 6740   2.806   4.271   1.685  0.6134 -0.2514  0.3199
  452TMC3    O1 6741   2.435   4.400   1.265 -0.8893  0.8543  0.2784
  452TMC3    O2 6742   2.809   4.154   1.663 -0.3599  0.0811  0.2038
  453TMC3    C1 6743   3.173   2.375  11.602 -0.3990  0.1966  0.0390
  453TMC3    C2 6744   3.053   2.302  11.639 -0.5533  0.1026 -0.1001
  453TMC3    C3 6745   2.955   2.274  11.544 -0.0675 -0.6191 -0.5618
  453TMC3    C4 6746   3.196   2.394  11.469 -0.0046 -0.3370  0.0106
  453TMC3    C5 6747   3.091   2.368  11.381  0.2251 -0.3461  0.6460
  453TMC3    C6 6748   2.966   2.319  11.418  0.1590 -0.5551 -0.1341
  453TMC3     C 6749   3.273   2.400  11.704  0.2812 -0.5395  0.1076
  453TMC3     O 6750   3.365   2.482  11.691  0.2002  0.3710 -0.0644
  453TMC3     H 6751   3.028   2.289  11.744 -0.0133 -1.8529 -0.2311
  453TMC3    H1 6752   3.294   2.425  11.437 -0.4655  0.8021 -0.2909
  453TMC3    H2 6753   2.882   2.299  11.352 -0.3192 -0.1423  0.3469
  453TMC3    C7 6754   3.115   2.370  11.229 -0.4751 -0.3032  0.7701
  453TMC3    C8 6755   2.842   2.192  11.581 -0.2250  0.7252 -0.6071
  453TMC3    O1 6756   3.024   2.398  11.154 -0.0020  0.4564  0.2866
  453TMC3    O2 6757   2.733   2.205  11.521  0.1556 -0.0731  0.1653
  454MPD2     C 6758   1.848   2.307  15.797  0.6325  0.1559 -0.4454
  454MPD2    C1 6759   1.756   2.206  15.782 -0.0717 -0.2841  0.0055
  454MPD2    C2 6760   1.738   2.115  15.883  0.1609  0.0899  0.1832
  454MPD2    C3 6761   1.813   2.123  15.998 -0.2998  0.0016  0.0934
  454MPD2    C4 6762   1.913   2.222  15.997 -0.3276 -0.1479  0.0913
  454MPD2    C5 6763   1.928   2.319  15.904  0.3709  0.0245  0.5067
  454MPD2     H 6764   1.666   2.037  15.865 -0.0313  0.6900 -1.6566
  454MPD2    H1 6765   1.973   2.236  16.086  2.9092 -0.7100 -2.0162
  454MPD2    H2 6766   1.864   2.379  15.718  1.7546  1.4002  0.9111
  454MPD2    H3 6767   2.009   2.391  15.916  1.0518 -0.5033 -0.8234
  454MPD2     N 6768   1.780   2.034  16.105  0.0655 -0.8739 -0.4929
  454MPD2    H5 6769   1.697   1.978  16.088  0.0068 -0.7593 -0.5846
  454MPD2    N1 6770   1.669   2.193  15.666 -0.0734 -0.5878 -0.1058
  454MPD2    H7 6771   1.665   2.271  15.601  1.7997 -1.5377 -1.3628
  455TMC3    C1 6772   1.750   1.969  16.333 -0.4735 -0.1622  0.1467
  455TMC3    C2 6773   1.685   2.032  16.434 -0.4781 -0.1189 -0.3543
  455TMC3    C3 6774   1.573   1.977  16.490 -0.4349  0.1323 -0.0044
  455TMC3    C4 6775   1.705   1.853  16.290  0.3482 -0.4710 -0.2408
  455TMC3    C5 6776   1.598   1.790  16.350 -0.3629 -0.8739 -0.2508
  455TMC3    C6 6777   1.523   1.857  16.442 -0.1754 -0.1481 -0.1335
  455TMC3     C 6778   1.816   2.052  16.236 -0.1493 -0.2406  0.2981
  455TMC3     O 6779   1.882   2.145  16.279 -0.3982  0.2222  0.1042
  455TMC3     H 6780   1.720   2.129  16.464  0.9735 -1.0392  0.8877
  455TMC3    H1 6781   1.740   1.802  16.201 -0.9617 -1.2644 -0.3064
  455TMC3    H2 6782   1.447   1.801  16.493 -2.0092 -0.5689 -3.3339
  455TMC3    C7 6783   1.543   1.681  16.275  0.3403 -0.2743 -0.4577
  455TMC3    C8 6784   1.529   2.036  16.611 -0.9424  0.1319  0.2088
  455TMC3    O1 6785   1.432   1.686  16.227  0.2921  0.5868 -0.5634
  455TMC3    O2 6786   1.595   2.127  16.658  0.1057  0.3814 -0.6067
  456MPD2     C 6787   0.015   1.963  16.200  0.1870  0.1354  0.0855
  456MPD2    C1 6788   4.713   1.878  16.303 -0.3952  0.0405 -0.4720
  456MPD2    C2 6789   4.620   1.910  16.400  0.0137  0.6287 -0.6006
  456MPD2    C3 6790   4.563   2.039  16.404 -0.3636 -0.3713 -0.1688
  456MPD2    C4 6791   4.603   2.128  16.301 -0.7867 -0.1406 -0.2150
  456MPD2    C5 6792   4.696   2.088  16.199 -0.5430  0.5139  0.0525
  456MPD2     H 6793   4.595   1.846  16.483  2.2879  0.1586 -0.2889
  456MPD2    H1 6794   4.565   2.229  16.295  0.9586  0.4515 -1.3107
  456MPD2    H2 6795   0.089   1.926  16.130  2.3938 -0.3390  2.6425
  456MPD2    H3 6796   0.002   2.153  16.118 -1.1040 -0.0189 -0.5977
  456MPD2     N 6797   4.476   2.073  16.507  0.6104 -0.0175  0.0570
  456MPD2    H5 6798   4.460   2.004  16.579  1.1035  0.5436  0.7139
  456MPD2    N1 6799   0.049   1.752  16.296 -0.7749 -0.5947  0.5389
  456MPD2    H7 6800   0.115   1.738  16.220 -1.2097  1.1275 -0.1581
  457TMC3    C1 6801   4.360   2.227  16.660  0.3641  0.8917 -0.6383
  457TMC3    C2 6802   4.280   2.337  16.663 -0.4551 -0.1344  0.1034
  457TMC3    C3 6803   4.218   2.374  16.781  0.3652  0.2962 -0.6818
  457TMC3    C4 6804   4.395   2.164  16.778 -0.3073 -0.3046  0.2760
  457TMC3    C5 6805   4.360   2.222  16.901  0.4116 -0.4490 -0.3308
  457TMC3    C6 6806   4.260   2.310  16.892  0.1345 -0.1785  0.0424
  457TMC3     C 6807   4.421   2.201  16.527  0.4835  0.1461  0.1271
  457TMC3     O 6808   4.406   2.290  16.442  0.5799 -0.4813 -0.0558
  457TMC3     H 6809   4.258   2.395  16.574  2.3678  3.6588  1.8621
  457TMC3    H1 6810   4.476   2.092  16.769 -0.4881 -0.9230  3.4136
  457TMC3    H2 6811   4.220   2.353  16.984 -0.9271  0.6511 -0.8102
  457TMC3    C7 6812   4.387   2.144  17.018 -0.1003 -0.3730 -0.4503
  457TMC3    C8 6813   4.165   2.509  16.795 -0.4635 -0.2135  0.0238
  457TMC3    O1 6814   4.451   2.039  17.009  0.4636  0.6458 -0.0836
  457TMC3    O2 6815   4.190   2.583  16.699  0.4603 -0.1491  0.5286
  458MPD2     C 6816   1.780   1.377  12.299 -0.2894  0.0730  0.5039
  458MPD2    C1 6817   1.818   1.301  12.411  0.3468 -0.1951  0.4474
  458MPD2    C2 6818   1.716   1.272  12.500 -0.6903 -0.3480 -0.0899
  458MPD2    C3 6819   1.584   1.303  12.475  0.0130  0.4305  0.2235
  458MPD2    C4 6820   1.551   1.365  12.359 -0.3877  0.6339  0.2969
  458MPD2    C5 6821   1.647   1.393  12.269 -0.6726  0.2976  0.3107
  458MPD2     H 6822   1.736   1.235  12.600  1.3848  2.1331  0.4034
  458MPD2    H1 6823   1.450   1.386  12.327 -0.0454  1.9959  0.0870
  458MPD2    H2 6824   1.856   1.412  12.230  0.3416 -1.4301  0.4354
  458MPD2    H3 6825   1.618   1.451  12.181 -0.9829  0.6971  0.6752
  458MPD2     N 6826   1.497   1.270  12.584 -0.4502  0.0484  0.4814
  458MPD2    H5 6827   1.544   1.218  12.657  1.0593 -1.8802 -1.8575
  458MPD2    N1 6828   1.949   1.279  12.452  0.1533  0.4139  0.3995
  458MPD2    H7 6829   2.027   1.324  12.404  1.4614 -1.7080  0.5455
  459TMC3    C1 6830   2.117   1.203  12.604 -0.5365  0.0768 -0.1250
  459TMC3    C2 6831   2.212   1.287  12.549  0.6106 -0.3472 -0.4647
  459TMC3    C3 6832   2.318   1.324  12.626 -0.0051 -0.2296 -0.4194
  459TMC3    C4 6833   2.125   1.166  12.737  0.9009  0.0119 -0.3661
  459TMC3    C5 6834   2.232   1.211  12.811  0.2466  0.1658  0.2695
  459TMC3    C6 6835   2.324   1.296  12.763 -0.2052 -0.7009  0.1390
  459TMC3     C 6836   1.982   1.184  12.546  0.0865  0.0082  0.5630
  459TMC3     O 6837   1.916   1.103  12.603  0.3469 -1.0544 -0.3760
  459TMC3     H 6838   2.217   1.296  12.441 -0.2579  0.1645 -0.4549
  459TMC3    H1 6839   2.058   1.091  12.778  1.1467  0.2785  0.5130
  459TMC3    H2 6840   2.419   1.314  12.813 -0.3966  1.3270 -0.2407
  459TMC3    C7 6841   2.250   1.144  12.935 -0.5809  0.3732 -0.1307
  459TMC3    C8 6842   2.428   1.398  12.570 -0.3600 -0.5181  0.0207
  459TMC3    O1 6843   2.183   1.049  12.967 -0.8775  0.1286 -0.0153
  459TMC3    O2 6844   2.531   1.404  12.635  0.4304 -0.0555 -0.1616
  460MPD2     C 6845   1.330   3.689  10.675 -0.5566  0.2059  0.4808
  460MPD2    C1 6846   1.199   3.665  10.717  0.1511 -0.4601 -0.0857
  460MPD2    C2 6847   1.098   3.691  10.621  0.2897 -0.0472  0.6718
  460MPD2    C3 6848   1.136   3.733  10.493  0.0646  0.1456 -0.1783
  460MPD2    C4 6849   1.266   3.760  10.456  0.2482 -0.1601 -0.0582
  460MPD2    C5 6850   1.363   3.731  10.548 -0.4265  0.6388 -0.8488
  460MPD2     H 6851   0.993   3.673  10.638  0.5487 -1.0876  1.1887
  460MPD2    H1 6852   1.301   3.797  10.360 -0.5651  1.9561  0.4528
  460MPD2    H2 6853   1.415   3.679  10.741  1.2964  1.2488 -1.7283
  460MPD2    H3 6854   1.468   3.744  10.527  0.1324 -0.6184  1.2145
  460MPD2     N 6855   1.035   3.774  10.404 -0.1254  0.2965 -0.1564
  460MPD2    H5 6856   0.942   3.746  10.434 -0.3569  0.9446 -0.2695
  460MPD2    N1 6857   1.170   3.631  10.848 -0.3251  0.0395 -0.5247
  460MPD2    H7 6858   1.247   3.614  10.912 -0.8139  0.0650  0.0666
  461TMC3    C1 6859   0.941   3.877  10.222 -0.7430  0.2904 -0.4928
  461TMC3    C2 6860   0.893   3.765  10.159 -0.4488 -0.3674 -0.1080
  461TMC3    C3 6861   0.838   3.770  10.038 -0.3736  0.9810 -0.8037
  461TMC3    C4 6862   0.936   3.998  10.159 -0.1051  0.0824  0.6198
  461TMC3    C5 6863   0.867   3.999  10.034 -0.0323  0.8638 -0.1312
  461TMC3    C6 6864   0.819   3.889   9.977  0.2653  0.0938  0.0983
  461TMC3     C 6865   1.061   3.861  10.301 -0.1031 -0.5833 -0.7071
  461TMC3     O 6866   1.143   3.949  10.285 -0.4217 -0.7558  0.4530
  461TMC3     H 6867   0.916   3.667  10.200  0.4002  0.9507  2.5777
  461TMC3    H1 6868   0.981   4.087  10.201  0.1172 -0.0047  0.5663
  461TMC3    H2 6869   0.785   3.897   9.874 -2.1221  2.3837  1.0669
  461TMC3    C7 6870   0.795   4.120  10.004 -0.2095 -0.1072 -0.5531
  461TMC3    C8 6871   0.756   3.660  10.000  0.8376  0.3557  0.0775
  461TMC3    O1 6872   0.729   4.109   9.905 -0.0556 -0.2077 -0.3995
  461TMC3    O2 6873   0.783   3.552  10.049 -0.7833  0.0905  0.3962
  462TMC3    C1 6874   1.798   3.742  17.652 -0.1406  0.2316 -0.6875
  462TMC3    C2 6875   1.773   3.650  17.552 -0.4787 -0.4620  1.5080
  462TMC3    C3 6876   1.657   3.582  17.561 -0.3065  0.6218  0.6846
  462TMC3    C4 6877   1.718   3.775   0.050  0.2157 -0.3133  0.5342
  462TMC3    C5 6878   1.594   3.709   0.045 -0.2419 -0.0672 -0.6726
  462TMC3    C6 6879   1.575   3.601  17.670 -0.3037  0.9326 -0.2027
  462TMC3     C 6880   1.903   3.836  17.626 -0.0594 -0.0781  0.2786
  462TMC3     O 6881   1.962   3.881   0.012  0.1875 -0.3561  0.2547
  462TMC3     H 6882   1.858   3.626  17.490 -0.6637 -0.2233  1.1659
  462TMC3    H1 6883   1.740   3.863   0.110 -2.7465 -0.2387  1.5206
  462TMC3    H2 6884   1.478   3.552  17.673 -0.5706  1.4568 -0.2113
  462TMC3    C7 6885   1.489   3.755   0.131 -0.3320  0.3276 -0.0714
  462TMC3    C8 6886   1.660   3.451  17.509  0.2214  0.2441  0.6972
  462TMC3    O1 6887   1.374   3.734   0.093  0.1573  0.5243  0.2758
  462TMC3    O2 6888   1.570   3.372  17.543 -0.2589  0.0857  0.3212
  463MPD2     C 6889   2.836   2.700   1.890  0.0397  0.1604 -0.5762
  463MPD2    C1 6890   2.719   2.745   1.833 -0.3814 -0.8648 -0.2733
  463MPD2    C2 6891   2.718   2.880   1.793  0.0350  0.9879 -0.4617
  463MPD2    C3 6892   2.836   2.949   1.792 -0.1065  0.0900 -0.0025
  463MPD2    C4 6893   2.948   2.897   1.848 -0.4680  0.2060  0.2731
  463MPD2    C5 6894   2.946   2.771   1.901  0.1287 -0.0125 -0.6641
  463MPD2     H 6895   2.628   2.936   1.771 -1.8013 -1.4114  0.9908
  463MPD2    H1 6896   3.038   2.957   1.856 -0.0763 -0.4553  0.7516
  463MPD2    H2 6897   2.844   2.601   1.933  2.5372  0.9425  0.7405
  463MPD2    H3 6898   3.033   2.734   1.955 -1.0214 -0.4472  0.9057
  463MPD2     N 6899   2.853   3.079   1.741 -0.5567  0.6007  0.4678
  463MPD2    H5 6900   2.949   3.113   1.743  0.3565 -1.9986 -0.3190
  463MPD2    N1 6901   2.605   2.660   1.825  0.9468  0.1525  0.4280
  463MPD2    H7 6902   2.521   2.704   1.789  0.5140 -0.2900  0.9030
  464TMC3    C1 6903   2.461   2.479   1.875  0.8047  0.7923  0.4898
  464TMC3    C2 6904   2.369   2.577   1.882  0.1750 -0.3751 -0.0161
  464TMC3    C3 6905   2.241   2.545   1.858 -0.3506  0.0387  0.2657
  464TMC3    C4 6906   2.431   2.358   1.820  0.8202  0.7143  0.1103
  464TMC3    C5 6907   2.302   2.336   1.776  1.1055  0.2307  0.1868
  464TMC3    C6 6908   2.204   2.428   1.800  0.3933  0.0469 -0.0127
  464TMC3     C 6909   2.597   2.524   1.859 -0.0880  0.0587  1.4061
  464TMC3     O 6910   2.676   2.432   1.880  0.5545  0.1731  0.3973
  464TMC3     H 6911   2.381   2.661   1.948 -0.7362 -0.8709  0.7836
  464TMC3    H1 6912   2.508   2.284   1.808 -0.6356 -0.5367 -1.4903
  464TMC3    H2 6913   2.100   2.421   1.770  0.4322 -2.1413  0.4287
  464TMC3    C7 6914   2.306   2.278   1.636  0.0105 -0.4906  0.5471
  464TMC3    C8 6915   2.164   2.657   1.841  0.0940 -0.0764 -0.0537
  464TMC3    O1 6916   2.411   2.228   1.604 -0.2403  0.2513  0.5142
  464TMC3    O2 6917   2.217   2.765   1.828 -0.2120 -0.0768  0.2606
  465MPD2     C 6918   4.045   2.084  16.477  0.2402 -0.2764  0.2132
  465MPD2    C1 6919   3.944   2.061  16.572  0.3549  0.4619  0.7382
  465MPD2    C2 6920   3.815   2.074  16.529 -0.0964  0.7080 -0.6399
  465MPD2    C3 6921   3.781   2.113  16.403 -0.1946  0.4759  0.2532
  465MPD2    C4 6922   3.881   2.138  16.310 -0.3066 -0.1817  0.1695
  465MPD2    C5 6923   4.014   2.116  16.346 -0.9751  0.2993 -0.4779
  465MPD2     H 6924   3.744   2.052  16.609 -1.0621  0.4862 -1.5655
  465MPD2    H1 6925   3.859   2.166  16.208  0.2499  1.1754  0.4262
  465MPD2    H2 6926   4.152   2.082  16.494  0.3567  1.3192 -0.2462
  465MPD2    H3 6927   4.096   2.121  16.276 -1.0694 -0.9254 -0.6637
  465MPD2     N 6928   3.638   2.132  16.377  0.5980  0.4099  0.0030
  465MPD2    H5 6929   3.585   2.129  16.463  0.9201  0.0613  0.1874
  465MPD2    N1 6930   3.973   2.027  16.705 -0.8991 -0.2599  0.0464
  465MPD2    H7 6931   3.900   2.039  16.775 -1.2883 -1.5983 -0.1190
  466TMC3    C1 6932   3.249   2.207  16.380 -0.2297 -0.0211  0.4087
  466TMC3    C2 6933   3.203   2.315  16.311 -0.6301 -0.5497  0.3819
  466TMC3    C3 6934   3.288   2.373  16.222  0.3209  0.7312  0.2732
  466TMC3    C4 6935   3.371   2.152  16.356  0.2145 -0.2904  0.0063
  466TMC3    C5 6936   3.446   2.214  16.262 -0.3033  0.1149 -0.2111
  466TMC3    C6 6937   3.411   2.317  16.187 -0.2033 -0.2572 -0.0799
  466TMC3     C 6938   3.165   2.157  16.489  0.6171 -0.0491 -0.3784
  466TMC3     O 6939   3.227   2.103  16.580 -0.0076  0.0854  0.2770
  466TMC3     H 6940   3.110   2.367  16.327 -1.3853 -1.0462 -2.2705
  466TMC3    H1 6941   3.410   2.077  16.424 -0.9918  0.8172  1.9438
  466TMC3    H2 6942   3.458   2.351  16.096  2.5413  1.0783  1.8300
  466TMC3    C7 6943   3.586   2.173  16.253  0.4012 -0.8158  0.1250
  466TMC3    C8 6944   3.287   2.516  16.204 -0.5665 -0.4922 -0.4206
  466TMC3    O1 6945   3.647   2.180  16.148  0.3619 -0.1926 -0.9678
  466TMC3    O2 6946   3.325   2.558  16.095  0.0274 -0.1680 -0.4405
  467TMC3    C1 6947   4.012   0.577  13.916  0.5734 -0.6247  0.0442
  467TMC3    C2 6948   4.046   0.705  13.888 -0.5071 -0.6827  0.0362
  467TMC3    C3 6949   3.974   0.775  13.797 -0.1030  0.9564 -0.3317
  467TMC3    C4 6950   3.904   0.520  13.853  0.2628  0.3297  0.1999
  467TMC3    C5 6951   3.837   0.593  13.761  0.4456  0.3762  0.2287
  467TMC3    C6 6952   3.877   0.719  13.720  0.6367 -0.8600  0.0201
  467TMC3     C 6953   4.142   0.511  13.940  0.6152 -0.6109  1.1188
  467TMC3     O 6954   4.231   0.568  14.003 -0.3055  0.0454  0.4668
  467TMC3     H 6955   4.138   0.746  13.927 -0.9241  1.0519 -0.8171
  467TMC3    H1 6956   3.877   0.417  13.871 -2.1218  0.6146 -1.7806
  467TMC3    H2 6957   3.812   0.787  13.666  0.6692 -2.0480 -1.5209
  467TMC3    C7 6958   3.712   0.545  13.704 -0.1424  0.6339 -0.1269
  467TMC3    C8 6959   4.055   0.873  13.722 -0.6513  0.0884 -0.0340
  467TMC3    O1 6960   3.689   0.601  13.599 -0.3159  0.2655 -0.5377
  467TMC3    O2 6961   4.132   0.953  13.770  0.2532 -0.0722  0.2251
  468MPD2     C 6962   2.769   3.563  10.442 -0.0970  0.2833 -0.5456
  468MPD2    C1 6963   2.894   3.539  10.490  0.1770 -0.1081 -0.2677
  468MPD2    C2 6964   2.942   3.412  10.504 -0.3175  0.2306 -0.4356
  468MPD2    C3 6965   2.861   3.302  10.474  0.0319 -0.1022 -0.4627
  468MPD2    C4 6966   2.734   3.323  10.426 -0.3597 -0.0917  0.4348
  468MPD2    C5 6967   2.688   3.453  10.410  0.2718  0.1900 -0.8313
  468MPD2     H 6968   3.048   3.396  10.519 -0.3094  2.0104  1.3391
  468MPD2    H1 6969   2.671   3.240  10.398  0.8191 -1.2857  1.3474
  468MPD2    H2 6970   2.715   3.656  10.438  0.5344  0.6219 -1.2293
  468MPD2    H3 6971   2.589   3.476  10.373 -0.1347 -0.0735  0.0982
  468MPD2     N 6972   2.905   3.170  10.498 -0.0464 -0.5153  0.3147
  468MPD2    H5 6973   2.836   3.098  10.479  0.0862 -0.4937 -0.2331
  468MPD2    N1 6974   2.984   3.646  10.537 -0.5401  0.7552  0.2297
  468MPD2    H7 6975   3.066   3.611  10.585  0.7370 -0.3101 -2.6681
  469TMC3    C1 6976   3.083   3.863  10.554  0.5199 -0.3187 -0.2768
  469TMC3    C2 6977   3.188   3.796  10.606 -0.2018  0.0554  0.8053
  469TMC3    C3 6978   3.251   3.858  10.710  0.3972 -0.1150  0.3565
  469TMC3    C4 6979   3.039   3.983  10.601  0.5422  0.1105  0.1445
  469TMC3    C5 6980   3.104   4.037  10.712  0.4023 -0.7241 -0.3848
  469TMC3    C6 6981   3.216   3.982  10.765 -0.1092  0.2930 -0.0105
  469TMC3     C 6982   2.970   3.779  10.505  0.2662  0.8339  0.5952
  469TMC3     O 6983   2.876   3.829  10.442 -0.0083 -0.2769 -0.0140
  469TMC3     H 6984   3.216   3.703  10.556  2.0083  1.7801 -1.1935
  469TMC3    H1 6985   2.955   4.037  10.559 -0.1248 -0.8126  0.3007
  469TMC3    H2 6986   3.269   4.026  10.849  0.8356  1.7725 -1.4035
  469TMC3    C7 6987   3.081   4.182  10.737  0.4177 -0.2606 -0.4450
  469TMC3    C8 6988   3.380   3.806  10.746  0.0113 -0.1345 -0.3766
  469TMC3    O1 6989   3.009   4.244  10.658 -0.3796  1.0568  0.2601
  469TMC3    O2 6990   3.446   3.744  10.666 -0.2439  0.0707  0.1652
  470TMC3    C1 6991   0.629   4.223   1.099 -0.3444 -0.2900 -0.0511
  470TMC3    C2 6992   0.738   4.298   1.055  0.1038 -0.1096  0.1180
  470TMC3    C3 6993   0.837   4.225   0.995 -0.5446 -0.5846 -0.3672
  470TMC3    C4 6994   0.618   4.088   1.094 -0.6575 -0.5532 -0.4548
  470TMC3    C5 6995   0.731   4.021   1.047  0.0699  0.4968  0.2628
  470TMC3    C6 6996   0.838   4.084   0.988 -0.5308 -0.1609  0.2411
  470TMC3     C 6997   0.519   4.306   1.153  0.3938 -0.0960  0.5751
  470TMC3     O 6998   0.527   4.424   1.132 -0.3616  0.0373 -0.8063
  470TMC3     H 6999   0.738   4.406   1.047  1.2869  0.0292  2.0477
  470TMC3    H1 7000   0.532   4.029   1.124 -0.1068 -1.5840 -0.9134
  470TMC3    H2 7001   0.923   4.042   0.936 -1.3251  0.0756 -1.2526
  470TMC3    C7 7002   0.740   3.873   1.046  0.5996  0.2186  0.4221
  470TMC3    C8 7003   0.918   4.303   0.899  0.1964 -0.2313  0.1707
  470TMC3    O1 7004   0.821   3.821   0.970 -0.2731  0.1345  0.2868
  470TMC3    O2 7005   0.857   4.389   0.843  0.4322  0.0297  0.1075
  471MPD2     C 7006   1.398   0.886  16.746 -0.0908  0.0772 -0.3663
  471MPD2    C1 7007   1.366   0.754  16.741  0.5960 -0.1585  0.1675
  471MPD2    C2 7008   1.416   0.669  16.832  1.3126 -0.2975 -0.0424
  471MPD2    C3 7009   1.508   0.713  16.923  0.0377  0.5112 -0.0894
  471MPD2    C4 7010   1.539   0.842  16.931  0.0122  0.7039 -0.3473
  471MPD2    C5 7011   1.485   0.931  16.841 -0.6715 -0.3931  0.4295
  471MPD2     H 7012   1.389   0.566  16.810 -0.6762 -0.2982  2.4170
  471MPD2    H1 7013   1.598   0.878  17.015  0.5027  0.7395 -0.7034
  471MPD2    H2 7014   1.357   0.953  16.672 -0.6760  1.1301  0.9160
  471MPD2    H3 7015   1.498   1.038  16.849  2.5964 -0.6954 -0.5998
  471MPD2     N 7016   1.551   0.616  17.020  0.4340  0.8834 -0.1960
  471MPD2    H5 7017   1.507   0.526  17.003  0.7001  0.1540  2.9453
  471MPD2    N1 7018   1.286   0.698  16.645 -0.0754 -0.2060  0.2187
  471MPD2    H7 7019   1.284   0.596  16.649 -0.2222 -0.2504 -0.8298
  472TMC3    C1 7020   1.194   0.642  16.438 -0.5419 -0.3560 -0.4653
  472TMC3    C2 7021   1.063   0.639  16.402 -0.3093 -0.9286  0.1380
  472TMC3    C3 7022   1.015   0.528  16.349  0.3323  0.1061  0.4087
  472TMC3    C4 7023   1.265   0.531  16.442  0.0384 -0.2644 -0.3414
  472TMC3    C5 7024   1.218   0.416  16.377 -0.1927  0.4700 -0.0900
  472TMC3    C6 7025   1.090   0.413  16.336 -0.5568  0.9474 -0.2080
  472TMC3     C 7026   1.234   0.750  16.527  0.2734  0.1698 -0.1778
  472TMC3     O 7027   1.208   0.863  16.489  0.3077  0.2591  0.7742
  472TMC3     H 7028   1.006   0.730  16.418  1.6063  0.6713 -2.1257
  472TMC3    H1 7029   1.370   0.527  16.468 -0.5134  0.9539  2.0083
  472TMC3    H2 7030   1.068   0.329  16.271  1.5180  0.6925 -0.5809
  472TMC3    C7 7031   1.249   0.301  16.459  0.2929  0.1608 -0.0157
  472TMC3    C8 7032   0.875   0.524  16.306 -0.3459  0.5421 -0.2722
  472TMC3    O1 7033   1.244   0.319  16.582  0.5223  0.1361 -0.8003
  472TMC3    O2 7034   0.814   0.625  16.265 -0.5324  0.3689 -0.4699
  473MPD2     C 7035   0.688   2.892  13.873 -0.0754 -0.7143 -0.1421
  473MPD2    C1 7036   0.631   2.981  13.789 -0.2924  0.0830 -0.3172
  473MPD2    C2 7037   0.590   3.099  13.845  0.7936  0.0223 -0.0343
  473MPD2    C3 7038   0.601   3.125  13.983 -0.6288 -0.0589 -0.0698
  473MPD2    C4 7039   0.640   3.017  14.068  0.0854  0.2091 -0.4054
  473MPD2    C5 7040   0.691   2.905  14.008 -0.0405  0.7532  0.1930
  473MPD2     H 7041   0.547   3.177  13.783  0.0957 -0.9963 -0.8275
  473MPD2    H1 7042   0.636   3.012  14.176  0.5937  0.7965 -0.3623
  473MPD2    H2 7043   0.734   2.799  13.841  0.4314 -0.3109 -0.5744
  473MPD2    H3 7044   0.733   2.819  14.058  2.0278  1.2798 -0.6300
  473MPD2     N 7045   0.573   3.254  14.044  0.4448 -0.0718 -0.3219
  473MPD2    H5 7046   0.590   3.259  14.144  2.1121  0.9293 -0.6486
  473MPD2    N1 7047   0.633   2.974  13.644 -0.5319 -0.6666 -0.5114
  473MPD2    H7 7048   0.627   3.059  13.588  1.4585 -0.5952 -0.6246
  474TMC3    C1 7049   0.525   3.474  14.089  0.3576 -1.0383 -0.3046
  474TMC3    C2 7050   0.544   3.605  14.050  0.4018  0.2173 -0.5889
  474TMC3    C3 7051   0.561   3.704  14.142  0.1519  0.6782  0.1701
  474TMC3    C4 7052   0.491   3.449  14.220  0.1041  0.1213  0.0162
  474TMC3    C5 7053   0.523   3.547  14.314 -0.2699  0.1638  0.3174
  474TMC3    C6 7054   0.553   3.675  14.277  0.6732  0.0334  0.0209
  474TMC3     C 7055   0.537   3.371  13.987  0.2967 -0.4436 -0.1427
  474TMC3     O 7056   0.505   3.405  13.872  0.2682 -0.0832  0.2025
  474TMC3     H 7057   0.571   3.627  13.947  1.2937 -0.9858 -0.6157
  474TMC3    H1 7058   0.470   3.347  14.251  1.3656 -0.0425  0.3357
  474TMC3    H2 7059   0.573   3.752  14.350 -1.0174  1.7458 -1.3133
  474TMC3    C7 7060   0.494   3.511  14.450 -0.1441 -0.0702 -0.3441
  474TMC3    C8 7061   0.568   3.846  14.109  0.2698 -0.1404 -0.5733
  474TMC3    O1 7062   0.438   3.408  14.469  0.1102 -0.3105 -0.8342
  474TMC3    O2 7063   0.587   3.918  14.207  0.4225 -0.2829 -0.1317
  475MPD2     C 7064   3.801   0.670  10.191  0.6083 -0.3209  0.4085
  475MPD2    C1 7065   3.878   0.781  10.224 -0.7214 -1.3299 -0.6361
  475MPD2    C2 7066   3.836   0.885  10.298  0.0130 -0.5470  0.2209
  475MPD2    C3 7067   3.701   0.887  10.326  0.6590 -0.1911 -0.0790
  475MPD2    C4 7068   3.613   0.785  10.297 -0.8183  0.0777 -0.0585
  475MPD2    C5 7069   3.667   0.676  10.234  0.6271 -0.5333 -0.0096
  475MPD2     H 7070   3.892   0.968  10.340  0.2967 -0.2851 -0.6777
  475MPD2    H1 7071   3.507   0.781  10.320 -1.2591  5.2166 -1.1690
  475MPD2    H2 7072   3.840   0.586  10.135 -1.4443 -0.7048 -0.4095
  475MPD2    H3 7073   3.600   0.594  10.212 -0.3463  0.2378  0.0746
  475MPD2     N 7074   3.658   1.005  10.392 -0.2237  0.6020  0.6730
  475MPD2    H5 7075   3.733   1.068  10.417  1.2488 -0.2307 -1.6291
  475MPD2    N1 7076   4.011   0.776  10.177  1.2292 -0.2784  0.0387
  475MPD2    H7 7077   4.048   0.686  10.149  0.4688 -0.5991  0.0681
  476TMC3    C1 7078   4.074   1.014  10.169  0.3044 -0.8557  0.6964
  476TMC3    C2 7079   3.972   1.056  10.094  0.2996 -0.1108  0.4039
  476TMC3    C3 7080   3.912   1.172  10.133  0.3684  0.2539  0.4789
  476TMC3    C4 7081   4.143   1.097  10.249 -0.1280  0.0312 -0.5675
  476TMC3    C5 7082   4.098   1.226  10.261  0.0623 -0.0879  0.0126
  476TMC3    C6 7083   3.976   1.261  10.211  0.0255  0.3477  0.2703
  476TMC3     C 7084   4.109   0.870  10.186 -0.4147  0.5043 -0.5647
  476TMC3     O 7085   4.227   0.840  10.193 -0.4911 -0.0319 -0.3093
  476TMC3     H 7086   3.931   0.982  10.026  1.8883  0.3008 -1.0023
  476TMC3    H1 7087   4.231   1.066  10.305 -1.0969  0.0833  0.9804
  476TMC3    H2 7088   3.925   1.353  10.237 -0.7862  0.2215 -0.8658
  476TMC3    C7 7089   4.175   1.319  10.338  0.2892 -0.2436 -0.2893
  476TMC3    C8 7090   3.777   1.190  10.090 -0.1924  0.7140  0.2226
  476TMC3    O1 7091   4.106   1.385  10.417  0.0520  0.0559  0.2520
  476TMC3    O2 7092   3.724   1.291  10.132 -0.1231  0.4811 -0.2915
  477MPD2     C 7093   1.810   2.794  11.546  0.2551  0.0686  0.0603
  477MPD2    C1 7094   1.704   2.768  11.626  0.4302 -0.1545 -1.0176
  477MPD2    C2 7095   1.708   2.661  11.706  0.2824 -0.4064 -0.7454
  477MPD2    C3 7096   1.819   2.581  11.719 -0.0288 -0.6127  0.1031
  477MPD2    C4 7097   1.928   2.603  11.639 -0.3331 -0.8559  0.0042
  477MPD2    C5 7098   1.922   2.712  11.551 -0.0655 -0.1123 -0.0082
  477MPD2     H 7099   1.620   2.638  11.766  0.0328 -0.6156 -1.1948
  477MPD2    H1 7100   2.019   2.543  11.639 -0.2121 -0.6762 -0.9824
  477MPD2    H2 7101   1.808   2.879  11.479  3.5291 -0.1451 -0.3428
  477MPD2    H3 7102   2.004   2.735  11.485  0.0515 -0.6987 -0.0680
  477MPD2     N 7103   1.828   2.465  11.791  0.0913 -0.4501  0.3644
  477MPD2    H5 7104   1.911   2.407  11.796  1.1840  1.2468  1.6649
  477MPD2    N1 7105   1.587   2.850  11.601  0.5166 -0.5135 -0.1816
  477MPD2    H7 7106   1.588   2.932  11.542 -1.1467 -0.8992 -0.7301
  478TMC3    C1 7107   1.352   2.888  11.582  0.6054  0.1325 -0.2815
  478TMC3    C2 7108   1.285   2.964  11.670 -0.6941 -0.1553 -0.1377
  478TMC3    C3 7109   1.239   3.084  11.623 -0.7919 -0.2644 -0.9309
  478TMC3    C4 7110   1.388   2.929  11.455  0.3377 -0.1369 -0.0169
  478TMC3    C5 7111   1.348   3.055  11.417  0.4676  0.2672  0.7674
  478TMC3    C6 7112   1.259   3.132  11.494 -0.4193 -0.9000  0.3909
  478TMC3     C 7113   1.457   2.809  11.650 -0.9840 -0.5567 -0.2464
  478TMC3     O 7114   1.421   2.736  11.743  0.0781 -0.4447 -0.5515
  478TMC3     H 7115   1.287   2.940  11.775 -0.0194  0.9843  0.1097
  478TMC3    H1 7116   1.458   2.874  11.393 -0.6082 -2.1850  0.7471
  478TMC3    H2 7117   1.250   3.238  11.473  1.5969 -0.7732  0.1325
  478TMC3    C7 7118   1.390   3.108  11.292 -0.1280  0.3517 -0.6165
  478TMC3    C8 7119   1.165   3.169  11.716 -0.0273 -0.5206 -0.0403
  478TMC3    O1 7120   1.505   3.087  11.263  0.0944  0.3156  0.8203
  478TMC3    O2 7121   1.157   3.116  11.826  0.4862  0.0150  0.2855
  479MPD2     C 7122   0.198   4.711  14.648 -0.0248 -0.7385  0.1818
  479MPD2    C1 7123   0.138   4.716  14.767 -0.6376 -0.2502 -0.4398
  479MPD2    C2 7124   0.206   0.038  14.872 -0.2082  0.0839  0.1309
  479MPD2    C3 7125   0.333   0.097  14.855 -0.6102 -0.6769  0.0600
  479MPD2    C4 7126   0.383   0.114  14.729 -0.5211  0.1008 -0.6170
  479MPD2    C5 7127   0.308   0.061  14.627  0.2819 -0.4848  0.2958
  479MPD2     H 7128   0.161   0.017  14.969 -0.2913  1.3811  0.3623
  479MPD2    H1 7129   0.470   0.176  14.709 -0.3183 -1.1282 -3.4895
  479MPD2    H2 7130   0.142   4.668  14.567 -0.9645 -4.1527  2.6437
  479MPD2    H3 7131   0.337   0.087  14.526 -0.1306  0.0520  0.3144
  479MPD2     N 7132   0.393   0.162  14.969 -0.1876 -0.1232  0.2739
  479MPD2    H5 7133   0.481   0.208  14.949  1.3505 -2.0485  2.5789
  479MPD2    N1 7134   0.013   4.654  14.774 -0.2656  0.4860  0.5228
  479MPD2    H7 7135   4.694   4.617  14.691 -1.1060  1.2488  0.6471
  480TMC3    C1 7136   0.482   0.246  15.420  0.6210  0.0480  0.2998
  480TMC3    C2 7137   0.523   0.379  15.396 -0.6813  0.2035 -0.4536
  480TMC3    C3 7138   0.534   0.415  15.261  0.5795  0.6444 -0.0698
  480TMC3    C4 7139   0.446   0.165  15.315  0.8092  0.6177  0.0469
  480TMC3    C5 7140   0.456   0.203  15.186 -0.5482  0.3410  0.2450
  480TMC3    C6 7141   0.504   0.329  15.158  0.3405  0.1208 -0.5407
  480TMC3     C 7142   0.480   0.189  15.550  0.1194  0.1478  0.4966
  480TMC3     O 7143   0.407   0.096  15.575 -0.4102  0.7413 -0.1445
  480TMC3     H 7144   0.551   0.457  15.466  0.1764 -1.6242  1.2575
  480TMC3    H1 7145   0.409   0.064  15.329  1.8513  0.2803  0.3405
  480TMC3    H2 7146   0.469   0.364  15.061 -0.4163 -0.0525 -0.3251
  480TMC3    C7 7147   0.352   0.156  15.098 -0.1191 -0.5542 -1.1299
  480TMC3    C8 7148   0.531   0.556  15.231  0.3164  0.1528  0.2545
  480TMC3    O1 7149   0.249   0.116  15.150  0.1075  0.3395  0.7557
  480TMC3    O2 7150   0.503   0.637  15.321  0.1543  0.4841  0.1313
  481MPD2     C 7151   2.221   4.274  14.115  0.1207  0.1388  0.6215
  481MPD2    C1 7152   2.094   4.218  14.117 -0.1209  0.0622 -0.0201
  481MPD2    C2 7153   2.055   4.134  14.215 -0.1497 -0.0225  0.2429
  481MPD2    C3 7154   2.141   4.111  14.323  0.0294 -0.8359  0.1716
  481MPD2    C4 7155   2.257   4.183  14.334 -0.3939 -0.3778  0.5604
  481MPD2    C5 7156   2.299   4.255  14.226 -0.0078 -0.2183  0.1643
  481MPD2     H 7157   1.965   4.075  14.202 -1.2692  1.5184  0.9542
  481MPD2    H1 7158   2.328   4.168  14.415  0.0321 -0.3404  0.1964
  481MPD2    H2 7159   2.250   4.340  14.034  0.8362 -2.3799 -1.1515
  481MPD2    H3 7160   2.398   4.297  14.233 -0.1455  0.2146 -0.5209
  481MPD2     N 7161   2.112   4.034  14.435 -0.1733 -0.2705  0.0990
  481MPD2    H5 7162   2.167   4.060  14.516 -0.2150 -1.0290  0.3646
  481MPD2    N1 7163   2.010   4.272  14.011 -0.1026  0.2445  0.0630
  481MPD2    H7 7164   2.045   4.333  13.939 -0.0491  1.2178  0.9135
  482TMC3    C1 7165   1.807   4.290  13.880 -0.0706 -0.5967 -1.3392
  482TMC3    C2 7166   1.696   4.213  13.843 -0.2582 -0.0044  0.3189
  482TMC3    C3 7167   1.638   4.243  13.727  0.4771  0.4988  0.3702
  482TMC3    C4 7168   1.855   4.385  13.797  0.1180 -0.3792  0.4377
  482TMC3    C5 7169   1.794   4.402  13.679 -0.2040  0.0523 -0.0512
  482TMC3    C6 7170   1.682   4.337  13.641  0.2215 -0.0067 -0.0347
  482TMC3     C 7171   1.869   4.253  14.012  0.1998  0.3405  0.3807
  482TMC3     O 7172   1.802   4.178  14.079  0.4464  0.3163  0.0885
  482TMC3     H 7173   1.650   4.138  13.906 -1.7423  1.3891  0.8768
  482TMC3    H1 7174   1.954   4.428  13.809  0.0424 -0.5366  1.6144
  482TMC3    H2 7175   1.628   4.352  13.548  0.2052 -0.0661 -0.0346
  482TMC3    C7 7176   1.853   4.506  13.594 -0.1761  0.1676  0.1491
  482TMC3    C8 7177   1.535   4.162  13.678 -0.7038 -0.0033  0.1450
  482TMC3    O1 7178   1.943   4.577  13.640 -0.5706  0.3360 -0.8665
  482TMC3    O2 7179   1.551   4.039  13.684  0.0325 -0.1828  0.7353
  483TMC3    C1 7180   4.636   3.296   1.112 -0.3555  0.6960  0.6897
  483TMC3    C2 7181   4.670   3.429   1.109 -0.1591 -0.2489 -0.0459
  483TMC3    C3 7182   0.072   3.462   1.137  1.3062  0.3699  0.3957
  483TMC3    C4 7183   4.723   3.193   1.115 -0.4354  0.5426  0.0399
  483TMC3    C5 7184   0.124   3.236   1.141  0.7496  0.2984  0.7638
  483TMC3    C6 7185   0.164   3.362   1.147 -0.4658  0.0742 -0.4170
  483TMC3     C 7186   4.499   3.279   1.057 -0.2733 -0.9392  0.8271
  483TMC3     O 7187   4.431   3.378   1.039 -0.5903 -0.2274  0.1541
  483TMC3     H 7188   4.596   3.507   1.102 -1.1095 -1.0060  1.6261
  483TMC3    H1 7189   4.693   3.089   1.113 -0.2675  0.5063 -0.4735
  483TMC3    H2 7190   0.267   3.393   1.158 -0.3080 -0.3068 -0.8023
  483TMC3    C7 7191   0.233   3.146   1.136  0.2929  0.1281 -0.2133
  483TMC3    C8 7192   0.122   3.602   1.134  0.6761  0.2458 -0.5088
  483TMC3    O1 7193   0.320   3.166   1.215 -0.6754  0.3386 -0.0346
  483TMC3    O2 7194   0.044   3.685   1.181 -0.5799 -0.3562  0.0862
  484MPD2     C 7195   2.437   1.581  12.246 -0.2233  0.5749  0.0074
  484MPD2    C1 7196   2.485   1.536  12.366  0.4186  0.0849 -0.1587
  484MPD2    C2 7197   2.622   1.554  12.393 -0.2474  0.0862 -0.2760
  484MPD2    C3 7198   2.709   1.608  12.298  0.2218  0.3166  0.1876
  484MPD2    C4 7199   2.661   1.656  12.179 -0.6567  0.3223  0.0169
  484MPD2    C5 7200   2.527   1.648  12.160  0.0174 -0.2637  0.0650
  484MPD2     H 7201   2.661   1.531  12.491 -1.6029 -1.5361 -0.1162
  484MPD2    H1 7202   2.730   1.703  12.110 -2.6543  0.7776 -1.6597
  484MPD2    H2 7203   2.333   1.577  12.218  0.0050  0.1343 -0.7786
  484MPD2    H3 7204   2.494   1.681  12.062 -0.0374 -1.6705 -0.4011
  484MPD2     N 7205   2.847   1.625  12.319  0.0330  0.6436 -0.2019
  484MPD2    H5 7206   2.900   1.678  12.251  1.4504 -1.6577 -0.8785
  484MPD2    N1 7207   2.396   1.473  12.455 -0.8447 -0.2338 -0.1169
  484MPD2    H7 7208   2.300   1.482  12.423 -0.7005 -2.5786 -1.1544
  485TMC3    C1 7209   3.061   1.594  12.417 -0.7351  0.2752 -0.5483
  485TMC3    C2 7210   3.135   1.481  12.449 -0.3962 -0.4926  0.5675
  485TMC3    C3 7211   3.273   1.501  12.441 -0.8034 -0.1966  0.4569
  485TMC3    C4 7212   3.118   1.709  12.371  0.0278  0.7590  0.5629
  485TMC3    C5 7213   3.252   1.731  12.380  0.1937  0.5851  0.4903
  485TMC3    C6 7214   3.332   1.626  12.421 -0.2063  0.7608 -0.1747
  485TMC3     C 7215   2.920   1.578  12.426  0.2711  0.7440  0.8632
  485TMC3     O 7216   2.882   1.503  12.516  0.2212 -0.3644 -0.2249
  485TMC3     H 7217   3.089   1.389  12.483  1.2175 -1.5675 -0.1808
  485TMC3    H1 7218   3.060   1.795  12.341 -2.2145 -1.0396 -0.2875
  485TMC3    H2 7219   3.440   1.637  12.429  0.2643 -3.7813 -0.3000
  485TMC3    C7 7220   3.300   1.797  12.259 -0.4431 -0.0743  0.2641
  485TMC3    C8 7221   3.331   1.416  12.341  0.0048  0.3137  0.7695
  485TMC3    O1 7222   3.218   1.851  12.185 -0.2017 -0.3814 -0.2745
  485TMC3    O2 7223   3.399   1.478  12.261 -0.0006  0.3307  0.7149
  486MPD2     C 7224   0.481   0.505  12.606 -0.4229 -0.5514  0.5360
  486MPD2    C1 7225   0.373   0.414  12.597 -0.2736 -0.4640 -0.2526
  486MPD2    C2 7226   0.243   0.470  12.588 -0.1761 -0.0299 -0.6085
  486MPD2    C3 7227   0.220   0.602  12.616  1.0549  0.8820 -0.8409
  486MPD2    C4 7228   0.325   0.688  12.624  0.7219  0.2322  0.9257
  486MPD2    C5 7229   0.452   0.637  12.627 -0.3481 -0.3836 -0.4982
  486MPD2     H 7230   0.155   0.410  12.573 -0.8724  1.2183 -1.5409
  486MPD2    H1 7231   0.320   0.794  12.642 -1.0861 -0.2153  2.9704
  486MPD2    H2 7232   0.582   0.468  12.596  0.0059  1.1349 -1.4862
  486MPD2    H3 7233   0.534   0.707  12.643 -0.2426 -0.2121 -1.8014
  486MPD2     N 7234   0.088   0.644  12.625  0.0840  0.4389  0.2469
  486MPD2    H5 7235   0.015   0.573  12.619 -2.2018  2.6868  1.3679
  486MPD2    N1 7236   0.401   0.277  12.577  0.1020 -0.1029 -0.9688
  486MPD2    H7 7237   0.494   0.241  12.558  0.1030 -1.3627  1.3704
  487TMC3    C1 7238   0.361   0.063  12.506  0.5355  0.2073  0.4820
  487TMC3    C2 7239   0.272   4.725  12.426 -0.3126 -0.8374  0.2590
  487TMC3    C3 7240   0.324   4.608  12.368 -0.0414  0.7535  0.1478
  487TMC3    C4 7241   0.485   0.017  12.541 -0.6141  0.1890  0.4325
  487TMC3    C5 7242   0.512   4.612  12.502 -0.2034  0.1583  0.3762
  487TMC3    C6 7243   0.453   4.559  12.389  0.1679 -0.0461  0.1699
  487TMC3     C 7244   0.308   0.179  12.567  0.1534  0.4638  0.1445
  487TMC3     O 7245   0.190   0.192  12.583  0.3140  0.1757 -0.0304
  487TMC3     H 7246   0.168   0.023  12.409  0.2340  0.9274 -0.5658
  487TMC3    H1 7247   0.539   0.057  12.626 -1.7705 -1.3069  1.8681
  487TMC3    H2 7248   0.451   4.454  12.364 -1.2921 -0.5424  2.3501
  487TMC3    C7 7249   0.533   4.528  12.624 -0.0369  0.9602  0.1536
  487TMC3    C8 7250   0.229   4.506  12.345 -0.1019  0.6339 -0.0470
  487TMC3    O1 7251   0.571   4.586  12.727  0.3042  0.3747  0.0237
  487TMC3    O2 7252   0.245   4.443  12.245 -0.1685 -0.0329 -0.0636
  488MPD2     C 7253   0.424   1.993  16.847  0.1262 -0.4841  0.1846
  488MPD2    C1 7254   0.372   2.121  16.876 -0.0683 -1.3433  0.3879
  488MPD2    C2 7255   0.275   2.143  16.972  0.4005  0.2721  0.3823
  488MPD2    C3 7256   0.240   2.040  17.050  0.4390 -0.0494 -0.8769
  488MPD2    C4 7257   0.297   1.915  17.033 -0.5174  0.0053 -0.5966
  488MPD2    C5 7258   0.386   1.895  16.932 -0.6179  0.7702  0.2059
  488MPD2     H 7259   0.241   2.244  16.989  2.8800  1.2111 -0.2333
  488MPD2    H1 7260   0.278   1.827  17.093  2.7924 -0.7643 -0.6737
  488MPD2    H2 7261   0.496   1.978  16.768 -1.2972 -1.3465 -0.9663
  488MPD2    H3 7262   0.436   1.800  16.923 -0.2989  0.8093  1.4682
  488MPD2     N 7263   0.147   2.065  17.151  0.3676 -0.1936  0.1357
  488MPD2    H5 7264   0.107   2.158  17.159  1.7802  0.3562  0.8849
  488MPD2    N1 7265   0.415   2.236  16.805  0.8862  0.1875  0.7533
  488MPD2    H7 7266   0.384   2.325  16.843  2.0551  1.0654 -0.3370
  489TMC3    C1 7267   4.704   2.031  17.313  0.3015 -0.5595 -0.1266
  489TMC3    C2 7268   4.686   2.169  17.295 -0.0095 -0.2481  0.3580
  489TMC3    C3 7269   4.649   2.241  17.404  0.1184  0.3364 -0.4122
  489TMC3    C4 7270   4.697   1.973  17.432 -0.1720  0.3370 -0.0020
  489TMC3    C5 7271   4.666   2.054  17.536 -0.1513 -0.0445  0.0430
  489TMC3    C6 7272   4.631   2.183  17.530 -0.2569  0.5481  0.0754
  489TMC3     C 7273   0.085   1.977  17.236 -0.3067 -0.0490  0.4580
  489TMC3     O 7274   0.125   1.861  17.262 -0.4934 -0.1647  0.3497
  489TMC3     H 7275   4.685   2.223  17.201  0.5339 -0.1350  0.4175
  489TMC3    H1 7276   4.712   1.867  17.448 -3.3358 -0.4533 -2.2221
  489TMC3    H2 7277   4.614   2.237  17.622 -0.2939  1.3766 -0.4139
  489TMC3    C7 7278   4.666   1.993  17.667 -0.1986 -0.0108 -0.1337
  489TMC3    C8 7279   4.688   2.383  17.386 -0.3151 -0.0418 -0.1639
  489TMC3    O1 7280   4.589   2.026   0.049 -0.6958 -0.2051  0.1700
  489TMC3    O2 7281   0.037   2.406  17.293  0.0578 -0.2141  0.8421
  490MPD2     C 7282   1.022   1.397  17.150  0.0638 -0.5823 -0.5520
  490MPD2    C1 7283   1.061   1.281  17.205 -0.3505  0.4616 -0.9697
  490MPD2    C2 7284   1.086   1.277  17.341 -0.0123  0.3972  0.3044
  490MPD2    C3 7285   1.079   1.396  17.417 -0.7827 -0.7709 -0.2208
  490MPD2    C4 7286   1.043   1.518  17.361  0.1785 -0.2038 -0.5710
  490MPD2    C5 7287   1.012   1.517  17.225 -0.1851  0.4809 -0.1194
  490MPD2     H 7288   1.129   1.184  17.374  0.2712 -0.0247 -1.2474
  490MPD2    H1 7289   1.041   1.619  17.401  0.2429 -0.5764  0.3673
  490MPD2    H2 7290   0.995   1.404  17.045 -1.5317 -0.6311 -0.1417
  490MPD2    H3 7291   0.973   1.601  17.170 -0.1985 -0.7740 -2.0505
  490MPD2     N 7292   1.129   1.393  17.551 -0.5350  0.3116  0.1832
  490MPD2    H5 7293   1.161   1.304  17.587 -1.0282  0.2661  0.5152
  490MPD2    N1 7294   1.094   1.168  17.133  0.4556 -0.2112  0.1794
  490MPD2    H7 7295   1.116   1.086  17.189 -0.3670  0.4606  1.5124
  491TMC3    C1 7296   1.108   1.012  16.955  0.2878  0.0441 -0.0458
  491TMC3    C2 7297   1.167   0.926  17.046 -0.2043 -0.0998 -0.0161
  491TMC3    C3 7298   1.132   0.794  17.040 -0.0021  0.1843 -0.3406
  491TMC3    C4 7299   1.034   0.964  16.853 -0.7018 -0.8187  0.1975
  491TMC3    C5 7300   1.015   0.829  16.836  0.2110  0.2314 -0.1572
  491TMC3    C6 7301   1.065   0.740  16.931 -0.5213 -0.0774  0.0773
  491TMC3     C 7302   1.076   1.148  16.999  0.4675 -1.0467  0.1524
  491TMC3     O 7303   1.036   1.229  16.914  0.4614  0.6449  0.9084
  491TMC3     H 7304   1.240   0.965  17.117 -0.0465 -0.8642  0.2417
  491TMC3    H1 7305   0.989   1.025  16.774  0.5994 -2.1198 -1.5463
  491TMC3    H2 7306   1.039   0.635  16.927  3.0587 -1.0105  1.3963
  491TMC3    C7 7307   0.929   0.778  16.732 -0.0395 -0.6895 -0.1011
  491TMC3    C8 7308   1.114   0.720  17.168 -0.6746 -0.0990 -0.1278
  491TMC3    O1 7309   0.878   0.850  16.650  1.0306  0.2720  0.1753
  491TMC3    O2 7310   1.052   0.615  17.159 -0.2803 -0.6475 -0.3661
  492MPD2     C 7311   1.541   1.640  11.280  0.2279  0.1997  0.2334
  492MPD2    C1 7312   1.456   1.561  11.202  0.1382  0.1049  0.3540
  492MPD2    C2 7313   1.402   1.441  11.254  0.6028 -0.2101 -0.6249
  492MPD2    C3 7314   1.427   1.411  11.383 -0.8143 -0.4419 -0.1320
  492MPD2    C4 7315   1.507   1.493  11.461 -0.7772 -0.1928  0.3239
  492MPD2    C5 7316   1.561   1.615  11.415  0.4268  0.6782  0.2901
  492MPD2     H 7317   1.361   1.368  11.185  1.2184 -0.5796 -0.5979
  492MPD2    H1 7318   1.527   1.464  11.563  1.4803  0.8507  0.1625
  492MPD2    H2 7319   1.579   1.734  11.241 -0.7542  0.2113 -0.7285
  492MPD2    H3 7320   1.616   1.685  11.477  1.9151  0.2147 -0.4928
  492MPD2     N 7321   1.367   1.301  11.449  0.3271 -0.3982 -0.4536
  492MPD2    H5 7322   1.388   1.288  11.547  0.2051  0.5493 -0.3004
  492MPD2    N1 7323   1.436   1.600  11.068 -0.0553  0.3852  0.5127
  492MPD2    H7 7324   1.485   1.682  11.033  0.3771 -0.3004 -0.4994
  493TMC3    C1 7325   1.345   1.601  10.851 -0.1522  0.3357  0.1211
  493TMC3    C2 7326   1.342   1.735  10.852 -0.4223  0.2515  0.1068
  493TMC3    C3 7327   1.288   1.803  10.752 -0.2376  0.3032  0.9353
  493TMC3    C4 7328   1.285   1.538  10.744 -0.5896 -0.6976  0.1595
  493TMC3    C5 7329   1.227   1.605  10.645  0.1629 -1.1541  0.3824
  493TMC3    C6 7330   1.227   1.744  10.640 -0.0778 -0.6483  0.0573
  493TMC3     C 7331   1.353   1.529  10.976 -0.1004 -0.2994 -0.0289
  493TMC3     O 7332   1.281   1.431  10.985  0.3291  0.6920  0.2720
  493TMC3     H 7333   1.385   1.792  10.933 -0.1711  0.9855 -0.5362
  493TMC3    H1 7334   1.320   1.438  10.725 -0.5439 -0.9449  1.5254
  493TMC3    H2 7335   1.165   1.796  10.567  0.7583 -0.0191 -0.2145
  493TMC3    C7 7336   1.118   1.527  10.595  0.7165 -0.4172 -0.4155
  493TMC3    C8 7337   1.264   1.942  10.783 -0.0974  0.3160  0.2496
  493TMC3    O1 7338   1.076   1.556  10.485  0.1588 -0.2928 -0.1745
  493TMC3    O2 7339   1.246   1.960  10.901  0.6738  0.1271 -0.2710
  494TMC3    C1 7340   2.168   3.382   0.633 -0.1457  0.1750 -0.6734
  494TMC3    C2 7341   2.200   3.250   0.611 -0.2106 -0.7714  0.2623
  494TMC3    C3 7342   2.217   3.202   0.485 -0.5796 -0.4714 -0.2404
  494TMC3    C4 7343   2.153   3.467   0.526  0.7370  0.0278 -0.0266
  494TMC3    C5 7344   2.189   3.419   0.401 -0.0698 -0.1722  0.1502
  494TMC3    C6 7345   2.218   3.283   0.380  0.2036 -0.3041  0.1645
  494TMC3     C 7346   2.126   3.410   0.765 -0.3558  0.3496 -1.1063
  494TMC3     O 7347   2.113   3.321   0.848 -0.8521 -0.0561 -0.4608
  494TMC3     H 7348   2.224   3.182   0.692 -0.5349 -1.6812 -0.4045
  494TMC3    H1 7349   2.098   3.560   0.539  2.1944  0.8058  0.5859
  494TMC3    H2 7350   2.239   3.247   0.280 -0.5059 -0.8081  0.1979
  494TMC3    C7 7351   2.186   3.500   0.285 -0.1353  0.3360  0.4748
  494TMC3    C8 7352   2.297   3.081   0.472  0.4022  0.2279 -0.1468
  494TMC3    O1 7353   2.168   3.448   0.176 -0.3390 -0.4038 -0.1311
  494TMC3    O2 7354   2.381   3.062   0.553  0.6331 -0.2286 -0.7579
  495TMC3    C1 7355   0.544   0.553  14.226 -0.4361 -0.5983  0.5385
  495TMC3    C2 7356   0.422   0.584  14.178  0.3901  0.2513  0.4745
  495TMC3    C3 7357   0.328   0.628  14.272 -0.3356 -0.1699  0.6877
  495TMC3    C4 7358   0.581   0.590  14.355  0.0603  0.0916  0.0003
  495TMC3    C5 7359   0.493   0.653  14.435 -0.2033  0.3083 -0.2724
  495TMC3    C6 7360   0.362   0.668  14.397 -0.1157 -0.6476 -0.2015
  495TMC3     C 7361   0.552   0.405  14.217  0.6128 -0.9617  0.4563
  495TMC3     O 7362   0.459   0.351  14.157 -0.0135 -0.2230  0.0234
  495TMC3     H 7363   0.393   0.558  14.076  0.5224  0.7607  0.3081
  495TMC3    H1 7364   0.680   0.582  14.397  0.2399 -0.2398 -0.4851
  495TMC3    H2 7365   0.288   0.710  14.463 -0.1137 -0.3647 -0.3816
  495TMC3    C7 7366   0.529   0.647  14.578 -0.4055 -0.6985 -0.3904
  495TMC3    C8 7367   0.196   0.569  14.262  0.2847  0.1203 -0.3751
  495TMC3    O1 7368   0.606   0.555  14.611 -0.5374 -0.6250 -0.2044
  495TMC3    O2 7369   0.105   0.611  14.329  0.0247 -0.7524 -0.1731
  496MPD2     C 7370   2.324   0.620  15.352 -0.1897  0.6665  0.0783
  496MPD2    C1 7371   2.439   0.637  15.428 -0.4372 -0.6920 -0.4702
  496MPD2    C2 7372   2.440   0.708  15.545 -0.6535 -0.6208 -1.0045
  496MPD2    C3 7373   2.315   0.747  15.601  0.0495 -0.0174 -0.1539
  496MPD2    C4 7374   2.199   0.729  15.532 -0.4730 -0.3018 -0.2849
  496MPD2    C5 7375   2.201   0.666  15.406  0.4333 -0.9550 -0.2452
  496MPD2     H 7376   2.536   0.735  15.589 -1.7915 -0.3251  1.3026
  496MPD2    H1 7377   2.101   0.761  15.566 -0.3381 -0.9122  0.6643
  496MPD2    H2 7378   2.339   0.573  15.255  1.5858  1.0290  0.1753
  496MPD2    H3 7379   2.106   0.661  15.356  0.2972 -0.6042 -0.0200
  496MPD2     N 7380   2.309   0.809  15.728 -1.0010  0.6270 -0.0678
  496MPD2    H5 7381   2.212   0.817  15.759 -1.4007 -0.2110 -1.0654
  496MPD2    N1 7382   2.559   0.595  15.363  0.1463 -0.5885  0.2312
  496MPD2    H7 7383   2.561   0.555  15.270 -1.7364 -0.9177  0.3269
  497TMC3    C1 7384   2.355   0.874  15.959  0.1008 -0.5677 -0.1598
  497TMC3    C2 7385   2.223   0.868  15.988 -0.2466  0.5133 -0.0843
  497TMC3    C3 7386   2.177   0.885  16.116 -0.3612  0.1665 -0.0950
  497TMC3    C4 7387   2.453   0.898  16.055 -0.3650 -0.0610 -0.4527
  497TMC3    C5 7388   2.401   0.923  16.183  0.0849  0.4260 -0.8046
  497TMC3    C6 7389   2.264   0.924  16.214 -0.2678 -0.0973 -0.4782
  497TMC3     C 7390   2.403   0.828  15.825 -0.3138  0.3276  0.3754
  497TMC3     O 7391   2.527   0.813  15.813 -0.2643  0.2322 -0.2779
  497TMC3     H 7392   2.153   0.839  15.911  2.3661 -2.0168 -1.5123
  497TMC3    H1 7393   2.556   0.892  16.024  0.0878  0.7536  0.8879
  497TMC3    H2 7394   2.228   0.925  16.316  2.7652 -0.5517  0.6066
  497TMC3    C7 7395   2.491   0.934  16.299  0.0514 -0.4515 -0.3740
  497TMC3    C8 7396   2.037   0.921  16.139 -0.8046 -0.6055  0.8111
  497TMC3    O1 7397   2.431   0.930  16.405 -0.1513  0.3801 -0.2195
  497TMC3    O2 7398   1.985   0.990  16.052  0.2688 -0.6200  0.0285
  498MPD2     C 7399   3.026   1.232   9.357  0.1462  0.3187 -0.2600
  498MPD2    C1 7400   3.121   1.171   9.437 -0.4571  0.1350  0.8374
  498MPD2    C2 7401   3.082   1.066   9.516 -0.1163 -0.4624 -0.2522
  498MPD2    C3 7402   2.958   1.012   9.515 -0.5988 -0.4590 -0.1522
  498MPD2    C4 7403   2.865   1.077   9.431 -0.3611  0.3108 -0.8868
  498MPD2    C5 7404   2.899   1.176   9.350  0.2070 -0.3771  0.4580
  498MPD2     H 7405   3.159   1.023   9.580  2.8528  1.1313 -2.7756
  498MPD2    H1 7406   2.763   1.038   9.428 -0.1252 -0.3632 -0.0840
  498MPD2    H2 7407   3.046   1.324   9.303 -0.0346  1.1615  1.0988
  498MPD2    H3 7408   2.824   1.235   9.298 -0.8007 -1.2115  0.9519
  498MPD2     N 7409   2.941   0.907   9.605  0.0787  0.4345 -0.0521
  498MPD2    H5 7410   3.024   0.878   9.655 -0.6437 -0.1092  0.8461
  498MPD2    N1 7411   3.257   1.219   9.442 -0.8832 -0.4461  0.9350
  498MPD2    H7 7412   3.279   1.300   9.385 -0.9297 -0.2750  1.1600
  499TMC3    C1 7413   3.482   1.251   9.528 -0.2176 -0.5509 -0.2361
  499TMC3    C2 7414   3.588   1.181   9.584  0.0212 -0.2120  0.3999
  499TMC3    C3 7415   3.676   1.243   9.668 -0.4098 -0.2449  0.4983
  499TMC3    C4 7416   3.471   1.386   9.563  0.1295 -0.5719 -0.1287
  499TMC3    C5 7417   3.557   1.450   9.653  0.1837 -0.5021 -0.2385
  499TMC3    C6 7418   3.663   1.378   9.699  0.3890 -0.1610  0.4042
  499TMC3     C 7419   3.370   1.165   9.505  0.5200  0.2545  0.5380
  499TMC3     O 7420   3.394   1.046   9.531  0.3157 -0.7308  0.6381
  499TMC3     H 7421   3.605   1.082   9.542 -1.4006 -0.6901  0.9219
  499TMC3    H1 7422   3.385   1.437   9.519  1.1533 -0.3504 -1.8787
  499TMC3    H2 7423   3.738   1.425   9.761  0.5116  1.1305 -0.7387
  499TMC3    C7 7424   3.570   1.589   9.635  0.1133 -0.2839 -0.1559
  499TMC3    C8 7425   3.797   1.170   9.714  0.6251 -0.6269 -0.1929
  499TMC3    O1 7426   3.517   1.631   9.530 -0.5278 -0.5793 -0.4861
  499TMC3    O2 7427   3.889   1.239   9.744  0.2102  0.5978 -0.2102
  500MPD2     C 7428   0.264   2.323  10.423 -0.2854 -0.3063 -0.8477
  500MPD2    C1 7429   0.289   2.450  10.380 -0.0831  0.0447 -0.3851
  500MPD2    C2 7430   0.207   2.499  10.286 -0.4048  0.3531 -0.0607
  500MPD2    C3 7431   0.099   2.427  10.243 -0.4176 -0.3185 -0.5450
  500MPD2    C4 7432   0.075   2.295  10.289 -0.1896  0.8660 -0.2195
  500MPD2    C5 7433   0.162   2.248  10.374 -0.9143  0.1832  0.0614
  500MPD2     H 7434   0.219   2.603  10.260  1.0862  0.4213  0.8703
  500MPD2    H1 7435   4.710   2.241  10.268  1.2136 -1.4565 -0.3584
  500MPD2    H2 7436   0.338   2.277  10.488  1.3778  1.5252 -1.4312
  500MPD2    H3 7437   0.156   2.148  10.415  3.0443  0.6301  1.7321
  500MPD2     N 7438   0.001   2.487  10.157  0.1074 -0.3365  0.0064
  500MPD2    H5 7439   4.641   2.434  10.150 -0.5619  0.6401  0.9204
  500MPD2    N1 7440   0.395   2.529  10.424  0.6554 -0.0463 -0.4814
  500MPD2    H7 7441   0.432   2.598  10.359  0.2266  1.6901  1.1113
  501TMC3    C1 7442   0.577   2.589  10.565 -0.0002 -0.2457  0.1573
  501TMC3    C2 7443   0.570   2.725  10.532  0.8605 -0.1046  0.1139
  501TMC3    C3 7444   0.653   2.818  10.596  0.6295 -0.2816  0.3076
  501TMC3    C4 7445   0.661   2.556  10.664 -0.1660 -0.6791 -0.1276
  501TMC3    C5 7446   0.741   2.653  10.720 -0.5565 -1.0730 -0.6254
  501TMC3    C6 7447   0.744   2.781  10.687 -0.2007  0.5531 -0.1239
  501TMC3     C 7448   0.461   2.509  10.546 -0.4894 -0.1757 -0.4374
  501TMC3     O 7449   0.439   2.429  10.631  0.3707  0.2440  0.4541
  501TMC3     H 7450   0.492   2.762  10.467 -0.5796 -2.6303  0.4225
  501TMC3    H1 7451   0.654   2.457  10.708  0.7839 -0.2563  0.9819
  501TMC3    H2 7452   0.822   2.852  10.714  0.1184 -0.5559  1.8960
  501TMC3    C7 7453   0.844   2.609  10.820  0.3728  0.4560  0.1667
  501TMC3    C8 7454   0.677   2.944  10.529  0.1226 -0.5036  0.3593
  501TMC3    O1 7455   0.827   2.495  10.857 -0.6996  0.0315  0.1051
  501TMC3    O2 7456   0.796   2.970  10.510  0.2118  0.7154  0.3667
  502TMC3    C1 7457   3.965   1.124  15.382  0.0423 -0.1112  0.3198
  502TMC3    C2 7458   4.024   1.107  15.262  0.4355  0.1222  0.2817
  502TMC3    C3 7459   3.948   1.148  15.155 -0.4220 -1.1934 -0.0340
  502TMC3    C4 7460   3.847   1.186  15.408  0.0769 -0.4547 -0.3122
  502TMC3    C5 7461   3.777   1.234  15.301 -0.1483  0.0802 -0.5631
  502TMC3    C6 7462   3.825   1.212  15.171 -0.4275 -0.0734  0.4305
  502TMC3     C 7463   4.054   1.122  15.495 -0.6434  0.9509 -0.0159
  502TMC3     O 7464   4.004   1.070  15.596 -0.5341  0.0792 -0.6456
  502TMC3     H 7465   4.108   1.039  15.250 -0.0460 -0.3495 -0.4243
  502TMC3    H1 7466   3.804   1.172  15.506  2.1284  1.0284  0.8028
  502TMC3    H2 7467   3.766   1.244  15.086 -0.6421 -1.5998  0.0218
  502TMC3    C7 7468   3.636   1.273  15.319  0.2307  0.0165  0.0497
  502TMC3    C8 7469   4.045   1.225  15.073 -0.5996  0.7643  0.3411
  502TMC3    O1 7470   3.558   1.248  15.228 -0.2989 -0.5517 -0.7958
  502TMC3    O2 7471   4.025   1.347  15.077 -0.3063  0.1203  0.0949
  503MPD2     C 7472   2.260   2.359  16.492  0.1245  0.0443 -0.1001
  503MPD2    C1 7473   2.225   2.335  16.619  0.3277  0.0725 -0.3208
  503MPD2    C2 7474   2.294   2.239  16.693  0.1709  0.1425  0.5318
  503MPD2    C3 7475   2.389   2.159  16.631  0.8940  0.8156 -0.2997
  503MPD2    C4 7476   2.417   2.178  16.499  0.7201 -0.4238 -0.8428
  503MPD2    C5 7477   2.350   2.277  16.432 -0.1280  0.1125  0.3339
  503MPD2     H 7478   2.261   2.205  16.790 -0.8645  1.4791  0.6431
  503MPD2    H1 7479   2.484   2.111  16.447  0.7407 -2.1015  1.3292
  503MPD2    H2 7480   2.224   2.448  16.442 -0.5060 -0.3203 -0.3064
  503MPD2    H3 7481   2.362   2.279  16.324 -1.9522  1.8269  0.1799
  503MPD2     N 7482   2.463   2.064  16.720 -0.1172  0.1788 -0.1003
  503MPD2    H5 7483   2.438   2.073  16.818  0.6959  3.5346 -0.1975
  503MPD2    N1 7484   2.141   2.422  16.691  0.5521 -0.4173  0.4346
  503MPD2    H7 7485   2.150   2.413  16.792  1.4573  1.5928  0.5381
  504TMC3    C1 7486   2.615   1.888  16.776 -0.1247 -0.1161  0.3021
  504TMC3    C2 7487   2.549   1.875  16.897  0.9298 -0.4942  0.4767
  504TMC3    C3 7488   2.617   1.793  16.989  0.4345 -0.6060  0.4201
  504TMC3    C4 7489   2.733   1.825  16.756  0.1679  0.5100  0.3307
  504TMC3    C5 7490   2.789   1.747  16.846 -0.9591 -0.5661 -0.2933
  504TMC3    C6 7491   2.727   1.711  16.962 -0.2762  0.7687 -0.4445
  504TMC3     C 7492   2.567   1.983  16.681 -0.5932  0.2185 -0.0128
  504TMC3     O 7493   2.634   1.989  16.580 -0.6689 -0.3572  0.2589
  504TMC3     H 7494   2.452   1.917  16.919  1.3913  0.5425  0.5400
  504TMC3    H1 7495   2.782   1.836  16.660 -0.0444  0.7609  0.2501
  504TMC3    H2 7496   2.771   1.649  17.039  2.4170  3.1295 -0.0805
  504TMC3    C7 7497   2.917   1.684  16.816  0.1649 -0.0176  0.2045
  504TMC3    C8 7498   2.588   1.814  17.125  0.2443  0.3188 -0.3958
  504TMC3    O1 7499   2.994   1.745  16.739 -0.3774  0.1170  0.2964
  504TMC3    O2 7500   2.477   1.861  17.146 -0.3702 -0.1287  0.2973
  505MPD2     C 7501   2.141   0.414  10.996  0.6093 -0.0619  0.1612
  505MPD2    C1 7502   2.212   0.424  10.881  0.1086 -0.2219  0.1471
  505MPD2    C2 7503   2.308   0.524  10.873  0.1916 -0.8148 -0.6314
  505MPD2    C3 7504   2.329   0.610  10.979 -0.1550 -0.3709 -0.5385
  505MPD2    C4 7505   2.257   0.594  11.099 -0.2207 -0.3638 -0.2939
  505MPD2    C5 7506   2.172   0.491  11.106 -0.1669 -0.2963 -0.7621
  505MPD2     H 7507   2.378   0.533  10.790  1.1403 -1.8679  0.0518
  505MPD2    H1 7508   2.277   0.668  11.175 -2.0951  0.2809 -0.4251
  505MPD2    H2 7509   2.064   0.339  11.012  2.2003 -1.4549  1.3979
  505MPD2    H3 7510   2.101   0.479  11.187  0.6429  2.1819  0.3302
  505MPD2     N 7511   2.419   0.719  10.969 -0.4458  0.0637  0.1163
  505MPD2    H5 7512   2.434   0.771  11.054  0.4188 -1.3676  0.8346
  505MPD2    N1 7513   2.198   0.322  10.782 -0.0848 -0.1616 -0.3362
  505MPD2    H7 7514   2.148   0.239  10.810  0.9037 -1.5714 -2.7627
  506TMC3    C1 7515   2.294   0.177  10.642  0.7370 -0.1708 -0.1727
  506TMC3    C2 7516   2.323   0.150  10.511 -0.7235 -0.3401  0.7340
  506TMC3    C3 7517   2.400   0.040  10.485  0.0660 -0.4082 -0.0566
  506TMC3    C4 7518   2.368   0.118  10.743 -0.0497  0.4419 -0.0897
  506TMC3    C5 7519   2.456   0.013  10.716 -0.3632 -0.3511 -0.3177
  506TMC3    C6 7520   2.475   4.699  10.582  0.7258  0.7026  0.5218
  506TMC3     C 7521   2.269   0.315  10.670  0.6834 -0.1321  0.5659
  506TMC3     O 7522   2.327   0.406  10.611  0.3643 -0.6008  0.0187
  506TMC3     H 7523   2.272   0.201  10.430  0.4065  1.1090  0.9376
  506TMC3    H1 7524   2.348   0.148  10.846  0.3157 -2.1333  0.7359
  506TMC3    H2 7525   2.549   4.627  10.551 -0.6805 -0.1805 -0.7951
  506TMC3    C7 7526   2.587   0.048  10.778  0.3346 -0.2321  0.5358
  506TMC3    C8 7527   2.441   0.014  10.352  0.1778 -0.1586 -0.4449
  506TMC3    O1 7528   2.663   4.682  10.807 -0.6052  0.1486 -0.2529
  506TMC3    O2 7529   2.462   4.626  10.312 -0.3993  0.5057 -0.6174
  507TMC3    C1 7530   3.384   1.583  14.133  0.1202 -0.2176 -0.4805
  507TMC3    C2 7531   3.414   1.646  14.015  0.1594 -0.0787  0.3235
  507TMC3    C3 7532   3.341   1.759  13.992  0.4961 -0.2520  0.6670
  507TMC3    C4 7533   3.295   1.625  14.226 -0.1148 -0.6966  1.0610
  507TMC3    C5 7534   3.238   1.748  14.206  0.9135  0.6566  0.8228
  507TMC3    C6 7535   3.260   1.810  14.092  0.2835 -0.3234  0.2508
  507TMC3     C 7536   3.405   1.440  14.151  0.3940 -0.4847  0.4718
  507TMC3     O 7537   3.437   1.399  14.262 -0.6515  0.0199 -0.2530
  507TMC3     H 7538   3.460   1.589  13.935  0.6720 -1.9991  1.9840
  507TMC3    H1 7539   3.288   1.580  14.324  2.2736 -0.7502  1.1864
  507TMC3    H2 7540   3.231   1.914  14.087 -0.3491 -0.5105 -0.0112
  507TMC3    C7 7541   3.095   1.736  14.226 -0.2424 -0.2170  0.5057
  507TMC3    C8 7542   3.274   1.753  13.862  0.4408 -0.1251  0.1681
  507TMC3    O1 7543   3.031   1.785  14.132 -0.2159 -0.9723  0.4740
  507TMC3    O2 7544   3.322   1.683  13.775 -0.2750 -0.5819  0.3918
  508MPD2     C 7545   3.947   3.739  16.080 -0.4680  0.6287  0.4912
  508MPD2    C1 7546   4.077   3.775  16.062  0.4305  0.0572 -0.6821
  508MPD2    C2 7547   4.125   3.808  15.934 -0.2014  0.4799 -0.8156
  508MPD2    C3 7548   4.039   3.812  15.827 -0.0174  0.1817  0.4175
  508MPD2    C4 7549   3.907   3.768  15.849 -0.5129 -0.0344  0.0177
  508MPD2    C5 7550   3.867   3.735  15.974  0.5026  0.6736  0.7762
  508MPD2     H 7551   4.225   3.846  15.912 -0.3094  0.4635 -1.3434
  508MPD2    H1 7552   3.835   3.748  15.770 -0.4293  2.6285 -0.7234
  508MPD2    H2 7553   3.916   3.709  16.179 -0.5626  0.1051  0.3044
  508MPD2    H3 7554   3.765   3.707  15.997 -0.1333  2.0483 -0.3356
  508MPD2     N 7555   4.079   3.873  15.703 -0.3250 -0.1331  0.3592
  508MPD2    H5 7556   4.172   3.915  15.704  0.3817 -1.6976 -0.3770
  508MPD2    N1 7557   4.149   3.800  16.183  0.6035 -0.0334  0.5652
  508MPD2    H7 7558   4.093   3.780  16.266 -0.9348  0.8416 -0.2468
  509TMC3    C1 7559   3.967   4.206  15.412 -0.2538 -0.2609 -0.2087
  509TMC3    C2 7560   4.083   4.275  15.442  0.3264  0.3191  0.1045
  509TMC3    C3 7561   4.179   4.207  15.507  0.4290 -0.0100 -0.0834
  509TMC3    C4 7562   3.956   4.067  15.438 -0.2838  0.3946 -0.0728
  509TMC3    C5 7563   4.060   4.000  15.505  0.4144 -0.3493  0.2305
  509TMC3    C6 7564   4.164   4.080  15.549 -0.1893 -0.3810  0.0265
  509TMC3     C 7565   3.855   4.289  15.366  0.1178 -0.5837  0.0718
  509TMC3     O 7566   3.792   4.229  15.279  0.7300 -0.2919  0.0346
  509TMC3     H 7567   4.087   4.379  15.411 -1.7843  0.8767  1.7005
  509TMC3    H1 7568   3.867   4.016  15.403  0.7477 -1.7685  0.4539
  509TMC3    H2 7569   4.252   4.037  15.595 -0.0176 -0.7491 -0.6503
  509TMC3    C7 7570   4.003   3.894  15.590 -0.2073 -0.4821 -0.6021
  509TMC3    C8 7571   4.315   4.253  15.485 -0.3454  0.2248 -0.1847
  509TMC3    O1 7572   3.889   3.861  15.568  0.4412  0.1653  0.2482
  509TMC3    O2 7573   4.394   4.166  15.463 -1.0318  0.0773 -0.0956
  510MPD2     C 7574   2.023   0.751  14.562 -0.3390  0.1294  0.1082
  510MPD2    C1 7575   2.105   0.684  14.648  0.1415  0.1148  0.0181
  510MPD2    C2 7576   2.241   0.660  14.626 -0.2354  0.1427  1.1102
  510MPD2    C3 7577   2.298   0.715  14.510 -0.6241  0.3972  0.2941
  510MPD2    C4 7578   2.219   0.788  14.424  0.0605 -0.4622 -0.0436
  510MPD2    C5 7579   2.083   0.809  14.450  0.5690  0.2080  0.6089
  510MPD2     H 7580   2.301   0.596  14.689  0.9828  1.4858  1.3179
  510MPD2    H1 7581   2.251   0.834  14.331  1.2123 -1.0736  0.0563
  510MPD2    H2 7582   1.917   0.764  14.582 -0.3616  0.7827 -0.4198
  510MPD2    H3 7583   2.019   0.868  14.385 -0.3942 -2.6040 -0.9853
  510MPD2     N 7584   2.430   0.682  14.481 -0.1560  0.0024 -0.5596
  510MPD2    H5 7585   2.478   0.629  14.554 -1.9135  0.8564  1.2181
  510MPD2    N1 7586   2.045   0.617  14.759  0.1994  0.3898  0.2880
  510MPD2    H7 7587   1.944   0.625  14.757 -0.0324 -2.5720  0.9539
  511TMC3    C1 7588   1.993   0.479  14.944  0.3864 -0.1348 -0.2955
  511TMC3    C2 7589   1.914   0.544  15.037 -1.3718  0.6084  0.1200
  511TMC3    C3 7590   1.787   0.515  15.053  0.4249  0.7303 -0.7874
  511TMC3    C4 7591   1.942   0.382  14.861 -0.7797  0.0019 -0.6319
  511TMC3    C5 7592   1.818   0.337  14.903 -0.0803  0.1099  0.0528
  511TMC3    C6 7593   1.739   0.399  14.993  0.4774 -0.1642  0.3011
  511TMC3     C 7594   2.099   0.552  14.875  0.5268  0.6396  0.2041
  511TMC3     O 7595   2.212   0.554  14.928  0.9054  0.4265 -0.0935
  511TMC3     H 7596   1.962   0.631  15.082 -0.5024  0.2532 -0.1237
  511TMC3    H1 7597   2.005   0.335  14.786 -0.4364  1.7366 -1.4285
  511TMC3    H2 7598   1.635   0.370  15.008  0.6318  0.1192  1.9577
  511TMC3    C7 7599   1.768   0.222  14.825 -0.6830  0.3236 -0.1897
  511TMC3    C8 7600   1.704   0.590  15.145 -0.6760  0.7983 -0.1856
  511TMC3    O1 7601   1.836   0.195  14.724  0.4753  0.2472  0.1089
  511TMC3    O2 7602   1.747   0.694  15.191 -0.2815 -0.2367  0.1301
  512TMC3    C1 7603   0.804   4.586  13.232 -0.1987  0.7848 -0.1643
  512TMC3    C2 7604   0.865   4.582  13.356  0.2736  0.4640 -0.6284
  512TMC3    C3 7605   0.803   4.524  13.462 -1.0023 -0.2219 -0.7499
  512TMC3    C4 7606   0.693   4.511  13.210 -0.2445  0.0673 -0.6003
  512TMC3    C5 7607   0.636   4.443  13.323  0.2687 -0.9558  0.3929
  512TMC3    C6 7608   0.688   4.454  13.446 -0.3476 -0.0931 -0.4383
  512TMC3     C 7609   0.862   4.639  13.113 -0.0314 -0.1492 -0.1134
  512TMC3     O 7610   0.849   4.580  13.008 -0.4108  0.0732  0.2095
  512TMC3     H 7611   0.953   4.645  13.357  0.3927  0.2669  0.5753
  512TMC3    H1 7612   0.636   4.506  13.118 -1.3715 -1.2928  0.1705
  512TMC3    H2 7613   0.643   4.395  13.526 -1.2433  1.6677  0.3528
  512TMC3    C7 7614   0.527   4.348  13.300  0.8597  0.6851  0.3648
  512TMC3    C8 7615   0.868   4.528  13.598  0.1647  0.0103  0.3821
  512TMC3    O1 7616   0.457   4.315  13.396  0.3224 -0.5559  0.1639
  512TMC3    O2 7617   0.887   4.421  13.658 -0.1118 -0.3329 -0.0628
  513MPD2     C 7618   2.225   0.273  13.394  0.1939 -0.5832 -0.3028
  513MPD2    C1 7619   2.278   0.188  13.298 -0.4794  0.1157 -0.1821
  513MPD2    C2 7620   2.356   0.071  13.338  0.5258 -0.4773  0.4109
  513MPD2    C3 7621   2.380   0.042  13.470  0.5684  0.0781 -0.1968
  513MPD2    C4 7622   2.328   0.132  13.564  0.2110 -0.6682  0.3817
  513MPD2    C5 7623   2.246   0.237  13.526  0.0695 -0.2537 -0.7518
  513MPD2     H 7624   2.388   0.007  13.257  1.3061  1.3407 -0.7230
  513MPD2    H1 7625   2.346   0.123  13.671  0.2450  1.1746  0.5354
  513MPD2    H2 7626   2.162   0.360  13.375  1.6237  0.6807  0.6820
  513MPD2    H3 7627   2.198   0.292  13.607  2.4798  1.5628 -0.5488
  513MPD2     N 7628   2.469   4.664  13.506 -0.1749  0.1416 -0.2336
  513MPD2    H5 7629   2.490   4.602  13.428 -0.4405 -0.3213  0.0625
  513MPD2    N1 7630   2.254   0.209  13.157  0.3102  0.1619  0.2335
  513MPD2    H7 7631   2.285   0.130  13.103  0.2808 -1.9738  3.3509
  514TMC3    C1 7632   2.224   0.318  12.963  0.2535  0.0757  0.4208
  514TMC3    C2 7633   2.301   0.418  12.907  0.3874  0.0080  0.1634
  514TMC3    C3 7634   2.366   0.382  12.791  0.1771  0.7165 -0.2422
  514TMC3    C4 7635   2.227   0.186  12.917  0.1873  0.3529 -0.3842
  514TMC3    C5 7636   2.323   0.145  12.832  0.3170 -0.2056  0.5358
  514TMC3    C6 7637   2.395   0.243  12.764  0.4506  0.3188  0.2409
  514TMC3     C 7638   2.215   0.324  13.106  0.0641  0.2326  0.2475
  514TMC3     O 7639   2.193   0.435  13.146  0.4805  0.3165  0.2535
  514TMC3     H 7640   2.296   0.522  12.935 -0.2256  0.5190 -1.8287
  514TMC3    H1 7641   2.149   0.118  12.950  0.8633 -0.7425 -1.0551
  514TMC3    H2 7642   2.475   0.217  12.696  0.3282 -0.3723  0.3623
  514TMC3    C7 7643   2.413   0.049  12.899 -0.4179  0.1098  0.4577
  514TMC3    C8 7644   2.458   0.484  12.731  0.5593 -0.0682 -0.1828
  514TMC3    O1 7645   2.363   0.004  13.003  0.3563  0.0155 -0.5310
  514TMC3    O2 7646   2.482   0.581  12.799 -0.5762 -0.5464  0.0461
  515MPD2     C 7647   0.748   2.097  15.523 -0.4813 -0.1329 -0.7356
  515MPD2    C1 7648   0.722   2.134  15.394  0.2414  0.2734  0.9498
  515MPD2    C2 7649   0.798   2.230  15.326 -0.1424 -0.0688 -0.7212
  515MPD2    C3 7650   0.895   2.296  15.402 -0.0702  0.8300 -0.0184
  515MPD2    C4 7651   0.914   2.267  15.536 -0.3472  0.0370 -0.2141
  515MPD2    C5 7652   0.839   2.169  15.594 -0.2102  0.2002  0.0018
  515MPD2     H 7653   0.772   2.259  15.226 -1.3582 -0.4516 -0.5101
  515MPD2    H1 7654   0.981   2.328  15.596 -0.3167 -1.0459  0.8643
  515MPD2    H2 7655   0.702   2.018  15.582  4.2953 -3.2912 -1.2263
  515MPD2    H3 7656   0.858   2.145  15.698 -0.6102  2.0454  0.5141
  515MPD2     N 7657   0.972   2.402  15.354 -0.4266 -0.4810 -0.3384
  515MPD2    H5 7658   1.032   2.448  15.422  1.1623 -2.3300 -0.5257
  515MPD2    N1 7659   0.611   2.077  15.318 -0.3089 -0.3606  0.0748
  515MPD2    H7 7660   0.595   2.110  15.223  0.1159  0.9360  0.4547
  516TMC3    C1 7661   0.430   1.931  15.278  0.5849 -0.0503  0.4527
  516TMC3    C2 7662   0.376   1.992  15.173 -0.2918  0.1021 -0.4156
  516TMC3    C3 7663   0.287   1.926  15.093 -0.7691 -0.2325 -0.4771
  516TMC3    C4 7664   0.423   1.800  15.297  0.1438 -0.4248  1.1484
  516TMC3    C5 7665   0.351   1.733  15.205  0.3492 -0.1501 -0.6112
  516TMC3    C6 7666   0.278   1.790  15.106 -0.5741 -0.0644  0.4496
  516TMC3     C 7667   0.522   1.988  15.370 -0.1539 -0.3144  0.7581
  516TMC3     O 7668   0.516   1.937  15.484 -0.9158  0.1502  0.2890
  516TMC3     H 7669   0.385   2.100  15.178 -1.7893  0.3493 -3.6170
  516TMC3    H1 7670   0.488   1.745  15.365  1.5626 -0.8851 -0.5943
  516TMC3    H2 7671   0.208   1.725  15.054  2.9171 -2.8410 -0.7356
  516TMC3    C7 7672   0.374   1.592  15.191  0.1701  0.0260  0.1472
  516TMC3    C8 7673   0.184   1.988  15.009  0.1553  0.0429  0.6584
  516TMC3    O1 7674   0.429   1.538  15.286  0.0439  0.1153 -0.0421
  516TMC3    O2 7675   0.097   1.918  14.960 -0.2594  0.0990  0.1422
  517MPD2     C 7676   0.297   3.374   0.174  0.2234  0.0647 -0.7796
  517MPD2    C1 7677   0.437   3.344   0.177  0.9352 -0.4150 -0.3260
  517MPD2    C2 7678   0.522   3.433   0.241  0.5167  0.6798 -0.0851
  517MPD2    C3 7679   0.468   3.549   0.309 -0.2991  0.0500 -0.5752
  517MPD2    C4 7680   0.332   3.579   0.296 -0.8449 -0.1698  0.1553
  517MPD2    C5 7681   0.253   3.490   0.230 -0.0559 -0.4681  0.4959
  517MPD2     H 7682   0.628   3.409   0.242  0.4097  0.2265 -0.0036
  517MPD2    H1 7683   0.291   3.670   0.338 -0.9998 -0.4246  0.5551
  517MPD2    H2 7684   0.216   3.311   0.139 -0.3023  0.3517 -0.0730
  517MPD2    H3 7685   0.145   3.500   0.222  0.0921 -1.2272 -2.2901
  517MPD2     N 7686   0.541   3.649   0.376 -0.4310 -0.0137  0.3216
  517MPD2    H5 7687   0.479   3.709   0.429 -0.5690 -0.8413  1.1089
  517MPD2    N1 7688   0.486   3.231   0.117  0.7204  0.5945  0.0474
  517MPD2    H7 7689   0.587   3.227   0.106  0.9127 -0.1844  2.0328
  518TMC3    C1 7690   0.494   3.054  17.681  0.4498 -0.2517  0.1307
  518TMC3    C2 7691   0.445   2.931  17.652 -0.6387  0.4557  1.0571
  518TMC3    C3 7692   0.519   2.849  17.569  0.1045 -0.9770 -0.0166
  518TMC3    C4 7693   0.615   3.101  17.639 -0.7785 -0.3147  0.0090
  518TMC3    C5 7694   0.691   3.011  17.566 -0.7126 -0.0177 -0.2040
  518TMC3    C6 7695   0.638   2.892  17.518 -0.8485  0.4265 -0.2291
  518TMC3     C 7696   0.409   3.134   0.055  0.3205  0.1180 -1.1287
  518TMC3     O 7697   0.288   3.116   0.054  0.5265  0.4972 -0.0311
  518TMC3     H 7698   0.345   2.901  17.684  0.1792  0.9180  3.9876
  518TMC3    H1 7699   0.647   3.203  17.653 -1.8319  0.4713 -3.3259
  518TMC3    H2 7700   0.681   2.830  17.440  0.8830 -0.7041  1.6296
  518TMC3    C7 7701   0.817   3.070  17.518 -0.9863 -0.0002 -0.1160
  518TMC3    C8 7702   0.494   2.712  17.544 -0.0691 -0.0018 -0.0303
  518TMC3    O1 7703   0.830   3.190  17.535  0.0571  0.5433  0.0600
  518TMC3    O2 7704   0.556   2.650  17.461  0.1744 -0.2868 -0.4761
  519MPD2     C 7705   2.049   1.874  14.733 -0.2535 -0.8511 -0.4761
  519MPD2    C1 7706   2.021   1.838  14.599 -0.7128 -0.1961  0.1865
  519MPD2    C2 7707   2.088   1.727  14.543  0.1535  0.1644  0.1743
  519MPD2    C3 7708   2.184   1.658  14.617 -0.8249 -0.0735  0.4436
  519MPD2    C4 7709   2.212   1.697  14.750  0.4447 -0.2679 -0.1485
  519MPD2    C5 7710   2.131   1.790  14.805 -0.0363 -0.5036 -0.1073
  519MPD2     H 7711   2.085   1.698  14.439 -0.3517  0.0002  0.2324
  519MPD2    H1 7712   2.276   1.636  14.813  0.3419 -0.2584 -0.0355
  519MPD2    H2 7713   2.001   1.957  14.784 -0.9939 -1.4618 -0.1803
  519MPD2    H3 7714   2.137   1.811  14.911 -1.7082  2.8741 -0.6889
  519MPD2     N 7715   2.250   1.550  14.557  0.0157  0.0350 -0.2199
  519MPD2    H5 7716   2.204   1.516  14.473 -0.8409  2.0209 -0.5584
  519MPD2    N1 7717   1.926   1.913  14.534  0.3498 -0.2536  0.3653
  519MPD2    H7 7718   1.878   1.987  14.584  0.9916 -1.0192  2.1191
  520TMC3    C1 7719   2.350   1.336  14.560 -0.9782  0.4894  0.3373
  520TMC3    C2 7720   2.259   1.293  14.471 -0.8179  0.3958 -0.1470
  520TMC3    C3 7721   2.297   1.187  14.390 -0.1128  0.3629  0.3486
  520TMC3    C4 7722   2.471   1.270  14.586  0.1317  0.4318 -0.1296
  520TMC3    C5 7723   2.500   1.155  14.511  0.3617  0.3300  0.9512
  520TMC3    C6 7724   2.414   1.119  14.411  0.4547  0.2040 -0.4479
  520TMC3     C 7725   2.336   1.465  14.620  0.0024  0.0785 -1.0001
  520TMC3     O 7726   2.409   1.479  14.715  0.1872  0.0252  0.0429
  520TMC3     H 7727   2.165   1.345  14.454 -2.0390 -2.3874 -1.9097
  520TMC3    H1 7728   2.544   1.309  14.656  0.4606  0.0610 -0.2700
  520TMC3    H2 7729   2.425   1.023  14.363 -2.6170  0.6181 -1.9978
  520TMC3    C7 7730   2.627   1.079  14.524  0.1018 -0.4312  0.9564
  520TMC3    C8 7731   2.198   1.126  14.302  0.2228 -0.3629  0.1002
  520TMC3    O1 7732   2.690   1.097  14.628 -0.0724 -0.2816 -0.3115
  520TMC3    O2 7733   2.242   1.054  14.208  0.2365 -0.1359 -0.0989
  521MPD2     C 7734   3.069   0.248  17.291  0.3435 -0.1689  0.6174
  521MPD2    C1 7735   3.013   0.142  17.222 -0.0724  0.7175  0.5629
  521MPD2    C2 7736   3.092   0.039  17.189 -0.1496 -0.6226  0.1047
  521MPD2    C3 7737   3.224   0.035  17.220  0.8565  0.2290  0.2320
  521MPD2    C4 7738   3.280   0.139  17.292  1.0551 -0.2154  0.2069
  521MPD2    C5 7739   3.201   0.242  17.331 -0.7171 -0.1640 -0.1269
  521MPD2     H 7740   3.052   4.682  17.132  0.6417 -0.9755  0.0673
  521MPD2    H1 7741   3.382   0.142  17.328  1.6716  2.1929 -1.7421
  521MPD2    H2 7742   3.006   0.328  17.328 -2.0186 -1.2600 -1.0065
  521MPD2    H3 7743   3.242   0.320  17.395  2.8401 -2.6939  0.6691
  521MPD2     N 7744   3.305   4.648  17.182  0.6847 -0.3605 -0.3525
  521MPD2    H5 7745   3.258   4.577  17.128  0.2274  0.2346 -0.7341
  521MPD2    N1 7746   2.872   0.148  17.210  0.1357 -0.1296 -0.1823
  521MPD2    H7 7747   2.826   0.238  17.222  1.5955  0.3281  1.9240
  522TMC3    C1 7748   3.490   4.503  17.144  0.4561  0.2370 -0.0155
  522TMC3    C2 7749   3.622   4.492  17.119 -0.2610 -0.1655 -0.4494
  522TMC3    C3 7750   3.665   4.371  17.069 -0.4289 -0.8362 -0.6178
  522TMC3    C4 7751   3.400   4.404  17.121  0.3446  0.5133  0.4003
  522TMC3    C5 7752   3.449   4.288  17.062  0.0191  0.4704 -0.2414
  522TMC3    C6 7753   3.579   4.263  17.041 -0.5650 -0.1919 -0.9839
  522TMC3     C 7754   3.442   4.626  17.205  0.0663 -0.0016  0.1588
  522TMC3     O 7755   3.529   4.697  17.258 -0.8068 -0.3636 -0.6194
  522TMC3     H 7756   3.683   4.572  17.159 -2.3135  0.8888  0.5601
  522TMC3    H1 7757   3.298   4.407  17.158  0.7000 -0.1078  1.4479
  522TMC3    H2 7758   3.618   4.176  16.989  0.4820 -0.5030  0.3137
  522TMC3    C7 7759   3.357   4.179  17.030 -0.0483  0.2064 -0.0686
  522TMC3    C8 7760   3.807   4.346  17.081 -0.4766  0.9035  0.0992
  522TMC3    O1 7761   3.400   4.067  17.021  0.2238 -0.4393 -0.0062
  522TMC3    O2 7762   3.869   4.440  17.138  0.4398 -0.2447 -0.2328
  523MPD2     C 7763   0.743   4.419  10.223 -0.7117  0.0554 -0.1843
  523MPD2    C1 7764   0.732   4.339  10.111  0.1055  0.5872  0.1947
  523MPD2    C2 7765   0.637   4.374  10.016 -0.7612 -0.5921  0.4244
  523MPD2    C3 7766   0.556   4.483  10.030  0.7811 -0.6434  0.2147
  523MPD2    C4 7767   0.566   4.555  10.139 -0.2247 -0.6383  0.2145
  523MPD2    C5 7768   0.655   4.530  10.239 -0.2354  0.1050 -0.0280
  523MPD2     H 7769   0.620   4.320   9.923 -0.2863  2.1683 -1.2520
  523MPD2    H1 7770   0.513   4.650  10.142 -0.6051 -0.8965  1.8265
  523MPD2    H2 7771   0.812   4.389  10.302 -0.9849 -0.6557 -0.2159
  523MPD2    H3 7772   0.658   4.599  10.323  0.7559 -0.3705  0.3291
  523MPD2     N 7773   0.468   4.527   9.930 -0.3462 -0.0545 -0.0726
  523MPD2    H5 7774   0.412   4.608   9.952  3.3033  1.4978  3.3330
  523MPD2    N1 7775   0.807   4.218  10.104 -0.4033  0.4210 -0.4142
  523MPD2    H7 7776   0.878   4.191  10.171 -0.3125  2.0237  0.1249
  524TMC3    C1 7777   0.348   4.543   9.725  0.2413  0.4093 -0.1069
  524TMC3    C2 7778   0.369   4.529   9.589 -0.3087  0.8261 -0.5121
  524TMC3    C3 7779   0.282   4.593   9.505 -0.7689  0.0371 -0.0998
  524TMC3    C4 7780   0.228   4.597   9.778  0.1281  0.0493  0.2121
  524TMC3    C5 7781   0.157   4.668   9.690  0.1080  0.1937  0.1829
  524TMC3    C6 7782   0.179   4.666   9.551 -0.4336 -0.2098 -0.3254
  524TMC3     C 7783   0.438   4.470   9.809 -0.1536 -0.2252  0.0757
  524TMC3     O 7784   0.481   4.369   9.751 -0.2163  0.4240  0.6905
  524TMC3     H 7785   0.468   4.495   9.564 -0.0772  0.4107  0.9436
  524TMC3    H1 7786   0.215   4.598   9.886  0.8716 -2.6551  0.3429
  524TMC3    H2 7787   0.114   4.719   9.483 -1.2066 -2.0428 -1.0026
  524TMC3    C7 7788   0.083   0.056   9.749 -0.3027  0.6055  0.0036
  524TMC3    C8 7789   0.274   4.554   9.370  0.2161  0.0424  0.2167
  524TMC3    O1 7790   0.078   0.054   9.872  0.0470  0.4298  0.3399
  524TMC3    O2 7791   0.199   4.611   9.297  0.1283  0.0151  0.0222
  525MPD2     C 7792   3.425   0.941  14.656  0.4101 -0.1209 -0.2472
  525MPD2    C1 7793   3.545   0.991  14.712  0.7219  0.6129 -0.7780
  525MPD2    C2 7794   3.596   1.102  14.651 -0.1150  0.4084 -0.0674
  525MPD2    C3 7795   3.535   1.163  14.542  0.4872  0.1382 -0.1037
  525MPD2    C4 7796   3.413   1.129  14.503 -0.3301  0.2516  0.1563
  525MPD2    C5 7797   3.358   1.019  14.563  0.1495 -0.3102  0.0285
  525MPD2     H 7798   3.688   1.134  14.699  1.1390 -0.6901 -1.7492
  525MPD2    H1 7799   3.358   1.185  14.428 -2.3106 -0.1633  1.2918
  525MPD2    H2 7800   3.380   0.855  14.704 -2.6795  0.3380 -2.3378
  525MPD2    H3 7801   3.262   0.983  14.530  1.1607 -0.7237 -2.4701
  525MPD2     N 7802   3.590   1.281  14.487  0.0293 -0.7820  0.4305
  525MPD2    H5 7803   3.535   1.324  14.413  0.2122  0.4082  0.9940
  525MPD2    N1 7804   3.612   0.938  14.826 -0.0081  0.5796 -0.1483
  525MPD2    H7 7805   3.708   0.965  14.843  0.2315 -0.9771  0.9172
  526TMC3    C1 7806   3.633   0.849  15.042  0.2524 -0.2200 -0.4013
  526TMC3    C2 7807   3.570   0.872  15.159 -0.4069 -0.5662  0.3329
  526TMC3    C3 7808   3.644   0.838  15.269 -0.5274 -0.6312 -0.7646
  526TMC3    C4 7809   3.756   0.805  15.025  0.7506 -0.1245  0.0206
  526TMC3    C5 7810   3.820   0.761  15.139  0.0694 -0.1145  0.8087
  526TMC3    C6 7811   3.766   0.777  15.264  0.0877  0.2549 -0.4385
  526TMC3     C 7812   3.554   0.852  14.917 -0.7708  0.5985  0.4274
  526TMC3     O 7813   3.440   0.812  14.918  0.8833 -0.0921  0.6740
  526TMC3     H 7814   3.477   0.927  15.169  0.4053  0.7461  0.7557
  526TMC3    H1 7815   3.796   0.776  14.928  2.0661  1.6891  0.0244
  526TMC3    H2 7816   3.823   0.742  15.349 -0.3165 -2.7549 -1.3953
  526TMC3    C7 7817   3.946   0.688  15.131 -0.9473 -0.8159 -0.7594
  526TMC3    C8 7818   3.613   0.895  15.400  0.4270  0.4911 -0.0100
  526TMC3    O1 7819   4.005   0.668  15.236  0.2220  0.7575 -0.6117
  526TMC3    O2 7820   3.681   0.865  15.496  0.2939 -0.2768  0.4015
  527MPD2     C 7821   2.187   3.175   1.429 -0.3901  0.9580 -0.1760
  527MPD2    C1 7822   2.316   3.159   1.484 -0.2628 -0.6173 -0.2265
  527MPD2    C2 7823   2.422   3.142   1.393 -0.4487 -0.0208  0.8039
  527MPD2    C3 7824   2.396   3.158   1.252  0.1384  0.3076 -0.7230
  527MPD2    C4 7825   2.271   3.167   1.204 -0.2516 -0.1767  0.8940
  527MPD2    C5 7826   2.170   3.193   1.298  0.5431 -0.2586  0.1748
  527MPD2     H 7827   2.523   3.123   1.426  0.4721  1.5710 -1.1241
  527MPD2    H1 7828   2.234   3.176   1.102 -0.3178 -1.0259  0.8475
  527MPD2    H2 7829   2.093   3.176   1.484  1.1685 -1.8337  2.5896
  527MPD2    H3 7830   2.066   3.196   1.266  0.6674  0.2762 -0.1695
  527MPD2     N 7831   2.510   3.152   1.164 -0.0780 -0.0866  0.7169
  527MPD2    H5 7832   2.597   3.128   1.211 -0.2911 -0.8475  0.7286
  527MPD2    N1 7833   2.343   3.138   1.618 -0.5690 -0.0904 -0.4676
  527MPD2    H7 7834   2.438   3.121   1.649 -1.1232 -1.7675  0.2961
  528TMC3    C1 7835   2.298   3.138   1.848  0.3796  0.2539  0.4092
  528TMC3    C2 7836   2.414   3.197   1.874  0.1100 -0.1753  0.3780
  528TMC3    C3 7837   2.481   3.156   1.984  0.2317 -0.2053 -0.1798
  528TMC3    C4 7838   2.240   3.052   1.937 -0.4355  0.1605  0.1996
  528TMC3    C5 7839   2.304   3.012   2.045 -0.0374  0.0469  0.3023
  528TMC3    C6 7840   2.429   3.062   2.070 -0.2461  0.1373  0.7905
  528TMC3     C 7841   2.246   3.138   1.718  0.0989  0.2323 -0.1778
  528TMC3     O 7842   2.127   3.126   1.697  0.3528 -0.1198 -0.3788
  528TMC3     H 7843   2.457   3.263   1.799  0.8221 -0.0367  0.9036
  528TMC3    H1 7844   2.151   3.004   1.899 -0.1972 -1.3240  1.5116
  528TMC3    H2 7845   2.486   3.034   2.158  2.1256 -2.5626 -1.6069
  528TMC3    C7 7846   2.272   2.894   2.122 -0.2574 -0.6195  0.8598
  528TMC3    C8 7847   2.602   3.224   2.010  0.3085 -0.4839  1.1787
  528TMC3    O1 7848   2.362   2.820   2.167  0.3951  0.2639 -0.3358
  528TMC3    O2 7849   2.640   3.305   1.931 -0.3181  0.3652  0.2380
  529MPD2     C 7850   3.539   2.468   0.634 -0.1901  0.1985 -0.4682
  529MPD2    C1 7851   3.634   2.425   0.543 -0.4134  0.5198 -0.7795
  529MPD2    C2 7852   3.657   2.492   0.426  0.1601 -0.1438 -0.4733
  529MPD2    C3 7853   3.577   2.603   0.392  0.1730  0.1152  0.0789
  529MPD2    C4 7854   3.477   2.647   0.476  0.5172 -0.1510  0.0115
  529MPD2    C5 7855   3.463   2.577   0.596  0.3902 -0.1788 -0.2242
  529MPD2     H 7856   3.731   2.454   0.357  1.3898 -0.3117  0.9491
  529MPD2    H1 7857   3.408   2.730   0.471  0.2156 -0.6036 -2.9744
  529MPD2    H2 7858   3.513   2.417   0.726 -0.5896  0.8732 -0.2063
  529MPD2    H3 7859   3.394   2.611   0.673  1.7843  1.1204  0.4471
  529MPD2     N 7860   3.606   2.675   0.275  0.6447 -0.0260 -0.9467
  529MPD2    H5 7861   3.662   2.626   0.206  0.5570 -2.2147  0.5396
  529MPD2    N1 7862   3.728   2.323   0.587  0.5507  0.2341 -0.6493
  529MPD2    H7 7863   3.812   2.312   0.531  0.8534 -1.7616  0.2009
  530TMC3    C1 7864   3.854   2.187   0.725  0.5297 -0.7489  0.1378
  530TMC3    C2 7865   3.906   2.195   0.851 -0.2801 -1.4393  0.2594
  530TMC3    C3 7866   4.030   2.149   0.862 -0.5489 -0.8615 -0.2999
  530TMC3    C4 7867   3.901   2.120   0.617 -0.9246 -1.0292 -0.0256
  530TMC3    C5 7868   4.025   2.057   0.644  0.5858 -0.8009  0.5017
  530TMC3    C6 7869   4.094   2.071   0.760  0.0640 -0.3230 -0.2247
  530TMC3     C 7870   3.729   2.250   0.704 -0.0322  0.3603  0.1270
  530TMC3     O 7871   3.648   2.245   0.798  0.1367  0.1549 -0.1190
  530TMC3     H 7872   3.847   2.248   0.924 -0.5617 -1.4250  0.0208
  530TMC3    H1 7873   3.840   2.098   0.531  0.0298  0.6402 -1.1545
  530TMC3    H2 7874   4.201   2.055   0.765 -0.0639 -1.6345 -1.4231
  530TMC3    C7 7875   4.089   1.981   0.537  0.4191 -0.7083  0.1573
  530TMC3    C8 7876   4.111   2.205   0.970 -0.0943  1.2747 -0.0347
  530TMC3    O1 7877   4.057   2.018   0.425  0.3116  0.2241 -0.0637
  530TMC3    O2 7878   4.055   2.304   1.020  0.8071  0.0588 -0.2036
  531MPD2     C 7879   2.862   4.542  12.963 -0.2550  0.3621 -0.1491
  531MPD2    C1 7880   2.757   4.549  13.050  0.5898 -1.0860  0.1403
  531MPD2    C2 7881   2.637   4.609  13.012 -0.6985 -0.3369 -0.0535
  531MPD2    C3 7882   2.628   4.657  12.884 -0.4142  0.3074 -0.5847
  531MPD2    C4 7883   2.742   4.637  12.795  0.4898  1.4346  0.0891
  531MPD2    C5 7884   2.860   4.584  12.835  0.0046  0.3222 -0.3195
  531MPD2     H 7885   2.557   4.622  13.084  1.0160  1.9413  1.4667
  531MPD2    H1 7886   2.738   4.682  12.697  0.4159 -0.9250 -0.9627
  531MPD2    H2 7887   2.955   4.490  12.985 -0.6755  0.8061  2.7343
  531MPD2    H3 7888   2.948   4.575  12.772  0.4191  1.4577  0.0866
  531MPD2     N 7889   2.525   0.007  12.835  0.1422  0.1483 -0.1465
  531MPD2    H5 7890   2.543   0.055  12.747 -0.8867 -3.3495 -2.2433
  531MPD2    N1 7891   2.782   4.491  13.178 -0.1245  0.2526 -0.6398
  531MPD2    H7 7892   2.880   4.477  13.200 -0.3302  2.0618  1.4795
  532TMC3    C1 7893   2.735   4.445  13.413  0.3966 -0.1636 -0.4576
  532TMC3    C2 7894   2.624   4.460  13.496 -0.2415 -0.8041  0.1049
  532TMC3    C3 7895   2.633   4.537  13.609 -0.4693 -0.3188 -0.1667
  532TMC3    C4 7896   2.861   4.492  13.445 -0.0611 -0.9094 -0.3247
  532TMC3    C5 7897   2.872   4.535  13.576  0.1800  0.9296 -0.1357
  532TMC3    C6 7898   2.755   4.559  13.654 -0.0371  0.4154 -0.6935
  532TMC3     C 7899   2.689   4.473  13.278 -0.3227  0.3542 -0.5374
  532TMC3     O 7900   2.570   4.501  13.276  0.4354 -0.0532 -0.1068
  532TMC3     H 7901   2.527   4.421  13.467  0.6342 -1.8505 -1.4312
  532TMC3    H1 7902   2.946   4.458  13.387  0.9362 -0.7761  1.0462
  532TMC3    H2 7903   2.758   4.617  13.745 -0.6843  0.2876 -0.5944
  532TMC3    C7 7904   3.004   4.558  13.640  0.4830 -0.5097  0.1754
  532TMC3    C8 7905   2.538   4.645  13.620 -0.6042  0.4414 -0.4520
  532TMC3    O1 7906   3.014   4.632  13.741  0.0205  0.0203  0.5331
  532TMC3    O2 7907   2.551   0.000  13.710  0.4214  0.4257 -0.2552
  533TMC3    C1 7908   3.690   1.492  14.476  0.5285  0.8884 -0.1911
  533TMC3    C2 7909   3.802   1.571  14.472  0.1094 -0.1904  0.2560
  533TMC3    C3 7910   3.798   1.707  14.489 -0.5203 -0.4905 -0.0213
  533TMC3    C4 7911   3.572   1.554  14.479 -0.2367  0.0994 -0.1173
  533TMC3    C5 7912   3.565   1.694  14.495  0.7197  0.5576 -0.3521
  533TMC3    C6 7913   3.676   1.771  14.508 -0.2098 -0.4673  0.7782
  533TMC3     C 7914   3.702   1.356  14.524  0.6185 -0.3490 -0.0032
  533TMC3     O 7915   3.789   1.332  14.605  0.2590 -0.1430  0.3501
  533TMC3     H 7916   3.895   1.516  14.469  1.5209  2.2495 -1.1599
  533TMC3    H1 7917   3.481   1.497  14.491  0.3417 -0.5427  1.1654
  533TMC3    H2 7918   3.671   1.878  14.518  0.5445 -0.3777  0.2058
  533TMC3    C7 7919   3.441   1.762  14.521 -0.0006 -0.2768 -0.6503
  533TMC3    C8 7920   3.907   1.756  14.572 -0.3022  0.0347  0.0312
  533TMC3    O1 7921   3.433   1.875  14.474  0.4369 -0.4650  0.1465
  533TMC3    O2 7922   4.003   1.684  14.601  0.7607 -0.2005  0.4600
  534MPD2     C 7923   2.231   2.189   1.346  0.5112 -0.0825 -0.3847
  534MPD2    C1 7924   2.154   2.262   1.430 -0.3330  0.3961  0.5344
  534MPD2    C2 7925   2.037   2.318   1.375  0.2587 -0.0565  0.3726
  534MPD2    C3 7926   2.016   2.312   1.241 -0.3878  0.4287  0.0949
  534MPD2    C4 7927   2.116   2.257   1.158 -0.6748  0.1379 -0.5799
  534MPD2    C5 7928   2.216   2.181   1.213  0.1946  0.3465  0.1658
  534MPD2     H 7929   1.967   2.364   1.443 -0.5013  0.1002 -0.5102
  534MPD2    H1 7930   2.113   2.267   1.050 -0.4182  2.4550 -0.3815
  534MPD2    H2 7931   2.329   2.153   1.375 -0.9807 -0.8584  3.6685
  534MPD2    H3 7932   2.292   2.132   1.153 -1.0760 -0.1362 -1.0168
  534MPD2     N 7933   1.900   2.387   1.187  0.5460  0.2181 -0.0128
  534MPD2    H5 7934   1.889   2.391   1.086 -0.3199  0.6254  0.1030
  534MPD2    N1 7935   2.189   2.291   1.564 -0.3351 -0.6008  0.5404
  534MPD2    H7 7936   2.115   2.339   1.615  0.4408  0.5899  0.5523
  535TMC3    C1 7937   1.705   2.498   1.163  0.4402 -0.0524 -0.5490
  535TMC3    C2 7938   1.577   2.510   1.198  0.5879  0.2096  0.6775
  535TMC3    C3 7939   1.498   2.575   1.117 -0.8912 -0.8568 -0.1413
  535TMC3    C4 7940   1.745   2.543   1.044 -0.7003 -0.6610 -0.5667
  535TMC3    C5 7941   1.653   2.605   0.963 -0.0087 -0.7303 -0.2601
  535TMC3    C6 7942   1.526   2.617   0.992 -0.2054 -0.4263 -0.5471
  535TMC3     C 7943   1.797   2.442   1.255 -0.0634  0.6492  0.2951
  535TMC3     O 7944   1.763   2.415   1.369  0.2199  0.3577 -0.5515
  535TMC3     H 7945   1.546   2.471   1.295  3.6489 -1.2828  1.0302
  535TMC3    H1 7946   1.846   2.523   1.010 -0.2116  3.6119 -1.6551
  535TMC3    H2 7947   1.459   2.672   0.926  1.7657  0.0373 -2.1449
  535TMC3    C7 7948   1.685   2.637   0.824  0.3738  1.0497  0.7884
  535TMC3    C8 7949   1.368   2.595   1.170 -0.0424 -0.5665  0.1184
  535TMC3    O1 7950   1.605   2.594   0.744  0.6901  0.1086 -0.1243
  535TMC3    O2 7951   1.279   2.600   1.090  0.0844  0.6708 -0.0407
  536MPD2     C 7952   0.582   0.974  15.842  0.9490  0.6000 -0.8763
  536MPD2    C1 7953   0.450   1.002  15.871  0.9337 -0.2137 -0.6485
  536MPD2    C2 7954   0.377   1.097  15.799 -0.3903  0.2248 -0.3996
  536MPD2    C3 7955   0.452   1.165  15.701  0.5314 -0.3604 -0.3738
  536MPD2    C4 7956   0.580   1.135  15.676  0.2557 -0.0425 -0.0443
  536MPD2    C5 7957   0.646   1.033  15.739 -0.5800  0.1071  0.5893
  536MPD2     H 7958   0.275   1.114  15.830 -0.3963  3.0122 -1.8938
  536MPD2    H1 7959   0.634   1.189  15.599  0.4195  0.2359  0.2690
  536MPD2    H2 7960   0.636   0.900  15.900 -2.7023 -0.2957  1.3622
  536MPD2    H3 7961   0.745   0.995  15.716 -0.7061 -0.1709  0.5027
  536MPD2     N 7962   0.392   1.265  15.624  0.2922  0.1402 -0.0346
  536MPD2    H5 7963   0.443   1.315  15.552  0.9417 -1.4193 -0.6656
  536MPD2    N1 7964   0.409   0.921  15.981 -0.1535  0.0424  0.0690
  536MPD2    H7 7965   0.484   0.883  16.037 -0.7116 -0.3312  0.5584
  537TMC3    C1 7966   0.278   0.842  16.157  0.6398 -0.8232 -0.3174
  537TMC3    C2 7967   0.395   0.811  16.225  0.2694 -0.5409  0.6975
  537TMC3    C3 7968   0.380   0.742  16.340  0.8300 -0.1866 -0.8880
  537TMC3    C4 7969   0.154   0.817  16.217 -0.3100  0.6273 -0.9871
  537TMC3    C5 7970   0.156   0.754  16.339 -0.7313 -0.1348 -0.0403
  537TMC3    C6 7971   0.270   0.701  16.395  0.0765  0.3637  0.9317
  537TMC3     C 7972   0.277   0.910  16.028  0.5520 -0.5056  0.3306
  537TMC3     O 7973   0.173   0.939  15.969 -0.1993 -0.3018 -0.5947
  537TMC3     H 7974   0.493   0.809  16.181 -0.0443  0.7960 -0.0564
  537TMC3    H1 7975   0.062   0.841  16.165 -0.2239  1.5313 -0.7262
  537TMC3    H2 7976   0.266   0.644  16.487  1.0028  1.3043  1.5499
  537TMC3    C7 7977   0.024   0.731  16.402  0.2480 -0.1842 -0.0932
  537TMC3    C8 7978   0.500   0.721  16.419  0.1248  0.9531  0.4107
  537TMC3    O1 7979   4.650   0.744  16.326 -0.1872 -0.3507  0.3690
  537TMC3    O2 7980   0.588   0.808  16.411  0.1321  0.0561  0.5360
  538TMC3    C1 7981   1.367   4.035  11.252  0.2731 -0.1267 -0.4728
  538TMC3    C2 7982   1.428   3.974  11.147 -0.3150 -0.3597 -0.0846
  538TMC3    C3 7983   1.397   4.020  11.017 -0.2788 -0.4864  0.6356
  538TMC3    C4 7984   1.264   4.123  11.226 -0.4050  0.5665 -0.1924
  538TMC3    C5 7985   1.228   4.160  11.101 -0.3924  0.3165 -0.0639
  538TMC3    C6 7986   1.301   4.114  10.993 -0.1451 -0.3347 -0.3558
  538TMC3     C 7987   1.432   4.034  11.386 -0.2908  0.3856  0.1147
  538TMC3     O 7988   1.361   4.088  11.474 -0.2640 -0.2548  0.2584
  538TMC3     H 7989   1.508   3.902  11.163  0.1067 -0.0384 -0.7532
  538TMC3    H1 7990   1.217   4.163  11.316  0.9021 -0.1256  0.8058
  538TMC3    H2 7991   1.261   4.136  10.895 -0.9248 -0.7041 -0.1172
  538TMC3    C7 7992   1.102   4.238  11.085 -0.1699 -0.4365  0.4300
  538TMC3    C8 7993   1.462   3.955  10.905 -0.7640  0.0756  0.2371
  538TMC3    O1 7994   1.036   4.202  10.989 -0.2213 -0.8285 -0.4536
  538TMC3    O2 7995   1.446   4.013  10.795 -0.1622 -0.5230 -0.3267
  539MPD2     C 7996   1.062   3.403  11.871  0.0740 -0.3785  0.3403
  539MPD2    C1 7997   1.048   3.388  11.733 -0.3646  0.1578 -0.1711
  539MPD2    C2 7998   0.969   3.487  11.665 -0.6067  0.0183 -0.2514
  539MPD2    C3 7999   0.905   3.586  11.742 -0.4189 -0.4796  0.5192
  539MPD2    C4 8000   0.931   3.597  11.878  0.2077  0.5166 -0.2178
  539MPD2    C5 8001   1.013   3.503  11.945  0.2045  0.2064  0.2984
  539MPD2     H 8002   0.958   3.482  11.558 -2.0782  2.1143 -0.2123
  539MPD2    H1 8003   0.888   3.668  11.948  2.1188  1.5391 -0.1006
  539MPD2    H2 8004   1.126   3.337  11.928  1.3895  0.7081  0.1044
  539MPD2    H3 8005   1.048   3.514  12.047 -1.3853  2.6107  0.5959
  539MPD2     N 8006   0.817   3.680  11.683  0.3810 -0.8032 -0.0901
  539MPD2    H5 8007   0.807   3.763  11.740  2.0980  0.1231 -1.1307
  539MPD2    N1 8008   1.110   3.288  11.660  0.0798  0.2793  0.4009
  539MPD2    H7 8009   1.101   3.290  11.559  1.6674  0.3180  0.2593
  540TMC3    C1 8010   0.712   3.810  11.532  0.9134  0.0707  0.5614
  540TMC3    C2 8011   0.664   3.831  11.402 -0.0597  0.1367  0.4937
  540TMC3    C3 8012   0.563   3.918  11.373  0.1576  0.4205  0.6296
  540TMC3    C4 8013   0.643   3.867  11.635 -0.4254  0.1505  0.1860
  540TMC3    C5 8014   0.544   3.958  11.606  0.2822  0.0146 -0.2558
  540TMC3    C6 8015   0.508   3.989  11.477  0.3811 -0.2504 -0.2482
  540TMC3     C 8016   0.788   3.692  11.551  0.4314 -0.3493 -0.5443
  540TMC3     O 8017   0.796   3.606  11.464 -1.1427  0.4210  0.2545
  540TMC3     H 8018   0.724   3.792  11.321  0.3093  1.5618  0.0814
  540TMC3    H1 8019   0.652   3.855  11.742  1.8438  0.1954  0.0130
  540TMC3    H2 8020   0.427   4.060  11.471  0.1929 -0.3570  1.0400
  540TMC3    C7 8021   0.434   3.963  11.698 -0.1911 -0.6499 -0.5543
  540TMC3    C8 8022   0.523   3.953  11.238 -0.2958 -0.3971 -0.1769
  540TMC3    O1 8023   0.401   3.855  11.748  0.1597 -0.5938 -0.4413
  540TMC3    O2 8024   0.501   4.072  11.214  0.2484  0.3464 -0.4501
  541MPD2     C 8025   4.129   0.063  13.184 -0.5577  0.0539  0.3953
  541MPD2    C1 8026   4.124   4.711  13.076  0.5450 -0.4231 -0.6616
  541MPD2    C2 8027   4.037   0.020  12.978  0.3999 -0.7455  0.2629
  541MPD2    C3 8028   3.968   0.139  12.981  0.7460 -0.0385 -0.0174
  541MPD2    C4 8029   3.986   0.221  13.090 -0.7294 -0.2199 -0.5045
  541MPD2    C5 8030   4.063   0.182  13.195  0.4812 -0.1279 -0.4057
  541MPD2     H 8031   4.022   4.681  12.893  1.8782  0.8957 -1.2708
  541MPD2    H1 8032   3.942   0.320  13.091 -2.9250 -1.1887 -0.6836
  541MPD2    H2 8033   4.202   0.037  13.261  0.8029  0.0997 -0.8878
  541MPD2    H3 8034   4.073   0.247  13.282  2.0558 -1.1340  0.1788
  541MPD2     N 8035   3.878   0.184  12.880  0.5035 -0.1568  0.4750
  541MPD2    H5 8036   3.864   0.284  12.871  0.7897 -0.3444 -2.1264
  541MPD2    N1 8037   4.211   4.602  13.071 -0.7690  0.4781  0.0154
  541MPD2    H7 8038   4.249   4.564  13.157  0.5584  0.4485 -0.5914
  542TMC3    C1 8039   3.804   0.169  12.664  0.0191  0.0038 -0.4678
  542TMC3    C2 8040   3.820   0.098  12.548 -0.1048  0.4609  0.0661
  542TMC3    C3 8041   3.795   0.170  12.429 -0.5030  0.2200  0.1175
  542TMC3    C4 8042   3.758   0.294  12.671  0.3277 -0.0665 -0.5714
  542TMC3    C5 8043   3.750   0.361  12.554 -0.2817 -0.3284 -0.1624
  542TMC3    C6 8044   3.770   0.304  12.430  0.0945 -0.5430 -0.2651
  542TMC3     C 8045   3.831   0.101  12.786 -1.5164 -0.2329 -0.7772
  542TMC3     O 8046   3.841   4.703  12.768 -0.4335  0.0146 -0.0058
  542TMC3     H 8047   3.870   0.002  12.552  0.1727  0.6366  0.8250
  542TMC3    H1 8048   3.753   0.352  12.762  2.1531  1.1478 -1.2349
  542TMC3    H2 8049   3.760   0.348  12.332 -3.5725 -1.7024 -0.4222
  542TMC3    C7 8050   3.732   0.500  12.562 -0.1455 -0.2343  0.0026
  542TMC3    C8 8051   3.853   0.126  12.307 -0.4971 -0.3965  0.4609
  542TMC3    O1 8052   3.705   0.548  12.673  0.1145 -0.0395  0.0286
  542TMC3    O2 8053   3.804   0.178  12.204  0.7128 -0.4306  0.1805
  543TMC3    C1 8054   3.812   1.426  17.162 -0.0040  0.4248 -0.3239
  543TMC3    C2 8055   3.877   1.324  17.228  0.1552 -0.3366 -0.3229
  543TMC3    C3 8056   3.834   1.278  17.351 -0.1689 -1.0040  0.0080
  543TMC3    C4 8057   3.730   1.504  17.233  0.1307 -0.6531 -0.0169
  543TMC3    C5 8058   3.705   1.465  17.366  0.3164 -0.6518 -0.2078
  543TMC3    C6 8059   3.751   1.354  17.431  0.5988 -0.1929  0.4393
  543TMC3     C 8060   3.869   1.481  17.040  0.0914  0.0235 -0.6840
  543TMC3     O 8061   3.982   1.442  17.010 -0.5294  0.0328  0.2618
  543TMC3     H 8062   3.937   1.258  17.166  1.5011  1.8347 -1.3452
  543TMC3    H1 8063   3.684   1.587  17.181  0.8935  0.4838  1.0958
  543TMC3    H2 8064   3.695   1.312  17.513 -0.9279  0.3594 -0.3180
  543TMC3    C7 8065   3.658   1.581  17.446 -0.2421  0.2486  0.5418
  543TMC3    C8 8066   3.858   1.138  17.376 -0.5370 -0.0275 -0.7513
  543TMC3    O1 8067   3.634   1.690  17.394  0.4202 -0.0346  0.0195
  543TMC3    O2 8068   3.899   1.068  17.284  0.0331  0.1691 -0.7917
  544MPD2     C 8069   3.880   0.730  17.694  0.1920  0.2853  0.5964
  544MPD2    C1 8070   3.902   0.741  17.557  0.3756  0.4350 -0.3657
  544MPD2    C2 8071   3.872   0.863  17.497  0.6855 -0.8655  0.1285
  544MPD2    C3 8072   3.829   0.972  17.565 -0.7539 -0.7204 -0.3542
  544MPD2    C4 8073   3.812   0.960  17.703  0.2233  0.1252  0.5291
  544MPD2    C5 8074   3.822   0.836   0.049  0.0592 -0.8138  1.0125
  544MPD2     H 8075   3.915   0.882  17.399  1.9383 -0.5576  0.7426
  544MPD2    H1 8076   3.778   1.033   0.067  1.2390  1.2468 -0.1395
  544MPD2    H2 8077   3.883   0.633   0.034  1.3870 -0.4120 -0.9097
  544MPD2    H3 8078   3.781   0.824   0.148 -0.4090  3.9474  1.4102
  544MPD2     N 8079   3.819   1.098  17.504 -0.3409 -0.0771 -0.1906
  544MPD2    H5 8080   3.791   1.172  17.567  1.7055  1.3612 -0.9938
  544MPD2    N1 8081   3.941   0.624  17.488 -0.3252 -0.2720 -0.6114
  544MPD2    H7 8082   3.952   0.539  17.543  0.0138 -0.0635 -0.3621
  545TMC3    C1 8083   4.005   0.487  17.297  0.1516  0.0326  0.3860
  545TMC3    C2 8084   4.001   0.477  17.158 -0.0813 -0.4325  0.3802
  545TMC3    C3 8085   4.068   0.372  17.106  0.4596  0.5525  0.2557
  545TMC3    C4 8086   4.065   0.396  17.379  0.5591 -0.9455 -0.1144
  545TMC3    C5 8087   4.106   0.278  17.318 -0.1943  0.6296 -0.3965
  545TMC3    C6 8088   4.113   0.269  17.184  1.0978  0.5257  0.3824
  545TMC3     C 8089   3.959   0.613  17.353  0.1436 -0.0740 -0.0609
  545TMC3     O 8090   3.945   0.702  17.273 -0.4610  0.1877  0.0469
  545TMC3     H 8091   3.941   0.542  17.097  0.7524  0.8796  0.9661
  545TMC3    H1 8092   4.078   0.420  17.484 -1.6602 -1.0610  0.1763
  545TMC3    H2 8093   4.140   0.173  17.141  1.1739  1.3597 -1.4180
  545TMC3    C7 8094   4.198   0.190  17.388  0.5115 -0.1375 -0.2346
  545TMC3    C8 8095   4.029   0.332  16.970  0.0769 -0.1210 -0.8740
  545TMC3    O1 8096   4.275   0.244  17.467  0.7669 -0.3979  0.2223
  545TMC3    O2 8097   3.919   0.371  16.940 -0.1681  0.2739  0.0181
  546MPD2     C 8098   0.641   1.148  17.302 -0.3781  0.0383 -0.3865
  546MPD2    C1 8099   0.553   1.216  17.222 -0.0499 -0.0650 -0.7298
  546MPD2    C2 8100   0.540   1.355  17.228  1.2848 -0.0802 -0.5180
  546MPD2    C3 8101   0.626   1.422  17.322  0.1080 -0.0723 -0.7942
  546MPD2    C4 8102   0.729   1.355  17.387 -0.5856 -0.1486  0.1777
  546MPD2    C5 8103   0.734   1.216  17.379  0.6279  0.0664  0.0374
  546MPD2     H 8104   0.457   1.402  17.177  0.7893 -0.8629 -0.4369
  546MPD2    H1 8105   0.811   1.403  17.439 -0.7962 -1.5369  1.7627
  546MPD2    H2 8106   0.633   1.040  17.302 -0.3114  0.0457  0.9978
  546MPD2    H3 8107   0.809   1.164  17.436 -0.1513  0.2478  1.2456
  546MPD2     N 8108   0.624   1.561  17.340  0.8001  0.1784 -0.1256
  546MPD2    H5 8109   0.682   1.603  17.412  0.0144 -1.6435  1.5633
  546MPD2    N1 8110   0.473   1.128  17.150 -0.3404 -0.2678 -0.1317
  546MPD2    H7 8111   0.480   1.028  17.170  3.3861 -0.6624 -3.4713
  547TMC3    C1 8112   0.279   1.063  17.007 -0.4825  0.1291  0.4018
  547TMC3    C2 8113   0.218   1.079  16.884  0.4452 -0.4257 -0.0614
  547TMC3    C3 8114   0.089   1.036  16.863 -0.1389  0.7737 -0.1460
  547TMC3    C4 8115   0.208   0.995  17.107  0.1188 -0.3591  0.2533
  547TMC3    C5 8116   0.086   0.944  17.078  0.2277  0.0220  0.4439
  547TMC3    C6 8117   0.015   0.971  16.963 -0.5112 -0.0731  0.2150
  547TMC3     C 8118   0.377   1.164  17.052  0.4454 -0.5482  0.1335
  547TMC3     O 8119   0.381   1.268  16.986 -0.8303 -0.1531  0.1755
  547TMC3     H 8120   0.264   1.143  16.809 -0.5540 -0.5447 -0.7770
  547TMC3    H1 8121   0.257   0.964  17.199 -0.6600 -0.6556  0.5727
  547TMC3    H2 8122   4.637   0.947  16.950 -0.2521 -0.5592 -1.0531
  547TMC3    C7 8123   0.020   0.857  17.169 -0.0580 -0.1494  0.6714
  547TMC3    C8 8124   0.019   1.085  16.752  0.8746 -0.2851 -0.0040
  547TMC3    O1 8125   0.090   0.838  17.267 -0.2329 -0.4652 -0.0211
  547TMC3    O2 8126   4.626   1.120  16.762 -0.0930 -0.6113 -0.0012
  548MPD2     C 8127   4.685   1.992  12.311  0.3474  0.1908  0.1296
  548MPD2    C1 8128   4.684   1.905  12.420 -0.4606 -0.5920 -0.0505
  548MPD2    C2 8129   0.039   1.788  12.408 -0.6650  0.2102 -0.2820
  548MPD2    C3 8130   0.112   1.754  12.293  0.3626  0.0034  0.3194
  548MPD2    C4 8131   0.101   1.840  12.182  0.5305 -0.4014  0.4304
  548MPD2    C5 8132   0.023   1.955  12.198 -0.2296  0.2375 -0.6336
  548MPD2     H 8133   0.049   1.707  12.480  1.6392  0.6937 -0.0622
  548MPD2    H1 8134   0.152   1.835  12.087  0.1364  2.1514  0.0702
  548MPD2    H2 8135   4.624   2.081  12.309  0.6334  0.3843 -0.1217
  548MPD2    H3 8136   0.024   2.014  12.108  1.7224  1.2090  0.0364
  548MPD2     N 8137   0.174   1.626  12.295  0.0378 -0.5173 -0.1564
  548MPD2    H5 8138   0.184   1.584  12.386  0.0067 -0.5440 -0.1655
  548MPD2    N1 8139   4.602   1.929  12.530 -0.4414  0.1463  0.6425
  548MPD2    H7 8140   4.545   2.012  12.519 -1.4755 -0.4741  1.3459
  549TMC3    C1 8141   4.475   1.872  12.724  0.2641  0.0736 -0.2206
  549TMC3    C2 8142   4.431   2.000  12.706 -0.6006  0.3483 -0.2788
  549TMC3    C3 8143   4.295   2.013  12.705 -0.3692  0.2040  0.5284
  549TMC3    C4 8144   4.392   1.770  12.730 -0.1260 -0.2582  0.3668
  549TMC3    C5 8145   4.252   1.786  12.730 -0.3800  0.6803  0.5701
  549TMC3    C6 8146   4.198   1.912  12.709 -0.2392  0.1788 -0.6074
  549TMC3     C 8147   4.593   1.842  12.641  0.5807  0.8948  0.3337
  549TMC3     O 8148   4.647   1.736  12.667 -0.0382  0.3639 -0.5376
  549TMC3     H 8149   4.505   2.078  12.715  0.4822 -0.3178 -3.6507
  549TMC3    H1 8150   4.439   1.674  12.750 -0.3781 -1.1222 -3.1896
  549TMC3    H2 8151   4.091   1.922  12.699 -0.4281 -0.4397  0.7646
  549TMC3    C7 8152   4.159   1.682  12.699 -0.0617 -0.3116  0.0546
  549TMC3    C8 8153   4.236   2.139  12.662 -0.8155  0.1750 -0.3859
  549TMC3    O1 8154   4.045   1.710  12.672  0.1398 -0.1832 -0.5785
  549TMC3    O2 8155   4.144   2.143  12.581  0.0722 -0.6051  0.2273
  550TMC3    C1 8156   3.716   4.597  11.981 -0.0648 -0.3408  0.2044
  550TMC3    C2 8157   3.671   4.584  12.113  0.1956  0.0339 -0.5978
  550TMC3    C3 8158   3.578   4.679  12.155 -0.3693  0.1421 -0.5174
  550TMC3    C4 8159   3.663   4.686  11.898 -0.0869 -0.3978  0.1851
  550TMC3    C5 8160   3.567   0.045  11.947  0.2536  0.1755  0.4904
  550TMC3    C6 8161   3.520   0.043  12.076 -0.6693  0.3028  0.6373
  550TMC3     C 8162   3.824   4.505  11.940 -0.9342 -0.2357 -0.4582
  550TMC3     O 8163   3.887   4.454  12.033 -0.1234  0.4715  0.1748
  550TMC3     H 8164   3.717   4.507  12.174  3.5501  1.3805 -1.4616
  550TMC3    H1 8165   3.724   4.709  11.812  0.1790  0.9916  0.7468
  550TMC3    H2 8166   3.448   0.116  12.112 -0.6141  0.8035 -0.2563
  550TMC3    C7 8167   3.533   0.159  11.861  0.1481  0.9423 -0.4173
  550TMC3    C8 8168   3.545   4.667  12.294  0.0642  0.2551  0.5303
  550TMC3    O1 8169   3.611   0.192  11.771 -0.2531  0.8346 -0.4161
  550TMC3    O2 8170   3.567   4.559  12.347 -0.0029  0.3356 -0.0755
  551TMC3    C1 8171   0.966   2.271  13.323 -0.1405  0.5615 -0.1003
  551TMC3    C2 8172   1.067   2.298  13.233  0.7316 -0.4415  0.9574
  551TMC3    C3 8173   1.129   2.419  13.241  1.1269  0.0208  0.2442
  551TMC3    C4 8174   0.925   2.364  13.413  0.5659  0.5802  0.1790
  551TMC3    C5 8175   0.995   2.477  13.428  0.3919  0.5174 -0.3471
  551TMC3    C6 8176   1.099   2.510  13.339  0.0647  0.2324  0.3627
  551TMC3     C 8177   0.854   2.207  13.252 -0.5863  0.2339 -0.1454
  551TMC3     O 8178   0.872   2.200  13.131 -0.5890  0.0968 -0.8486
  551TMC3     H 8179   1.098   2.234  13.151 -0.9009 -1.6444  1.2817
  551TMC3    H1 8180   0.853   2.340  13.491 -0.7829  0.4292 -1.1025
  551TMC3    H2 8181   1.157   2.602  13.342 -0.0372  0.3724 -2.1005
  551TMC3    C7 8182   0.980   2.545  13.549  0.1258  0.2995 -0.1238
  551TMC3    C8 8183   1.214   2.454  13.132  0.3157 -0.5634  0.4176
  551TMC3    O1 8184   0.925   2.489  13.641  0.2583 -0.5129  0.2146
  551TMC3    O2 8185   1.276   2.359  13.083 -0.4947  0.7442 -0.3987
  552MPD2     C 8186   2.629   4.484  13.998 -0.5793  0.0791  0.1618
  552MPD2    C1 8187   2.679   4.356  14.034  0.0822  0.1913 -0.3292
  552MPD2    C2 8188   2.789   4.334  14.115  0.2868 -0.1564 -0.7462
  552MPD2    C3 8189   2.873   4.445  14.123 -0.0955 -0.6197 -0.3072
  552MPD2    C4 8190   2.837   4.573  14.073  0.2547 -0.3396 -0.4853
  552MPD2    C5 8191   2.713   4.592  14.016 -0.0185 -0.7804 -0.3947
  552MPD2     H 8192   2.810   4.231  14.141  1.4334  0.1729 -0.3989
  552MPD2    H1 8193   2.898   4.662  14.083  0.2399 -0.3767 -0.0694
  552MPD2    H2 8194   2.535   4.499  13.946 -2.1566  0.9569  3.2594
  552MPD2    H3 8195   2.673   4.689  13.992  0.8851 -0.3874 -0.2895
  552MPD2     N 8196   2.998   4.445  14.197 -0.1913  1.0354  0.1246
  552MPD2    H5 8197   3.056   4.528  14.192 -1.1845  1.7439  0.3611
  552MPD2    N1 8198   2.621   4.237  13.982 -0.7299  0.1644  0.7108
  552MPD2    H7 8199   2.656   4.147  14.012  1.6575  0.4541 -1.2040
  553TMC3    C1 8200   2.551   4.109  13.799  0.1276 -0.1092 -0.2778
  553TMC3    C2 8201   2.582   4.137  13.668 -0.0928 -1.3183  0.5914
  553TMC3    C3 8202   2.654   4.041  13.600  0.2417  0.2979 -0.2069
  553TMC3    C4 8203   2.607   3.996  13.863  0.8379  0.5586 -0.2021
  553TMC3    C5 8204   2.667   3.901  13.781  0.0706 -0.0532  0.6737
  553TMC3    C6 8205   2.680   3.923  13.650 -0.0896  0.2411 -1.1621
  553TMC3     C 8206   2.537   4.234  13.874  0.2459 -0.5810  0.1582
  553TMC3     O 8207   2.498   4.326  13.807  0.6882  0.5690 -0.3253
  553TMC3     H 8208   2.567   4.233  13.619  0.7677 -1.3831  0.1911
  553TMC3    H1 8209   2.610   3.984  13.971  1.3148  3.6408  0.1408
  553TMC3    H2 8210   2.722   3.841  13.592 -0.3452  0.6761 -1.9566
  553TMC3    C7 8211   2.761   3.822  13.850  0.0873 -0.1775  0.6307
  553TMC3    C8 8212   2.739   4.084  13.496 -0.4156  0.2835  0.0033
  553TMC3    O1 8213   2.725   3.766  13.954  0.4910  0.2431 -0.3771
  553TMC3    O2 8214   2.856   4.068  13.520  0.0031  0.7125  0.3969
  554TMC3    C1 8215   0.065   3.263  11.379  0.4594  0.1303 -0.0617
  554TMC3    C2 8216   0.045   3.258  11.242  0.1821 -0.0609  0.0181
  554TMC3    C3 8217   0.030   3.371  11.172  0.2116  0.0230 -0.2264
  554TMC3    C4 8218   0.072   3.379  11.448  0.4830 -0.5017 -0.7484
  554TMC3    C5 8219   0.071   3.492  11.369  0.8130  0.7621 -0.4262
  554TMC3    C6 8220   0.034   3.486  11.239  0.0193  0.3365 -0.4163
  554TMC3     C 8221   0.038   3.140  11.458 -0.0616  0.3211  0.1609
  554TMC3     O 8222   4.662   3.073  11.427 -0.2056  0.9420 -0.2904
  554TMC3     H 8223   0.035   3.157  11.204 -1.8693  0.2436 -0.2620
  554TMC3    H1 8224   0.071   3.385  11.556  1.2054  0.0351 -0.7717
  554TMC3    H2 8225   0.018   3.579  11.186 -1.1599 -0.6239 -1.7310
  554TMC3    C7 8226   0.078   3.621  11.441 -0.4321 -0.0143 -0.0700
  554TMC3    C8 8227   0.011   3.380  11.025  0.0615 -0.5692  0.0065
  554TMC3    O1 8228   0.078   3.615  11.564 -0.6534  0.0991  0.0520
  554TMC3    O2 8229   4.714   3.493  10.989 -0.4705 -0.2825  0.7525
  555TMC3    C1 8230   3.825   3.062  14.689 -0.0857  0.4465 -0.4613
  555TMC3    C2 8231   3.787   3.164  14.772  0.5322  0.6183  0.0744
  555TMC3    C3 8232   3.832   3.151  14.901  0.1653  0.7227  0.1110
  555TMC3    C4 8233   3.897   2.956  14.731 -0.5015 -0.4137  0.4445
  555TMC3    C5 8234   3.936   2.944  14.860 -0.3573 -0.2268  0.0233
  555TMC3    C6 8235   3.898   3.042  14.949 -0.3778 -0.6261 -0.8050
  555TMC3     C 8236   3.800   3.060  14.548  0.6128  0.0403 -0.2292
  555TMC3     O 8237   3.863   2.970  14.489 -0.1178 -0.7027  0.5056
  555TMC3     H 8238   3.729   3.252  14.744 -1.4669 -0.4513  0.8381
  555TMC3    H1 8239   3.922   2.868  14.673 -0.2159 -0.2163  0.2708
  555TMC3    H2 8240   3.912   3.029  15.056 -0.8279  2.3504 -0.3737
  555TMC3    C7 8241   3.989   2.819  14.915 -0.2494 -0.2152 -1.1794
  555TMC3    C8 8242   3.772   3.238  14.998 -0.3506  0.0967 -0.6201
  555TMC3    O1 8243   3.942   2.779  15.016 -0.4363  0.5422  0.1382
  555TMC3    O2 8244   3.661   3.287  14.969 -0.1105  0.0806 -0.1380
  556MPD2     C 8245   2.030   4.667  10.699 -0.8796  0.6692  0.4601
  556MPD2    C1 8246   2.042   4.561  10.786  0.2209 -0.3274 -0.4147
  556MPD2    C2 8247   2.044   4.432  10.731 -0.3367  0.1499 -0.6231
  556MPD2    C3 8248   2.048   4.413  10.593 -0.8279  0.4048  0.2911
  556MPD2    C4 8249   2.046   4.521  10.513 -0.1614  0.7780  0.9382
  556MPD2    C5 8250   2.037   4.649  10.566  0.4647  0.6107  0.4677
  556MPD2     H 8251   2.057   4.353  10.805 -1.2288  1.4252  0.9132
  556MPD2    H1 8252   2.034   4.509  10.406  1.1789  2.2587  0.6174
  556MPD2    H2 8253   2.015   0.044  10.727 -1.0562  1.2075 -1.6004
  556MPD2    H3 8254   2.009   4.724  10.493 -1.1279 -0.4365 -0.0006
  556MPD2     N 8255   2.052   4.280  10.543  0.2911  0.0085 -0.2336
  556MPD2    H5 8256   2.037   4.205  10.609  0.5845 -1.9752 -2.4323
  556MPD2    N1 8257   2.045   4.587  10.928 -0.1913 -0.3246 -0.9346
  556MPD2    H7 8258   2.043   4.506  10.989 -1.0909  0.6374  0.3262
  557TMC3    C1 8259   2.100   4.106  10.397  0.4834 -0.1827 -0.5008
  557TMC3    C2 8260   2.165   4.076  10.282 -0.3624  0.6826  0.0230
  557TMC3    C3 8261   2.127   3.971  10.209 -0.7856 -0.2607 -0.9690
  557TMC3    C4 8262   2.000   4.026  10.441  0.0961  1.0451 -0.1684
  557TMC3    C5 8263   1.965   3.922  10.364 -0.3712  0.1753 -0.3320
  557TMC3    C6 8264   2.022   3.888  10.249 -0.1573 -0.4095 -1.0572
  557TMC3     C 8265   2.074   4.248  10.412 -0.5752  0.6871 -0.5118
  557TMC3     O 8266   2.110   4.314  10.314  0.6473 -0.1315  0.1172
  557TMC3     H 8267   2.246   4.145  10.263 -1.0390  0.4966 -3.5776
  557TMC3    H1 8268   1.947   4.058  10.530 -0.8405  0.4293 -0.5080
  557TMC3    H2 8269   2.006   3.788  10.209 -0.2476 -0.5652 -0.6332
  557TMC3    C7 8270   1.887   3.816  10.430 -0.2724 -0.5955 -0.1990
  557TMC3    C8 8271   2.168   3.959  10.072  0.7632 -0.1567  0.3228
  557TMC3    O1 8272   1.923   3.702  10.407 -0.6556 -0.0705  0.0293
  557TMC3    O2 8273   2.267   4.025  10.045  0.3717  0.7031 -0.7505
  558TMC3    C1 8274   4.615   2.651  10.041  0.0323  0.4584 -0.1950
  558TMC3    C2 8275   4.513   2.602  10.119 -0.0335  0.1819 -0.1332
  558TMC3    C3 8276   4.381   2.624  10.073 -0.0718 -0.4424 -0.1435
  558TMC3    C4 8277   4.599   2.713   9.918  1.2438  0.8009  0.3054
  558TMC3    C5 8278   4.462   2.724   9.877 -0.4591  0.7562 -0.5592
  558TMC3    C6 8279   4.355   2.673   9.947  0.0451  0.1578  0.3490
  558TMC3     C 8280   0.013   2.608  10.090  0.5228 -0.3474 -0.5181
  558TMC3     O 8281   0.105   2.680  10.067 -0.0726  0.0892  0.2928
  558TMC3     H 8282   4.530   2.569  10.221  1.4533 -0.3754 -0.5636
  558TMC3    H1 8283   4.680   2.747   9.853  1.5111  0.7763  0.6270
  558TMC3    H2 8284   4.252   2.686   9.918  0.4328 -0.1932 -1.2109
  558TMC3    C7 8285   4.429   2.766   9.744 -0.0781  0.6373  0.3756
  558TMC3    C8 8286   4.261   2.573  10.156 -0.1388  0.4807 -0.5898
  558TMC3    O1 8287   4.508   2.845   9.691  0.1818 -0.4149  0.4634
  558TMC3    O2 8288   4.151   2.575  10.104  0.1904  0.0265 -0.5832
  559MPD2     C 8289   0.004   2.918  10.281  0.2056 -0.8252  0.2139
  559MPD2    C1 8290   4.652   2.842  10.371  0.3976  0.2844  0.2967
  559MPD2    C2 8291   4.709   2.780  10.479  0.9429  0.5214 -0.3338
  559MPD2    C3 8292   0.118   2.815  10.513 -0.2359  0.7028  0.1274
  559MPD2    C4 8293   0.189   2.901  10.433  0.2842 -0.0356  0.0767
  559MPD2    C5 8294   0.137   2.935  10.311  0.1908 -0.3766 -0.2181
  559MPD2     H 8295   4.658   2.716  10.550 -0.2614  0.5104 -1.2081
  559MPD2    H1 8296   0.293   2.921  10.457 -0.0720  2.9130 -0.8413
  559MPD2    H2 8297   4.696   2.963  10.188 -1.0455 -2.6648 -0.2090
  559MPD2    H3 8298   0.190   3.000  10.243 -0.4475 -0.8245 -1.1499
  559MPD2     N 8299   0.161   2.777  10.643  0.4419 -0.0229 -0.3556
  559MPD2    H5 8300   0.103   2.712  10.695  1.8060 -0.8455  0.1349
  559MPD2    N1 8301   4.506   2.829  10.360  0.2525  0.3566 -0.3688
  559MPD2    H7 8302   4.454   2.900  10.310 -1.1289  0.2306  0.8751
  560TMC3    C1 8303   0.301   2.767  10.838 -0.2842 -0.1376  0.7685
  560TMC3    C2 8304   0.253   2.639  10.856 -0.6728 -0.6157 -0.7447
  560TMC3    C3 8305   0.308   2.567  10.958 -0.2335  1.1802 -0.3000
  560TMC3    C4 8306   0.415   2.810  10.907  0.3489  0.2649  0.0703
  560TMC3    C5 8307   0.469   2.737  11.010  0.0133 -0.2422  0.0408
  560TMC3    C6 8308   0.416   2.608  11.034 -0.7946 -0.0315 -0.7223
  560TMC3     C 8309   0.276   2.827  10.708  0.1224  0.2480  0.3172
  560TMC3     O 8310   0.364   2.899  10.672  0.1741  0.0585  0.1240
  560TMC3     H 8311   0.180   2.589  10.794 -2.6619 -2.1187  2.7688
  560TMC3    H1 8312   0.458   2.904  10.876 -0.2357  0.0563 -1.3746
  560TMC3    H2 8313   0.461   2.531  11.095 -0.7913  0.4449 -0.1138
  560TMC3    C7 8314   0.589   2.769  11.081 -0.3610 -0.3237 -1.0251
  560TMC3    C8 8315   0.230   2.453  10.997  0.3683  0.4499  0.3587
  560TMC3    O1 8316   0.641   2.665  11.124  0.1840  0.1444 -0.5492
  560TMC3    O2 8317   0.177   2.388  10.909 -0.5679  0.8736 -0.4833
  561TMC3    C1 8318   2.789   2.063  11.173  0.2239 -0.1657  0.0759
  561TMC3    C2 8319   2.718   1.978  11.251  0.3333  0.1288  0.3732
  561TMC3    C3 8320   2.591   2.012  11.294 -0.1387  0.1705  0.1041
  561TMC3    C4 8321   2.743   2.177  11.125 -0.5358 -0.2212  0.5685
  561TMC3    C5 8322   2.615   2.209  11.166 -0.4081  0.3810  0.1099
  561TMC3    C6 8323   2.535   2.132  11.254 -0.1501  0.4276  0.4144
  561TMC3     C 8324   2.926   2.032  11.142  0.1435 -0.3108  0.4122
  561TMC3     O 8325   2.997   1.969  11.218  0.0370  0.3263 -0.4813
  561TMC3     H 8326   2.761   1.879  11.267  1.0446  0.5435  1.0268
  561TMC3    H1 8327   2.810   2.247  11.076 -2.4285 -0.1949 -1.9825
  561TMC3    H2 8328   2.437   2.170  11.280 -0.2110  1.2389 -0.9698
  561TMC3    C7 8329   2.566   2.343  11.133  0.3330  0.0850 -0.2118
  561TMC3    C8 8330   2.512   1.917  11.378  0.6296  0.3035 -0.2199
  561TMC3    O1 8331   2.461   2.380  11.185  0.2538 -0.3602  0.4428
  561TMC3    O2 8332   2.549   1.800  11.380  0.0738 -0.0596 -0.2460
  562TMC3    C1 8333   3.750   3.263  16.048  0.2687 -0.4364 -0.5251
  562TMC3    C2 8334   3.689   3.385  16.033 -0.4486 -0.0351  0.1069
  562TMC3    C3 8335   3.631   3.416  15.914  0.3396 -0.9165  0.2281
  562TMC3    C4 8336   3.761   3.174  15.941  0.1820  0.1971 -0.1023
  562TMC3    C5 8337   3.702   3.208  15.826  0.2171  0.3556  1.1966
  562TMC3    C6 8338   3.630   3.327  15.807 -0.4063 -0.1528  0.4819
  562TMC3     C 8339   3.770   3.221  16.182 -0.3943 -0.0714  0.5573
  562TMC3     O 8340   3.781   3.306  16.267  0.4294  0.2081 -0.3362
  562TMC3     H 8341   3.680   3.444  16.123  1.4408  0.1452  0.1811
  562TMC3    H1 8342   3.803   3.074  15.949  1.0456  0.5515 -0.2322
  562TMC3    H2 8343   3.575   3.343  15.715 -0.4113 -2.2179  0.1271
  562TMC3    C7 8344   3.731   3.134  15.698  0.9668 -0.1792 -0.4308
  562TMC3    C8 8345   3.581   3.549  15.906 -0.0336 -0.4007  0.3516
  562TMC3    O1 8346   3.640   3.122  15.619 -0.2984  0.7144  0.2099
  562TMC3    O2 8347   3.515   3.579  16.001  0.2110 -0.1469 -0.2728
  563MPD2     C 8348   1.474   4.592  15.477  0.5993  0.3561 -0.2435
  563MPD2    C1 8349   1.454   4.710  15.544  0.3827 -0.2972  0.3038
  563MPD2    C2 8350   1.563   0.044  15.576 -0.2747 -0.1455  0.8773
  563MPD2    C3 8351   1.691   0.002  15.544  0.3337 -0.2738 -0.0028
  563MPD2    C4 8352   1.709   4.611  15.478 -0.3247 -0.3697  0.8347
  563MPD2    C5 8353   1.599   4.539  15.439 -0.2802  0.0877  0.1004
  563MPD2     H 8354   1.551   0.137  15.632 -2.0881  0.2639 -0.1726
  563MPD2    H1 8355   1.808   4.573  15.452  0.5116  1.8146  0.8049
  563MPD2    H2 8356   1.387   4.531  15.454  0.0053  0.5451  1.5071
  563MPD2    H3 8357   1.610   4.441  15.394 -0.0555  0.1680 -0.0173
  563MPD2     N 8358   1.791   0.086  15.593 -0.1708 -0.5214  0.0476
  563MPD2    H5 8359   1.767   0.181  15.622  3.4921  0.0637  1.0769
  563MPD2    N1 8360   1.327   0.028  15.592 -0.5799 -0.0351  0.1352
  563MPD2    H7 8361   1.247   4.699  15.561  1.4277 -1.3153 -2.7859
  564TMC3    C1 8362   1.149   0.162  15.700 -0.4712 -0.5581  0.3334
  564TMC3    C2 8363   1.089   0.036  15.731  0.1512  0.4739  0.3932
  564TMC3    C3 8364   1.033   0.027  15.853  0.1487  0.5913 -0.2394
  564TMC3    C4 8365   1.138   0.274  15.781 -0.6718 -0.2209  0.9880
  564TMC3    C5 8366   1.097   0.252  15.907  0.5759  0.4567 -0.4874
  564TMC3    C6 8367   1.046   0.132  15.943 -0.3979 -0.3118 -0.2581
  564TMC3     C 8368   1.296   0.145  15.656  0.1051 -0.3240  0.1517
  564TMC3     O 8369   1.367   0.238  15.686  0.5777 -0.3874  0.4634
  564TMC3     H 8370   1.088   4.689  15.651  1.1886  0.6565  0.2092
  564TMC3    H1 8371   1.190   0.366  15.755  0.4510 -1.2404 -0.3744
  564TMC3    H2 8372   1.004   0.125  16.043  0.1167 -0.0179 -0.0248
  564TMC3    C7 8373   1.170   0.315  16.010 -0.6540 -0.2897  0.3695
  564TMC3    C8 8374   1.008   4.617  15.903 -0.3044 -0.8810  0.3983
  564TMC3    O1 8375   1.211   0.243  16.098 -0.3325  0.0344  0.1242
  564TMC3    O2 8376   1.009   4.611  16.026  0.1312 -0.6079 -0.0310
  565TMC3    C1 8377   1.583   1.439   9.905 -0.0409 -0.3485 -0.4550
  565TMC3    C2 8378   1.586   1.393  10.031 -0.1868  0.2435  0.7656
  565TMC3    C3 8379   1.558   1.257  10.043  0.1998 -0.1219 -0.0943
  565TMC3    C4 8380   1.549   1.366   9.797  0.4428 -0.5521  0.3208
  565TMC3    C5 8381   1.506   1.236   9.816  0.0684  0.6549 -0.5400
  565TMC3    C6 8382   1.528   1.176   9.935 -0.5551 -0.1514  0.1641
  565TMC3     C 8383   1.603   1.581   9.878 -0.0061  0.2248  0.7243
  565TMC3     O 8384   1.575   1.630   9.769  0.4230 -0.7220  0.6176
  565TMC3     H 8385   1.616   1.443  10.122  2.5889 -0.0041 -0.0187
  565TMC3    H1 8386   1.537   1.412   9.700  1.8137 -0.9652 -0.0374
  565TMC3    H2 8387   1.539   1.068   9.942  0.4980 -0.0059  0.8553
  565TMC3    C7 8388   1.497   1.162   9.693 -0.2163  0.4474  0.3456
  565TMC3    C8 8389   1.587   1.206  10.178  0.1119 -0.2596  0.2850
  565TMC3    O1 8390   1.519   1.219   9.584 -0.1993  0.5819  0.8642
  565TMC3    O2 8391   1.669   1.268  10.250 -0.2755 -0.1905 -0.8053
  566MPD2     C 8392   3.178   2.210  14.165 -0.3096 -0.4093  0.0599
  566MPD2    C1 8393   3.235   2.241  14.044  0.1448 -0.4337 -0.2676
  566MPD2    C2 8394   3.166   2.216  13.926  0.6397  0.4198  0.3245
  566MPD2    C3 8395   3.047   2.155  13.928 -0.3238 -0.1936  0.0007
  566MPD2    C4 8396   2.987   2.108  14.047 -0.1373 -0.0273  0.0261
  566MPD2    C5 8397   3.058   2.141  14.165 -0.3507 -0.0873  0.3921
  566MPD2     H 8398   3.204   2.243  13.828  1.6856 -3.8578 -0.4733
  566MPD2    H1 8399   2.900   2.045  14.064 -1.0723  1.5420  1.0192
  566MPD2    H2 8400   3.227   2.226  14.260 -2.1974 -0.7091  1.0934
  566MPD2    H3 8401   3.020   2.096  14.256 -0.4753 -1.0076 -0.1204
  566MPD2     N 8402   2.982   2.142  13.808  0.5853 -0.5566  0.3018
  566MPD2    H5 8403   3.040   2.149  13.724  2.7454 -3.9617  1.5230
  566MPD2    N1 8404   3.351   2.324  14.051  0.4024  0.4064 -0.2551
  566MPD2    H7 8405   3.364   2.365  14.143 -0.3186  2.1295 -0.9346
  567TMC3    C1 8406   3.496   2.487  13.983 -0.5083 -1.1863  0.4816
  567TMC3    C2 8407   3.491   2.589  13.890 -0.4519  0.2083  0.3136
  567TMC3    C3 8408   3.509   2.715  13.937 -0.2528  0.2920 -0.3050
  567TMC3    C4 8409   3.497   2.517  14.116  0.3044  0.2066  0.6789
  567TMC3    C5 8410   3.509   2.647  14.161  0.6664 -0.6954 -0.1492
  567TMC3    C6 8411   3.520   2.749  14.076 -0.8174  0.1898 -0.1835
  567TMC3     C 8412   3.424   2.371  13.940 -0.4964 -0.0417 -0.3335
  567TMC3     O 8413   3.430   2.337  13.823 -0.5676  0.2367 -0.0621
  567TMC3     H 8414   3.469   2.562  13.787  0.2302  2.1956 -0.3586
  567TMC3    H1 8415   3.500   2.437  14.190  0.6262 -0.9437 -0.5857
  567TMC3    H2 8416   3.541   2.852  14.102 -0.7480  0.2025 -0.2900
  567TMC3    C7 8417   3.528   2.683  14.300  0.5341  0.1389  0.0382
  567TMC3    C8 8418   3.510   2.829  13.851 -0.5712  0.0079  0.1598
  567TMC3    O1 8419   3.566   2.597  14.378  0.2526  0.1646 -0.1167
  567TMC3    O2 8420   3.451   2.927  13.895  0.3510 -0.0250 -0.2005
  568MPD2     C 8421   1.203   3.301  16.564 -0.6017  0.4679 -0.4653
  568MPD2    C1 8422   1.119   3.339  16.658  0.8314  0.2796 -0.9277
  568MPD2    C2 8423   1.074   3.473  16.651 -0.0326  0.2895 -0.2564
  568MPD2    C3 8424   1.102   3.550  16.535  0.1994 -0.1788 -0.2848
  568MPD2    C4 8425   1.177   3.500  16.432  0.2101  0.0865 -0.3750
  568MPD2    C5 8426   1.236   3.380  16.455 -0.3451  0.3376 -0.7168
  568MPD2     H 8427   1.011   3.518  16.726  0.1803  2.4831 -1.3980
  568MPD2    H1 8428   1.192   3.557  16.341  1.0097 -1.2787 -1.0903
  568MPD2    H2 8429   1.266   3.213  16.573 -2.2271 -0.5332  1.0997
  568MPD2    H3 8430   1.310   3.342  16.386 -0.7596  0.7273 -1.3662
  568MPD2     N 8431   1.038   3.673  16.516  0.0496  0.3154 -0.5208
  568MPD2    H5 8432   0.968   3.700  16.584 -1.4698 -0.8594 -1.6335
  568MPD2    N1 8433   1.086   3.245  16.754 -0.2727 -0.4466  0.0773
  568MPD2    H7 8434   1.134   3.156  16.744 -1.1983 -0.4991 -3.9724
  569TMC3    C1 8435   0.969   3.885  16.426 -0.8162 -0.0237 -0.2079
  569TMC3    C2 8436   0.915   3.913  16.550  0.6890 -0.2086 -0.3045
  569TMC3    C3 8437   0.868   4.039  16.574  0.4888 -0.6192 -0.7357
  569TMC3    C4 8438   0.964   3.975  16.322 -0.4302 -0.0049  0.0288
  569TMC3    C5 8439   0.902   4.099  16.347 -0.1210  0.2641  0.2552
  569TMC3    C6 8440   0.859   4.137  16.472  0.1419 -0.6401  0.2631
  569TMC3     C 8441   1.050   3.755  16.413  0.1732 -0.9315  0.4846
  569TMC3     O 8442   1.135   3.760  16.322  0.0071 -0.4460  0.4445
  569TMC3     H 8443   0.909   3.840  16.630 -0.5458 -0.7607 -0.9099
  569TMC3    H1 8444   1.011   3.952  16.227 -2.6216 -0.2163 -1.0097
  569TMC3    H2 8445   0.822   4.236  16.496 -2.1902 -1.9013  1.8491
  569TMC3    C7 8446   0.897   4.202  16.248 -0.6132  0.6530  0.8239
  569TMC3    C8 8447   0.899   4.068  16.713  0.3222  0.4841 -0.4623
  569TMC3    O1 8448   0.907   4.319  16.276 -0.2840  0.2168 -0.4345
  569TMC3    O2 8449   0.808   4.116  16.777  0.3564 -0.4055  0.2083
  570TMC3    C1 8450   0.500   2.372  16.650 -0.3204 -0.3462  0.0318
  570TMC3    C2 8451   0.593   2.404  16.551  0.2443  0.2396  0.3624
  570TMC3    C3 8452   0.573   2.507  16.466 -0.6341  0.3175  0.2278
  570TMC3    C4 8453   0.401   2.460  16.680 -1.1566  0.6480 -0.1330
  570TMC3    C5 8454   0.400   2.573  16.602 -0.0983  0.0690 -0.5053
  570TMC3    C6 8455   0.477   2.607  16.493 -0.1885  0.7449  1.0481
  570TMC3     C 8456   0.497   2.235  16.698  0.5174 -0.0136  0.1029
  570TMC3     O 8457   0.546   2.145  16.630  0.3377  0.4109 -0.4474
  570TMC3     H 8458   0.667   2.328  16.531  0.2474 -0.0752  1.6178
  570TMC3    H1 8459   0.316   2.439  16.743  0.1466 -0.6158  1.2069
  570TMC3    H2 8460   0.460   2.695  16.433 -0.3217 -0.2760 -0.3957
  570TMC3    C7 8461   0.283   2.658  16.626  0.0954  0.3653  0.1978
  570TMC3    C8 8462   0.665   2.545  16.367 -0.2239  0.7951 -0.4297
  570TMC3    O1 8463   0.263   2.684  16.742  0.1225 -0.4201 -0.3395
  570TMC3    O2 8464   0.650   2.656  16.318 -0.1071  0.5734 -0.4692
  571MPD2     C 8465   3.474   4.295  17.495  0.4832 -0.4144 -0.5175
  571MPD2    C1 8466   3.345   4.241  17.490 -0.2765  0.3857  0.7708
  571MPD2    C2 8467   3.236   4.324  17.505 -0.3702  0.6880  0.4764
  571MPD2    C3 8468   3.253   4.460  17.517  0.4397 -0.2539  0.5422
  571MPD2    C4 8469   3.380   4.507  17.527  0.5191  0.5055  0.8408
  571MPD2    C5 8470   3.493   4.431  17.516  0.7503 -0.5921  0.4929
  571MPD2     H 8471   3.136   4.285  17.487 -0.5020  1.1619  0.1717
  571MPD2    H1 8472   3.397   4.613  17.536  0.4994  0.6790 -1.1570
  571MPD2    H2 8473   3.564   4.236  17.486 -0.0266 -1.1943 -0.5549
  571MPD2    H3 8474   3.596   4.465  17.524  1.2022 -2.1080  1.2220
  571MPD2     N 8475   3.147   4.552  17.523  0.1287 -0.5255 -0.4600
  571MPD2    H5 8476   3.167   4.646  17.553 -1.4782 -0.2906 -0.1349
  571MPD2    N1 8477   3.341   4.102  17.460 -0.3459 -0.3065  0.3211
  571MPD2    H7 8478   3.433   4.061  17.450  0.6364  2.3787 -1.8282
  572TMC3    C1 8479   2.920   4.611  17.517 -0.3144  0.0858  0.7954
  572TMC3    C2 8480   2.797   4.558  17.543  0.1983  0.0353 -0.5662
  572TMC3    C3 8481   2.693   4.650  17.544 -0.1303 -0.3074 -0.6111
  572TMC3    C4 8482   2.943   0.022  17.526 -0.0289  0.2131 -0.1040
  572TMC3    C5 8483   2.838   0.105  17.536 -0.1153 -0.6568  0.2266
  572TMC3    C6 8484   2.707   0.063  17.539  0.1583  0.1615 -0.1646
  572TMC3     C 8485   3.020   4.523  17.471 -0.2184  0.7132  0.1360
  572TMC3     O 8486   2.988   4.427  17.401 -0.4277 -0.2962 -0.2410
  572TMC3     H 8487   2.777   4.455  17.513 -1.3632  0.0981  0.2281
  572TMC3    H1 8488   3.046   0.051  17.509 -0.1045 -0.4277 -1.6901
  572TMC3    H2 8489   2.625   0.128  17.565  2.0710  1.2557  3.1708
  572TMC3    C7 8490   2.854   0.247  17.555 -0.3083  0.5256 -0.1693
  572TMC3    C8 8491   2.569   4.594  17.593  0.6456  0.6006 -0.4656
  572TMC3    O1 8492   2.789   0.321  17.484  0.0582  0.1252  0.2320
  572TMC3    O2 8493   2.467   4.630  17.541 -0.7632  0.2628  0.3659
  573MPD2     C 8494   4.205   4.628   0.846 -0.0332 -0.0007  0.8471
  573MPD2    C1 8495   4.325   4.690   0.850 -0.1508  0.1617  0.2126
  573MPD2    C2 8496   4.419   4.678   0.746  0.0118  0.2884 -0.1690
  573MPD2    C3 8497   4.384   4.592   0.646  0.1526 -0.3359  0.7679
  573MPD2    C4 8498   4.269   4.520   0.650 -0.5864  0.6345  0.8801
  573MPD2    C5 8499   4.183   4.541   0.749 -0.0534 -0.3117  0.1381
  573MPD2     H 8500   4.514   0.002   0.754  1.5297 -2.3481 -1.6273
  573MPD2    H1 8501   4.234   4.449   0.576 -2.7524  2.1155  0.4992
  573MPD2    H2 8502   4.134   4.652   0.924 -0.2206  0.4842  0.5310
  573MPD2    H3 8503   4.088   4.488   0.744 -0.3636  0.1349  1.3001
  573MPD2     N 8504   4.466   4.575   0.534 -0.4024  0.0263 -0.1964
  573MPD2    H5 8505   4.438   4.517   0.456 -1.5965  0.6168 -0.2090
  573MPD2    N1 8506   4.344   0.054   0.958 -0.0796 -0.7649  0.5229
  573MPD2    H7 8507   4.263   0.090   1.007  0.5076  1.6088 -0.2572
  574TMC3    C1 8508   4.644   4.585   0.376  0.2523  0.3569  0.2875
  574TMC3    C2 8509   4.568   4.508   0.296 -1.3851  0.2579  0.8022
  574TMC3    C3 8510   4.594   4.517   0.168 -0.4424  0.2175 -0.1677
  574TMC3    C4 8511   0.023   4.664   0.334  0.0283 -0.0149  0.5865
  574TMC3    C5 8512   0.048   4.670   0.201 -0.1914  0.6718  0.3860
  574TMC3    C6 8513   4.690   4.600   0.114  0.0683  0.5764 -0.6003
  574TMC3     C 8514   4.595   4.626   0.509  0.2560  0.2912  0.1443
  574TMC3     O 8515   4.655   4.710   0.573  0.6376 -0.5957 -0.1850
  574TMC3     H 8516   4.487   4.448   0.338 -2.9899  1.5090 -0.5000
  574TMC3    H1 8517   0.079   0.004   0.399  2.0343 -1.0172 -0.1138
  574TMC3    H2 8518   4.705   4.618   0.008 -1.2294  0.5840 -0.7740
  574TMC3    C7 8519   0.156   0.028   0.152  0.0520 -0.2285  0.6411
  574TMC3    C8 8520   4.478   4.488   0.087  0.8637 -0.1665 -0.3631
  574TMC3    O1 8521   0.162   0.132   0.214 -0.2473 -0.0810 -0.0873
  574TMC3    O2 8522   4.411   4.402   0.142  0.3094  0.3955  0.7846
  575TMC3    C1 8523   2.026   1.201  10.915  0.2722  0.3132 -0.4352
  575TMC3    C2 8524   2.015   1.109  11.017 -0.2475 -0.5797 -0.1533
  575TMC3    C3 8525   1.912   1.018  11.002  0.5103  0.3168  0.9346
  575TMC3    C4 8526   1.952   1.200  10.798  1.0570  0.2022  0.0725
  575TMC3    C5 8527   1.861   1.097  10.787  0.8095 -0.2831  0.9981
  575TMC3    C6 8528   1.835   1.006  10.887  0.4240  1.1169  0.3104
  575TMC3     C 8529   2.123   1.307  10.909 -0.1085 -0.2821  0.9099
  575TMC3     O 8530   2.166   1.339  10.800  0.1244  0.0956 -1.1842
  575TMC3     H 8531   2.082   1.120  11.101 -1.7005 -0.5534  0.9984
  575TMC3    H1 8532   1.965   1.278  10.723  0.5726  0.1314 -0.0821
  575TMC3    H2 8533   1.756   0.931  10.891 -0.6185  2.2876  1.8500
  575TMC3    C7 8534   1.779   1.099  10.665 -0.5026  0.2672  0.7003
  575TMC3    C8 8535   1.904   0.911  11.102 -0.5742 -0.2098 -0.4565
  575TMC3    O1 8536   1.787   1.201  10.593 -0.3540  0.2097 -0.4780
  575TMC3    O2 8537   1.870   0.797  11.066 -0.4194  0.0567 -0.5650
  576MPD2     C 8538   1.578   2.079  12.521  0.1712  0.9562  0.5414
  576MPD2    C1 8539   1.579   2.196  12.450  0.5036  0.5550  0.6187
  576MPD2    C2 8540   1.481   2.301  12.484  0.0796  0.2147  0.0350
  576MPD2    C3 8541   1.374   2.276  12.572 -0.3537  0.0291 -0.0461
  576MPD2    C4 8542   1.368   2.144  12.620 -0.7265  0.1725 -0.5829
  576MPD2    C5 8543   1.473   2.058  12.606 -0.7717  0.1953  0.2110
  576MPD2     H 8544   1.491   2.401  12.444 -2.3243  0.4954  0.1120
  576MPD2    H1 8545   1.290   2.094  12.676  1.6494 -1.1441  1.5358
  576MPD2    H2 8546   1.645   1.996  12.504 -0.6261 -0.0209  2.1948
  576MPD2    H3 8547   1.471   1.961  12.654  1.1114 -0.2524 -0.6144
  576MPD2     N 8548   1.284   2.378  12.605  0.6099  0.4771 -0.0488
  576MPD2    H5 8549   1.297   2.471  12.568 -1.2411  0.2242 -1.3563
  576MPD2    N1 8550   1.665   2.223  12.338  0.1179  0.6496  0.4551
  576MPD2    H7 8551   1.672   2.319  12.306 -1.2883  1.0102  1.2453
  577TMC3    C1 8552   1.810   2.175  12.148  0.4577 -0.5911  0.2512
  577TMC3    C2 8553   1.907   2.094  12.090 -0.4391 -0.6878 -0.4486
  577TMC3    C3 8554   1.942   2.107  11.960  0.5666  0.0050 -0.6776
  577TMC3    C4 8555   1.756   2.277  12.079  0.6294 -0.3010  0.3012
  577TMC3    C5 8556   1.791   2.292  11.948 -0.3414  0.0401 -0.3406
  577TMC3    C6 8557   1.877   2.203  11.884  0.3342 -0.3295  0.2101
  577TMC3     C 8558   1.747   2.128  12.274 -0.9337  0.5930  0.2776
  577TMC3     O 8559   1.768   2.016  12.308 -0.3078  0.0073  0.5950
  577TMC3     H 8560   1.935   2.017  12.162 -0.6959 -0.6228 -0.2816
  577TMC3    H1 8561   1.693   2.348  12.132  0.3100  0.1405 -0.6565
  577TMC3    H2 8562   1.900   2.203  11.778 -1.1426  1.1965 -0.0989
  577TMC3    C7 8563   1.743   2.416  11.884 -0.3909 -0.4001 -0.6512
  577TMC3    C8 8564   2.022   2.007  11.901 -0.0705  0.3959  0.3835
  577TMC3    O1 8565   1.634   2.468  11.919 -0.2797  0.4118  0.0227
  577TMC3    O2 8566   2.016   1.898  11.964  0.3477 -0.5986  0.4946
  578MPD2     C 8567   4.528   2.869   1.249 -0.3620  0.3137 -0.3983
  578MPD2    C1 8568   4.564   2.770   1.164  0.5613 -0.3889 -0.0254
  578MPD2    C2 8569   4.699   2.745   1.145  0.2385  0.0512 -0.8141
  578MPD2    C3 8570   0.072   2.811   1.218  0.0541 -0.6111  0.4565
  578MPD2    C4 8571   0.031   2.911   1.309 -0.4466  0.3208  0.6460
  578MPD2    C5 8572   4.623   2.942   1.318  0.5754 -0.1318 -1.0886
  578MPD2     H 8573   0.013   2.675   1.073  1.5201 -0.6611  0.6158
  578MPD2    H1 8574   0.099   2.973   1.365 -0.1967  0.2976  0.3657
  578MPD2    H2 8575   4.425   2.894   1.273  0.1502  0.3038  1.8918
  578MPD2    H3 8576   4.594   3.029   1.377 -2.0417  0.5631 -3.3628
  578MPD2     N 8577   0.208   2.769   1.211 -0.9151  0.0310 -0.5182
  578MPD2    H5 8578   0.225   2.693   1.147  1.7966  0.8982 -0.8285
  578MPD2    N1 8579   4.462   2.690   1.108 -0.4897  0.1319  0.0311
  578MPD2    H7 8580   4.366   2.722   1.108 -0.9823 -1.3491 -0.5230
  579TMC3    C1 8581   0.440   2.756   1.247 -0.3492  0.0082 -0.3910
  579TMC3    C2 8582   0.541   2.763   1.344  0.1818 -0.8307  0.2292
  579TMC3    C3 8583   0.657   2.684   1.327  0.5576 -0.1326  0.1577
  579TMC3    C4 8584   0.437   2.660   1.151 -0.4913 -0.2001 -0.1601
  579TMC3    C5 8585   0.544   2.572   1.139  0.7172  0.1235 -0.6466
  579TMC3    C6 8586   0.660   2.589   1.224  0.1904 -0.1230  0.3087
  579TMC3     C 8587   0.313   2.822   1.285 -0.9425  0.0376  0.7715
  579TMC3     O 8588   0.312   2.903   1.371 -1.2101  0.5066 -0.4636
  579TMC3     H 8589   0.530   2.817   1.437  1.5990 -2.3380  1.2908
  579TMC3    H1 8590   0.372   2.653   1.065 -0.0636  0.6317 -0.5435
  579TMC3    H2 8591   0.754   2.548   1.191 -0.0076 -0.3625  0.0421
  579TMC3    C7 8592   0.569   2.508   1.008  0.4255  0.1588  0.0153
  579TMC3    C8 8593   0.766   2.715   1.413 -0.1528 -0.2513 -0.5273
  579TMC3    O1 8594   0.682   2.506   0.967 -0.6726  0.9457 -0.3771
  579TMC3    O2 8595   0.738   2.775   1.516  0.6259  0.0670  1.0620
  580TMC3    C1 8596   3.992   1.276  11.721 -0.4349  0.5616  0.3013
  580TMC3    C2 8597   4.042   1.234  11.596 -0.9684 -0.4110  0.3115
  580TMC3    C3 8598   4.130   1.132  11.591  0.2400  0.2788  0.4801
  580TMC3    C4 8599   4.015   1.199  11.831  0.6796 -0.2953 -0.7736
  580TMC3    C5 8600   4.088   1.082  11.817  0.4336  0.3562  0.0963
  580TMC3    C6 8601   4.143   1.049  11.698  0.3904 -0.2350 -0.0514
  580TMC3     C 8602   3.988   1.419  11.723  0.1208  0.3303  0.1558
  580TMC3     O 8603   4.023   1.482  11.621  0.1128  0.2412 -0.3121
  580TMC3     H 8604   4.013   1.287  11.506 -0.9693  1.2399  1.2821
  580TMC3    H1 8605   3.965   1.223  11.925 -1.0915  0.6022 -1.9518
  580TMC3    H2 8606   4.232   0.988  11.690  0.4850 -0.0499 -0.4004
  580TMC3    C7 8607   4.116   1.018  11.940 -0.0451  0.4891 -0.0484
  580TMC3    C8 8608   4.256   1.179  11.530 -0.2014  0.5864 -0.1194
  580TMC3    O1 8609   4.127   1.081  12.047 -0.2369 -0.5219 -0.0989
  580TMC3    O2 8610   4.267   1.161  11.411  0.4827 -0.5421 -0.2042
  581MPD2     C 8611   2.296   1.059  14.773 -0.2397 -0.7152  0.4377
  581MPD2    C1 8612   2.300   1.154  14.874 -0.2121  0.3160 -0.2216
  581MPD2    C2 8613   2.183   1.230  14.904 -0.7592  0.4121 -0.8198
  581MPD2    C3 8614   2.078   1.229  14.816  0.0636  0.2947  0.3671
  581MPD2    C4 8615   2.083   1.138  14.710  0.4408  0.6149  0.1876
  581MPD2    C5 8616   2.185   1.052  14.696 -0.7057 -0.6331 -0.3795
  581MPD2     H 8617   2.180   1.290  14.994  0.8487 -1.4016  0.4241
  581MPD2    H1 8618   2.007   1.142  14.633  1.9740 -1.1502 -1.4461
  581MPD2    H2 8619   2.372   0.982  14.776 -0.6986 -1.1862 -0.2707
  581MPD2    H3 8620   2.186   0.979  14.616  4.6388 -0.5537 -0.3242
  581MPD2     N 8621   1.974   1.318  14.836  0.0614  0.0910  0.2693
  581MPD2    H5 8622   1.989   1.394  14.901  0.9661 -0.9339  1.2679
  581MPD2    N1 8623   2.415   1.150  14.960  0.3237 -0.3927  0.2483
  581MPD2    H7 8624   2.473   1.067  14.954 -0.1532 -0.5261 -2.3724
  582TMC3    C1 8625   2.528   1.170  15.160  1.0605 -0.2043 -0.0018
  582TMC3    C2 8626   2.546   1.258  15.265  0.1151 -0.0295 -0.4556
  582TMC3    C3 8627   2.558   1.199  15.384 -1.0651 -0.0123 -0.3184
  582TMC3    C4 8628   2.514   1.036  15.184 -0.6014  0.1267  0.4527
  582TMC3    C5 8629   2.484   0.988  15.309  0.4537 -0.3133  0.0938
  582TMC3    C6 8630   2.531   1.069  15.413 -0.4372 -0.4298 -0.0027
  582TMC3     C 8631   2.430   1.224  15.070 -0.0114 -0.1950  0.3018
  582TMC3     O 8632   2.388   1.334  15.106  0.1587  0.2045 -0.1618
  582TMC3     H 8633   2.571   1.362  15.252  1.9890 -0.4606 -0.3835
  582TMC3    H1 8634   2.503   0.970  15.099 -1.2633  1.9472 -0.8586
  582TMC3    H2 8635   2.537   1.032  15.514 -3.7184  1.4745  0.9118
  582TMC3    C7 8636   2.341   0.981  15.344 -0.0902 -0.0487  0.7298
  582TMC3    C8 8637   2.649   1.268  15.481  0.5196  0.0135  0.6520
  582TMC3    O1 8638   2.316   1.041  15.448  0.3746 -0.7757 -0.4896
  582TMC3    O2 8639   2.765   1.237  15.469  0.2384 -0.4372  0.1220
  583MPD2     C 8640   2.557   3.046  16.894 -0.3684 -0.0367 -0.9911
  583MPD2    C1 8641   2.529   3.151  16.807 -0.3072  0.0735 -0.6178
  583MPD2    C2 8642   2.466   3.264  16.860  0.7840 -0.0344  0.5264
  583MPD2    C3 8643   2.417   3.266  16.990 -0.2508 -0.2910 -0.3254
  583MPD2    C4 8644   2.437   3.158  17.072  0.6635 -0.0475 -0.0383
  583MPD2    C5 8645   2.511   3.050  17.021  0.1098 -0.0299  0.1841
  583MPD2     H 8646   2.432   3.342  16.794  0.0743 -1.6321 -0.9952
  583MPD2    H1 8647   2.406   3.165  17.175 -1.2659 -0.2817 -0.5984
  583MPD2    H2 8648   2.620   2.961  16.870  0.0452 -0.2710  0.9693
  583MPD2    H3 8649   2.535   2.963  17.082  2.6097  0.9482  0.6282
  583MPD2     N 8650   2.359   3.385  17.031  0.2467 -0.0689 -0.4658
  583MPD2    H5 8651   2.340   3.451  16.956 -0.3259 -2.7343 -2.6886
  583MPD2    N1 8652   2.577   3.155  16.672 -0.0326  0.2471 -0.5506
  583MPD2    H7 8653   2.564   3.241  16.621 -0.6589 -0.0919 -0.9653
  584TMC3    C1 8654   2.259   3.534  17.186  0.4157  0.1635  0.6583
  584TMC3    C2 8655   2.292   3.638  17.107  0.0618 -0.2048 -0.0573
  584TMC3    C3 8656   2.273   3.766  17.163  0.5937  0.3978 -0.0232
  584TMC3    C4 8657   2.192   3.549  17.303  0.5996  0.1276 -0.4802
  584TMC3    C5 8658   2.173   3.676  17.353  0.0178 -0.0572  0.2934
  584TMC3    C6 8659   2.218   3.785  17.286  0.2377  0.0054  0.0625
  584TMC3     C 8660   2.309   3.406  17.158 -0.0801 -0.2262 -0.3067
  584TMC3     O 8661   2.313   3.345  17.264  0.0684  0.2789  0.5345
  584TMC3     H 8662   2.334   3.630  17.008 -0.7404 -0.8103 -0.3468
  584TMC3    H1 8663   2.157   3.467  17.365  1.9422  0.1930  0.3623
  584TMC3    H2 8664   2.211   3.886  17.326 -1.0185  0.6997 -1.8852
  584TMC3    C7 8665   2.171   3.676  17.502  0.3330 -0.0009 -0.8001
  584TMC3    C8 8666   2.268   3.875  17.063 -0.1668 -0.0505 -0.2384
  584TMC3    O1 8667   2.113   3.586  17.563  0.1564  0.1029 -0.1020
  584TMC3    O2 8668   2.250   3.843  16.948 -0.0036  0.0464 -0.4517
  585MPD2     C 8669   1.465   2.220   0.354 -0.2912  0.1255  0.2615
  585MPD2    C1 8670   1.517   2.199   0.234 -0.0495 -0.1097  0.2725
  585MPD2    C2 8671   1.504   2.076   0.175  0.6021  0.0138 -1.0829
  585MPD2    C3 8672   1.434   1.979   0.246 -0.2316  1.1276  0.2785
  585MPD2    C4 8673   1.369   2.007   0.364  0.0301 -0.0479  0.1888
  585MPD2    C5 8674   1.385   2.135   0.422 -0.6681 -0.2738  0.0025
  585MPD2     H 8675   1.540   2.053   0.076 -0.8189  0.5576 -1.7198
  585MPD2    H1 8676   1.309   1.940   0.424 -0.2665 -1.2633 -1.4871
  585MPD2    H2 8677   1.469   2.321   0.393 -0.1947  0.7278 -1.3093
  585MPD2    H3 8678   1.350   2.159   0.522  1.9467  0.1634  0.8246
  585MPD2     N 8679   1.412   1.852   0.201 -0.5066  0.1540 -0.5776
  585MPD2    H5 8680   1.352   1.793   0.259  1.8129 -0.5754  1.0992
  585MPD2    N1 8681   1.588   2.301   0.170 -0.0282  0.1348 -0.4600
  585MPD2    H7 8682   1.585   2.389   0.221  0.8272 -1.9638  3.2158
  586TMC3    C1 8683   1.441   1.644   0.084  0.2599  0.0758  0.5050
  586TMC3    C2 8684   1.542   1.565   0.035 -0.4996  0.0010  0.2414
  586TMC3    C3 8685   1.499   1.456  17.674  0.0303  0.3945 -0.4554
  586TMC3    C4 8686   1.308   1.617   0.064  0.2791 -0.3151 -0.4394
  586TMC3    C5 8687   1.269   1.489   0.012 -0.1131  0.0343  0.2330
  586TMC3    C6 8688   1.370   1.416  17.667  0.2664  0.0147  0.1660
  586TMC3     C 8689   1.482   1.789   0.105  0.0178 -0.4705  0.1156
  586TMC3     O 8690   1.555   1.836   0.023  0.4675  0.3895 -0.4080
  586TMC3     H 8691   1.638   1.612   0.019 -1.2877  1.4768 -0.1653
  586TMC3    H1 8692   1.232   1.690   0.087  0.1245 -0.4075 -0.6523
  586TMC3    H2 8693   1.353   1.319  17.621 -0.3146  0.1641  0.0561
  586TMC3    C7 8694   1.149   1.502  17.633 -0.0460  0.2041 -0.1876
  586TMC3    C8 8695   1.567   1.442  17.550  0.7060 -0.2922  0.1654
  586TMC3    O1 8696   1.083   1.604  17.643  0.1132 -0.4199  0.1414
  586TMC3    O2 8697   1.682   1.473  17.553 -0.1675  0.8710 -0.5400
  587TMC3    C1 8698   4.403   0.839  16.180  0.0756 -0.3433  0.7177
  587TMC3    C2 8699   4.407   0.980  16.204  0.3528  0.1598 -0.1749
  587TMC3    C3 8700   4.477   1.054  16.114 -0.9302  0.1042 -0.6296
  587TMC3    C4 8701   4.477   0.778  16.080  0.0921  0.3724  0.3011
  587TMC3    C5 8702   4.554   0.852  15.996 -0.0076 -0.1797 -0.8583
  587TMC3    C6 8703   4.561   0.989  16.019  0.2677 -0.0010  0.6276
  587TMC3     C 8704   4.292   0.763  16.235 -0.3734 -0.2337  0.6177
  587TMC3     O 8705   4.296   0.643  16.247 -0.0139 -0.6586 -0.1295
  587TMC3     H 8706   4.368   1.015  16.299 -0.2708 -1.8550  0.3217
  587TMC3    H1 8707   4.466   0.670  16.070 -0.6924  0.5058 -0.2547
  587TMC3    H2 8708   4.622   1.041  15.946  2.5509 -0.4301  2.2463
  587TMC3    C7 8709   4.578   0.794  15.868  0.0136 -0.3507  0.3007
  587TMC3    C8 8710   4.433   1.192  16.092  0.0470  0.0876 -0.1891
  587TMC3    O1 8711   4.479   0.734  15.823  0.2723 -0.0437  0.7776
  587TMC3    O2 8712   4.499   1.258  16.009 -0.1863  0.1690 -0.1362
  588TMC3    C1 8713   1.076   3.521   9.707  0.2062 -0.8069 -0.1010
  588TMC3    C2 8714   1.007   3.401   9.726 -0.8486 -0.1321  0.1399
  588TMC3    C3 8715   1.000   3.352   9.853  0.6335 -0.0984  0.6701
  588TMC3    C4 8716   1.121   3.595   9.809 -0.2368  0.3324 -0.3376
  588TMC3    C5 8717   1.108   3.538   9.938  0.3160  0.3705 -0.3118
  588TMC3    C6 8718   1.050   3.417   9.960  0.3585  0.3549  0.2424
  588TMC3     C 8719   1.126   3.548   9.576 -0.1457 -0.0056 -0.0350
  588TMC3     O 8720   1.070   3.516   9.468 -0.1677 -0.7980  0.3556
  588TMC3     H 8721   0.967   3.348   9.640 -0.7119  3.0110 -1.8650
  588TMC3    H1 8722   1.166   3.692   9.788  0.9708  0.1442  1.4095
  588TMC3    H2 8723   1.041   3.381  10.062  0.0587  2.8333  1.0842
  588TMC3    C7 8724   1.204   3.581  10.036 -0.0445  0.2252  0.2455
  588TMC3    C8 8725   0.949   3.224   9.862 -1.3449 -0.4987 -0.1452
  588TMC3    O1 8726   1.244   3.504  10.126  0.0020 -0.3259 -0.0072
  588TMC3    O2 8727   0.860   3.198   9.782 -0.5953  0.4441 -0.1982
  589TMC3    C1 8728   1.039   0.355   0.579 -0.3039 -0.8630 -0.0281
  589TMC3    C2 8729   1.151   0.399   0.510 -0.5282  0.6464  0.7557
  589TMC3    C3 8730   1.268   0.317   0.517 -0.0162  0.2409  0.3482
  589TMC3    C4 8731   1.038   0.231   0.637  0.5217  0.8801  0.1447
  589TMC3    C5 8732   1.148   0.155   0.636 -0.1136  0.2288 -0.7602
  589TMC3    C6 8733   1.269   0.200   0.580  0.0117  0.2133 -0.5178
  589TMC3     C 8734   0.909   0.421   0.549  0.6293 -0.0088 -0.2799
  589TMC3     O 8735   0.895   0.487   0.441 -0.1527 -0.2791  0.5113
  589TMC3     H 8736   1.147   0.495   0.462 -1.7992  1.0089  1.5943
  589TMC3    H1 8737   0.941   0.195   0.672  0.8051  0.8080  0.8583
  589TMC3    H2 8738   1.361   0.144   0.587  0.2102  0.5536 -0.3715
  589TMC3    C7 8739   1.135   0.026   0.695 -0.3472 -0.4963  0.4789
  589TMC3    C8 8740   1.390   0.386   0.480  0.2531 -0.9169 -0.5500
  589TMC3    O1 8741   1.026   0.010   0.750  0.2495 -0.0763 -0.0241
  589TMC3    O2 8742   1.371   0.485   0.412  0.0306  0.2678  0.0919
  590MPD2     C 8743   0.151   4.070  16.716  0.1376  0.5169  0.0546
  590MPD2    C1 8744   0.109   4.066  16.585  0.0590  0.7512  0.4417
  590MPD2    C2 8745   0.191   4.069  16.481 -0.6962 -0.8851 -0.2915
  590MPD2    C3 8746   0.321   4.094  16.504  0.5617  0.0976  0.9945
  590MPD2    C4 8747   0.366   4.097  16.629  0.2902 -1.0063 -0.3823
  590MPD2    C5 8748   0.280   4.087  16.731  1.1487  0.1662 -0.1928
  590MPD2     H 8749   0.160   4.061  16.378 -1.7409  0.4934 -0.0810
  590MPD2    H1 8750   0.469   4.121  16.650 -0.1417 -1.9174  2.8332
  590MPD2    H2 8751   0.083   4.063  16.800 -0.5795  0.2699 -0.5588
  590MPD2    H3 8752   0.314   4.094  16.834  2.1623  0.0283 -0.5140
  590MPD2     N 8753   0.389   4.126  16.383 -0.4254 -0.6874  0.6203
  590MPD2    H5 8754   0.339   4.109  16.296  0.1645  2.8128 -0.3894
  590MPD2    N1 8755   4.700   4.045  16.566 -0.1937  0.8841  0.0830
  590MPD2    H7 8756   4.650   4.025  16.652  0.4328 -0.5983  0.1051
  591TMC3    C1 8757   0.529   4.241  16.246 -0.0086  0.7784 -0.1809
  591TMC3    C2 8758   0.508   4.155  16.141  0.1950 -0.1542 -0.3406
  591TMC3    C3 8759   0.522   4.202  16.013  0.8705  0.1498 -0.3186
  591TMC3    C4 8760   0.573   4.367  16.217  0.3037  0.2647 -0.7073
  591TMC3    C5 8761   0.594   4.411  16.087 -0.0232  0.2423  0.7506
  591TMC3    C6 8762   0.565   4.328  15.977  0.2127 -0.2679 -0.8110
  591TMC3     C 8763   0.500   4.201  16.375  0.0816 -0.1221  0.4054
  591TMC3     O 8764   0.563   4.259  16.465  0.5213  0.3267 -0.4115
  591TMC3     H 8765   0.478   4.052  16.160 -0.2544  0.3301  1.5655
  591TMC3    H1 8766   0.594   4.429  16.304 -2.1612  0.3140 -0.1503
  591TMC3    H2 8767   0.592   4.363  15.878 -0.4376 -1.7795 -1.5194
  591TMC3    C7 8768   0.641   4.545  16.071  0.4502 -0.2575 -0.1316
  591TMC3    C8 8769   0.473   4.104  15.917 -0.2093 -0.8730  0.7365
  591TMC3    O1 8770   0.686   4.592  16.172  0.2648 -0.3227  0.2093
  591TMC3    O2 8771   0.430   3.998  15.957 -0.4567  1.0408 -0.3762
  592MPD2     C 8772   0.539   0.983  11.189  0.0077  0.1944 -0.0721
  592MPD2    C1 8773   0.556   0.971  11.324  1.1225  0.0304  0.5956
  592MPD2    C2 8774   0.477   0.880  11.385 -0.2713 -0.5938  0.5491
  592MPD2    C3 8775   0.396   0.792  11.306  0.6562  0.4570  0.0621
  592MPD2    C4 8776   0.385   0.809  11.172  1.0816 -0.3307  0.2013
  592MPD2    C5 8777   0.460   0.907  11.112  0.3926  0.5736  0.2843
  592MPD2     H 8778   0.465   0.875  11.493  1.3608 -0.0118  0.7626
  592MPD2    H1 8779   0.311   0.760  11.110 -0.4874  1.5943  0.5587
  592MPD2    H2 8780   0.589   1.068  11.142 -1.5352  0.7066 -0.8055
  592MPD2    H3 8781   0.447   0.923  11.005 -1.3313  0.4905  0.4725
  592MPD2     N 8782   0.314   0.709  11.382  0.0834 -0.1403 -0.2110
  592MPD2    H5 8783   0.325   0.704  11.483 -4.0134 -0.7183  0.1952
  592MPD2    N1 8784   0.645   1.066  11.386 -0.2651 -0.4858 -0.5136
  592MPD2    H7 8785   0.701   1.120  11.321 -0.6224 -1.3119 -1.5051
  593TMC3    C1 8786   0.732   1.206  11.553 -0.0324  0.8553  0.2664
  593TMC3    C2 8787   0.710   1.254  11.677  0.2796 -0.9041 -0.8931
  593TMC3    C3 8788   0.797   1.343  11.727 -0.2006  0.2840 -1.1347
  593TMC3    C4 8789   0.831   1.255  11.470  0.2505 -0.8100 -0.4002
  593TMC3    C5 8790   0.899   1.364  11.513 -0.0415  0.0031 -0.3659
  593TMC3    C6 8791   0.881   1.408  11.640 -0.1137  0.2763 -0.3224
  593TMC3     C 8792   0.658   1.085  11.520 -0.0940  0.2296  0.2632
  593TMC3     O 8793   0.611   1.024  11.617  0.3445 -0.0232  0.0804
  593TMC3     H 8794   0.640   1.216  11.751  0.3040 -0.5152 -0.6704
  593TMC3    H1 8795   0.867   1.210  11.378 -0.0267 -1.8250 -0.0024
  593TMC3    H2 8796   0.934   1.498  11.669 -1.2262  0.4442  1.1820
  593TMC3    C7 8797   0.998   1.433  11.438  0.1277 -0.2112  0.1941
  593TMC3    C8 8798   0.788   1.399  11.859 -0.4335  0.9042  0.2741
  593TMC3    O1 8799   1.062   1.514  11.500  0.2590 -0.0823  0.2215
  593TMC3    O2 8800   0.677   1.399  11.916 -0.2497 -0.5349 -0.0069
  594MPD2     C 8801   3.539   4.718  13.977 -0.6278 -0.2977 -0.1173
  594MPD2    C1 8802   3.553   4.698  14.108 -0.0777  0.6561  0.4919
  594MPD2    C2 8803   3.655   0.033  14.174  0.5768 -0.0974 -0.4643
  594MPD2    C3 8804   3.742   0.116  14.101 -0.4052  0.0340  0.2754
  594MPD2    C4 8805   3.729   0.129  13.968 -0.5877  0.3164 -0.2326
  594MPD2    C5 8806   3.630   0.061  13.901  0.5384  0.3052  0.4033
  594MPD2     H 8807   3.669   0.020  14.280 -1.4251  0.2280 -0.1643
  594MPD2    H1 8808   3.791   0.198  13.911 -0.7963  0.4317 -0.3211
  594MPD2    H2 8809   3.464   4.669  13.916 -1.4964  1.3349 -0.3732
  594MPD2    H3 8810   3.634   0.057  13.793 -2.6439  1.0897  0.2609
  594MPD2     N 8811   3.846   0.176  14.177  0.5758 -0.0770  0.3213
  594MPD2    H5 8812   3.857   0.154  14.275  2.8356 -0.4978 -0.0310
  594MPD2    N1 8813   3.465   4.612  14.174  0.1712  0.1225  0.1753
  594MPD2    H7 8814   3.399   4.563  14.114 -0.4097  2.4537 -1.1075
  595TMC3    C1 8815   4.271   0.345  14.273 -0.4036  0.2854 -0.2191
  595TMC3    C2 8816   4.182   0.291  14.182 -0.5489  0.2618  0.1358
  595TMC3    C3 8817   4.054   0.272  14.225  0.0228 -0.5165  0.3044
  595TMC3    C4 8818   4.229   0.381  14.402  0.6200  0.1514 -0.1081
  595TMC3    C5 8819   4.096   0.363  14.431 -0.0493  0.7882 -0.3321
  595TMC3    C6 8820   4.012   0.296  14.352 -0.2397 -0.1068 -0.0124
  595TMC3     C 8821   4.412   0.376  14.240 -0.0922 -0.4816 -0.2760
  595TMC3     O 8822   4.456   0.473  14.294  0.1908  0.2776 -0.5598
  595TMC3     H 8823   4.218   0.267  14.083  2.9167  0.0753  1.4219
  595TMC3    H1 8824   4.297   0.439  14.463  1.2471 -0.6692 -0.0312
  595TMC3    H2 8825   3.910   0.305  14.385 -0.0586 -2.1741  1.1348
  595TMC3    C7 8826   4.056   0.396  14.561  0.4178 -0.0017  0.2055
  595TMC3    C8 8827   3.954   0.233  14.126 -0.6307 -0.0076  0.2180
  595TMC3    O1 8828   3.940   0.428  14.578  0.0869 -0.3476 -0.2000
  595TMC3    O2 8829   3.993   0.220  14.013  0.3320 -0.1677  0.2972
  596MPD2     C 8830   3.453   2.988  16.560  0.7578 -0.2110 -0.5994
  596MPD2    C1 8831   3.412   3.096  16.497 -0.3092  0.4054  0.2978
  596MPD2    C2 8832   3.434   3.112  16.361  0.2825  0.0288 -0.5079
  596MPD2    C3 8833   3.474   3.002  16.287 -0.2744 -0.1167 -0.1213
  596MPD2    C4 8834   3.501   2.885  16.346  0.3857 -0.7701 -0.1841
  596MPD2    C5 8835   3.498   2.879  16.484 -0.0751  0.6919  0.5103
  596MPD2     H 8836   3.410   3.202  16.306  0.4119 -0.1371 -0.8324
  596MPD2    H1 8837   3.532   2.799  16.288 -0.7258 -0.5291 -1.1243
  596MPD2    H2 8838   3.445   2.966  16.666 -0.6365 -0.7900 -0.8209
  596MPD2    H3 8839   3.535   2.794  16.541  0.7804  0.3541 -0.5324
  596MPD2     N 8840   3.455   2.988  16.145  0.6004  0.0281 -0.3283
  596MPD2    H5 8841   3.471   2.895  16.108  0.4491  0.0658 -0.4916
  596MPD2    N1 8842   3.359   3.213  16.565 -0.3016  0.3403  0.2922
  596MPD2    H7 8843   3.351   3.296  16.508 -2.9752 -0.1282 -0.0316
  597TMC3    C1 8844   3.292   3.347  16.736  0.3109 -0.6332 -0.2791
  597TMC3    C2 8845   3.314   3.454  16.654 -0.7038  0.1664  0.0536
  597TMC3    C3 8846   3.262   3.575  16.694 -0.2018  0.4915 -0.2826
  597TMC3    C4 8847   3.224   3.361  16.856  0.2231 -0.3532  0.4323
  597TMC3    C5 8848   3.184   3.484  16.897  0.1604 -0.1442 -0.6863
  597TMC3    C6 8849   3.197   3.588  16.812  0.1170  0.1507  0.3102
  597TMC3     C 8850   3.349   3.222  16.701  0.0794 -0.0349 -0.6033
  597TMC3     O 8851   3.349   3.131  16.780  0.4634 -0.1043 -0.7356
  597TMC3     H 8852   3.392   3.446  16.580 -1.5641  0.2699 -0.8725
  597TMC3    H1 8853   3.207   3.274  16.917  1.4329 -0.9236 -0.0351
  597TMC3    H2 8854   3.168   3.688  16.842  0.1857  0.4532 -0.6367
  597TMC3    C7 8855   3.099   3.494  17.018 -0.1060  0.0469 -0.2275
  597TMC3    C8 8856   3.313   3.701  16.643 -0.1711 -0.1646 -0.3066
  597TMC3    O1 8857   3.072   3.389  17.070 -0.0376  0.1960 -0.0061
  597TMC3    O2 8858   3.311   3.799  16.714 -0.2990 -0.0612  0.1826
  598TMC3    C1 8859   1.061   4.494  15.247 -0.5118  0.1096 -0.1277
  598TMC3    C2 8860   0.949   4.408  15.228  0.3121  0.5408  0.2223
  598TMC3    C3 8861   0.903   4.394  15.097  0.0055 -0.2510 -1.0356
  598TMC3    C4 8862   1.126   4.548  15.145 -0.7345 -0.3332 -0.0445
  598TMC3    C5 8863   1.084   4.518  15.017 -0.1183 -0.4668 -0.3490
  598TMC3    C6 8864   0.968   4.448  14.990 -0.3736  0.2256  0.3361
  598TMC3     C 8865   1.114   4.486  15.375 -0.0040 -1.1221  0.3338
  598TMC3     O 8866   1.139   4.589  15.436  0.0593  0.0205 -0.3553
  598TMC3     H 8867   0.900   4.346  15.302  0.6235  0.7644  0.6212
  598TMC3    H1 8868   1.201   4.622  15.170  2.2565 -3.4384  0.0733
  598TMC3    H2 8869   0.931   4.429  14.890 -1.8093  1.2517  0.6670
  598TMC3    C7 8870   1.171   4.542  14.906  0.0731  0.1976 -0.2369
  598TMC3    C8 8871   0.781   4.317  15.080 -0.3373  0.4175 -0.5626
  598TMC3    O1 8872   1.127   4.507  14.795  0.3336 -0.0910 -0.1677
  598TMC3    O2 8873   0.704   4.315  15.176  0.0399  0.3162  0.3993
  599MPD2     C 8874   1.482   2.258  16.150 -0.1715 -0.1694  0.4461
  599MPD2    C1 8875   1.361   2.196  16.102  0.2589 -0.5025  0.2471
  599MPD2    C2 8876   1.254   2.186  16.190  0.1990 -0.7873  0.0287
  599MPD2    C3 8877   1.251   2.249  16.309 -0.5964 -0.4405 -0.3001
  599MPD2    C4 8878   1.361   2.325  16.342 -0.2666  0.1373 -0.5558
  599MPD2    C5 8879   1.483   2.320  16.273  0.4761  0.1298 -0.7190
  599MPD2     H 8880   1.169   2.139  16.141 -2.1353  2.4072  0.9677
  599MPD2    H1 8881   1.362   2.385  16.432 -3.8085  0.5841 -0.8205
  599MPD2    H2 8882   1.568   2.280  16.088  0.1482 -0.5376  0.7618
  599MPD2    H3 8883   1.571   2.374  16.305  0.1803 -0.2389  0.7450
  599MPD2     N 8884   1.146   2.249  16.400  0.3466 -0.4730  0.0372
  599MPD2    H5 8885   1.151   2.305  16.485  1.9699 -0.7010  0.1057
  599MPD2    N1 8886   1.354   2.167  15.965 -0.0930  0.3800  0.1426
  599MPD2    H7 8887   1.437   2.194  15.912  0.3940  0.2385  0.8225
  600TMC3    C1 8888   0.959   2.173  16.502 -0.3082  0.1664 -0.1794
  600TMC3    C2 8889   0.936   2.061  16.577 -0.3214  0.0046  0.0111
  600TMC3    C3 8890   0.887   2.068  16.703 -0.2796  0.4888  0.0817
  600TMC3    C4 8891   0.935   2.293  16.562  0.0214 -0.2736  0.0581
  600TMC3    C5 8892   0.905   2.299  16.696 -0.6107  0.5062 -0.4640
  600TMC3    C6 8893   0.879   2.186  16.766  0.3324  0.3838  0.5678
  600TMC3     C 8894   1.037   2.172  16.386 -0.0233  0.4437 -0.3912
  600TMC3     O 8895   1.005   2.091  16.302  0.3469  0.3670 -0.7011
  600TMC3     H 8896   0.927   1.964  16.530  1.6036  0.3202 -1.0178
  600TMC3    H1 8897   0.945   2.385  16.505 -0.3550 -0.6233 -0.5648
  600TMC3    H2 8898   0.811   2.189  16.850 -0.6824  0.2440 -0.2453
  600TMC3    C7 8899   0.850   2.430  16.747  0.2168 -0.2600 -0.2823
  600TMC3    C8 8900   0.819   1.959  16.769 -0.2343  0.7374  0.2861
  600TMC3    O1 8901   0.792   2.430  16.856 -0.1441 -1.0247 -0.0487
  600TMC3    O2 8902   0.802   1.978  16.889  0.2910  0.1969  0.6621
  601MPD2     C 8903   3.218   0.586  17.671  0.2069  0.5532 -0.0660
  601MPD2    C1 8904   3.128   0.580  17.568  0.8432  0.4131  0.5192
  601MPD2    C2 8905   3.035   0.482  17.561 -0.0576 -0.2434 -0.3952
  601MPD2    C3 8906   3.040   0.377  17.658  0.2325 -0.3694 -0.0186
  601MPD2    C4 8907   3.135   0.381   0.048 -0.3450  0.1008 -0.7392
  601MPD2    C5 8908   3.231   0.482   0.056  0.5510  0.4304 -0.2236
  601MPD2     H 8909   2.969   0.476  17.475 -0.1263  2.7637 -0.5482
  601MPD2    H1 8910   3.149   0.295   0.113 -0.8330 -0.0756 -0.8729
  601MPD2    H2 8911   3.290   0.666  17.677  0.2796  0.3969  1.1994
  601MPD2    H3 8912   3.307   0.484   0.132  2.0417  2.2246 -1.7667
  601MPD2     N 8913   2.959   0.264  17.645 -0.2720  0.1227 -0.0057
  601MPD2    H5 8914   2.994   0.186  17.701  1.8116  0.9502 -0.1539
  601MPD2    N1 8915   3.118   0.680  17.466 -0.1619  0.2060 -0.0828
  601MPD2    H7 8916   3.061   0.660  17.385  0.5055  3.0708 -1.2499
  602TMC3    C1 8917   3.148   0.903  17.377  0.5049 -0.2937 -0.4876
  602TMC3    C2 8918   3.183   1.034  17.409 -0.1072  1.1045 -0.0182
  602TMC3    C3 8919   3.175   1.133  17.317  0.0382  0.0550 -0.1217
  602TMC3    C4 8920   3.104   0.863  17.254  0.0025 -0.1058 -0.3583
  602TMC3    C5 8921   3.100   0.968  17.162  0.4319  0.5711 -0.3447
  602TMC3    C6 8922   3.143   1.092  17.190 -0.5698  0.1377 -0.8635
  602TMC3     C 8923   3.166   0.805  17.482 -0.6439  0.1848  0.0005
  602TMC3     O 8924   3.235   0.852  17.574 -0.1635 -0.0057  0.0046
  602TMC3     H 8925   3.199   1.067  17.512  0.0053  0.1420  0.2674
  602TMC3    H1 8926   3.090   0.760  17.224 -2.6549 -0.0878  0.8157
  602TMC3    H2 8927   3.150   1.164  17.110  1.0547  2.5948  1.5010
  602TMC3    C7 8928   2.975   0.975  17.084 -0.6575  0.5152 -0.2752
  602TMC3    C8 8929   3.081   1.232  17.370 -0.0312 -0.5123  0.2707
  602TMC3    O1 8930   2.946   1.085  17.044 -0.0686  0.2446  0.3997
  602TMC3    O2 8931   3.074   1.252  17.488  0.0562  0.3922  0.6952
  603TMC3    C1 8932   1.717   0.539  11.266  0.3415 -0.6286  0.2640
  603TMC3    C2 8933   1.737   0.502  11.394  0.4494 -0.0958 -0.1224
  603TMC3    C3 8934   1.717   0.597  11.496 -0.7390  0.3346 -0.1739
  603TMC3    C4 8935   1.676   0.665  11.235  0.4458  0.2264  0.0323
  603TMC3    C5 8936   1.643   0.748  11.337 -0.0385  0.1459 -0.3504
  603TMC3    C6 8937   1.662   0.722  11.472 -0.6686 -0.1969 -0.2731
  603TMC3     C 8938   1.750   0.431  11.170 -0.4432  0.6676  0.0211
  603TMC3     O 8939   1.754   0.322  11.223 -0.5627 -0.0073  0.4035
  603TMC3     H 8940   1.769   0.403  11.425  2.3564  0.4475 -0.3156
  603TMC3    H1 8941   1.665   0.687  11.129  1.4857  3.0059  0.5081
  603TMC3    H2 8942   1.646   0.795  11.550  1.2569  1.6127 -1.5923
  603TMC3    C7 8943   1.594   0.883  11.296  0.0042 -0.3792 -0.3421
  603TMC3    C8 8944   1.713   0.541  11.630  0.1312 -0.4195  0.0706
  603TMC3    O1 8945   1.619   0.977  11.370  0.2987  0.2041  0.0321
  603TMC3    O2 8946   1.686   0.422  11.641  0.1045 -0.0861 -0.0470
  604MPD2     C 8947   2.057   4.504  16.338 -0.4632 -0.0368  0.0747
  604MPD2    C1 8948   2.031   4.562  16.219 -0.1239 -0.3758 -0.0492
  604MPD2    C2 8949   2.036   4.487  16.104 -0.4816 -0.5559 -0.1604
  604MPD2    C3 8950   2.084   4.359  16.106 -0.9647 -0.6966 -0.0232
  604MPD2    C4 8951   2.119   4.298  16.224  0.2264 -0.1927 -0.1657
  604MPD2    C5 8952   2.093   4.374  16.339 -0.1698  0.7092  0.4968
  604MPD2     H 8953   2.015   4.530  16.006  1.6627 -1.2053 -0.9086
  604MPD2    H1 8954   2.163   4.199  16.233 -0.4387 -0.5002 -0.2924
  604MPD2    H2 8955   2.052   4.560  16.430 -0.2750 -1.4219  0.9207
  604MPD2    H3 8956   2.104   4.338  16.441  0.3171 -1.4311 -0.3142
  604MPD2     N 8957   2.102   4.306  15.980  0.1768  0.1239 -0.8607
  604MPD2    H5 8958   2.062   4.354  15.900 -0.5100  2.0851  0.6736
  604MPD2    N1 8959   2.000   4.696  16.222 -0.0765  0.1176 -0.0852
  604MPD2    H7 8960   2.006   0.011  16.314  0.6977  1.2534 -0.6606
  605TMC3    C1 8961   1.930   0.187  16.169  0.0143 -0.0130  0.5871
  605TMC3    C2 8962   2.015   0.232  16.268 -0.3279  0.1116  0.3575
  605TMC3    C3 8963   1.979   0.348  16.323  0.1447 -0.1053  0.4597
  605TMC3    C4 8964   1.823   0.261  16.132  0.3489  0.9343 -0.0622
  605TMC3    C5 8965   1.789   0.381  16.192 -0.4533  0.3471  0.4201
  605TMC3    C6 8966   1.873   0.423  16.297  0.3375  0.5967  0.3786
  605TMC3     C 8967   1.948   0.051  16.124  0.1598 -0.1138  0.0034
  605TMC3     O 8968   1.914   0.028  16.010  0.5351 -0.0957  0.3083
  605TMC3     H 8969   2.112   0.190  16.293 -0.6741 -1.9513 -1.8747
  605TMC3    H1 8970   1.752   0.220  16.061  0.3683  1.8359 -0.6066
  605TMC3    H2 8971   1.856   0.516  16.350  0.9828 -0.1415  1.8859
  605TMC3    C7 8972   1.646   0.400  16.213 -0.0474  0.2216 -0.6418
  605TMC3    C8 8973   2.056   0.387  16.443  0.3657  0.6037 -0.1592
  605TMC3    O1 8974   1.576   0.296  16.230 -0.2709  0.1980 -0.0194
  605TMC3    O2 8975   2.065   0.508  16.466  0.0816  0.0297 -0.0105
  606TMC3    C1 8976   3.816   2.461  16.686 -0.0721  0.3007 -0.6419
  606TMC3    C2 8977   3.732   2.566  16.706  0.0745 -0.3215 -0.6645
  606TMC3    C3 8978   3.660   2.568  16.823  0.0771  0.2119 -0.6503
  606TMC3    C4 8979   3.819   2.352  16.760 -0.2990  0.5277  0.1369
  606TMC3    C5 8980   3.743   2.362  16.872 -0.4752 -0.5133  0.0007
  606TMC3    C6 8981   3.667   2.466  16.907 -0.8739  0.2318  0.4616
  606TMC3     C 8982   3.864   2.454  16.550 -0.2829  0.2465  0.3297
  606TMC3     O 8983   3.984   2.425  16.537  0.0944  0.7833 -0.4887
  606TMC3     H 8984   3.749   2.656  16.647  0.4413 -0.2252 -0.4081
  606TMC3    H1 8985   3.868   2.264  16.721  0.6502  0.0276  2.4412
  606TMC3    H2 8986   3.629   2.479  17.007 -1.0842 -1.6862  0.6358
  606TMC3    C7 8987   3.724   2.231  16.934  0.4729  0.3015 -0.3623
  606TMC3    C8 8988   3.574   2.685  16.850 -0.9383  0.4691  0.2757
  606TMC3    O1 8989   3.775   2.137  16.881  0.3225  0.4752  0.1841
  606TMC3    O2 8990   3.495   2.726  16.766 -0.7553  1.0512  0.0933
  607MPD2     C 8991   0.739   0.634  11.446  0.3302  0.0754  0.3031
  607MPD2    C1 8992   0.762   0.728  11.541  0.0046 -0.3200  0.3327
  607MPD2    C2 8993   0.705   0.712  11.663  0.2802 -0.1395 -0.3556
  607MPD2    C3 8994   0.608   0.615  11.681 -0.0537  0.4471  0.0315
  607MPD2    C4 8995   0.579   0.522  11.581  0.2756  0.3715  0.0326
  607MPD2    C5 8996   0.653   0.526  11.466  0.4209  0.4679  0.3077
  607MPD2     H 8997   0.731   0.780  11.744  0.1509 -0.0111 -0.4210
  607MPD2    H1 8998   0.506   0.443  11.595  2.1445 -1.3923 -0.2802
  607MPD2    H2 8999   0.797   0.634  11.355 -1.3249  0.9654 -0.7570
  607MPD2    H3 9000   0.637   0.455  11.385  0.1963 -0.8520  1.5109
  607MPD2     N 9001   0.563   0.613  11.813 -0.0980  0.2485  0.0177
  607MPD2    H5 9002   0.612   0.673  11.879 -1.0355  1.2863 -0.2363
  607MPD2    N1 9003   0.856   0.825  11.537  0.4574 -0.9620 -0.5588
  607MPD2    H7 9004   0.852   0.871  11.628 -0.3865 -1.0890 -0.5266
  608TMC3    C1 9005   1.025   0.975  11.507 -0.1524 -0.0223  0.3483
  608TMC3    C2 9006   1.030   0.998  11.645 -0.1969 -0.1142  0.2111
  608TMC3    C3 9007   1.122   1.093  11.694 -0.2145  0.1995 -0.3687
  608TMC3    C4 9008   1.119   1.041  11.429 -0.4263 -0.5668 -0.0683
  608TMC3    C5 9009   1.212   1.122  11.483  0.0931  0.6596  0.2586
  608TMC3    C6 9010   1.204   1.166  11.615 -0.7566  1.1755 -0.9030
  608TMC3     C 9011   0.936   0.875  11.439  0.0606  0.3278  0.0462
  608TMC3     O 9012   0.952   0.843  11.324 -0.4231  0.0775  0.8862
  608TMC3     H 9013   0.951   0.962  11.709 -0.3690  0.6636  0.4294
  608TMC3    H1 9014   1.125   1.011  11.325 -2.0825 -0.9704 -0.0449
  608TMC3    H2 9015   1.277   1.232  11.660  0.8048 -1.0791 -0.1241
  608TMC3    C7 9016   1.290   1.200  11.391  0.2222  0.2026  0.1869
  608TMC3    C8 9017   1.105   1.140  11.827 -0.0503  0.3089  0.3326
  608TMC3    O1 9018   1.289   1.172  11.274  0.0473  0.2731 -0.0401
  608TMC3    O2 9019   1.107   1.263  11.843 -0.1947  0.6670 -0.6109
  609TMC3    C1 9020   4.222   0.038   8.984  0.1489 -0.4511 -0.0235
  609TMC3    C2 9021   4.269   0.166   8.962 -0.2916 -0.5704 -0.3299
  609TMC3    C3 9022   4.399   0.186   9.006 -0.3386  0.3545  0.3888
  609TMC3    C4 9023   4.294   4.659   9.033  0.1010 -0.0822 -0.5409
  609TMC3    C5 9024   4.425   4.685   9.062 -0.5542  0.9804 -0.5084
  609TMC3    C6 9025   4.477   0.086   9.054 -0.6243 -0.4172  0.3353
  609TMC3     C 9026   4.088   0.012   8.983 -0.2525 -0.8522  0.1065
  609TMC3     O 9027   4.049   4.647   9.054 -0.3784 -0.1333  0.1739
  609TMC3     H 9028   4.206   0.245   8.924 -0.9763  0.0267  2.0665
  609TMC3    H1 9029   4.255   4.563   9.063 -1.6849  0.0636 -2.3636
  609TMC3    H2 9030   4.577   0.111   9.088 -1.1873  0.9053  0.9841
  609TMC3    C7 9031   4.507   4.576   9.100  0.2454 -0.8273  0.3458
  609TMC3    C8 9032   4.454   0.322   9.006  0.0074 -0.0805  0.4012
  609TMC3    O1 9033   4.596   4.581   9.181 -0.2125  0.5659  0.3093
  609TMC3    O2 9034   4.410   0.403   8.924  0.0352 -0.0101 -0.3418
  610TMC3    C1 9035   1.104   1.121  12.435 -0.2171  0.0277  0.3753
  610TMC3    C2 9036   1.190   1.174  12.343  0.0538 -0.0233  0.3422
  610TMC3    C3 9037   1.306   1.103  12.316  0.5311  0.1357 -0.0989
  610TMC3    C4 9038   1.133   1.004  12.503  0.1877  0.4448  0.0581
  610TMC3    C5 9039   1.251   0.947  12.482  0.0242  0.5066  0.2961
  610TMC3    C6 9040   1.343   0.983  12.381 -0.9742 -0.2493 -0.0434
  610TMC3     C 9041   0.999   1.187  12.505  0.3225 -0.3861  0.0201
  610TMC3     O 9042   0.908   1.122  12.555  0.4888  0.4894 -0.4424
  610TMC3     H 9043   1.176   1.274  12.302  0.2222 -0.0052  0.3248
  610TMC3    H1 9044   1.067   0.960  12.577 -0.6249 -0.0175 -0.9460
  610TMC3    H2 9045   1.442   0.939  12.381  0.0048  1.9295 -3.1893
  610TMC3    C7 9046   1.314   0.906  12.609  0.4662 -0.7273  0.1638
  610TMC3    C8 9047   1.362   1.136  12.182  0.2495 -0.2348  0.0880
  610TMC3    O1 9048   1.277   0.969  12.710  0.7309  0.4975  0.0177
  610TMC3    O2 9049   1.347   1.248  12.142 -0.4936 -0.5585  0.4360
  611MPD2     C 9050   0.574   0.735  10.831 -0.6548  0.4739 -0.2057
  611MPD2    C1 9051   0.560   0.763  10.698  0.0873  0.7790  0.8251
  611MPD2    C2 9052   0.669   0.806  10.627 -0.5880 -0.5414 -0.7122
  611MPD2    C3 9053   0.794   0.825  10.686 -0.0971 -0.6291  0.2130
  611MPD2    C4 9054   0.796   0.794  10.821 -0.0378  0.6019  0.1447
  611MPD2    C5 9055   0.686   0.757  10.898  0.4990 -0.7479 -0.2885
  611MPD2     H 9056   0.657   0.827  10.522 -0.2785 -0.4735 -0.7335
  611MPD2    H1 9057   0.880   0.819  10.884  1.3551  0.6554 -1.7300
  611MPD2    H2 9058   0.490   0.693  10.885 -0.5182 -0.8439 -1.0018
  611MPD2    H3 9059   0.696   0.752  11.006 -0.7332  0.2049 -0.1263
  611MPD2     N 9060   0.913   0.864  10.625 -0.2658  1.2731 -0.3694
  611MPD2    H5 9061   0.994   0.886  10.683 -0.2793  0.3363  0.0070
  611MPD2    N1 9062   0.432   0.747  10.647 -0.1752 -0.0024  0.2008
  611MPD2    H7 9063   0.358   0.740  10.717  1.5758 -1.1680  1.9220
  612TMC3    C1 9064   1.061   0.939  10.459  0.5553  0.5289 -0.1920
  612TMC3    C2 9065   1.145   0.982  10.562 -0.2303 -0.3267  0.4889
  612TMC3    C3 9066   1.244   1.073  10.538 -0.2974 -0.3737 -0.5879
  612TMC3    C4 9067   1.075   0.999  10.333  0.7208 -0.8275  0.4694
  612TMC3    C5 9068   1.175   1.094  10.314 -0.0556  0.1921 -0.2087
  612TMC3    C6 9069   1.259   1.138  10.415 -0.1538 -0.0834  0.5336
  612TMC3     C 9070   0.938   0.874  10.492 -0.9414 -1.0677  0.6474
  612TMC3     O 9071   0.861   0.840  10.403 -0.7381  0.7986 -0.1651
  612TMC3     H 9072   1.135   0.946  10.664  1.8076  0.3486  0.9265
  612TMC3    H1 9073   1.011   0.963  10.254 -1.0624 -0.7302  1.8720
  612TMC3    H2 9074   1.326   1.222  10.402 -2.2028  1.5530  0.5655
  612TMC3    C7 9075   1.197   1.161  10.187  0.0357 -0.2110  0.3738
  612TMC3    C8 9076   1.327   1.130  10.650 -0.4407  0.0660  0.2081
  612TMC3    O1 9077   1.277   1.252  10.180  0.4232 -0.2388  0.6023
  612TMC3    O2 9078   1.378   1.240  10.632  0.6308 -0.2584 -0.0249
  613MPD2     C 9079   4.631   3.320  16.093 -0.6971  0.4279  0.1531
  613MPD2    C1 9080   4.510   3.293  16.033 -0.6393 -0.3756 -0.1788
  613MPD2    C2 9081   4.484   3.164  15.984  0.2488  0.1429 -0.1328
  613MPD2    C3 9082   4.585   3.072  15.991 -0.5651 -0.2027 -0.1903
  613MPD2    C4 9083   4.711   3.103  16.043  0.3094  0.1566 -0.2022
  613MPD2    C5 9084   0.005   3.225  16.098  0.4730 -0.1334  0.3133
  613MPD2     H 9085   4.386   3.136  15.945  0.4508  1.1772 -1.3772
  613MPD2    H1 9086   0.064   3.030  16.045  1.5394  1.4358 -1.2789
  613MPD2    H2 9087   4.653   3.420  16.128  1.8641 -0.0495 -0.0724
  613MPD2    H3 9088   0.098   3.251  16.147  0.5301  1.4069 -0.5988
  613MPD2     N 9089   4.583   2.944  15.927 -0.3881  0.9329  0.2772
  613MPD2    H5 9090   4.661   2.882  15.946  0.7071  3.0814  2.7307
  613MPD2    N1 9091   4.409   3.394  16.037 -0.1409  0.5531  0.0774
  613MPD2    H7 9092   4.433   3.488  16.067 -0.2266 -0.1104  2.2608
  614TMC3    C1 9093   4.236   3.500  15.918  0.4336  0.2932  0.2649
  614TMC3    C2 9094   4.343   3.536  15.836  0.1542  0.0922  0.1965
  614TMC3    C3 9095   4.328   3.542  15.698 -0.2058 -0.7696  0.0305
  614TMC3    C4 9096   4.109   3.463  15.866 -0.0360 -0.4973 -0.1763
  614TMC3    C5 9097   4.101   3.464  15.726 -0.2290 -0.1474 -0.2527
  614TMC3    C6 9098   4.208   3.509  15.644  0.2176 -0.1049 -0.4074
  614TMC3     C 9099   4.283   3.380  15.987  0.4264 -0.0842  0.4344
  614TMC3     O 9100   4.211   3.282  15.974  0.0942  0.2824  0.2475
  614TMC3     H 9101   4.435   3.579  15.876  0.1957 -0.8802  1.1478
  614TMC3    H1 9102   4.012   3.444  15.912 -1.1112  2.2217 -1.3179
  614TMC3    H2 9103   4.202   3.504  15.536  0.8813  1.9360 -0.5514
  614TMC3    C7 9104   3.976   3.451  15.663 -0.0308  0.7926 -0.3629
  614TMC3    C8 9105   4.441   3.489  15.620 -0.5361  0.2354  0.1896
  614TMC3    O1 9106   3.879   3.483  15.727 -0.3174 -0.1599 -0.0652
  614TMC3    O2 9107   4.414   3.406  15.538  0.3374 -0.5647  0.3285
  615MPD2     C 9108   3.996   4.136  16.068 -0.1030  0.3245  0.2603
  615MPD2    C1 9109   3.885   4.190  16.130 -0.3132  0.6109 -0.2226
  615MPD2    C2 9110   3.764   4.201  16.067  0.2863 -0.3805 -0.0147
  615MPD2    C3 9111   3.763   4.171  15.930 -0.2624  0.3949  0.0116
  615MPD2    C4 9112   3.874   4.121  15.867  0.4050  0.9096 -0.0264
  615MPD2    C5 9113   3.996   4.107  15.929 -0.6373  0.6783 -0.8083
  615MPD2     H 9114   3.678   4.243  16.119  0.5035  0.2477 -0.1572
  615MPD2    H1 9115   3.869   4.104  15.760 -0.9899  0.9743  0.0241
  615MPD2    H2 9116   4.094   4.138  16.114 -0.6524 -0.7266  1.4772
  615MPD2    H3 9117   4.091   4.088  15.882  1.8366  2.2975  3.5957
  615MPD2     N 9118   3.650   4.194  15.847 -0.4072 -0.4857 -0.0239
  615MPD2    H5 9119   3.657   4.156  15.753 -0.4681  0.5047 -0.4382
  615MPD2    N1 9120   3.893   4.246  16.265  0.1088  0.4875 -0.3818
  615MPD2    H7 9121   3.807   4.286  16.299 -1.4768 -1.3583 -2.2090
  616TMC3    C1 9122   3.995   4.331  16.466 -0.1127  0.0121  0.0346
  616TMC3    C2 9123   4.115   4.360  16.531  0.2123  0.3785  0.0309
  616TMC3    C3 9124   4.106   4.446  16.639 -0.1202  0.1226 -0.7202
  616TMC3    C4 9125   3.872   4.383  16.508  0.9346  0.1934  0.4708
  616TMC3    C5 9126   3.871   4.464  16.625  0.5062  0.9561 -0.3239
  616TMC3    C6 9127   3.990   4.503  16.691  0.3757 -0.0954 -0.3317
  616TMC3     C 9128   4.009   4.252  16.339 -0.1294  0.3441  0.1421
  616TMC3     O 9129   4.119   4.209  16.319  0.4714  0.0330  0.4368
  616TMC3     H 9130   4.205   4.311  16.497 -1.4417 -0.5654 -3.0259
  616TMC3    H1 9131   3.779   4.363  16.457  0.9775  1.6575 -0.1834
  616TMC3    H2 9132   3.997   4.559  16.784 -0.8223  1.4605 -1.1696
  616TMC3    C7 9133   3.749   4.529  16.663 -0.1934  0.0591 -0.9604
  616TMC3    C8 9134   4.220   4.452  16.729 -0.6028 -0.0814 -0.2180
  616TMC3    O1 9135   3.650   4.491  16.605  0.3895 -0.5596  0.5807
  616TMC3    O2 9136   4.201   4.489  16.846  0.1056  0.1491  0.2805
  617MPD2     C 9137   1.577   2.576  13.797 -0.2850 -0.3818 -0.4442
  617MPD2    C1 9138   1.669   2.544  13.894 -0.8609  0.4585 -0.6145
  617MPD2    C2 9139   1.620   2.475  14.001  0.5208 -0.1683 -0.0791
  617MPD2    C3 9140   1.483   2.453  14.018 -0.3694  0.3180 -0.7268
  617MPD2    C4 9141   1.395   2.489  13.919  0.3262  0.4271 -0.0180
  617MPD2    C5 9142   1.445   2.549  13.812 -0.4600  0.3145 -0.5848
  617MPD2     H 9143   1.690   2.456  14.082 -0.0945  0.8888  0.7063
  617MPD2    H1 9144   1.288   2.473  13.919  0.1244  1.9676 -2.8965
  617MPD2    H2 9145   1.607   2.631  13.708 -0.1253 -1.6829 -1.1909
  617MPD2    H3 9146   1.377   2.592  13.739 -0.4706  0.6735 -0.3627
  617MPD2     N 9147   1.432   2.402  14.141  0.3122  0.4702 -0.0170
  617MPD2    H5 9148   1.332   2.385  14.138  0.0898  2.3182 -2.9591
  617MPD2    N1 9149   1.804   2.580  13.861  0.1430  0.0622 -0.4006
  617MPD2    H7 9150   1.824   2.605  13.765  0.6543 -0.7970 -0.5118
  618TMC3    C1 9151   2.042   2.599  13.875 -0.2939  0.5054  0.8632
  618TMC3    C2 9152   2.131   2.497  13.894  0.1441 -0.6294 -0.1894
  618TMC3    C3 9153   2.238   2.496  13.813 -0.2853 -0.2355  0.0777
  618TMC3    C4 9154   2.046   2.683  13.771 -0.4769 -0.3558  0.1107
  618TMC3    C5 9155   2.159   2.686  13.697  0.2376 -0.1906  0.3488
  618TMC3    C6 9156   2.265   2.597  13.718 -0.0104  0.5357  0.1057
  618TMC3     C 9157   1.911   2.574  13.944 -0.0269  0.4263 -0.2944
  618TMC3     O 9158   1.918   2.532  14.056  0.2479 -0.2876  0.0286
  618TMC3     H 9159   2.105   2.420  13.966  1.0375 -0.2830  0.5151
  618TMC3    H1 9160   1.982   2.770  13.772  0.3705  0.2704  0.3967
  618TMC3    H2 9161   2.364   2.615  13.676  0.9100 -0.7144  1.7410
  618TMC3    C7 9162   2.186   2.817  13.637 -0.3392 -0.7685 -0.1344
  618TMC3    C8 9163   2.253   2.358  13.766  0.2876 -0.2919  0.3129
  618TMC3    O1 9164   2.180   2.899  13.726 -0.6701  0.4067  0.4338
  618TMC3    O2 9165   2.179   2.275  13.815  0.6783  0.0811 -0.2410
  619MPD2     C 9166   3.218   3.690  13.487  0.1955  0.2523 -0.5458
  619MPD2    C1 9167   3.151   3.779  13.405 -1.2861 -0.1203 -0.0516
  619MPD2    C2 9168   3.020   3.750  13.362  0.9619  0.2534 -1.1972
  619MPD2    C3 9169   2.950   3.642  13.421  0.8977  0.3902  0.6620
  619MPD2    C4 9170   3.017   3.563  13.513  0.4967 -0.0062 -0.0341
  619MPD2    C5 9171   3.147   3.584  13.537 -0.0753  0.3672  0.8773
  619MPD2     H 9172   2.981   3.820  13.289 -1.2821 -0.4754 -0.6878
  619MPD2    H1 9173   2.969   3.485  13.572 -1.9645  1.9282  0.5093
  619MPD2    H2 9174   3.324   3.679  13.502  0.0112 -1.0428 -0.2423
  619MPD2    H3 9175   3.186   3.530  13.623  0.2953 -1.6847 -0.5839
  619MPD2     N 9176   2.812   3.613  13.403  0.1421 -0.7185  0.8358
  619MPD2    H5 9177   2.761   3.551  13.465 -2.4662  0.0764 -0.5460
  619MPD2    N1 9178   3.218   3.881  13.334  0.1250 -0.2581 -0.4943
  619MPD2    H7 9179   3.175   3.942  13.265 -0.0046 -0.8536 -0.9447
  620TMC3    C1 9180   3.385   4.040  13.294 -0.8907 -0.6677  0.6266
  620TMC3    C2 9181   3.310   4.083  13.187 -0.2318 -0.3283 -0.2804
  620TMC3    C3 9182   3.298   4.217  13.184 -0.8466  0.5250 -0.0295
  620TMC3    C4 9183   3.459   4.123  13.370  0.6603 -0.0796 -0.2934
  620TMC3    C5 9184   3.461   4.253  13.346  0.3338  0.7242 -0.1550
  620TMC3    C6 9185   3.381   4.300  13.249  0.0011 -0.2349  0.9769
  620TMC3     C 9186   3.339   3.925  13.368  0.3273  0.2608  0.3657
  620TMC3     O 9187   3.412   3.881  13.453  0.6891 -0.1026 -0.3133
  620TMC3     H 9188   3.249   4.015  13.130  0.9071  2.2839 -4.5919
  620TMC3    H1 9189   3.522   4.092  13.452  2.6343  3.0100 -0.6383
  620TMC3    H2 9190   3.362   4.406  13.247  0.0078 -0.2249  1.5856
  620TMC3    C7 9191   3.584   4.314  13.391  0.8169 -0.0272 -0.3204
  620TMC3    C8 9192   3.156   4.254  13.199  0.6869 -0.0489 -0.2834
  620TMC3    O1 9193   3.677   4.240  13.373 -0.1520 -0.2105 -0.5350
  620TMC3    O2 9194   3.124   4.319  13.298 -0.1088  0.2137 -0.2098
  621MPD2     C 9195   3.423   3.111  10.053  0.2566 -0.5813 -0.0649
  621MPD2    C1 9196   3.515   3.214  10.020  0.5196 -0.7892  0.9531
  621MPD2    C2 9197   3.507   3.339  10.078 -0.2128 -0.1118 -0.0082
  621MPD2    C3 9198   3.404   3.368  10.164  0.2463  0.4281  0.0224
  621MPD2    C4 9199   3.310   3.273  10.193  0.5591  0.0190 -0.1125
  621MPD2    C5 9200   3.322   3.144  10.142 -0.2456  0.0497  0.5304
  621MPD2     H 9201   3.584   3.413  10.062  1.1366 -1.3579  0.7328
  621MPD2    H1 9202   3.230   3.303  10.260 -1.0259  0.4295 -2.2005
  621MPD2    H2 9203   3.431   3.011  10.012 -3.6989 -0.3266 -1.4845
  621MPD2    H3 9204   3.246   3.073  10.174  0.0539 -0.0058  1.1040
  621MPD2     N 9205   3.400   3.500  10.205  0.5835  0.0822 -0.8908
  621MPD2    H5 9206   3.482   3.560  10.195  0.0541  1.2337  1.6836
  621MPD2    N1 9207   3.610   3.194   9.916 -0.2162  0.4053 -0.2008
  621MPD2    H7 9208   3.655   3.276   9.875  1.5277  0.4947  1.8783
  622TMC3    C1 9209   3.709   3.088   9.731  0.6443 -0.4440  0.1960
  622TMC3    C2 9210   3.641   3.025   9.629  0.1186  1.1158  0.0763
  622TMC3    C3 9211   3.655   3.083   9.507  0.1455 -0.2684 -0.9385
  622TMC3    C4 9212   3.779   3.203   9.724  0.2374 -0.4514 -0.3446
  622TMC3    C5 9213   3.789   3.258   9.596 -0.7861  0.4750 -0.0112
  622TMC3    C6 9214   3.733   3.195   9.488  0.1330  0.6850  0.6419
  622TMC3     C 9215   3.639   3.073   9.852 -0.3065  0.1109 -0.4634
  622TMC3     O 9216   3.591   2.962   9.866 -0.1490  0.1095  0.1321
  622TMC3     H 9217   3.575   2.940   9.639  1.8907 -0.2564 -0.0988
  622TMC3    H1 9218   3.826   3.259   9.804 -0.5539  0.4279 -0.4993
  622TMC3    H2 9219   3.750   3.227   9.386  3.1383 -1.8047  0.3629
  622TMC3    C7 9220   3.881   3.364   9.575  0.1788  0.4459 -0.7202
  622TMC3    C8 9221   3.576   3.041   9.391  0.9943  0.1678  0.3829
  622TMC3    O1 9222   3.972   3.378   9.654 -0.0646  0.1029  0.0579
  622TMC3    O2 9223   3.625   3.065   9.282 -0.9959  0.1766 -0.2608
  623MPD2     C 9224   2.434   4.470  15.888  0.2365  0.1773  0.7053
  623MPD2    C1 9225   2.388   4.571  15.960  0.5795  0.3768 -0.3784
  623MPD2    C2 9226   2.411   4.564  16.098 -0.3779  0.0319 -0.2520
  623MPD2    C3 9227   2.483   4.457  16.157 -0.1629  0.2086  0.3036
  623MPD2    C4 9228   2.526   4.362  16.072  0.8049 -0.2371  0.0632
  623MPD2    C5 9229   2.508   4.367  15.938 -0.2227 -0.0636  0.6197
  623MPD2     H 9230   2.372   4.644  16.160  0.6403 -0.2110  0.6896
  623MPD2    H1 9231   2.586   4.280  16.110 -0.9444 -1.1747  0.8259
  623MPD2    H2 9232   2.427   4.465  15.780  0.9272 -1.3936  0.7237
  623MPD2    H3 9233   2.546   4.286  15.877 -0.4797 -1.0303  1.7531
  623MPD2     N 9234   2.494   4.454  16.300  0.2032 -0.5987 -0.7953
  623MPD2    H5 9235   2.464   4.540  16.345 -2.2925 -1.2269 -1.2743
  623MPD2    N1 9236   2.308   4.672  15.895  0.1665 -0.1418 -0.1314
  623MPD2    H7 9237   2.297   4.658  15.795 -1.0416 -0.4962  0.0523
  624TMC3    C1 9238   2.660   4.414  16.697 -0.9299 -0.0028 -0.2204
  624TMC3    C2 9239   2.563   4.502  16.748  1.2142  0.2573 -0.0316
  624TMC3    C3 9240   2.454   4.517  16.671 -0.4367  0.1941  0.0145
  624TMC3    C4 9241   2.634   4.334  16.582 -0.6486  0.8374 -0.0727
  624TMC3    C5 9242   2.531   4.368  16.512 -0.3267  0.2765  0.0445
  624TMC3    C6 9243   2.430   4.451  16.557  0.1191  0.1998 -0.3918
  624TMC3     C 9244   2.780   4.374  16.775  0.3868  0.3262  0.2058
  624TMC3     O 9245   2.814   4.445  16.868 -0.1067 -0.5946  0.5391
  624TMC3     H 9246   2.590   4.557  16.837  0.0546  1.0009 -0.1464
  624TMC3    H1 9247   2.704   4.264  16.537 -0.4608  1.5852 -0.9353
  624TMC3    H2 9248   2.341   4.474  16.499  0.7927 -1.0233 -1.9099
  624TMC3    C7 9249   2.543   4.351  16.370  0.0496 -0.1610  0.1150
  624TMC3    C8 9250   2.350   4.615  16.706 -0.1102 -0.3040 -0.1386
  624TMC3    O1 9251   2.574   4.239  16.336  0.5723  0.0716  0.1302
  624TMC3    O2 9252   2.234   4.585  16.672 -0.1615 -0.0149  0.4758
  625MPD2     C 9253   2.678   0.960   0.195  0.9334  0.1403 -0.7584
  625MPD2    C1 9254   2.753   1.021   0.296 -0.2410  0.9674  0.3320
  625MPD2    C2 9255   2.777   0.953   0.422  0.4796  0.4243  0.0970
  625MPD2    C3 9256   2.713   0.832   0.444 -0.0128  0.5116 -0.5902
  625MPD2    C4 9257   2.631   0.771   0.342  0.4376  0.7419  0.2046
  625MPD2    C5 9258   2.621   0.833   0.218 -0.7048  0.0665  0.0834
  625MPD2     H 9259   2.835   1.006   0.496 -0.2544  0.6338  0.5130
  625MPD2    H1 9260   2.587   0.672   0.350 -2.4419  2.0771  0.7262
  625MPD2    H2 9261   2.670   0.987   0.090  0.9619 -0.0929 -0.8190
  625MPD2    H3 9262   2.574   0.772   0.141 -1.3919 -1.6708  1.8720
  625MPD2     N 9263   2.732   0.772   0.569  0.0384 -0.2371 -0.0152
  625MPD2    H5 9264   2.806   0.817   0.622 -0.1941  0.0252  0.0845
  625MPD2    N1 9265   2.810   1.155   0.289  0.1461  0.7470 -0.1092
  625MPD2    H7 9266   2.852   1.189   0.375 -1.5615  0.3766  0.8746
  626TMC3    C1 9267   2.864   1.355   0.203  0.0997  0.4272  0.3916
  626TMC3    C2 9268   2.819   1.464   0.132  0.5573 -0.2066  0.6777
  626TMC3    C3 9269   2.855   1.586   0.179  0.2269  0.3704  0.6864
  626TMC3    C4 9270   2.949   1.367   0.313  0.1307  0.2420  0.0336
  626TMC3    C5 9271   2.979   1.492   0.357  0.0227  0.1219 -0.2331
  626TMC3    C6 9272   2.922   1.602   0.299 -0.1289  0.4962  0.4507
  626TMC3     C 9273   2.800   1.230   0.180  0.5245 -1.0416 -0.8867
  626TMC3     O 9274   2.744   1.209   0.072 -0.2771  0.6231 -0.1728
  626TMC3     H 9275   2.758   1.461   0.042  1.2794 -1.1675  0.2261
  626TMC3    H1 9276   3.011   1.287   0.350 -0.8100 -0.1581  0.7394
  626TMC3    H2 9277   2.952   1.703   0.327  1.5365  0.7943 -2.3844
  626TMC3    C7 9278   3.090   1.505   0.444  0.5861 -0.9193  0.2698
  626TMC3    C8 9279   2.800   1.699   0.112 -0.8716  0.2117 -0.7361
  626TMC3    O1 9280   3.163   1.410   0.449 -0.1361 -0.5414 -0.8217
  626TMC3    O2 9281   2.796   1.804   0.176  0.6948  0.0591 -0.1005
  627MPD2     C 9282   1.112   1.373  14.933 -0.2175 -0.2075  0.3826
  627MPD2    C1 9283   1.205   1.275  14.895 -0.4774  0.0345 -0.1454
  627MPD2    C2 9284   1.153   1.156  14.848 -0.1081  0.0251  0.3536
  627MPD2    C3 9285   1.019   1.117  14.856  0.1033 -0.4088 -0.4105
  627MPD2    C4 9286   0.934   1.210  14.914 -0.3244  0.3009 -0.6784
  627MPD2    C5 9287   0.978   1.339  14.936  0.0751 -0.6398 -0.0364
  627MPD2     H 9288   1.221   1.093  14.791  0.2540 -0.1619  0.9907
  627MPD2    H1 9289   0.828   1.187  14.921  0.2310 -1.8877  0.5874
  627MPD2    H2 9290   1.140   1.476  14.953  0.0433 -0.2294  0.1430
  627MPD2    H3 9291   0.918   1.419  14.978  0.0593  0.0263 -1.3174
  627MPD2     N 9292   0.977   0.994  14.814  0.3688  0.0002  0.0863
  627MPD2    H5 9293   1.048   0.935  14.774  0.9596 -2.0236  4.1479
  627MPD2    N1 9294   1.352   1.300  14.887 -0.4894 -0.1667 -0.0817
  627MPD2    H7 9295   1.414   1.232  14.845  0.3169 -1.0157  2.4811
  628TMC3    C1 9296   1.544   1.459  14.877  0.0832 -0.3552  0.0128
  628TMC3    C2 9297   1.638   1.359  14.857 -0.1354  0.3485  0.1792
  628TMC3    C3 9298   1.764   1.394  14.834  0.4406 -0.0311  0.6373
  628TMC3    C4 9299   1.580   1.590  14.879 -0.6823 -0.0475 -0.8243
  628TMC3    C5 9300   1.715   1.621  14.858 -0.8396 -0.3407  0.6432
  628TMC3    C6 9301   1.811   1.520  14.848  0.2216  0.1046 -0.3757
  628TMC3     C 9302   1.404   1.426  14.916 -1.0062 -0.0369 -0.2272
  628TMC3     O 9303   1.341   1.512  14.974 -0.0402 -0.0888  0.0955
  628TMC3     H 9304   1.610   1.254  14.863  1.6449 -0.0566  1.0703
  628TMC3    H1 9305   1.511   1.667  14.913 -2.4622 -1.7765 -0.5366
  628TMC3    H2 9306   1.905   1.554  14.806  0.3726  1.5821  1.1692
  628TMC3    C7 9307   1.755   1.748  14.900  0.3283 -0.0005  0.3001
  628TMC3    C8 9308   1.849   1.294  14.789 -0.0299 -0.4567  0.3753
  628TMC3    O1 9309   1.859   1.760  14.958  0.3484 -0.1380  0.1731
  628TMC3    O2 9310   1.803   1.189  14.745  0.1251 -0.0976 -0.0582
  629MPD2     C 9311   4.696   4.389  16.885 -0.2525 -0.0703 -0.4868
  629MPD2    C1 9312   4.687   4.415  16.748 -0.3542  0.1912  0.2419
  629MPD2    C2 9313   4.572   4.411  16.686 -0.0921 -0.3816 -0.4594
  629MPD2    C3 9314   4.455   4.414  16.754  0.5754  0.2692  0.0510
  629MPD2    C4 9315   4.458   4.389  16.891 -0.4501 -0.3509 -0.4812
  629MPD2    C5 9316   4.582   4.377  16.961 -0.4908 -0.6042 -0.3960
  629MPD2     H 9317   4.561   4.408  16.578 -1.2162 -0.6615 -0.3333
  629MPD2    H1 9318   4.364   4.383  16.944  0.3120  0.9901  1.0010
  629MPD2    H2 9319   0.063   4.375  16.938 -1.4997  2.2168  2.3840
  629MPD2    H3 9320   4.583   4.345  17.065 -0.0551 -1.6054 -0.7061
  629MPD2     N 9321   4.340   4.421  16.677  0.1299 -0.7835 -0.5518
  629MPD2    H5 9322   4.343   4.425  16.575  0.4895 -1.4369 -0.5630
  629MPD2    N1 9323   0.078   4.417  16.676 -0.4495 -0.6782 -0.0642
  629MPD2    H7 9324   0.163   4.422  16.732  0.6699 -1.9487 -1.6184
  630TMC3    C1 9325   0.237   4.416  16.508 -0.7233 -0.5650  0.1614
  630TMC3    C2 9326   0.271   4.515  16.413  0.8092 -0.0691 -0.0957
  630TMC3    C3 9327   0.371   4.603  16.444  0.1877  0.5870  0.2889
  630TMC3    C4 9328   0.305   4.417  16.629 -0.3895 -1.0492 -0.0150
  630TMC3    C5 9329   0.407   4.503  16.648  0.2759 -0.0949 -0.5026
  630TMC3    C6 9330   0.444   4.599  16.555 -0.4843 -0.7831  0.4966
  630TMC3     C 9331   0.097   4.425  16.538 -1.1424 -0.3415 -0.2252
  630TMC3     O 9332   0.022   4.450  16.443 -0.1360 -0.1490  0.4050
  630TMC3     H 9333   0.202   4.534  16.331 -0.7040 -0.0440  1.1821
  630TMC3    H1 9334   0.299   4.333  16.698 -0.4170 -0.3638  0.8205
  630TMC3    H2 9335   0.508   4.681  16.586  1.5076 -2.1566 -0.0303
  630TMC3    C7 9336   0.413   4.558  16.790 -0.0050 -0.1410  0.0740
  630TMC3    C8 9337   0.393   4.711  16.349  0.5879  0.8543 -0.7600
  630TMC3    O1 9338   0.306   4.534  16.851  0.1388  0.2945  0.3519
  630TMC3    O2 9339   0.319   4.720  16.249  0.0470  0.2701 -0.1545
  631MPD2     C 9340   2.724   4.696  15.777  0.0883 -0.2504  0.0621
  631MPD2    C1 9341   2.791   4.703  15.649  0.2862 -0.5129  0.0158
  631MPD2    C2 9342   2.878   4.601  15.616  0.1019  0.0629  0.7604
  631MPD2    C3 9343   2.914   4.498  15.703  0.2716  0.2736 -0.0351
  631MPD2    C4 9344   2.846   4.490  15.822  0.2315  0.1474 -0.2686
  631MPD2    C5 9345   2.753   4.588  15.852  0.5746 -0.1863 -0.2089
  631MPD2     H 9346   2.930   4.614  15.522 -3.0533  3.1849 -0.5646
  631MPD2    H1 9347   2.853   4.413  15.898 -1.0032  2.5487  2.2267
  631MPD2    H2 9348   2.663   0.052  15.812  1.4665  0.8886 -0.1948
  631MPD2    H3 9349   2.705   4.583  15.949  2.1852 -1.0928  0.5574
  631MPD2     N 9350   3.029   4.419  15.673  0.4040 -0.1854 -0.2190
  631MPD2    H5 9351   3.067   4.442  15.582  1.8148  1.1774  0.7089
  631MPD2    N1 9352   2.762   0.087  15.562  0.3049  0.3648  0.4760
  631MPD2    H7 9353   2.725   0.174  15.600  0.1770  0.4731  0.0966
  632TMC3    C1 9354   2.771   0.216  15.367 -0.0274 -0.1266 -0.0878
  632TMC3    C2 9355   2.736   0.325  15.435  0.2969  0.3200  0.3936
  632TMC3    C3 9356   2.720   0.440  15.361 -0.6657  0.6317  0.8683
  632TMC3    C4 9357   2.796   0.224  15.234  0.0389 -0.0416 -0.9340
  632TMC3    C5 9358   2.778   0.340  15.164 -0.4109  0.2933 -0.0171
  632TMC3    C6 9359   2.744   0.453  15.232  0.0121 -0.6510  0.2059
  632TMC3     C 9360   2.791   0.083  15.428  0.2255  0.1965 -0.9939
  632TMC3     O 9361   2.826   4.714  15.357 -0.5848  0.1493  0.2761
  632TMC3     H 9362   2.707   0.320  15.539  1.5659 -1.5209  0.6518
  632TMC3    H1 9363   2.816   0.135  15.175  0.0534  0.9647 -2.4445
  632TMC3    H2 9364   2.714   0.545  15.184 -0.3032 -0.0492  1.5709
  632TMC3    C7 9365   2.878   0.356  15.063  0.7105  0.5652  0.2888
  632TMC3    C8 9366   2.662   0.543  15.438 -0.4445  0.3889  0.8785
  632TMC3    O1 9367   2.856   0.419  14.959 -0.6530  0.3665 -0.1026
  632TMC3    O2 9368   2.683   0.543  15.559 -0.2452 -0.3571 -0.6585
  633MPD2     C 9369   2.830   2.814  17.358 -0.0856  0.5599  0.5330
  633MPD2    C1 9370   2.868   2.761  17.232 -0.0681  0.3367 -0.7596
  633MPD2    C2 9371   2.892   2.629  17.224 -0.0662  0.7231 -0.2125
  633MPD2    C3 9372   2.875   2.541  17.329 -0.3445  0.3248 -0.2815
  633MPD2    C4 9373   2.832   2.593  17.451  0.7502  0.3489  0.6739
  633MPD2    C5 9374   2.812   2.728  17.463  0.7968 -0.5193  0.0690
  633MPD2     H 9375   2.927   2.599  17.126  0.0074 -2.0395  0.6464
  633MPD2    H1 9376   2.830   2.537  17.544 -2.6148 -1.5191 -0.4948
  633MPD2    H2 9377   2.812   2.919  17.377 -1.6482  0.3215  0.3595
  633MPD2    H3 9378   2.783   2.773  17.557  0.8624  0.1875 -0.2418
  633MPD2     N 9379   2.910   2.406  17.311 -0.0569 -0.3956  0.2102
  633MPD2    H5 9380   2.949   2.396  17.217  0.0293  1.4872  0.0394
  633MPD2    N1 9381   2.889   2.833  17.116  0.0923 -0.3029 -0.1417
  633MPD2    H7 9382   2.904   2.778  17.032 -0.1200 -0.7473  0.1130
  634TMC3    C1 9383   2.921   3.024  16.979 -0.0825 -0.5940 -0.2322
  634TMC3    C2 9384   3.014   2.960  16.900 -0.1284  0.3048  0.0982
  634TMC3    C3 9385   3.061   3.020  16.785 -0.6595  0.1487  0.2561
  634TMC3    C4 9386   2.885   3.154  16.951  0.5362  0.3871 -0.3796
  634TMC3    C5 9387   2.917   3.201  16.824 -0.9523  0.2035  0.3874
  634TMC3    C6 9388   3.007   3.139  16.743  0.3287 -0.4713  0.4996
  634TMC3     C 9389   2.888   2.971  17.105  0.1847  0.2584  0.6007
  634TMC3     O 9390   2.845   3.050  17.187 -0.1408  0.5573 -0.3208
  634TMC3     H 9391   3.036   2.855  16.916  1.0245  0.5221 -0.0475
  634TMC3    H1 9392   2.818   3.203  17.021 -0.1675  0.3561 -1.0337
  634TMC3    H2 9393   3.046   3.193  16.657 -0.6917  0.0598  0.3762
  634TMC3    C7 9394   2.867   3.325  16.774  0.4996  0.9206  0.3247
  634TMC3    C8 9395   3.084   2.926  16.677  0.6805  0.1389 -0.3756
  634TMC3    O1 9396   2.899   3.350  16.659  0.1690 -0.6771 -0.5438
  634TMC3    O2 9397   3.109   2.811  16.709  0.2582 -0.4141  0.2058
  635TMC3    C1 9398   3.244   3.892  17.408 -0.1045  0.3230 -0.9152
  635TMC3    C2 9399   3.333   3.870  17.315 -0.6561  0.0076  0.3083
  635TMC3    C3 9400   3.338   3.750  17.264 -0.2892  0.5871  0.2002
  635TMC3    C4 9401   3.148   3.799  17.451  0.3178 -1.0380  0.1515
  635TMC3    C5 9402   3.158   3.676  17.388  0.4965  0.4625  0.5382
  635TMC3    C6 9403   3.258   3.652  17.296  0.2576  0.6342  0.9398
  635TMC3     C 9404   3.224   4.026  17.459  0.0886  1.0636 -0.1220
  635TMC3     O 9405   3.114   4.050  17.509 -0.3003 -0.1203 -0.2862
  635TMC3     H 9406   3.382   3.950  17.262 -0.6024  0.7790  1.5433
  635TMC3    H1 9407   3.078   3.811  17.533  0.4992  1.9601 -0.1240
  635TMC3    H2 9408   3.266   3.561  17.237 -0.9818  1.6211 -0.7651
  635TMC3    C7 9409   3.104   3.571  17.465  0.0274 -0.4164  0.5657
  635TMC3    C8 9410   3.421   3.731  17.143 -0.1253 -0.7080 -0.1398
  635TMC3    O1 9411   3.067   3.602  17.581  0.0752  0.4647 -0.3031
  635TMC3    O2 9412   3.376   3.651  17.064  0.8314 -0.5547  0.1826
  636MPD2     C 9413   3.852   2.979  15.480 -0.1634  0.0938  0.6359
  636MPD2    C1 9414   3.908   2.995  15.604 -0.0274  0.3996 -0.2341
  636MPD2    C2 9415   4.039   2.964  15.624  0.0366 -0.8202 -0.0184
  636MPD2    C3 9416   4.107   2.891  15.530 -0.9120 -0.1814 -0.4729
  636MPD2    C4 9417   4.050   2.873  15.402  0.0013 -0.1339  0.3674
  636MPD2    C5 9418   3.929   2.928  15.370 -0.5847  0.5185 -0.1357
  636MPD2     H 9419   4.091   2.986  15.716  1.2095 -3.0112 -0.1560
  636MPD2    H1 9420   4.100   2.822  15.320  4.5001  4.0838  0.4803
  636MPD2    H2 9421   3.762   3.017  15.433 -1.1354 -2.2268  0.5809
  636MPD2    H3 9422   3.895   2.917  15.268 -2.4938 -0.9804  0.6652
  636MPD2     N 9423   4.241   2.844  15.555  0.0978  0.6387  0.0855
  636MPD2    H5 9424   4.273   2.865  15.649 -2.6852  0.6866  1.0048
  636MPD2    N1 9425   3.843   3.065  15.711 -0.2779  0.6103 -0.1556
  636MPD2    H7 9426   3.884   3.060  15.804 -0.5413  0.7404 -0.0337
  637TMC3    C1 9427   4.454   2.768  15.547  0.5268  0.1550 -0.0343
  637TMC3    C2 9428   4.442   2.761  15.681  0.3237 -0.0076  0.2779
  637TMC3    C3 9429   4.553   2.797  15.755  0.3657 -0.1277 -0.3441
  637TMC3    C4 9430   4.556   2.829  15.487  0.2257 -0.0582  0.5225
  637TMC3    C5 9431   4.651   2.882  15.563 -0.3238 -0.5078 -0.1431
  637TMC3    C6 9432   4.667   2.847  15.691  0.4544 -0.0054 -0.4813
  637TMC3     C 9433   4.330   2.771  15.480  0.7198 -0.3057 -0.2540
  637TMC3     O 9434   4.335   2.750  15.360 -0.0007  0.0649 -0.6998
  637TMC3     H 9435   4.354   2.725  15.731 -1.5234  0.9752 -2.2467
  637TMC3    H1 9436   4.547   2.855  15.382 -2.3805 -0.2942  0.7009
  637TMC3    H2 9437   0.022   2.892  15.747  0.2217 -0.9903  0.6548
  637TMC3    C7 9438   4.678   3.024  15.535  0.2977  0.2475 -0.8124
  637TMC3    C8 9439   4.485   2.887  15.852  0.6457  0.8296 -0.5003
  637TMC3    O1 9440   4.577   3.077  15.484  0.5678  0.0409 -0.6703
  637TMC3    O2 9441   4.376   2.937  15.826 -0.0812 -0.1039  0.8377
  638MPD2     C 9442   3.178   1.870  14.614 -0.4353  0.0811 -0.4522
  638MPD2    C1 9443   3.230   1.750  14.656  0.0026 -0.5690  0.6645
  638MPD2    C2 9444   3.152   1.671  14.746  0.1137  0.5572  0.3857
  638MPD2    C3 9445   3.033   1.721  14.798 -0.1084  0.0411  0.4939
  638MPD2    C4 9446   2.985   1.846  14.751 -0.4697  1.0543  0.3740
  638MPD2    C5 9447   3.061   1.920  14.661 -0.5939  0.2374 -0.1597
  638MPD2     H 9448   3.174   1.567  14.768 -0.7774  1.1600  4.1759
  638MPD2    H1 9449   2.889   1.881  14.788 -0.3408 -0.7325  2.4074
  638MPD2    H2 9450   3.236   1.936  14.551 -0.9661 -0.3022 -1.3373
  638MPD2    H3 9451   3.024   2.012  14.616  0.3026  1.9070  2.5485
  638MPD2     N 9452   2.964   1.635  14.890 -0.7914 -0.2950  0.1670
  638MPD2    H5 9453   3.006   1.545  14.911 -0.3547 -0.2996 -0.7178
  638MPD2    N1 9454   3.350   1.698  14.605  0.1841  1.0369  0.2107
  638MPD2    H7 9455   3.382   1.606  14.634  0.6885  0.5435 -1.9358
  639TMC3    C1 9456   2.831   1.579  15.078  0.3359 -0.0942  0.0229
  639TMC3    C2 9457   2.831   1.444  15.045  0.5691  0.3021  0.4877
  639TMC3    C3 9458   2.875   1.353  15.134  0.8992 -0.7615 -0.2069
  639TMC3    C4 9459   2.886   1.623  15.190  0.1023 -0.4146 -0.7911
  639TMC3    C5 9460   2.934   1.529  15.277  0.0949  0.1305 -0.3806
  639TMC3    C6 9461   2.924   1.392  15.260  0.1438  0.8541 -0.0743
  639TMC3     C 9462   2.865   1.679  14.977 -0.5268 -0.2935  0.5104
  639TMC3     O 9463   2.818   1.792  14.982  0.3182 -0.5632  0.3188
  639TMC3     H 9464   2.783   1.410  14.953  0.0566 -1.3586  1.3771
  639TMC3    H1 9465   2.901   1.730  15.200 -0.8553 -0.2138 -1.4825
  639TMC3    H2 9466   2.936   1.329  15.347 -0.3190  0.1794 -0.5091
  639TMC3    C7 9467   3.040   1.564  15.367 -0.2925 -0.7659 -0.6944
  639TMC3    C8 9468   2.849   1.221  15.106 -0.0096  0.2300 -0.5784
  639TMC3    O1 9469   3.044   1.676  15.405 -0.2500 -0.2622 -0.6129
  639TMC3    O2 9470   2.822   1.189  14.992 -0.0431  0.0741 -0.1681
  640MPD2     C 9471   3.746   4.601   9.755 -0.0304  0.0155  0.4214
  640MPD2    C1 9472   3.788   4.727   9.742  0.4265  0.4173  0.2035
  640MPD2    C2 9473   3.704   0.103   9.757  0.2487 -0.0112 -0.1849
  640MPD2    C3 9474   3.566   0.087   9.770 -0.4632  0.3487  0.0914
  640MPD2    C4 9475   3.522   4.684   9.775  0.1244 -0.4817 -0.5611
  640MPD2    C5 9476   3.613   4.579   9.767  0.1168 -0.2047  0.3668
  640MPD2     H 9477   3.748   0.202   9.751  1.0583 -0.4257 -1.0262
  640MPD2    H1 9478   3.418   4.654   9.785  0.2024 -0.4630  0.3606
  640MPD2    H2 9479   3.811   4.514   9.754  2.2016  1.6728  0.9414
  640MPD2    H3 9480   3.571   4.481   9.788  1.2065 -0.2841  2.1580
  640MPD2     N 9481   3.469   0.193   9.772 -0.0037  0.2103  0.1279
  640MPD2    H5 9482   3.372   0.166   9.775 -0.5699  2.0957 -0.6306
  640MPD2    N1 9483   3.924   0.037   9.724 -0.3636  0.0975  0.4289
  640MPD2    H7 9484   3.950   0.135   9.717  1.4123 -0.3957 -0.1464
  641TMC3    C1 9485   4.151   0.014   9.677 -0.2186 -0.5774 -0.1224
  641TMC3    C2 9486   4.262   4.660   9.703 -0.3142 -0.9312 -0.4793
  641TMC3    C3 9487   4.374   4.676   9.628 -0.0477  0.1129 -0.7262
  641TMC3    C4 9488   4.138   0.086   9.564 -0.2639  0.4067  0.4186
  641TMC3    C5 9489   4.248   0.088   9.481 -0.0941 -1.2698 -0.4004
  641TMC3    C6 9490   4.366   0.026   9.515  0.7193  0.6198  0.3885
  641TMC3     C 9491   4.032   4.678   9.724  0.5369  0.3388 -0.5056
  641TMC3     O 9492   4.042   4.563   9.756  0.4463 -0.3096 -0.2470
  641TMC3     H 9493   4.263   4.590   9.786 -3.7212 -1.0763 -0.5497
  641TMC3    H1 9494   4.047   0.137   9.535 -1.1805 -1.5400 -0.1187
  641TMC3    H2 9495   4.452   0.060   9.458  2.1605 -1.0935  1.5244
  641TMC3    C7 9496   4.256   0.191   9.378 -0.3742  0.2772  0.1717
  641TMC3    C8 9497   4.481   4.576   9.634 -0.2792 -0.9471 -0.6555
  641TMC3    O1 9498   4.368   0.237   9.353 -0.6498  0.2859 -0.1973
  641TMC3    O2 9499   4.537   4.544   9.530 -0.6457 -0.7417 -0.1873
  642TMC3    C1 9500   0.272   1.425  12.217 -0.2425  0.0961 -0.2413
  642TMC3    C2 9501   0.347   1.415  12.331 -0.5348  0.1872  0.4672
  642TMC3    C3 9502   0.414   1.296  12.343  0.2704 -1.0893 -0.0758
  642TMC3    C4 9503   0.253   1.318  12.131 -0.0496  0.8307 -0.3562
  642TMC3    C5 9504   0.312   1.202  12.168 -0.0288 -0.2253 -0.3767
  642TMC3    C6 9505   0.395   1.181  12.271 -0.4195 -0.2699  0.2415
  642TMC3     C 9506   0.218   1.556  12.188 -0.5820  0.2951 -0.1557
  642TMC3     O 9507   0.175   1.576  12.074 -0.0736  0.0122 -0.0614
  642TMC3     H 9508   0.369   1.502  12.392  1.6375 -0.9003  1.2536
  642TMC3    H1 9509   0.195   1.324  12.040 -0.7698  0.4899  0.0775
  642TMC3    H2 9510   0.459   1.094  12.273  0.2011  0.2369  1.8954
  642TMC3    C7 9511   0.262   1.085  12.088  0.5670  0.2907  0.3395
  642TMC3    C8 9512   0.473   1.262  12.470 -0.4797 -0.3334 -0.0769
  642TMC3    O1 9513   0.209   1.106  11.983  0.2801  0.1580  0.1050
  642TMC3    O2 9514   0.541   1.163  12.470 -0.8465 -0.6617  0.0462
  643TMC3    C1 9515   0.157   0.601   0.200 -0.3099 -0.3385  0.5020
  643TMC3    C2 9516   0.054   0.637   0.288 -0.3675 -0.2187 -0.2671
  643TMC3    C3 9517   4.653   0.594   0.250  0.7453 -0.5940  0.5655
  643TMC3    C4 9518   0.126   0.549   0.078  0.5321  0.1440  0.1098
  643TMC3    C5 9519   4.721   0.536   0.039 -0.7616  0.4811  0.4014
  643TMC3    C6 9520   4.620   0.553   0.128  0.5716 -0.4456  0.2108
  643TMC3     C 9521   0.285   0.643   0.239  0.4826 -0.3063  0.2074
  643TMC3     O 9522   0.371   0.627   0.156  0.3963 -0.2382 -0.0421
  643TMC3     H 9523   0.060   0.716   0.362  0.0047 -1.2057  0.7609
  643TMC3    H1 9524   0.204   0.526   0.007  0.4894 -1.7754  0.6794
  643TMC3    H2 9525   4.519   0.552   0.089  1.4103 -1.6671 -1.9183
  643TMC3    C7 9526   4.692   0.561  17.612 -0.1928 -0.0719 -0.5559
  643TMC3    C8 9527   4.542   0.682   0.304  0.4142 -0.0082  0.3455
  643TMC3    O1 9528   0.066   0.599  17.552  0.0638  0.1847 -0.2210
  643TMC3    O2 9529   4.447   0.637   0.367  0.3926 -0.6821  0.7691
  644MPD2     C 9530   3.737   1.075   9.288 -0.3100 -0.3887  0.1562
  644MPD2    C1 9531   3.860   1.078   9.349  0.6904 -0.4190 -0.6526
  644MPD2    C2 9532   3.910   1.197   9.393 -0.3166  0.4456  0.0773
  644MPD2    C3 9533   3.844   1.308   9.367  0.6238 -0.0782 -0.8230
  644MPD2    C4 9534   3.730   1.313   9.282  0.3833  1.3347  0.2431
  644MPD2    C5 9535   3.672   1.194   9.248  0.4735 -0.1944 -0.3984
  644MPD2     H 9536   3.997   1.196   9.457 -1.5403 -1.2133  1.6851
  644MPD2    H1 9537   3.678   1.406   9.260 -2.1274  0.4738  2.5052
  644MPD2    H2 9538   3.695   0.980   9.259 -0.1391 -0.7266  1.0220
  644MPD2    H3 9539   3.577   1.195   9.195 -1.4025 -0.3484  2.9884
  644MPD2     N 9540   3.890   1.420   9.431 -0.3417 -0.1336 -0.1074
  644MPD2    H5 9541   3.973   1.411   9.489  0.0849  2.3615 -0.3319
  644MPD2    N1 9542   3.924   0.953   9.365 -0.5211  0.2241 -0.8499
  644MPD2    H7 9543   3.869   0.877   9.326 -0.8164  0.7910 -1.5332
  645TMC3    C1 9544   3.921   1.649   9.497  0.6804  0.1870 -0.4694
  645TMC3    C2 9545   3.926   1.772   9.440 -0.2928 -0.6731  0.3249
  645TMC3    C3 9546   3.997   1.867   9.513 -0.2927 -0.2458  0.0378
  645TMC3    C4 9547   3.966   1.618   9.626  0.2147 -0.5641  0.2095
  645TMC3    C5 9548   4.020   1.719   9.702 -0.1472  0.5703  0.4704
  645TMC3    C6 9549   4.044   1.845   9.640 -0.7658 -0.7234 -0.1261
  645TMC3     C 9550   3.840   1.549   9.431 -0.1168 -0.2387  0.6281
  645TMC3     O 9551   3.758   1.607   9.361 -0.4811  0.2391  0.4539
  645TMC3     H 9552   3.888   1.790   9.340 -1.8784  2.4714  1.4875
  645TMC3    H1 9553   3.950   1.518   9.666 -0.5975 -0.5301 -0.0185
  645TMC3    H2 9554   4.105   1.922   9.687 -0.9128 -0.3160 -0.6035
  645TMC3    C7 9555   4.044   1.687   9.839 -0.0111  0.2953 -0.5942
  645TMC3    C8 9556   4.054   1.977   9.431  0.0397  0.6304  0.0634
  645TMC3    O1 9557   4.009   1.577   9.874 -0.2545  0.0734  0.2295
  645TMC3    O2 9558   4.027   1.978   9.311 -0.2568  0.5982 -0.2424
  646MPD2     C 9559   3.875   0.309  15.065  0.3577  0.5667 -0.0032
  646MPD2    C1 9560   3.801   0.385  15.145 -0.2966 -0.2244  0.8423
  646MPD2    C2 9561   3.692   0.452  15.087 -0.4470 -0.3604 -0.1426
  646MPD2    C3 9562   3.652   0.421  14.956  0.1983 -0.3661 -0.0385
  646MPD2    C4 9563   3.725   0.327  14.884  0.0057  0.3994 -0.0288
  646MPD2    C5 9564   3.832   0.271  14.939  0.3654 -0.4626 -0.1405
  646MPD2     H 9565   3.626   0.521  15.139 -0.0503  1.0186 -1.4787
  646MPD2    H1 9566   3.703   0.306  14.780  1.2282 -0.1996 -0.1533
  646MPD2    H2 9567   3.961   0.264  15.111 -0.0332 -1.2786 -1.0794
  646MPD2    H3 9568   3.893   0.199  14.886 -0.8236 -0.6588 -1.2712
  646MPD2     N 9569   3.535   0.484  14.912 -0.0039  0.4004  0.3860
  646MPD2    H5 9570   3.478   0.533  14.980 -0.1553  1.7491 -0.7152
  646MPD2    N1 9571   3.842   0.401  15.279  0.1429 -0.2134  0.4648
  646MPD2    H7 9572   3.911   0.336  15.314  0.3449 -1.1217 -1.6432
  647TMC3    C1 9573   3.831   0.454  15.505 -0.5897  0.0833  0.0637
  647TMC3    C2 9574   3.759   0.369  15.583 -0.3777 -0.2597  0.5539
  647TMC3    C3 9575   3.825   0.279  15.666  0.0549  0.6712 -0.3146
  647TMC3    C4 9576   3.967   0.452  15.514  1.0005 -1.1965 -0.0412
  647TMC3    C5 9577   4.031   0.364  15.591  0.0476 -0.3615 -0.1067
  647TMC3    C6 9578   3.961   0.282  15.673  0.3222 -0.7043  0.6804
  647TMC3     C 9579   3.774   0.476  15.371 -0.5354  0.3428 -0.2961
  647TMC3     O 9580   3.657   0.511  15.376  0.1749  0.1343  0.1672
  647TMC3     H 9581   3.651   0.382  15.590 -0.2093  1.7819 -0.6448
  647TMC3    H1 9582   4.013   0.504  15.431 -1.7946  1.5740  0.1393
  647TMC3    H2 9583   4.017   0.216  15.738 -0.8650 -3.9839 -1.5843
  647TMC3    C7 9584   4.151   0.304  15.549 -0.4079 -0.9464  0.2249
  647TMC3    C8 9585   3.790   0.132  15.643 -0.7842 -1.0681 -0.1175
  647TMC3    O1 9586   4.175   0.191  15.589 -0.5109  0.3217  0.2566
  647TMC3    O2 9587   3.868   0.052  15.697 -0.1964  0.2581 -0.3031
  648TMC3    C1 9588   3.353   3.019  15.936 -0.0751  0.2616  0.5393
  648TMC3    C2 9589   3.366   2.887  15.901  0.0754 -0.1578  0.1117
  648TMC3    C3 9590   3.284   2.836  15.796 -0.0132 -0.1464  0.0906
  648TMC3    C4 9591   3.271   3.106  15.869  0.1950  0.5928 -0.4183
  648TMC3    C5 9592   3.185   3.051  15.777 -0.5051  0.0560 -1.1730
  648TMC3    C6 9593   3.196   2.922  15.730 -0.1034  0.4380  0.7621
  648TMC3     C 9594   3.406   3.082  16.056  0.4278 -0.0674  0.1598
  648TMC3     O 9595   3.402   3.206  16.072 -0.0587  0.3843 -0.2377
  648TMC3     H 9596   3.433   2.823  15.956  1.4112  1.3586  0.2386
  648TMC3    H1 9597   3.265   3.211  15.896 -1.7353  0.3341  0.1651
  648TMC3    H2 9598   3.133   2.893  15.647  0.4517 -0.4561  0.6471
  648TMC3    C7 9599   3.085   3.139  15.722  0.1419  0.1325 -0.3958
  648TMC3    C8 9600   3.293   2.693  15.770  0.1315 -0.0198  0.0749
  648TMC3    O1 9601   3.027   3.106  15.619 -0.4260 -0.3688  0.1283
  648TMC3    O2 9602   3.194   2.629  15.739 -0.3280 -0.4582 -0.1811
  649TMC3    C1 9603   1.685   3.651  12.743 -0.5287 -0.3427  0.0518
  649TMC3    C2 9604   1.796   3.725  12.769  0.2670  0.4192 -0.7454
  649TMC3    C3 9605   1.850   3.706  12.896 -0.4516  0.2434 -0.8123
  649TMC3    C4 9606   1.614   3.583  12.838  0.6692  0.4106  0.2190
  649TMC3    C5 9607   1.675   3.560  12.953  0.6158 -0.2565  0.3241
  649TMC3    C6 9608   1.797   3.615  12.983  0.6216  0.2360 -0.2426
  649TMC3     C 9609   1.604   3.680  12.627  0.3021  0.3951  0.0530
  649TMC3     O 9610   1.482   3.658  12.632 -0.2240  0.7379 -0.1390
  649TMC3     H 9611   1.841   3.792  12.697 -1.0441  1.0881 -0.9288
  649TMC3    H1 9612   1.517   3.538  12.818  0.6666  0.0871  0.9483
  649TMC3    H2 9613   1.846   3.593  13.078 -2.6384 -1.7033  0.9961
  649TMC3    C7 9614   1.594   3.507  13.061  0.1093  0.3089  0.7200
  649TMC3    C8 9615   1.979   3.754  12.926 -0.6405  0.8268 -0.4244
  649TMC3    O1 9616   1.475   3.514  13.042 -0.3115 -0.1255  0.0092
  649TMC3    O2 9617   2.038   3.703  13.020  0.1784 -0.2267 -0.2964
  650TMC3    C1 9618   4.632   0.786  12.655 -0.5356  0.3313  1.0381
  650TMC3    C2 9619   4.586   0.914  12.675  0.4912  0.3694 -0.2161
  650TMC3    C3 9620   4.458   0.934  12.637  0.3991  0.0696  0.3792
  650TMC3    C4 9621   4.557   0.691  12.588 -0.4264 -0.2137 -0.4857
  650TMC3    C5 9622   4.431   0.726  12.553 -0.4352 -0.1868  0.2397
  650TMC3    C6 9623   4.373   0.844  12.578  0.5236 -0.4179  0.8301
  650TMC3     C 9624   0.051   0.770  12.659  0.2955  0.2455 -0.2720
  650TMC3     O 9625   0.116   0.875  12.666 -0.5113  0.2989 -0.0807
  650TMC3     H 9626   4.650   0.984  12.728 -0.5551 -0.4754  2.2052
  650TMC3    H1 9627   4.601   0.595  12.564 -2.1356 -1.0460 -0.2792
  650TMC3    H2 9628   4.269   0.862  12.557  0.6581 -0.2088  0.3598
  650TMC3    C7 9629   4.367   0.655  12.445 -0.8065 -0.0222 -0.1759
  650TMC3    C8 9630   4.415   1.072  12.666 -0.0177  0.5069 -0.6701
  650TMC3    O1 9631   4.366   0.533  12.434 -0.1535 -0.6917  0.7130
  650TMC3    O2 9632   4.496   1.164  12.686  0.5267 -0.1153 -0.3437
  651MPD2     C 9633   3.552   2.676  10.913  0.3924  0.2057 -0.1923
  651MPD2    C1 9634   3.536   2.749  10.799 -0.0873 -0.3800 -0.2177
  651MPD2    C2 9635   3.656   2.770  10.726 -0.4690 -0.1102 -0.8557
  651MPD2    C3 9636   3.776   2.709  10.757 -0.4254  0.1993  0.1363
  651MPD2    C4 9637   3.780   2.628  10.867  0.0958  0.2344 -0.3478
  651MPD2    C5 9638   3.669   2.610  10.942  0.0562 -0.5634  0.0991
  651MPD2     H 9639   3.662   2.828  10.635  2.2567  2.3440  0.9006
  651MPD2    H1 9640   3.876   2.584  10.893  0.0545  0.4983  0.2627
  651MPD2    H2 9641   3.467   2.647  10.974  1.8535 -0.7961  1.3991
  651MPD2    H3 9642   3.673   2.542  11.027 -0.7370 -1.3571 -0.4850
  651MPD2     N 9643   3.895   2.745  10.681 -0.4463  0.5117  0.3741
  651MPD2    H5 9644   3.886   2.805  10.600  2.2891  0.2268 -0.1367
  651MPD2    N1 9645   3.407   2.798  10.763 -0.5089  0.6084  0.2914
  651MPD2    H7 9646   3.332   2.766  10.823 -1.0701  3.0467  0.8847
  652TMC3    C1 9647   4.304   2.804  10.494 -0.2026  0.4018 -0.6272
  652TMC3    C2 9648   4.211   2.723  10.545 -0.1063 -0.7745 -0.0069
  652TMC3    C3 9649   4.105   2.780  10.610  0.0536  0.0562  0.3725
  652TMC3    C4 9650   4.292   2.943  10.499  0.3370  0.5908 -0.6048
  652TMC3    C5 9651   4.176   2.998  10.561  0.3296 -0.2399  0.0322
  652TMC3    C6 9652   4.080   2.915  10.620 -0.2142 -0.2700 -0.2841
  652TMC3     C 9653   4.427   2.742  10.438 -0.6103 -0.3326 -0.2349
  652TMC3     O 9654   4.457   2.629  10.472  0.0449  0.0023 -0.1714
  652TMC3     H 9655   4.227   2.616  10.547 -0.6844 -0.9192 -3.8557
  652TMC3    H1 9656   4.373   3.013  10.486  0.5318 -0.1396 -3.1754
  652TMC3    H2 9657   4.011   2.956  10.693  0.9625  0.2853  0.5286
  652TMC3    C7 9658   4.194   3.116  10.638  0.3397 -0.1277  0.0979
  652TMC3    C8 9659   4.015   2.701  10.695  0.5350 -0.0350 -0.0547
  652TMC3    O1 9660   4.183   3.116  10.757 -0.1001 -0.3393 -0.1161
  652TMC3    O2 9661   4.068   2.641  10.789 -0.0725  0.3829 -0.7111
  653MPD2     C 9662   2.455   2.841  17.446 -0.0222 -0.0933 -0.2652
  653MPD2    C1 9663   2.395   2.953  17.389  0.4819  0.2420  0.5842
  653MPD2    C2 9664   2.311   2.932  17.283 -0.3369  0.1579  0.1163
  653MPD2    C3 9665   2.281   2.803  17.236 -0.3252 -0.0010 -0.3063
  653MPD2    C4 9666   2.341   2.696  17.291 -0.0282 -0.0259 -0.5032
  653MPD2    C5 9667   2.430   2.715  17.396  0.1761  0.3755 -0.3528
  653MPD2     H 9668   2.258   3.015  17.239 -1.4043 -0.8134 -0.4244
  653MPD2    H1 9669   2.311   2.598  17.257  0.6141 -0.0370 -1.0393
  653MPD2    H2 9670   2.531   2.839  17.523  1.8740 -1.1710 -2.1642
  653MPD2    H3 9671   2.472   2.627  17.442 -1.0812  1.2802  2.5333
  653MPD2     N 9672   2.188   2.779  17.135 -0.1358  0.4991 -0.3527
  653MPD2    H5 9673   2.131   2.861  17.114 -0.6422  0.4100  0.6383
  653MPD2    N1 9674   2.420   3.085  17.431 -0.1106  0.3834  0.5143
  653MPD2    H7 9675   2.376   3.162  17.381  1.8689  1.4166  0.3799
  654TMC3    C1 9676   2.082   2.679  16.954 -0.2474 -0.5653  0.7290
  654TMC3    C2 9677   1.947   2.699  16.990 -0.4085  0.1366 -0.0646
  654TMC3    C3 9678   1.851   2.665  16.899  0.2288 -0.3731 -0.9524
  654TMC3    C4 9679   2.111   2.615  16.836  0.1125 -0.5429  0.4977
  654TMC3    C5 9680   2.011   2.598  16.745 -0.0219 -0.1170  0.3583
  654TMC3    C6 9681   1.880   2.611  16.777 -0.2612  0.2166 -0.0109
  654TMC3     C 9682   2.175   2.663  17.064 -0.1354  0.4466  0.1435
  654TMC3     O 9683   2.246   2.562  17.054  0.1228 -0.3345  0.4615
  654TMC3     H 9684   1.915   2.762  17.072 -1.6714 -1.9989  1.0793
  654TMC3    H1 9685   2.216   2.611  16.809 -0.6214 -0.1845 -2.3192
  654TMC3    H2 9686   1.797   2.605  16.707 -0.6220 -0.9672  0.5203
  654TMC3    C7 9687   2.045   2.500  16.644  0.2739 -0.2286 -0.3695
  654TMC3    C8 9688   1.714   2.694  16.926 -0.2538 -0.1833 -0.2573
  654TMC3    O1 9689   1.989   2.486  16.537 -0.1662  0.1211 -0.5506
  654TMC3    O2 9690   1.684   2.791  16.994  0.7262  0.6572 -0.0785
  655MPD2     C 9691   3.355   3.259  15.397 -0.6263  0.2706  0.5158
  655MPD2    C1 9692   3.263   3.362  15.374 -0.1107  1.1302  0.0528
  655MPD2    C2 9693   3.208   3.383  15.250 -0.4390 -0.0982  0.7622
  655MPD2    C3 9694   3.243   3.301  15.146  0.4359 -0.9552  0.3460
  655MPD2    C4 9695   3.343   3.215  15.165 -0.1467 -0.0888  0.7334
  655MPD2    C5 9696   3.395   3.194  15.287  0.2059 -0.4643  0.4850
  655MPD2     H 9697   3.141   3.468  15.246  0.7396  0.7666 -0.8984
  655MPD2    H1 9698   3.386   3.165  15.078  1.0161  1.5896  0.3270
  655MPD2    H2 9699   3.401   3.248  15.495 -1.2707 -1.0875  0.6601
  655MPD2    H3 9700   3.479   3.126  15.293  0.3049 -0.2966  0.9623
  655MPD2     N 9701   3.200   3.328  15.017 -0.3210  0.1966  0.3159
  655MPD2    H5 9702   3.245   3.278  14.941  0.1906  1.9657 -0.5555
  655MPD2    N1 9703   3.221   3.455  15.473  0.1478 -0.2692 -0.3036
  655MPD2    H7 9704   3.150   3.525  15.455  0.4543 -0.0106 -0.5010
  656TMC3    C1 9705   3.232   3.580  15.680 -0.0084  0.4342  0.3166
  656TMC3    C2 9706   3.248   3.577  15.814  0.1166  0.5774  0.5177
  656TMC3    C3 9707   3.196   3.683  15.890  0.0847  0.1712 -0.8917
  656TMC3    C4 9708   3.175   3.685  15.616 -0.2016 -0.2644  0.2659
  656TMC3    C5 9709   3.127   3.787  15.691 -0.5066 -0.0704 -0.3025
  656TMC3    C6 9710   3.130   3.788  15.830 -0.6821  0.0757  0.1400
  656TMC3     C 9711   3.279   3.464  15.603 -0.0062 -0.7775  0.3260
  656TMC3     O 9712   3.343   3.388  15.669 -0.2492  0.4062  0.3275
  656TMC3     H 9713   3.300   3.494  15.859 -0.5113 -1.3119 -2.2834
  656TMC3    H1 9714   3.192   3.700  15.510  2.0608 -0.0608  0.6583
  656TMC3    H2 9715   3.077   3.861  15.891 -2.2895 -0.8701 -0.1172
  656TMC3    C7 9716   3.064   3.895  15.619 -0.5965  0.6783 -0.3209
  656TMC3    C8 9717   3.182   3.654  16.027 -0.8105  0.3604 -0.7658
  656TMC3    O1 9718   3.098   3.915  15.505  0.4604  0.4240  0.2468
  656TMC3    O2 9719   3.223   3.546  16.064  0.4367 -0.3137 -0.3838
  657TMC3    C1 9720   2.177   2.856  14.548 -0.5449  0.0930 -0.5556
  657TMC3    C2 9721   2.204   2.871  14.680  0.8463  0.6987  0.3377
  657TMC3    C3 9722   2.096   2.876  14.766  0.0492  0.3645 -0.3932
  657TMC3    C4 9723   2.051   2.838  14.503 -0.3641 -0.3313  0.5729
  657TMC3    C5 9724   1.945   2.845  14.593  0.3737 -0.1376 -0.3446
  657TMC3    C6 9725   1.966   2.864  14.728 -0.5627 -0.2711 -0.9401
  657TMC3     C 9726   2.284   2.823  14.455 -0.5460  0.2514 -1.4163
  657TMC3     O 9727   2.254   2.809  14.338 -0.0692 -0.2929 -0.0878
  657TMC3     H 9728   2.304   2.881  14.720  0.7628 -2.4790  1.3776
  657TMC3    H1 9729   2.034   2.829  14.396  1.5778 -0.1071  0.2501
  657TMC3    H2 9730   1.889   2.863  14.805 -0.4020  2.9274 -0.7218
  657TMC3    C7 9731   1.804   2.854  14.552  1.0834 -0.2085  0.9017
  657TMC3    C8 9732   2.112   2.934  14.896  0.0172  0.4360 -0.4759
  657TMC3    O1 9733   1.722   2.866  14.640 -0.0255 -0.2931 -0.2789
  657TMC3    O2 9734   2.036   3.021  14.936  0.1525  0.1801 -0.3747
  658MPD2     C 9735   3.441   2.974  14.729 -0.5878  0.0742 -0.6638
  658MPD2    C1 9736   3.369   3.030  14.627  0.3587 -0.0885 -0.0698
  658MPD2    C2 9737   3.394   2.974  14.502 -0.3282 -0.5775  0.0749
  658MPD2    C3 9738   3.475   2.868  14.471  0.4783 -0.3349  0.4004
  658MPD2    C4 9739   3.547   2.817  14.576 -0.5755  0.0228  0.0856
  658MPD2    C5 9740   3.525   2.869  14.702 -0.2633 -0.5801  0.0253
  658MPD2     H 9741   3.341   3.013  14.416  2.6991  1.4391 -0.8551
  658MPD2    H1 9742   3.617   2.734  14.577 -1.3812 -0.6259  2.2259
  658MPD2    H2 9743   3.422   2.999  14.833 -0.5941 -2.3929 -0.0516
  658MPD2    H3 9744   3.572   2.823  14.788  3.7836  1.8779 -0.8877
  658MPD2     N 9745   3.479   2.806  14.343 -0.0935 -0.5417  0.1332
  658MPD2    H5 9746   3.413   2.856  14.284 -0.4510  1.6362  2.3303
  658MPD2    N1 9747   3.283   3.139  14.658 -0.2973  0.0831 -0.9095
  658MPD2    H7 9748   3.296   3.188  14.746 -2.6313 -2.4602  0.8498
  659TMC3    C1 9749   3.102   3.290  14.637  0.0931  0.2738  0.3086
  659TMC3    C2 9750   3.143   3.320  14.760 -0.6351 -0.0215 -0.1124
  659TMC3    C3 9751   3.050   3.374  14.846  0.6075  0.0232  1.0831
  659TMC3    C4 9752   2.975   3.304  14.592 -0.3340  0.6655  0.9480
  659TMC3    C5 9753   2.879   3.338  14.683  0.1331 -0.6316  0.5604
  659TMC3    C6 9754   2.912   3.364  14.812  0.4466 -0.6324 -0.1737
  659TMC3     C 9755   3.184   3.190  14.574 -0.4397  0.2449 -0.5368
  659TMC3     O 9756   3.148   3.148  14.464  0.0842  0.5552 -0.4786
  659TMC3     H 9757   3.243   3.360  14.768 -1.7432  2.2237  2.4776
  659TMC3    H1 9758   2.951   3.272  14.492 -1.6347  2.1442  0.7961
  659TMC3    H2 9759   2.836   3.394  14.883  1.1911 -1.5888  1.0319
  659TMC3    C7 9760   2.737   3.333  14.650 -0.2817  0.0674  0.5523
  659TMC3    C8 9761   3.085   3.400  14.991  0.1134 -0.1729  0.4031
  659TMC3    O1 9762   2.665   3.408  14.720 -0.9309 -0.0385  0.0892
  659TMC3    O2 9763   2.999   3.443  15.067 -0.2711 -0.1250  0.3801
  660MPD2     C 9764   2.018   1.602  12.611 -0.3654 -0.2365 -0.3313
  660MPD2    C1 9765   1.879   1.587  12.610  0.0969 -0.8510  0.8426
  660MPD2    C2 9766   1.816   1.518  12.707  1.3002 -0.1455  0.0573
  660MPD2    C3 9767   1.886   1.465  12.814  0.4780  0.5465 -0.6035
  660MPD2    C4 9768   2.017   1.486  12.821  0.5258  0.0419  0.0647
  660MPD2    C5 9769   2.084   1.551  12.721  0.5256 -0.8576  0.4593
  660MPD2     H 9770   1.712   1.489  12.696  1.3991 -0.0324 -1.2216
  660MPD2    H1 9771   2.081   1.442  12.896  0.7721 -1.2819 -0.9209
  660MPD2    H2 9772   2.074   1.668  12.546  0.8830  0.4801  1.4663
  660MPD2    H3 9773   2.191   1.566  12.727 -0.0022  1.1976  4.3197
  660MPD2     N 9774   1.823   1.401  12.928  0.6560 -0.0128  0.2765
  660MPD2    H5 9775   1.879   1.378  13.009  1.4081  0.0388 -0.2323
  660MPD2    N1 9776   1.805   1.655  12.508  0.4413  0.8857  0.0589
  660MPD2    H7 9777   1.857   1.688  12.427  2.0787 -0.3036  0.6344
  661TMC3    C1 9778   1.584   1.715  12.405  0.1751  0.3557  0.2043
  661TMC3    C2 9779   1.643   1.741  12.278 -0.6055  0.1503 -0.2084
  661TMC3    C3 9780   1.559   1.787  12.181 -0.3344 -0.0165 -0.2391
  661TMC3    C4 9781   1.448   1.735  12.424 -0.4356  0.3026 -0.3302
  661TMC3    C5 9782   1.375   1.763  12.316  0.2063  0.4870 -0.0848
  661TMC3    C6 9783   1.426   1.795  12.195  0.0368  0.4285 -0.6053
  661TMC3     C 9784   1.670   1.689  12.523 -0.6857 -0.8030  0.8500
  661TMC3     O 9785   1.610   1.703  12.627 -0.2922  0.4074  0.6700
  661TMC3     H 9786   1.750   1.748  12.265 -0.4258 -0.5056  0.8572
  661TMC3    H1 9787   1.401   1.720  12.520  1.3577 -0.6526  0.3875
  661TMC3    H2 9788   1.366   1.814  12.107  0.2054  2.3517 -0.2943
  661TMC3    C7 9789   1.236   1.743  12.320  0.4423  0.6535  0.0667
  661TMC3    C8 9790   1.605   1.827  12.043  0.5053 -0.1609  0.2662
  661TMC3    O1 9791   1.178   1.796  12.415  0.0678  0.0437  0.7927
  661TMC3    O2 9792   1.699   1.760  11.995 -0.2810  0.4700 -0.2157
  662MPD2     C 9793   1.549   1.288  17.072  0.2399  0.4866  0.0412
  662MPD2    C1 9794   1.658   1.296  17.154 -0.4013  0.6063 -0.6073
  662MPD2    C2 9795   1.636   1.350  17.279  0.0578  0.0591 -1.3988
  662MPD2    C3 9796   1.514   1.402  17.309  0.3270  0.8313  0.1171
  662MPD2    C4 9797   1.407   1.401  17.222  0.0196  0.3301  0.2891
  662MPD2    C5 9798   1.431   1.349  17.096 -0.4048 -0.0514 -0.1196
  662MPD2     H 9799   1.720   1.350  17.347 -2.1924 -0.6424  1.3439
  662MPD2    H1 9800   1.308   1.429  17.255  0.5948  2.1833  0.4368
  662MPD2    H2 9801   1.561   1.258  16.968 -1.7475  2.8520 -0.8754
  662MPD2    H3 9802   1.352   1.348  17.022  1.8664 -1.8768 -2.5273
  662MPD2     N 9803   1.476   1.430  17.443  0.2774 -0.3963  0.0365
  662MPD2    H5 9804   1.378   1.444  17.469  0.1804  0.3471 -0.7535
  662MPD2    N1 9805   1.786   1.240  17.122 -0.0480 -0.0114  0.2215
  662MPD2    H7 9806   1.845   1.235  17.205 -2.1247  1.1669  1.7873
  663TMC3    C1 9807   1.908   1.054  17.028 -0.1453  1.0556  0.3575
  663TMC3    C2 9808   1.986   1.046  17.140  0.2977 -0.9264  0.4698
  663TMC3    C3 9809   2.070   0.934  17.148  0.5299  0.2676 -0.2981
  663TMC3    C4 9810   1.904   0.961  16.930 -0.1988  0.3242  0.0828
  663TMC3    C5 9811   1.987   0.855  16.944  0.2260 -0.2235 -0.0459
  663TMC3    C6 9812   2.070   0.843  17.050 -0.4826  0.6316 -0.4271
  663TMC3     C 9813   1.815   1.166  17.014  0.2190 -0.2130  0.5571
  663TMC3     O 9814   1.763   1.184  16.906  0.3512  0.5864  0.0842
  663TMC3     H 9815   2.005   1.132  17.202  0.2195  0.4109 -1.3669
  663TMC3    H1 9816   1.831   0.968  16.849 -0.2099  0.7323  0.1253
  663TMC3    H2 9817   2.144   0.767  17.030  2.0867  2.5114  1.8580
  663TMC3    C7 9818   1.950   0.735  16.878  0.1302  0.0610  0.5208
  663TMC3    C8 9819   2.209   0.969  17.174  0.0375  0.2054  0.1032
  663TMC3    O1 9820   1.916   0.760  16.766  0.0369 -0.3208 -0.6745
  663TMC3    O2 9821   2.285   0.983  17.083  0.1234  0.1008 -0.1703
  664MPD2     C 9822   4.464   4.586  17.239  0.5386 -0.6155 -0.0394
  664MPD2    C1 9823   4.572   4.622  17.313  0.0651 -0.6252  0.0018
  664MPD2    C2 9824   4.620   4.536  17.411 -0.8137 -0.0679  0.0880
  664MPD2    C3 9825   4.563   4.412  17.427 -0.5769 -0.2052  0.3515
  664MPD2    C4 9826   4.462   4.377  17.345 -0.1513 -0.1462 -0.6726
  664MPD2    C5 9827   4.418   4.463  17.249  0.6842 -0.5678  0.3688
  664MPD2     H 9828   4.700   4.575  17.472  0.5725 -1.0004 -1.1593
  664MPD2    H1 9829   4.430   4.274  17.335  0.0263 -0.1613 -1.1057
  664MPD2    H2 9830   4.422   4.651  17.164 -1.4956  0.0624  1.7032
  664MPD2    H3 9831   4.346   4.423  17.178  0.3791 -1.6773  1.3127
  664MPD2     N 9832   4.603   4.335  17.537  0.0028 -0.0146 -0.0963
  664MPD2    H5 9833   4.696   4.348  17.578 -0.1875 -2.2801  1.0653
  664MPD2    N1 9834   4.624   0.026  17.307 -0.3910 -1.1419 -0.5846
  664MPD2    H7 9835   4.690   0.042  17.383  1.2094 -1.6161 -1.8764
  665TMC3    C1 9836   4.614   4.142  17.682 -0.4069 -0.0519  0.1212
  665TMC3    C2 9837   4.538   4.106   0.079 -0.7121 -0.5208 -0.3738
  665TMC3    C3 9838   4.600   4.097   0.201  0.1359  0.0076 -0.0108
  665TMC3    C4 9839   0.020   4.174  17.691  0.4910  0.3390  0.1654
  665TMC3    C5 9840   0.079   4.163   0.105  0.5807 -0.0602 -0.0587
  665TMC3    C6 9841   0.009   4.125   0.214  0.4901 -0.4730 -0.0618
  665TMC3     C 9842   4.540   4.214  17.580  0.1141  0.3735 -0.5877
  665TMC3     O 9843   4.435   4.161  17.549  0.6238 -0.2545 -0.0838
  665TMC3     H 9844   4.431   4.094   0.066 -0.5652  0.4785 -2.5395
  665TMC3    H1 9845   0.074   4.176  17.597 -0.5527  1.5558 -0.4224
  665TMC3    H2 9846   0.058   4.121   0.311  0.9790 -0.8281 -0.3223
  665TMC3    C7 9847   0.219   4.213   0.105 -0.4091  0.4218  0.0917
  665TMC3    C8 9848   4.520   4.094   0.317 -0.2656 -0.0114 -0.4571
  665TMC3    O1 9849   0.266   4.230  17.698 -0.6317 -0.6402  0.2170
  665TMC3    O2 9850   4.568   4.038   0.417  0.3390  0.6027  0.0753
  666TMC3    C1 9851   3.298   3.712  10.246 -0.1398 -1.1450 -0.2671
  666TMC3    C2 9852   3.426   3.770  10.232 -0.1475 -0.0334 -0.3974
  666TMC3    C3 9853   3.429   3.910  10.223  0.1538 -0.3356  0.0301
  666TMC3    C4 9854   3.181   3.783  10.235  0.6817 -0.1704  0.1203
  666TMC3    C5 9855   3.196   3.920  10.229 -0.8415  0.2398  0.2501
  666TMC3    C6 9856   3.317   3.986  10.217 -0.4495  0.3678  0.9122
  666TMC3     C 9857   3.281   3.564  10.248  0.2253  0.0581  0.4890
  666TMC3     O 9858   3.168   3.519  10.270  0.0738 -0.3899  0.9422
  666TMC3     H 9859   3.519   3.716  10.236  1.5638  3.0265  0.8883
  666TMC3    H1 9860   3.088   3.729  10.249  0.7412 -0.0168  1.1042
  666TMC3    H2 9861   3.323   4.093  10.202 -0.8012  0.2336 -0.1857
  666TMC3    C7 9862   3.086   3.974  10.153 -0.7609 -0.0667  0.9112
  666TMC3    C8 9863   3.553   3.975  10.233  0.2971  0.1425  0.2595
  666TMC3    O1 9864   3.039   3.903  10.073  0.4013  0.0817 -0.4152
  666TMC3    O2 9865   3.635   3.911  10.294 -0.8704 -0.2780 -0.1267
  667MPD2     C 9866   0.536   4.303  14.412 -0.5456  0.5459  0.3393
  667MPD2    C1 9867   0.429   4.342  14.489  0.2085  0.6221  1.0960
  667MPD2    C2 9868   0.297   4.320  14.450  0.2068  0.4247  0.4340
  667MPD2    C3 9869   0.278   4.261  14.325 -0.6460  0.5057  0.3390
  667MPD2    C4 9870   0.385   4.220  14.243  0.5406  0.3275  0.0283
  667MPD2    C5 9871   0.509   4.247  14.287  0.4439  0.3579  0.4423
  667MPD2     H 9872   0.211   4.358  14.503  0.5932 -0.1227  1.4575
  667MPD2    H1 9873   0.375   4.161  14.152  1.7304 -0.6146  0.5114
  667MPD2    H2 9874   0.639   4.316  14.443 -0.3116  1.2720 -0.7238
  667MPD2    H3 9875   0.587   4.202  14.225  0.5686  0.6834  0.3646
  667MPD2     N 9876   0.155   4.204  14.274 -0.0059 -0.0279  0.0920
  667MPD2    H5 9877   0.156   4.141  14.195  0.5742 -1.3372  1.1358
  667MPD2    N1 9878   0.450   4.416  14.607  0.2102  0.6551 -0.0098
  667MPD2    H7 9879   0.371   4.435  14.667  0.0952  1.6010 -0.4652
  668TMC3    C1 9880   0.572   4.522  14.774 -0.4678  0.6623 -1.1667
  668TMC3    C2 9881   0.659   4.619  14.784  0.5549 -0.3090 -0.1701
  668TMC3    C3 9882   0.675   4.668  14.914 -0.0226  0.1334 -0.4132
  668TMC3    C4 9883   0.481   4.481  14.870  0.2405  1.0248 -0.7525
  668TMC3    C5 9884   0.486   4.544  14.997  0.1342 -0.5904  0.1778
  668TMC3    C6 9885   0.597   4.621  15.016 -0.2846  0.1629  0.8676
  668TMC3     C 9886   0.572   4.461  14.649 -0.4475 -0.5618 -0.2415
  668TMC3     O 9887   0.683   4.466  14.594  0.0443  0.2344 -0.4396
  668TMC3     H 9888   0.736   4.639  14.710  1.7313 -2.6707  0.4314
  668TMC3    H1 9889   0.424   4.389  14.858  0.2527  1.1185 -1.5588
  668TMC3    H2 9890   0.616   4.667  15.112  2.4078  2.5053 -0.7741
  668TMC3    C7 9891   0.412   4.506  15.112 -0.1729 -0.4478 -0.5723
  668TMC3    C8 9892   0.798   0.006  14.951  0.5711  0.2071  0.2697
  668TMC3    O1 9893   0.440   4.556  15.220 -0.5578  0.3082  0.1353
  668TMC3    O2 9894   0.824   4.726  15.072 -0.4515  0.1478  0.3620
  669TMC3    C1 9895   3.356   4.254  14.435  0.0103 -0.1312  0.8484
  669TMC3    C2 9896   3.222   4.247  14.399 -0.4624  0.5628  0.3349
  669TMC3    C3 9897   3.173   4.352  14.331  0.2867  0.0599  0.6282
  669TMC3    C4 9898   3.431   4.370  14.414  0.2437  0.2397 -0.1517
  669TMC3    C5 9899   3.379   4.460  14.326  0.3414 -0.3914 -0.9744
  669TMC3    C6 9900   3.254   4.455  14.281 -0.1976 -0.1657 -1.0159
  669TMC3     C 9901   3.392   4.151  14.528  0.1242  0.3825  0.0829
  669TMC3     O 9902   3.305   4.069  14.559 -0.3403  0.6397  0.3641
  669TMC3     H 9903   3.155   4.169  14.432  1.1677 -0.3982  1.4262
  669TMC3    H1 9904   3.527   4.389  14.460  0.3849  1.9608 -1.1540
  669TMC3    H2 9905   3.218   4.526  14.208 -1.0347  0.6314  0.1653
  669TMC3    C7 9906   3.464   4.579  14.309 -0.3462 -0.3282 -1.1833
  669TMC3    C8 9907   3.046   4.330  14.260 -0.2172 -0.8927  0.3115
  669TMC3    O1 9908   3.521   4.622  14.406 -0.5523  0.0567  0.4641
  669TMC3    O2 9909   3.019   4.214  14.251 -0.1323  0.0996  0.3696
  670MPD2     C 9910   1.484   1.939  13.629 -0.2738 -0.0589 -0.3579
  670MPD2    C1 9911   1.602   1.995  13.670  0.6641 -0.0065  0.0966
  670MPD2    C2 9912   1.632   2.009  13.798 -0.0298  0.0458 -0.3800
  670MPD2    C3 9913   1.544   1.946  13.894 -1.2698 -0.6282  0.6299
  670MPD2    C4 9914   1.422   1.888  13.859  0.1525  0.4074 -0.2221
  670MPD2    C5 9915   1.395   1.891  13.726 -0.0093  0.1552  0.5859
  670MPD2     H 9916   1.732   2.048  13.813 -0.8950  2.5376 -1.1165
  670MPD2    H1 9917   1.347   1.839  13.921 -0.3125 -1.0452 -1.9525
  670MPD2    H2 9918   1.461   1.931  13.524  0.0219  1.2993 -0.5334
  670MPD2    H3 9919   1.299   1.845  13.702  0.1230  0.1840 -0.0051
  670MPD2     N 9920   1.572   1.960  14.031  0.8500  0.2150 -0.3015
  670MPD2    H5 9921   1.651   2.021  14.049 -0.7486  1.7915  1.3464
  670MPD2    N1 9922   1.708   2.026  13.572  0.1572  0.1969  0.2909
  670MPD2    H7 9923   1.794   2.067  13.610  0.5861 -0.2357 -0.2184
  671TMC3    C1 9924   1.560   1.946  14.259 -0.1102  0.0042 -0.4597
  671TMC3    C2 9925   1.694   1.938  14.267  0.1543  0.3159 -0.4450
  671TMC3    C3 9926   1.747   1.936  14.393  0.1373 -0.0203 -0.4744
  671TMC3    C4 9927   1.473   1.965  14.369 -0.1103 -0.5445 -0.1133
  671TMC3    C5 9928   1.533   1.955  14.489 -0.4613 -0.1888 -0.5165
  671TMC3    C6 9929   1.666   1.952  14.509 -0.1286 -0.8476  0.9794
  671TMC3     C 9930   1.500   1.909  14.137 -0.0922  0.5019 -0.2672
  671TMC3     O 9931   1.394   1.843  14.143 -0.0424  0.4465  0.3901
  671TMC3     H 9932   1.760   1.914  14.184 -0.0617  1.3599 -0.9159
  671TMC3    H1 9933   1.365   1.960  14.363 -0.1692  0.6906 -0.1127
  671TMC3    H2 9934   1.700   1.919  14.606  0.1522 -0.2925  1.0697
  671TMC3    C7 9935   1.466   1.858  14.574  0.5000  0.2080 -0.1372
  671TMC3    C8 9936   1.880   1.884  14.406  0.0668 -0.1054  0.0312
  671TMC3    O1 9937   1.541   1.772  14.612 -0.0063  0.8280 -0.8172
  671TMC3    O2 9938   1.928   1.816  14.322 -0.3382  0.1491  0.1904
  672MPD2     C 9939   2.716   2.410   1.044  0.0743  0.0964  0.5259
  672MPD2    C1 9940   2.843   2.385   0.987  0.1498  0.0504  0.2862
  672MPD2    C2 9941   2.954   2.385   1.068 -0.0541 -0.8915 -0.5995
  672MPD2    C3 9942   2.952   2.403   1.207 -0.4580 -1.0178 -0.3740
  672MPD2    C4 9943   2.828   2.427   1.259  0.1453 -0.2966  0.2072
  672MPD2    C5 9944   2.717   2.420   1.180 -0.5364  0.1438 -0.3275
  672MPD2     H 9945   3.049   2.380   1.016  0.3426  0.3680  0.0154
  672MPD2    H1 9946   2.807   2.433   1.365  0.4782 -0.5916  0.2849
  672MPD2    H2 9947   2.625   2.431   0.990  0.5858 -1.0139 -0.7946
  672MPD2    H3 9948   2.622   2.430   1.231 -0.8366 -3.6359 -0.1320
  672MPD2     N 9949   3.065   2.429   1.296 -0.3317 -0.2199  0.9326
  672MPD2    H5 9950   3.040   2.464   1.388 -0.0867  0.9586  0.5505
  672MPD2    N1 9951   2.861   2.388   0.848  0.3462 -0.3796 -0.1018
  672MPD2    H7 9952   2.954   2.365   0.813  0.2244  0.3913 -0.9233
  673TMC3    C1 9953   2.824   2.457   0.622  0.0874  0.5967 -0.2864
  673TMC3    C2 9954   2.944   2.399   0.582  0.4726 -0.3148 -0.1418
  673TMC3    C3 9955   2.991   2.426   0.456 -0.1030 -0.8068  0.0993
  673TMC3    C4 9956   2.745   2.526   0.533  0.3237 -0.1250 -0.0404
  673TMC3    C5 9957   2.795   2.550   0.406 -0.2270  0.1347  0.4690
  673TMC3    C6 9958   2.913   2.493   0.365  0.1606 -0.6138  0.0061
  673TMC3     C 9959   2.776   2.451   0.758  0.2710 -0.1191  0.6016
  673TMC3     O 9960   2.670   2.511   0.783  0.1877 -0.7593  0.1052
  673TMC3     H 9961   2.999   2.335   0.650 -1.2163 -0.2307  1.3205
  673TMC3    H1 9962   2.641   2.547   0.557  0.7445 -1.3267  2.7711
  673TMC3    H2 9963   2.954   2.516   0.267  1.1465 -0.4624  0.4476
  673TMC3    C7 9964   2.705   2.600   0.305  0.6273  0.8137 -0.5615
  673TMC3    C8 9965   3.121   2.391   0.411 -0.1893 -0.2982  0.3208
  673TMC3    O1 9966   2.725   2.570   0.186 -0.1167  0.2358 -0.0689
  673TMC3    O2 9967   3.164   2.439   0.310 -0.4753  0.0012 -0.0595
  674MPD2     C 9968   2.502   2.282  17.447  0.3560  0.6390 -0.1580
  674MPD2    C1 9969   2.491   2.326  17.576  0.1396  0.6165  0.0946
  674MPD2    C2 9970   2.370   2.382  17.620 -0.2687 -0.4871  0.2967
  674MPD2    C3 9971   2.267   2.393  17.531  0.2342 -0.5420 -0.5851
  674MPD2    C4 9972   2.281   2.349  17.403  0.2836 -0.0975  0.1725
  674MPD2    C5 9973   2.397   2.294  17.366  0.3369 -0.2729  0.2609
  674MPD2     H 9974   2.368   2.439   0.004  4.0516 -0.0797  0.1310
  674MPD2    H1 9975   2.203   2.355  17.328  0.0373 -1.4298  0.3236
  674MPD2    H2 9976   2.600   2.251  17.412  0.0276  0.2463 -0.7458
  674MPD2    H3 9977   2.410   2.261  17.263 -3.8669 -2.5756  0.5049
  674MPD2     N 9978   2.147   2.445  17.584 -0.1580 -0.0676 -0.5340
  674MPD2    H5 9979   2.142   2.480  17.679 -0.6404 -1.9582  0.1278
  674MPD2    N1 9980   2.603   2.317  17.665 -0.1195 -0.2200  0.8217
  674MPD2    H7 9981   2.691   2.305  17.616  0.6878  0.2030  2.1885
  675TMC3    C1 9982   2.699   2.248   0.155 -0.1478 -0.4741 -0.1998
  675TMC3    C2 9983   2.679   2.179   0.273  0.1522 -0.5187  0.1753
  675TMC3    C3 9984   2.789   2.132   0.339 -0.3062 -0.0152 -0.6226
  675TMC3    C4 9985   2.828   2.265   0.107 -0.1065  0.1656 -0.1040
  675TMC3    C5 9986   2.938   2.196   0.164 -0.3597  0.6084  0.1081
  675TMC3    C6 9987   2.922   2.134   0.288  0.4531 -1.0098  0.2970
  675TMC3     C 9988   2.581   2.301   0.096  0.4071 -0.3442  0.5958
  675TMC3     O 9989   2.473   2.300   0.160  0.4410 -0.3232 -0.0117
  675TMC3     H 9990   2.580   2.168   0.314  0.6410  2.0133  1.9958
  675TMC3    H1 9991   2.853   2.334   0.027  0.7913  0.1954  0.2011
  675TMC3    H2 9992   2.999   2.076   0.337  1.6133 -0.4426 -0.8483
  675TMC3    C7 9993   3.065   2.167   0.094 -0.1111 -0.2352  0.0929
  675TMC3    C8 9994   2.779   2.123   0.482  0.2156 -0.2468  0.0828
  675TMC3    O1 9995   3.124   2.062   0.116 -0.0473  1.1058  0.1298
  675TMC3    O2 9996   2.880   2.081   0.536  0.1312  0.1551 -0.0562
  676MPD2     C 9997   4.697   0.486  10.824  0.4940 -0.1904 -0.7109
  676MPD2    C1 9998   4.589   0.420  10.888 -0.5820  0.5372 -0.6260
  676MPD2    C2 9999   4.570   0.285  10.866 -0.2819  0.2253 -0.4238
  676MPD2    C310000   4.662   0.212  10.796 -0.5386  0.1786 -0.3086
  676MPD2    C410001   0.044   0.276  10.729  0.8027 -0.4094  0.2517
  676MPD2    C510002   0.062   0.412  10.750  0.0170  0.7110  0.4774
  676MPD2     H10003   4.488   0.229  10.907 -0.6462 -0.3412 -1.9210
  676MPD2    H110004   0.118   0.220  10.672 -0.0313 -1.6317  0.3781
  676MPD2    H210005   0.003   0.586  10.850 -1.3529  0.9261 -2.6544
  676MPD2    H310006   0.143   0.465  10.703 -2.1451  1.7836 -2.0432
  676MPD2     N10007   4.651   0.071  10.768 -0.4105  0.2636 -0.3551
  676MPD2    H510008   4.713   0.021  10.706  0.2026  1.2160 -0.5043
  676MPD2    N110009   4.502   0.479  10.978 -0.0865  0.1314  0.0917
  676MPD2    H710010   4.427   0.425  11.019  0.8442 -2.0890 -1.1308
  677TMC3    C110011   4.425   0.641  11.129  0.1042 -0.9549 -0.3340
  677TMC3    C210012   4.294   0.606  11.100  0.6290 -0.2242 -0.7403
  677TMC3    C310013   4.202   0.636  11.195  0.1232  0.1649  0.2064
  677TMC3    C410014   4.453   0.711  11.244 -0.2068  0.7379  0.8863
  677TMC3    C510015   4.353   0.751  11.327  0.0497 -0.0303  0.2041
  677TMC3    C610016   4.222   0.727  11.298  0.1342 -0.2329 -0.1202
  677TMC3     C10017   4.534   0.593  11.045  0.1367  0.3122  0.3485
  677TMC3     O10018   4.646   0.649  11.051 -0.5219  0.2607 -0.1011
  677TMC3     H10019   4.268   0.556  11.008  0.9760  0.7277 -1.3604
  677TMC3    H110020   4.559   0.727  11.258  0.3075 -0.9279 -1.1633
  677TMC3    H210021   4.136   0.756  11.357  0.3943 -2.3334  1.3046
  677TMC3    C710022   4.369   0.804  11.457  0.0645 -0.3890 -0.1314
  677TMC3    C810023   4.078   0.572  11.194  0.1015 -0.3491  0.0666
  677TMC3    O110024   4.274   0.811  11.531  0.1916  0.3912  0.2349
  677TMC3    O210025   4.026   0.584  11.083  0.1329  0.4061  0.1437
  678MPD2     C10026   1.853   0.561   0.513  0.1118  0.2859 -0.1824
  678MPD2    C110027   1.837   0.482   0.620  0.4345 -0.3938 -0.5063
  678MPD2    C210028   1.715   0.413   0.636 -0.4588 -0.5252 -0.4425
  678MPD2    C310029   1.620   0.422   0.537  0.0308 -0.7516  0.8883
  678MPD2    C410030   1.640   0.508   0.430  0.4905  0.3704  0.3028
  678MPD2    C510031   1.757   0.577   0.422 -0.5571 -0.1501  0.1425
  678MPD2     H10032   1.684   0.366   0.728 -1.3854 -0.7719 -0.8777
  678MPD2    H110033   1.578   0.514   0.341  0.8813 -0.9904 -0.0589
  678MPD2    H210034   1.952   0.602   0.500 -0.3457  1.4406 -0.0449
  678MPD2    H310035   1.774   0.621   0.324 -1.0383 -0.8795 -0.2671
  678MPD2     N10036   1.503   0.353   0.554  0.1640 -0.2114 -0.0460
  678MPD2    H510037   1.495   0.284   0.627  4.3061  1.0811  1.6350
  678MPD2    N110038   1.939   0.486   0.723  0.1164  0.3580  0.0552
  678MPD2    H710039   2.015   0.552   0.709  1.6939 -1.6987 -1.1650
  679TMC3    C110040   2.230   0.411   1.050 -0.8316  0.1348 -0.0392
  679TMC3    C210041   2.103   0.375   1.005  0.3737  0.5989  0.1351
  679TMC3    C310042   2.033   0.469   0.939  0.1262  1.1509 -0.2239
  679TMC3    C410043   2.290   0.542   1.023 -0.4104 -0.5527 -0.1961
  679TMC3    C510044   2.195   0.626   0.961 -0.3068 -0.7414 -0.0390
  679TMC3    C610045   2.074   0.594   0.915 -0.3145  0.0786  0.1824
  679TMC3     C10046   2.293   0.329   1.149 -0.1064  0.8189  0.7320
  679TMC3     O10047   2.242   0.220   1.155 -0.0484  0.3584  0.4310
  679TMC3     H10048   2.071   0.273   1.024 -1.1777  0.7948 -1.4539
  679TMC3    H110049   2.396   0.557   1.041 -0.5811  0.5340 -0.1058
  679TMC3    H210050   2.011   0.666   0.865 -0.9694 -0.4882  0.1887
  679TMC3    C710051   2.250   0.757   0.917  0.4700  0.6330 -0.0517
  679TMC3    C810052   1.935   0.418   0.843  0.3658 -0.4172 -0.1939
  679TMC3    O110053   2.195   0.822   0.834  0.7999 -0.3975 -0.2595
  679TMC3    O210054   1.891   0.302   0.850  0.4969  0.9981 -0.4245
  680MPD2     C10055   1.088   4.087  13.438  0.0072  0.0431 -0.5147
  680MPD2    C110056   1.175   3.999  13.500 -0.6141  0.2752 -0.3864
  680MPD2    C210057   1.288   4.045  13.564  0.7995 -0.7218 -0.1227
  680MPD2    C310058   1.314   4.178  13.566 -1.2858 -0.2932 -0.1209
  680MPD2    C410059   1.234   4.266  13.503 -0.2960 -0.4950 -0.0504
  680MPD2    C510060   1.126   4.219  13.448  0.0179 -0.3150 -0.0007
  680MPD2     H10061   1.347   3.964  13.605  0.3857 -1.3891 -0.8342
  680MPD2    H110062   1.244   4.373  13.499  1.3942 -0.7282 -1.7733
  680MPD2    H210063   0.991   4.072  13.391  0.1090 -0.1505 -0.6659
  680MPD2    H310064   1.057   4.292  13.406  1.0659 -0.7832 -2.5567
  680MPD2     N10065   1.428   4.231  13.625  0.2037 -0.3973  0.5911
  680MPD2    H510066   1.433   4.333  13.624  1.1398 -0.4603 -0.3340
  680MPD2    N110067   1.146   3.863  13.516  0.6116 -0.2633 -0.0255
  680MPD2    H710068   1.223   3.812  13.561  0.8021 -0.3888 -0.4944
  681TMC3    C110069   1.009   3.663  13.527  0.3821 -0.9606 -0.5616
  681TMC3    C210070   0.909   3.630  13.618 -0.6983  0.2281  0.0454
  681TMC3    C310071   0.918   3.517  13.693 -0.4165 -0.2045  0.0141
  681TMC3    C410072   1.118   3.587  13.511  0.4068 -0.6980  0.6608
  681TMC3    C510073   1.125   3.472  13.580 -0.6288  0.3591  0.3015
  681TMC3    C610074   1.026   3.433  13.674  0.4229 -0.2475 -0.2600
  681TMC3     C10075   1.026   3.808  13.504 -0.0388 -0.6379 -0.4647
  681TMC3     O10076   0.927   3.872  13.473  0.3434 -0.0774  0.0232
  681TMC3     H10077   0.815   3.683  13.618 -0.4419  0.6918  1.7537
  681TMC3    H110078   1.199   3.623  13.448 -1.2116  0.8622 -0.5343
  681TMC3    H210079   1.041   3.353  13.745  1.7115  0.5199  0.3237
  681TMC3    C710080   1.243   3.386  13.574  0.5337  0.4789  0.1536
  681TMC3    C810081   0.897   3.532  13.836 -0.4750  0.0675 -0.3975
  681TMC3    O110082   1.253   3.302  13.659  0.5769 -0.4773  0.1570
  681TMC3    O210083   0.919   3.440  13.914  0.4519  0.1162 -0.5869
  682MPD2     C10084   3.084   0.608  10.166 -0.6546 -0.1138 -0.7217
  682MPD2    C110085   3.024   0.557  10.276 -0.2461  0.5506 -0.3501
  682MPD2    C210086   3.053   0.601  10.401  0.7655  0.5073 -0.2556
  682MPD2    C310087   3.148   0.696  10.425  0.1614  0.3019  0.0821
  682MPD2    C410088   3.214   0.745  10.315  0.4409 -0.1672 -0.2309
  682MPD2    C510089   3.182   0.701  10.189 -0.2640 -0.0358  0.2425
  682MPD2     H10090   3.005   0.549  10.483 -0.7832  0.6217 -1.1037
  682MPD2    H110091   3.295   0.814  10.337  1.5275 -1.3261 -0.5846
  682MPD2    H210092   3.052   0.579  10.067 -0.5061 -0.8075 -0.5647
  682MPD2    H310093   3.237   0.736  10.102 -1.9870  1.4719 -0.2420
  682MPD2     N10094   3.198   0.726  10.554 -0.1926 -0.3343  0.7921
  682MPD2    H510095   3.286   0.777  10.551 -1.4486  1.7775 -0.1508
  682MPD2    N110096   2.926   0.455  10.273  0.0293 -0.1267 -0.6632
  682MPD2    H710097   2.881   0.428  10.360  0.5689  1.1083  0.0069
  683TMC3    C110098   3.328   0.850  10.948  0.2314  0.0623 -0.0646
  683TMC3    C210099   3.326   0.760  11.047  0.4122 -0.7321  0.3071
  683TMC3    C310100   3.294   0.632  11.012 -0.0884  0.0909  0.2266
  683TMC3    C410101   3.281   0.821  10.822  0.0887  0.0555  0.6524
  683TMC3    C510102   3.245   0.695  10.794  0.0873 -0.4018  0.1761
  683TMC3    C610103   3.264   0.595  10.885 -0.0976 -0.3664  0.3613
  683TMC3     C10104   3.391   0.980  10.969 -0.0675  0.2350  0.0458
  683TMC3     O10105   3.386   1.053  10.872  0.0477  0.4443  0.0135
  683TMC3     H10106   3.354   0.782  11.150 -0.7913 -1.8897  0.8843
  683TMC3    H110107   3.251   0.904  10.759  0.7311 -0.4869 -0.3703
  683TMC3    H210108   3.216   0.500  10.864 -0.2956 -0.2945  0.4807
  683TMC3    C710109   3.164   0.663  10.673 -0.4144 -0.3569  0.4815
  683TMC3    C810110   3.299   0.532  11.117  0.5881 -0.1808  0.4753
  683TMC3    O110111   3.065   0.592  10.693  0.1542 -0.6219 -0.8358
  683TMC3    O210112   3.264   0.560  11.230 -0.2878 -0.5912  0.7100
  684MPD2     C10113   1.627   0.579  15.819  0.1159  0.0015 -0.6645
  684MPD2    C110114   1.765   0.589  15.820  0.4285  0.1818  0.3113
  684MPD2    C210115   1.830   0.713  15.808 -0.3229 -0.3047 -0.7208
  684MPD2    C310116   1.752   0.824  15.791  0.3342  0.6662 -0.0235
  684MPD2    C410117   1.618   0.818  15.800 -0.6876  0.1876 -0.2799
  684MPD2    C510118   1.551   0.699  15.814 -0.4752  0.4440  0.0173
  684MPD2     H10119   1.937   0.724  15.802 -0.2667 -1.3219 -1.4561
  684MPD2    H110120   1.561   0.907  15.775 -1.8363 -0.4351  0.1450
  684MPD2    H210121   1.577   0.484  15.812  1.0802 -0.5538  0.0567
  684MPD2    H310122   1.443   0.702  15.809 -0.3623 -0.4395 -3.1317
  684MPD2     N10123   1.809   0.954  15.772  0.1130  0.5770 -0.5288
  684MPD2    H510124   1.739   1.028  15.774  1.7925  2.1147  1.3389
  684MPD2    N110125   1.834   0.466  15.823 -0.3508  0.3295  0.6057
  684MPD2    H710126   1.776   0.385  15.801 -0.7358  1.3331 -2.1033
  685TMC3    C110127   2.021   0.313  15.826  0.7381 -0.2769  0.2783
  685TMC3    C210128   1.953   0.254  15.724 -0.3156 -1.1089 -0.4518
  685TMC3    C310129   2.005   0.135  15.689  0.6223  0.0535  0.0687
  685TMC3    C410130   2.120   0.261  15.907  0.0091  0.0880  0.1656
  685TMC3    C510131   2.166   0.131  15.865  0.0716 -0.3725 -0.0449
  685TMC3    C610132   2.107   0.069  15.760 -0.1462  0.5537 -0.2587
  685TMC3     C10133   1.973   0.450  15.855 -0.8416 -0.5298  0.2270
  685TMC3     O10134   2.053   0.532  15.901  0.1632  0.0989  0.3874
  685TMC3     H10135   1.894   0.302  15.646 -1.2879  0.3300  1.1639
  685TMC3    H110136   2.164   0.313  15.992 -0.5803  0.5169  0.2061
  685TMC3    H210137   2.147   4.700  15.730  1.6708  1.9315 -2.2287
  685TMC3    C710138   2.245   0.052  15.959 -0.1400 -0.2873 -0.7814
  685TMC3    C810139   1.924   0.045  15.606  0.5793  0.8531  0.3677
  685TMC3    O110140   2.258   0.094  16.077 -0.6783  0.8564 -0.3257
  685TMC3    O210141   1.982   4.670  15.568  0.0622  0.0006 -0.2268
  686MPD2     C10142   3.153   4.700  15.311  0.7212 -0.4153 -0.2962
  686MPD2    C110143   3.236   4.679  15.421  0.1713 -0.5812  1.3550
  686MPD2    C210144   3.312   4.564  15.413  0.3957 -0.6037 -0.1496
  686MPD2    C310145   3.294   4.470  15.315  0.5046 -0.0868  0.1890
  686MPD2    C410146   3.224   4.489  15.200  0.5532  0.9276 -0.4027
  686MPD2    C510147   3.149   4.607  15.209 -0.8412  0.8293 -0.5079
  686MPD2     H10148   3.383   4.542  15.492 -1.1686 -2.5825  0.7056
  686MPD2    H110149   3.219   4.416  15.121 -1.7785 -1.1487  1.6830
  686MPD2    H210150   3.081   0.053  15.316  1.8581  0.6033 -0.1269
  686MPD2    H310151   3.086   4.611  15.121 -0.8369 -1.1241 -0.6099
  686MPD2     N10152   3.361   4.348  15.307 -0.0807  0.4179 -0.0006
  686MPD2    H510153   3.360   4.305  15.215 -0.9776  0.8820 -0.2205
  686MPD2    N110154   3.247   0.042  15.529  0.0093 -0.4886 -0.4519
  686MPD2    H710155   3.214   0.136  15.511 -1.9065 -1.4793 -2.1574
  687TMC3    C110156   3.397   4.293  15.548 -0.4299 -0.5037 -0.0273
  687TMC3    C210157   3.262   4.297  15.579  0.1238  0.6791 -0.1525
  687TMC3    C310158   3.223   4.301  15.712 -0.1826 -0.5982  0.0123
  687TMC3    C410159   3.487   4.264  15.645  0.6948 -1.0339 -0.0366
  687TMC3    C510160   3.443   4.259  15.777 -0.0862 -0.1982  0.7935
  687TMC3    C610161   3.315   4.280  15.813 -0.0785  0.4570  0.1448
  687TMC3     C10162   3.434   4.279  15.407 -0.6439 -0.1994 -0.1506
  687TMC3     O10163   3.532   4.211  15.385  0.2011  0.1373  0.1775
  687TMC3     H10164   3.183   4.306  15.505 -0.8827 -0.4020  0.8003
  687TMC3    H110165   3.591   4.278  15.619 -0.0275  0.5372 -2.0610
  687TMC3    H210166   3.284   4.298  15.915 -0.5974  0.2819  0.0193
  687TMC3    C710167   3.528   4.239  15.888 -0.1107 -0.0530 -0.3997
  687TMC3    C810168   3.095   4.345  15.760 -0.1766  0.2458 -0.4502
  687TMC3    O110169   3.490   4.282  16.000  0.2070 -0.0557 -0.1049
  687TMC3    O210170   3.063   4.315  15.874 -0.6572 -0.6390 -0.4679
  688MPD2     C10171   2.719   3.750  17.261  0.9728 -0.4833  0.4143
  688MPD2    C110172   2.758   3.620  17.280  0.2198  0.7190  0.3505
  688MPD2    C210173   2.862   3.572  17.199  0.2276 -0.2669 -0.5312
  688MPD2    C310174   2.929   3.663  17.117  0.1288  0.5841 -0.5540
  688MPD2    C410175   2.899   3.797  17.128 -0.0290  0.2339  0.3663
  688MPD2    C510176   2.795   3.835  17.192 -0.2581 -0.5730 -0.1711
  688MPD2     H10177   2.884   3.466  17.201 -0.2352 -0.3379  0.8698
  688MPD2    H110178   2.951   3.870  17.066  1.7524  0.6471  2.3779
  688MPD2    H210179   2.633   3.800  17.305  2.9149  2.9989  0.1813
  688MPD2    H310180   2.765   3.939  17.195  1.1327 -0.1253 -2.2859
  688MPD2     N10181   3.036   3.621  17.029 -0.2246 -0.7681 -0.3605
  688MPD2    H510182   3.077   3.696  16.974  3.1307 -2.2249  0.1470
  688MPD2    N110183   2.688   3.530  17.357  0.3242  0.6156 -0.8435
  688MPD2    H710184   2.715   3.433  17.344  0.6957  0.3466  1.9234
  689TMC3    C110185   2.542   3.471  17.531  0.4575  0.1990 -0.0946
  689TMC3    C210186   2.510   3.504  17.665  0.0182 -0.0809  0.1501
  689TMC3    C310187   2.476   3.404   0.047  0.5127 -0.4358 -0.0797
  689TMC3    C410188   2.537   3.348  17.487 -0.1416  0.1494  0.4690
  689TMC3    C510189   2.510   3.246  17.579 -0.1199  0.2688  0.1052
  689TMC3    C610190   2.471   3.277  17.707 -0.0538 -0.2582  0.6315
  689TMC3     C10191   2.607   3.574  17.458 -0.1520 -0.0670 -0.2615
  689TMC3     O10192   2.586   3.687  17.500  0.2621  0.4758 -0.4998
  689TMC3     H10193   2.507   3.609  17.694 -2.9560  0.3274 -1.6920
  689TMC3    H110194   2.563   3.319  17.385 -0.2871 -1.0873  0.7826
  689TMC3    H210195   2.432   3.199   0.064 -1.6433 -0.5363 -0.6525
  689TMC3    C710196   2.502   3.108  17.538  0.2346  0.7588  0.6260
  689TMC3    C810197   2.509   3.411   0.186  0.6765  0.4765  0.1684
  689TMC3    O110198   2.546   3.034  17.624  0.3746  0.3727 -0.3634
  689TMC3    O210199   2.503   3.310   0.253 -0.6919  0.0305  0.2974
  690MPD2     C10200   0.392   0.560  15.882  0.7003  0.2379 -0.7901
  690MPD2    C110201   0.321   0.578  15.769 -0.2805 -0.1510 -0.3294
  690MPD2    C210202   0.389   0.638  15.664 -0.2065  0.1807  0.1231
  690MPD2    C310203   0.520   0.683  15.680 -0.3473 -0.5258 -0.5038
  690MPD2    C410204   0.585   0.665  15.801  0.2056  0.0474 -0.2321
  690MPD2    C510205   0.516   0.611  15.898 -0.6037 -0.1947 -0.3101
  690MPD2     H10206   0.343   0.656  15.568  0.4191 -2.1145 -0.6282
  690MPD2    H110207   0.681   0.706  15.831  0.4907 -0.0774 -0.9977
  690MPD2    H210208   0.347   0.515  15.970  2.7314 -1.1076 -0.4523
  690MPD2    H310209   0.553   0.614  16.000 -1.3679  2.0092 -0.1020
  690MPD2     N10210   0.586   0.739  15.565  0.0476 -0.4843  0.9790
  690MPD2    H510211   0.540   0.739  15.474  2.5056 -0.2236 -0.2611
  690MPD2    N110212   0.191   0.537  15.758  0.8893 -0.7445 -0.7830
  690MPD2    H710213   0.174   0.523  15.659  0.2688  0.0784 -0.7876
  691TMC3    C110214   4.715   0.424  15.797 -0.4375  0.1588 -0.5120
  691TMC3    C210215   4.596   0.440  15.855 -0.3423 -0.1461 -0.1894
  691TMC3    C310216   4.486   0.377  15.790 -0.3943 -0.4305  0.1545
  691TMC3    C410217   0.010   0.356  15.679 -0.5219 -0.3080 -0.1347
  691TMC3    C510218   4.628   0.284  15.634  0.5863 -0.2804 -0.4301
  691TMC3    C610219   4.498   0.294  15.688 -0.1382 -0.8019 -0.4945
  691TMC3     C10220   0.101   0.497  15.846 -0.8453  0.0126 -0.3539
  691TMC3     O10221   0.106   0.522  15.965  0.4522  0.6152 -0.0511
  691TMC3     H10222   4.576   0.508  15.937  0.0109 -1.8259  1.3031
  691TMC3    H110223   0.111   0.339  15.644 -0.7767 -0.2141 -0.9040
  691TMC3    H210224   4.412   0.255  15.634  1.3051 -0.7609 -2.8364
  691TMC3    C710225   4.666   0.172  15.558 -0.3439  0.3479  1.5875
  691TMC3    C810226   4.359   0.379  15.854  0.3256  0.1523  0.2712
  691TMC3    O110227   0.041   0.169  15.494 -0.0746  0.1583 -0.0967
  691TMC3    O210228   4.305   0.272  15.868  0.7369 -0.1747 -0.0672
  692TMC3    C110229   1.285   2.130  15.744  0.5288  0.1049  0.6968
  692TMC3    C210230   1.393   2.186  15.693  0.1917 -0.4110  0.4065
  692TMC3    C310231   1.468   2.136  15.590 -0.7246 -0.1361  0.2370
  692TMC3    C410232   1.217   2.029  15.679  0.0724 -0.0748 -0.2745
  692TMC3    C510233   1.278   1.981  15.569  1.1852 -0.1874  0.5298
  692TMC3    C610234   1.401   2.034  15.522  0.2520  0.0882  0.5159
  692TMC3     C10235   1.244   2.152  15.881  0.0571  0.6514 -0.1705
  692TMC3     O10236   1.126   2.139  15.905  0.1283  0.2085 -0.0378
  692TMC3     H10237   1.450   2.258  15.751 -0.8765  2.5002 -2.1623
  692TMC3    H110238   1.125   1.994  15.724 -0.7745  0.7355 -1.3660
  692TMC3    H210239   1.465   1.980  15.453  0.8392  1.9190 -0.3552
  692TMC3    C710240   1.271   1.840  15.560  0.0531  0.1928  0.1765
  692TMC3    C810241   1.592   2.082  15.634  0.3865 -0.2532  0.2182
  692TMC3    O110242   1.160   1.793  15.578  0.0111 -0.1708 -0.4848
  692TMC3    O210243   1.583   1.971  15.682  0.7031  1.1997  0.3949
  693MPD2     C10244   0.750   4.557  11.278  0.0287 -0.4020  0.5451
  693MPD2    C110245   0.735   4.475  11.172  0.9737 -0.7160  0.0663
  693MPD2    C210246   0.841   4.403  11.127 -0.1524 -0.0037  0.3883
  693MPD2    C310247   0.961   4.406  11.208  0.6308  0.1088 -0.1164
  693MPD2    C410248   0.974   4.491  11.318 -0.7312  0.0253  0.2653
  693MPD2    C510249   0.869   4.571  11.346 -0.5217 -0.5306 -0.2950
  693MPD2     H10250   0.840   4.329  11.048 -0.2096 -0.4128  0.7712
  693MPD2    H110251   1.069   4.507  11.367 -1.2603 -2.0827  1.9661
  693MPD2    H210252   0.667   4.620  11.307  0.4113  0.4353 -0.1803
  693MPD2    H310253   0.881   4.631  11.435  1.8378 -0.0519 -0.9509
  693MPD2     N10254   1.074   4.320  11.196 -0.7822  0.2373  0.0186
  693MPD2    H510255   1.149   4.331  11.264 -0.4627  2.5177 -0.6720
  693MPD2    N110256   0.609   4.476  11.110  0.2327 -0.0170  0.0619
  693MPD2    H710257   0.535   4.533  11.150  0.1676 -0.4048  0.4938
  694TMC3    C110258   0.440   4.440  10.958  0.3126  0.8477  0.2432
  694TMC3    C210259   0.412   4.378  10.842 -0.4497  0.8216  0.6465
  694TMC3    C310260   0.294   4.306  10.829 -0.3477 -0.6498  0.2734
  694TMC3    C410261   0.351   4.428  11.066 -0.2648  0.3664  0.2697
  694TMC3    C510262   0.241   4.346  11.059 -0.5880 -0.4702  0.0703
  694TMC3    C610263   0.215   4.283  10.942  0.6242 -0.4516 -0.7984
  694TMC3     C10264   0.579   4.407  11.001  0.4917  0.7282  0.0826
  694TMC3     O10265   0.635   4.318  10.939  0.0576 -0.4076  0.1174
  694TMC3     H10266   0.484   4.375  10.762 -2.9398 -0.3576 -1.5572
  694TMC3    H110267   0.375   4.461  11.166 -1.0541  0.3840  0.4580
  694TMC3    H210268   0.120   4.233  10.931  0.9999 -0.5267 -3.5198
  694TMC3    C710269   0.193   4.285  11.181 -0.5343  0.5219 -0.1411
  694TMC3    C810270   0.262   4.223  10.712  0.3011 -0.6840  0.6407
  694TMC3    O110271   0.210   4.364  11.273  0.1534  0.2514  0.1134
  694TMC3    O210272   0.186   4.129  10.725 -0.3905  0.3298  0.0769
  695MPD2     C10273   1.956   1.013  14.155 -0.0963  0.3293 -0.4173
  695MPD2    C110274   1.951   1.108  14.260  0.5218  0.5895 -0.5215
  695MPD2    C210275   1.821   1.158  14.284 -0.2722  0.1014 -0.2362
  695MPD2    C310276   1.704   1.121  14.215  0.2012 -0.6753 -0.2261
  695MPD2    C410277   1.717   1.027  14.113 -0.4034  0.9416 -0.6652
  695MPD2    C510278   1.837   0.971  14.093  0.2390 -0.6533  0.0195
  695MPD2     H10279   1.813   1.237  14.358  2.1928 -1.3722  1.5897
  695MPD2    H110280   1.632   0.986  14.061  1.3624 -1.5097 -1.5703
  695MPD2    H210281   2.045   0.960  14.124 -0.6012  0.3716 -1.9432
  695MPD2    H310282   1.843   0.892  14.019 -0.3347 -1.3535  0.7228
  695MPD2     N10283   1.571   1.169  14.251 -0.9159  0.2663  0.0983
  695MPD2    H510284   1.556   1.220  14.338 -0.1557  1.1181 -0.2682
  695MPD2    N110285   2.066   1.162  14.327 -0.1026 -0.7713 -0.0508
  695MPD2    H710286   2.049   1.236  14.395 -0.2992  0.5095 -1.4815
  696TMC3    C110287   1.336   1.197  14.243  0.2480  0.0473 -0.8157
  696TMC3    C210288   1.337   1.223  14.376 -0.1992 -0.1151  0.7465
  696TMC3    C310289   1.236   1.301  14.435 -0.1394 -0.4545 -0.3585
  696TMC3    C410290   1.251   1.274  14.164 -0.0585 -0.3169  0.6239
  696TMC3    C510291   1.165   1.367  14.219 -0.0467 -0.4608 -0.1771
  696TMC3    C610292   1.152   1.380  14.353  0.9925 -0.3805 -0.2054
  696TMC3     C10293   1.456   1.158  14.173 -0.1341 -0.4437  0.1558
  696TMC3     O10294   1.443   1.112  14.060 -0.6507 -0.0276 -0.0853
  696TMC3     H10295   1.408   1.174  14.442 -1.1053 -0.3260  1.5651
  696TMC3    H110296   1.254   1.248  14.059  0.7317  0.0356  0.5636
  696TMC3    H210297   1.090   1.460  14.393  1.0856 -0.8105  0.7928
  696TMC3    C710298   1.123   1.473  14.132  0.4374  0.0155 -0.3733
  696TMC3    C810299   1.268   1.370  14.556  0.2440 -0.7269 -0.0559
  696TMC3    O110300   1.132   1.450  14.011 -0.3774  0.3998 -0.2617
  696TMC3    O210301   1.387   1.395  14.558  0.0595  0.3815 -0.5028
  697MPD2     C10302   0.779   3.529  15.802  0.1749  0.2974 -0.2726
  697MPD2    C110303   0.821   3.460  15.695  0.7402 -0.1402  0.2394
  697MPD2    C210304   0.845   3.524  15.574 -0.2451  0.8684 -0.4229
  697MPD2    C310305   0.826   3.657  15.562  0.0718 -0.2446  0.6664
  697MPD2    C410306   0.808   3.733  15.681 -0.9159  0.3457  0.5106
  697MPD2    C510307   0.773   3.667  15.794  0.3210  0.1232 -0.1662
  697MPD2     H10308   0.873   3.468  15.485  2.1079 -1.6722  1.8977
  697MPD2    H110309   0.794   3.840  15.666  0.3375  0.3337 -0.7609
  697MPD2    H210310   0.755   3.478  15.894  0.0668 -0.6223 -0.8070
  697MPD2    H310311   0.734   3.722  15.879  0.8194  0.1188  0.0685
  697MPD2     N10312   0.840   3.715  15.433 -0.3960  0.2954 -0.0685
  697MPD2    H510313   0.830   3.658  15.350  2.5059 -0.0969 -0.1763
  697MPD2    N110314   0.867   3.327  15.711 -0.0605  0.3626  0.0105
  697MPD2    H710315   0.910   3.281  15.631  1.0053  0.2533  0.6470
  698TMC3    C110316   0.919   3.879  15.285  0.8154 -0.2585 -0.5943
  698TMC3    C210317   1.023   3.963  15.262 -0.4390 -0.1710  0.5825
  698TMC3    C310318   1.037   4.014  15.140  0.6132  0.0731 -0.2517
  698TMC3    C410319   0.827   3.857  15.191 -0.4039  0.8180  0.2036
  698TMC3    C510320   0.840   3.902  15.066 -1.1130  0.8996  0.3865
  698TMC3    C610321   0.944   3.990  15.043 -0.4720 -0.6883  0.6467
  698TMC3     C10322   0.893   3.841  15.421 -0.1952 -0.4722  0.2365
  698TMC3     O10323   0.959   3.902  15.503  0.5394  0.0627 -0.0476
  698TMC3     H10324   1.100   3.978  15.336  0.4586 -0.7775 -0.2258
  698TMC3    H110325   0.743   3.789  15.207  1.3839 -1.5833 -0.6887
  698TMC3    H210326   0.963   4.040  14.949  2.5598 -1.3294  0.9123
  698TMC3    C710327   0.758   3.859  14.953 -0.1739 -0.0761 -0.6502
  698TMC3    C810328   1.137   4.119  15.139 -0.1357 -0.5080 -0.3767
  698TMC3    O110329   0.807   3.877  14.844  0.0879 -0.1943  0.0056
  698TMC3    O210330   1.137   4.186  15.236  0.1427 -0.3761 -0.1928
  699TMC3    C110331   1.650   1.370  13.077  0.2402 -0.0387  0.6915
  699TMC3    C210332   1.721   1.289  13.155 -0.2286 -0.6346 -0.1637
  699TMC3    C310333   1.701   1.284  13.292  0.4151 -0.1166 -0.4701
  699TMC3    C410334   1.547   1.441  13.122  0.4422  0.3850  0.0353
  699TMC3    C510335   1.522   1.433  13.256 -0.2833 -0.4066 -0.2490
  699TMC3    C610336   1.601   1.362  13.342  0.0450 -0.3630  0.5050
  699TMC3     C10337   1.689   1.371  12.937 -0.7033 -0.6046  0.3030
  699TMC3     O10338   1.594   1.404  12.868 -0.3009  0.2151  0.3188
  699TMC3     H10339   1.784   1.209  13.116  0.3294  0.1135 -0.7964
  699TMC3    H110340   1.480   1.497  13.057 -0.4337  1.8374  2.1666
  699TMC3    H210341   1.573   1.363  13.447  2.4232 -1.5573  1.1716
  699TMC3    C710342   1.381   1.434  13.289  1.0360  0.0110  1.0606
  699TMC3    C810343   1.684   1.159  13.349 -0.0988  0.1206  0.8457
  699TMC3    O110344   1.307   1.509  13.225 -0.2086  0.5590 -0.5287
  699TMC3    O210345   1.577   1.144  13.405  0.1407 -0.1206 -0.0935
  700TMC3    C110346   0.413   3.900  17.536 -0.4421  0.3804  1.0522
  700TMC3    C210347   0.420   3.762  17.511 -0.2682  0.0044  0.2995
  700TMC3    C310348   0.503   3.682  17.584  0.5947  0.4016 -0.5956
  700TMC3    C410349   0.475   3.952  17.643  0.2402  0.4240 -0.5272
  700TMC3    C510350   0.554   3.867   0.015  0.7159  0.9413 -0.2817
  700TMC3    C610351   0.575   3.732  17.691 -0.5308 -0.0132 -0.8390
  700TMC3     C10352   0.364   3.990  17.435 -0.1773 -0.4122 -0.1488
  700TMC3     O10353   0.252   3.962  17.380 -0.5563 -0.0870  0.0870
  700TMC3     H10354   0.366   3.723  17.425 -2.0531  0.7766  1.0592
  700TMC3    H110355   0.484   4.057  17.666 -0.6362  0.9628 -2.7262
  700TMC3    H210356   0.643   3.666   0.035 -1.6862 -1.8842 -1.6812
  700TMC3    C710357   0.642   3.935   0.104  0.2808  0.6500 -0.3408
  700TMC3    C810358   0.562   3.569  17.526 -0.4163 -0.3364  0.0289
  700TMC3    O110359   0.760   3.913   0.094 -0.0499 -0.0277  0.4815
  700TMC3    O210360   0.681   3.549  17.515 -0.5009 -0.4414 -0.2123
  701TMC3    C110361   0.447   2.371  15.914 -0.9235 -0.0731 -1.0606
  701TMC3    C210362   0.444   2.303  15.797  0.5932  0.5771 -0.0886
  701TMC3    C310363   0.519   2.346  15.695 -0.6582 -0.4604  0.3473
  701TMC3    C410364   0.516   2.479  15.938 -0.2494 -0.2686  0.1419
  701TMC3    C510365   0.602   2.526  15.838 -1.0129  0.0900  0.0965
  701TMC3    C610366   0.607   2.451  15.716  0.0863 -0.2451  0.2669
  701TMC3     C10367   0.402   2.296  16.028  0.2167 -0.4135 -0.0735
  701TMC3     O10368   0.374   2.364  16.126  0.8629 -0.3030 -0.1591
  701TMC3     H10369   0.376   2.220  15.788  0.2761  0.7535  0.6420
  701TMC3    H110370   0.503   2.532  16.032 -1.1279 -0.3678  0.0731
  701TMC3    H210371   0.660   2.486  15.628  0.8474  1.6474  1.4852
  701TMC3    C710372   0.620   2.669  15.813 -0.2279  0.0452  0.2907
  701TMC3    C810373   0.455   2.372  15.571 -0.7423 -1.2183 -0.4752
  701TMC3    O110374   0.630   2.708  15.697  0.3017  0.0942 -0.4079
  701TMC3    O210375   0.493   2.471  15.507 -0.1272  0.1045  0.6246
  702MPD2     C10376   4.557   0.052  10.188 -0.7931  0.1663  0.2140
  702MPD2    C110377   4.535   0.082  10.320  0.2654 -0.2877 -0.5098
  702MPD2    C210378   4.579   0.208  10.371 -0.1746 -0.1227 -0.1284
  702MPD2    C310379   4.640   0.299  10.293 -0.1826 -0.0245  0.4392
  702MPD2    C410380   4.651   0.268  10.160 -0.3074 -0.2535  0.1365
  702MPD2    C510381   4.616   0.147  10.108 -0.0875 -0.2988  0.5011
  702MPD2     H10382   4.569   0.240  10.475 -0.6800  2.4994 -0.9733
  702MPD2    H110383   4.711   0.332  10.096 -0.4087  0.0073  0.3026
  702MPD2    H210384   4.541   4.674  10.162 -0.4515 -0.4317  2.3957
  702MPD2    H310385   4.628   0.126  10.003 -0.2344  0.0345  0.4156
  702MPD2     N10386   4.689   0.416  10.353 -0.3446  0.6980  0.1345
  702MPD2    H510387   4.670   0.432  10.452  1.1187  0.3894  0.4675
  702MPD2    N110388   4.501   4.712  10.419  0.2311 -0.0394 -0.2409
  702MPD2    H710389   4.486   0.015  10.516 -0.0560  2.0695 -0.9220
  703TMC3    C110390   0.086   0.614  10.382  0.1491 -0.4383 -0.2109
  703TMC3    C210391   4.726   0.674  10.466 -0.2740 -0.1435  0.8184
  703TMC3    C310392   0.041   0.750  10.570  0.8016 -0.1472  0.1382
  703TMC3    C410393   0.217   0.644  10.396  0.5293 -0.2207  0.1992
  703TMC3    C510394   0.260   0.731  10.489  0.2591  0.2735 -0.4807
  703TMC3    C610395   0.176   0.779  10.584 -0.3029 -0.3142 -0.6545
  703TMC3     C10396   0.044   0.510  10.288 -0.0880  0.6286 -0.3932
  703TMC3     O10397   0.109   0.490  10.189 -0.4019  0.0037  0.0712
  703TMC3     H10398   4.622   0.667  10.438 -0.1120 -0.2749  0.2510
  703TMC3    H110399   0.296   0.597  10.339  0.1253  0.5254 -0.9706
  703TMC3    H210400   0.218   0.844  10.660 -1.3009  2.3457 -2.3639
  703TMC3    C710401   0.399   0.739  10.516  0.5144  0.1236  0.1527
  703TMC3    C810402   4.689   0.782  10.683 -0.0868 -0.6277  0.3046
  703TMC3    O110403   0.474   0.719  10.419 -0.1870  0.5360  0.2260
  703TMC3    O210404   0.019   0.850  10.772  0.4589 -0.6200  0.1056
  704TMC3    C110405   2.260   3.006  12.422 -0.8298 -0.0772  0.4091
  704TMC3    C210406   2.390   3.047  12.433  0.1512  1.0182  0.3649
  704TMC3    C310407   2.472   2.975  12.505  0.0693  0.8918 -0.2863
  704TMC3    C410408   2.217   2.891  12.482  0.2616 -0.1037 -0.2150
  704TMC3    C510409   2.299   2.836  12.577 -0.8856 -0.0363 -0.1409
  704TMC3    C610410   2.427   2.882  12.594 -0.4332  0.2287 -0.3533
  704TMC3     C10411   2.177   3.062  12.312 -0.4701  0.2758 -0.0034
  704TMC3     O10412   2.055   3.056  12.338 -0.1083 -0.7741 -0.0062
  704TMC3     H10413   2.436   3.130  12.381  0.8939  0.3177 -0.1032
  704TMC3    H110414   2.117   2.854  12.464  0.7505  0.2505 -3.5987
  704TMC3    H210415   2.495   2.830  12.660 -2.0726 -2.7276 -0.9941
  704TMC3    C710416   2.288   2.689  12.578  0.1671 -0.0512  0.4899
  704TMC3    C810417   2.610   2.978  12.472  0.1430 -0.4599  0.3154
  704TMC3    O110418   2.392   2.629  12.555 -0.6904  0.2778 -0.5530
  704TMC3    O210419   2.634   3.005  12.356  0.1522 -0.4170 -0.0690
  705MPD2     C10420   2.315   1.682  16.786  0.0025 -0.0604  0.8338
  705MPD2    C110421   2.234   1.735  16.691  0.5965  0.0938 -0.4291
  705MPD2    C210422   2.101   1.759  16.723 -0.5830  0.3236  0.6749
  705MPD2    C310423   2.054   1.743  16.855 -0.2224  1.1317  0.2756
  705MPD2    C410424   2.143   1.707  16.954 -0.0545  0.0249 -0.3128
  705MPD2    C510425   2.274   1.679  16.917 -0.1594 -0.8805 -0.2825
  705MPD2     H10426   2.030   1.796  16.649  0.9708  1.0750 -0.4419
  705MPD2    H110427   2.110   1.687  17.055  0.9215  0.0025  0.0013
  705MPD2    H210428   2.417   1.654  16.761 -0.0007  0.5735  0.1153
  705MPD2    H310429   2.342   1.626  16.983  1.0617  2.9331  1.4887
  705MPD2     N10430   1.912   1.760  16.891 -0.3156 -0.6093 -0.1087
  705MPD2    H510431   1.884   1.749  16.988  0.2175 -0.6705  0.0401
  705MPD2    N110432   2.271   1.743  16.553 -0.7223 -0.7757  0.0947
  705MPD2    H710433   2.200   1.768  16.485  0.0028 -0.3368 -0.5080
  706TMC3    C110434   2.480   1.725  16.157  0.1263 -0.3106  0.1841
  706TMC3    C210435   2.422   1.841  16.111  0.4421 -0.1657  0.4102
  706TMC3    C310436   2.348   1.908  16.202  0.2795  0.6684  0.2021
  706TMC3    C410437   2.489   1.688  16.285  0.2406  0.3141  0.1844
  706TMC3    C510438   2.397   1.749  16.361  0.1131  0.5004 -0.1006
  706TMC3    C610439   2.325   1.859  16.324  0.1517 -0.2272 -1.3106
  706TMC3     C10440   2.590   1.666  16.085 -0.2855 -0.5993  0.6793
  706TMC3     O10441   2.701   1.665  16.141 -0.1097 -0.5647  0.1086
  706TMC3     H10442   2.410   1.870  16.007  1.3366 -0.0520  0.3388
  706TMC3    H110443   2.538   1.593  16.306  1.1550  1.0775  1.4953
  706TMC3    H210444   2.253   1.909  16.388  1.2083 -0.8615  0.3860
  706TMC3    C710445   2.395   1.705  16.501  0.3658  0.3848 -0.3549
  706TMC3    C810446   2.300   2.040  16.170  0.2575  0.0110 -0.4141
  706TMC3    O110447   2.496   1.655  16.549  0.1510  0.1179  0.5999
  706TMC3    O210448   2.199   2.070  16.234  0.0890 -0.1737  0.4246
  707TMC3    C110449   3.574   0.129   1.444  0.2217 -0.3100  0.0293
  707TMC3    C210450   3.583   4.722   1.417  0.2580 -0.3238  0.7734
  707TMC3    C310451   3.472   4.657   1.366 -0.6891 -0.3679 -0.2827
  707TMC3    C410452   3.456   0.195   1.427 -0.6987 -0.1701  0.0395
  707TMC3    C510453   3.350   0.131   1.381  0.2818  0.6015  0.3139
  707TMC3    C610454   3.354   4.723   1.358  0.1877  0.9812 -0.5415
  707TMC3     C10455   3.698   0.203   1.422  0.1798 -0.0895 -0.0577
  707TMC3     O10456   3.795   0.128   1.409  0.2681  0.3591  0.7168
  707TMC3     H10457   3.676   4.671   1.442  0.4438 -0.6826 -0.6696
  707TMC3    H110458   3.446   0.293   1.470 -0.2695 -1.2474  2.6006
  707TMC3    H210459   3.271   4.674   1.308  0.3531 -3.0988  3.2286
  707TMC3    C710460   3.227   0.206   1.388  0.1870  0.1890  0.4006
  707TMC3    C810461   3.467   4.506   1.344 -0.2112  0.6197 -0.5489
  707TMC3    O110462   3.233   0.322   1.419 -0.0408 -0.5956  1.2202
  707TMC3    O210463   3.365   4.448   1.333  0.0104 -0.2443 -0.6938
  708MPD2     C10464   0.531   0.054  13.432  0.3423  0.8659  0.0248
  708MPD2    C110465   0.405   4.722  13.446 -0.2540  0.2259  0.1175
  708MPD2    C210466   0.381   4.654  13.560  0.5678  0.3764 -0.1016
  708MPD2    C310467   0.480   4.637  13.657  0.0551  0.6570  0.4012
  708MPD2    C410468   0.597   4.706  13.646 -0.1163 -0.0354  0.1441
  708MPD2    C510469   0.618   0.060  13.537  0.0631 -0.7436 -0.0756
  708MPD2     H10470   0.286   4.602  13.571  0.2541  0.9443 -0.0957
  708MPD2    H110471   0.667   4.717  13.727 -1.3794  0.7940  1.1272
  708MPD2    H210472   0.556   0.128  13.356 -2.2121  0.1374 -1.5465
  708MPD2    H310473   0.702   0.127  13.529 -0.7337  0.4050  1.1749
  708MPD2     N10474   0.453   4.573  13.777 -0.4046 -0.4433  0.2144
  708MPD2    H510475   0.525   4.576  13.848  0.5672 -0.4085 -0.7777
  708MPD2    N110476   0.309   0.016  13.345  0.2705  0.2074 -0.5257
  708MPD2    H710477   0.329   0.083  13.271  0.3701  0.1386 -0.5612
  709TMC3    C110478   0.097   4.720  13.246 -0.8294 -0.5950  0.1406
  709TMC3    C210479   0.126   4.623  13.150 -0.8240  0.9981 -0.0055
  709TMC3    C310480   0.024   4.541  13.109  0.2127 -0.1788  0.0247
  709TMC3    C410481   4.693   0.006  13.290 -0.3733 -0.1723  0.7767
  709TMC3    C510482   4.591   4.660  13.240  0.4894  0.2995 -1.0216
  709TMC3    C610483   4.619   4.562  13.148 -0.0384 -0.3577 -0.3838
  709TMC3     C10484   0.177   4.718  13.362  0.2197 -0.2651  0.4316
  709TMC3     O10485   0.117   4.713  13.472  0.1574  0.4921  0.1147
  709TMC3     H10486   0.232   4.623  13.124 -0.6006 -0.4633  0.9123
  709TMC3    H110487   4.675   0.089  13.356 -3.3095 -0.3898  0.2549
  709TMC3    H210488   4.546   4.517  13.083 -0.5225 -0.4687  0.2379
  709TMC3    C710489   4.505   4.615  13.346  0.0070  0.0085  0.1740
  709TMC3    C810490   0.055   4.430  13.018 -0.2266  0.1947  0.7568
  709TMC3    O110491   4.390   4.588  13.311  0.5331  0.9124 -0.2664
  709TMC3    O210492   4.712   4.332  13.018 -0.0570  0.5902  0.3546
  710TMC3    C110493   2.494   1.349   0.306  0.1875 -0.1663  0.3214
  710TMC3    C210494   2.465   1.283   0.188 -0.3838 -0.3418  0.0725
  710TMC3    C310495   2.396   1.165   0.204 -0.5123 -0.1654  0.3659
  710TMC3    C410496   2.480   1.298   0.428  0.2118 -0.4391 -0.8779
  710TMC3    C510497   2.430   1.169   0.429 -0.6608  0.2103  0.4860
  710TMC3    C610498   2.383   1.107   0.322 -0.2495 -0.0780  0.1516
  710TMC3     C10499   2.493   1.493   0.286  0.3140  0.2479  0.7219
  710TMC3     O10500   2.527   1.537   0.177 -0.5828 -0.1382  0.0643
  710TMC3     H10501   2.451   1.334   0.094  0.1013  1.8380  1.1770
  710TMC3    H110502   2.503   1.356   0.517 -0.6609 -2.6255  0.7848
  710TMC3    H210503   2.342   1.007   0.327  2.5253 -1.0294  4.2349
  710TMC3    C710504   2.409   1.103   0.558 -0.5028  0.2866 -0.5851
  710TMC3    C810505   2.379   1.083   0.087 -0.4576  1.4971  0.1221
  710TMC3    O110506   2.301   1.048   0.572 -0.3302  0.5951 -0.0378
  710TMC3    O210507   2.290   1.000   0.089  0.0735 -0.0115 -0.6475
  711TMC3    C110508   1.121   2.495  15.205  0.4018  0.2899 -0.5541
  711TMC3    C210509   1.154   2.567  15.315  0.3979 -0.4220 -0.0210
  711TMC3    C310510   1.276   2.546  15.370  0.0287  0.5106  0.8227
  711TMC3    C410511   1.209   2.417  15.144 -0.1650  0.3531  0.0822
  711TMC3    C510512   1.332   2.396  15.202  0.4499  0.3090  0.1524
  711TMC3    C610513   1.363   2.457  15.317  0.4384 -0.1276  0.1867
  711TMC3     C10514   0.993   2.430  15.219 -0.0647  0.0336 -0.1157
  711TMC3     O10515   0.948   2.372  15.120  0.5873  0.3425  0.0370
  711TMC3     H10516   1.099   2.653  15.352  1.4579  2.0416 -4.2247
  711TMC3    H110517   1.178   2.367  15.053 -1.0604 -1.4729  1.3875
  711TMC3    H210518   1.461   2.446  15.362  0.1707  0.1068  0.8170
  711TMC3    C710519   1.381   2.266  15.193  0.4538 -0.1796  0.3494
  711TMC3    C810520   1.258   2.528  15.510  0.3916  0.6877  0.2973
  711TMC3    O110521   1.486   2.246  15.246  0.1515  0.0307 -0.7426
  711TMC3    O210522   1.141   2.507  15.537  0.2899  0.1046 -0.1506
  712MPD2     C10523   1.946   3.099  13.522  0.0106 -0.0653 -0.0172
  712MPD2    C110524   2.023   3.087  13.408 -0.3142 -0.2805 -0.0001
  712MPD2    C210525   2.108   3.188  13.371 -0.5919  0.2631  0.4393
  712MPD2    C310526   2.133   3.294  13.462 -0.4896 -0.4413  0.6470
  712MPD2    C410527   2.068   3.299  13.583  0.1921 -0.2244  0.2660
  712MPD2    C510528   1.967   3.204  13.611  1.0680 -1.2191  0.0406
  712MPD2     H10529   2.150   3.187  13.271 -2.9689 -0.1464 -0.5311
  712MPD2    H110530   2.084   3.384  13.649  0.1908 -0.7827  0.9811
  712MPD2    H210531   1.862   3.032  13.541  0.2448 -0.8199 -1.7008
  712MPD2    H310532   1.901   3.212  13.696  0.9879 -3.5771  0.2001
  712MPD2     N10533   2.219   3.401  13.439  0.3534 -0.5407 -0.1909
  712MPD2    H510534   2.206   3.479  13.503 -1.2815 -0.4936 -0.5926
  712MPD2    N110535   1.995   2.982  13.312 -0.0511 -0.4892 -0.0309
  712MPD2    H710536   2.026   3.000  13.217  0.9441 -1.3024  0.1364
  713TMC3    C110537   2.412   3.526  13.376  0.1333 -0.0851  0.5283
  713TMC3    C210538   2.549   3.532  13.332  0.2606 -0.5878 -0.3996
  713TMC3    C310539   2.601   3.659  13.317 -0.2147 -0.1610 -0.0354
  713TMC3    C410540   2.343   3.650  13.390  0.4564  0.5003 -0.0293
  713TMC3    C510541   2.400   3.770  13.367  0.0912 -0.1295 -0.0813
  713TMC3    C610542   2.532   3.778  13.339 -0.8099  0.7954  0.6577
  713TMC3     C10543   2.336   3.405  13.353  0.2015 -0.5758 -0.3445
  713TMC3     O10544   2.380   3.323  13.273 -0.1953  0.5312  0.0274
  713TMC3     H10545   2.608   3.443  13.312 -0.4470 -0.6672 -2.1746
  713TMC3    H110546   2.244   3.657  13.431  0.5140  1.2621 -0.0171
  713TMC3    H210547   2.591   3.868  13.330  1.2474 -0.5690  0.4386
  713TMC3    C710548   2.325   3.892  13.384  0.1530 -0.0162  0.0295
  713TMC3    C810549   2.744   3.674  13.303 -0.6185 -0.3009  0.3190
  713TMC3    O110550   2.408   3.983  13.393  0.7038  0.3293  0.3663
  713TMC3    O210551   2.783   3.758  13.221 -0.6510 -0.4712 -0.0060
  714MPD2     C10552   4.495   2.281   1.307  0.5391 -0.0449 -0.9624
  714MPD2    C110553   4.534   2.190   1.211  0.0817 -0.3722 -0.3074
  714MPD2    C210554   4.444   2.140   1.114  0.9618  0.4990 -0.7724
  714MPD2    C310555   4.319   2.193   1.110  0.0008  0.3575 -0.6481
  714MPD2    C410556   4.280   2.276   1.219 -1.0959 -0.7719 -0.9950
  714MPD2    C510557   4.367   2.322   1.320  0.3082 -0.2261  0.1093
  714MPD2     H10558   4.474   2.076   1.032  1.1249 -1.1139  0.5361
  714MPD2    H110559   4.182   2.323   1.222 -2.0966 -2.8730 -0.9106
  714MPD2    H210560   4.570   2.311   1.379  0.0652 -0.3402 -0.3490
  714MPD2    H310561   4.341   2.407   1.382  2.5329  0.3652  0.2262
  714MPD2     N10562   4.236   2.152   0.998  0.1202  0.0914  0.5603
  714MPD2    H510563   4.282   2.081   0.942 -1.0632 -1.5038  1.5878
  714MPD2    N110564   4.663   2.140   1.202  0.2451  1.1383 -0.4218
  714MPD2    H710565   0.008   2.193   1.251  0.5019 -0.3261  0.7735
  715TMC3    C110566   0.113   2.001   1.136 -0.1189 -0.2151 -0.4177
  715TMC3    C210567   0.147   1.873   1.101  0.0790  0.2300 -0.8949
  715TMC3    C310568   0.281   1.841   1.102 -0.0308  0.0408  1.0552
  715TMC3    C410569   0.205   2.095   1.166  0.0867  0.1954 -0.4224
  715TMC3    C510570   0.338   2.061   1.167 -0.1351 -0.0150 -0.1477
  715TMC3    C610571   0.379   1.934   1.132 -0.2541 -0.1524 -0.2264
  715TMC3     C10572   4.696   2.021   1.148 -0.1979  0.2379 -0.1039
  715TMC3     O10573   4.618   1.926   1.128  0.2648 -1.1157  0.6733
  715TMC3     H10574   0.067   1.800   1.094  0.5388 -0.5264  1.9019
  715TMC3    H110575   0.179   2.199   1.157  0.7903  0.4383  0.3454
  715TMC3    H210576   0.478   1.893   1.147 -0.5526  0.0131  2.1886
  715TMC3    C710577   0.448   2.142   1.222 -0.0162 -0.4901 -0.5308
  715TMC3    C810578   0.301   1.710   1.149  0.1368 -0.1574 -0.2894
  715TMC3    O110579   0.564   2.122   1.186  0.1071  0.4663  0.4096
  715TMC3    O210580   0.395   1.650   1.099 -0.1911 -0.4025  0.4168
  716MPD2     C10581   4.646   4.445   9.939  0.4403  0.0076  0.0575
  716MPD2    C110582   4.610   4.446   9.807  0.3414  0.6206 -0.0732
  716MPD2    C210583   4.659   4.359   9.719  0.3594 -1.0027  0.0380
  716MPD2    C310584   0.032   4.274   9.754 -1.0073  0.1638 -0.6449
  716MPD2    C410585   0.060   4.255   9.892  0.3607  0.5291  0.4694
  716MPD2    C510586   0.001   4.342   9.985  1.0651 -0.3328  0.2964
  716MPD2     H10587   4.625   4.348   9.616  0.6501  0.8188 -0.2582
  716MPD2    H110588   0.136   4.184   9.923 -0.3394 -0.4731 -0.1080
  716MPD2    H210589   4.617   4.516  10.017  2.2576 -0.0999  0.8196
  716MPD2    H310590   0.012   4.319  10.090 -0.2160  0.4296  0.5955
  716MPD2     N10591   0.094   4.198   9.653 -0.4117 -0.1339 -0.0947
  716MPD2    H510592   0.053   4.210   9.561  1.2900 -3.7803 -1.3355
  716MPD2    N110593   4.509   4.532   9.764  0.1427 -0.6609  0.1117
  716MPD2    H710594   4.456   4.583   9.834 -1.5237 -0.3233 -1.3883
  717TMC3    C110595   0.252   4.058   9.531  0.2835 -0.1097 -0.5625
  717TMC3    C210596   0.185   4.089   9.419  0.0477  0.3098  0.4900
  717TMC3    C310597   0.230   4.034   9.302 -0.6606  0.2843 -0.1248
  717TMC3    C410598   0.360   3.978   9.530 -0.2894  0.5991  0.2798
  717TMC3    C510599   0.399   3.933   9.410 -0.0828 -0.2182  0.3569
  717TMC3    C610600   0.333   3.946   9.292 -0.3263 -0.3254 -0.9063
  717TMC3     C10601   0.209   4.116   9.659 -0.0430 -0.1696  0.1293
  717TMC3     O10602   0.281   4.094   9.756 -0.0518  0.4705  0.0835
  717TMC3     H10603   0.103   4.159   9.423 -1.2688 -1.1871 -0.7040
  717TMC3    H110604   0.412   3.961   9.624 -0.8453  0.1474  0.5106
  717TMC3    H210605   0.372   3.903   9.200  2.8333 -0.0425  0.2871
  717TMC3    C710606   0.527   3.874   9.402 -0.0354  0.1360  0.0128
  717TMC3    C810607   0.156   4.052   9.185 -0.4316 -0.6817 -0.7557
  717TMC3    O110608   0.554   3.796   9.312 -0.2421 -0.2413 -0.6463
  717TMC3    O210609   0.191   3.985   9.093  0.2071 -0.0130 -0.8007
  718MPD2     C10610   4.025   3.178  13.146  0.7925  0.6614  0.5850
  718MPD2    C110611   3.985   3.308  13.110 -0.0610  0.3869  0.4727
  718MPD2    C210612   3.863   3.327  13.048 -0.4651  0.2225 -0.5255
  718MPD2    C310613   3.778   3.219  13.024 -0.2914  0.3421  0.7393
  718MPD2    C410614   3.820   3.091  13.050 -0.6746  0.5083 -0.4829
  718MPD2    C510615   3.941   3.077  13.116 -0.7067 -0.0599 -0.4569
  718MPD2     H10616   3.828   3.421  13.006 -0.9883  0.0521 -0.4700
  718MPD2    H110617   3.754   3.005  13.053  1.5366 -1.1550  0.9261
  718MPD2    H210618   4.126   3.153  13.177  1.7155  2.1171 -1.2551
  718MPD2    H310619   3.969   2.974  13.135 -1.6542 -0.2644 -0.1254
  718MPD2     N10620   3.657   3.259  12.969 -0.1779 -0.2061 -0.2765
  718MPD2    H510621   3.629   3.356  12.979  3.0723  0.5863  1.0392
  718MPD2    N110622   4.081   3.415  13.124  0.4615  0.3058  0.0211
  718MPD2    H710623   4.172   3.383  13.154  1.4960  1.7722 -1.5757
  719TMC3    C110624   4.168   3.631  13.094 -0.1960 -0.5211  0.6004
  719TMC3    C210625   4.125   3.759  13.090 -0.1171 -0.1111  0.1863
  719TMC3    C310626   4.174   3.850  13.002  0.4758  0.4852  0.2027
  719TMC3    C410627   4.261   3.586  13.000  0.0631 -0.1616 -0.4098
  719TMC3    C510628   4.318   3.680  12.910  0.0926 -0.1978 -0.4559
  719TMC3    C610629   4.273   3.807  12.912  0.4690 -0.2442  0.2301
  719TMC3     C10630   4.052   3.545  13.110 -0.3813  0.7074 -0.5949
  719TMC3     O10631   3.944   3.601  13.097  0.6002 -0.1691 -0.0936
  719TMC3     H10632   4.038   3.791  13.147  0.2678 -0.6488  1.0800
  719TMC3    H110633   4.305   3.491  13.026  1.9725  0.9026  0.2277
  719TMC3    H210634   4.318   3.887  12.854 -0.1530  1.1894  1.7374
  719TMC3    C710635   4.371   3.641  12.778 -0.2405 -0.1142 -0.4227
  719TMC3    C810636   4.071   3.914  12.925  0.0962 -0.4062 -0.3040
  719TMC3    O110637   4.397   3.729  12.697 -0.3888 -0.1479 -0.0592
  719TMC3    O210638   4.098   4.016  12.862 -0.4815  0.1462  0.0820
  720MPD2     C10639   2.431   0.338  14.075  0.3420  0.0395  0.1715
  720MPD2    C110640   2.529   0.335  13.980  0.0924 -0.0450 -0.7421
  720MPD2    C210641   2.650   0.280  14.004 -0.2002 -0.4261 -0.4027
  720MPD2    C310642   2.690   0.232  14.128  0.2014  0.0927  0.5562
  720MPD2    C410643   2.589   0.229  14.227  0.1234 -0.5077 -0.1778
  720MPD2    C510644   2.461   0.280  14.200  0.1422  1.1680 -0.8745
  720MPD2     H10645   2.724   0.284  13.925 -0.0667 -1.2554 -0.3143
  720MPD2    H110646   2.613   0.197  14.328 -1.8625  2.9048  1.3950
  720MPD2    H210647   2.330   0.368  14.049  0.2149 -0.9029 -0.4319
  720MPD2    H310648   2.389   0.277  14.282  3.1751 -0.9403  1.7201
  720MPD2     N10649   2.827   0.206  14.152 -0.6952 -0.3462 -0.6376
  720MPD2    H510650   2.884   0.222  14.070 -0.1054  1.3886  0.1194
  720MPD2    N110651   2.515   0.389  13.851 -0.6259 -0.0286 -0.3257
  720MPD2    H710652   2.595   0.380  13.788 -1.2503  0.4429 -1.1889
  721TMC3    C110653   3.016   0.135  14.279 -0.9062 -0.1701 -0.2223
  721TMC3    C210654   3.061   0.154  14.400  0.1546  0.0900 -0.3290
  721TMC3    C310655   3.194   0.139  14.423 -0.2048 -0.2097 -0.6329
  721TMC3    C410656   3.096   0.132  14.165  0.3369  0.0807 -0.3696
  721TMC3    C510657   3.231   0.122  14.187  0.6775  0.3944  0.6498
  721TMC3    C610658   3.283   0.125  14.314 -0.1368  0.7355 -0.7061
  721TMC3     C10659   2.872   0.145  14.268  0.2307  0.1455  0.0841
  721TMC3     O10660   2.810   0.098  14.361 -0.0221 -0.1092  0.0250
  721TMC3     H10661   2.993   0.159  14.484 -0.9832 -3.5537 -1.0124
  721TMC3    H110662   3.055   0.125  14.065  0.1230 -0.2986 -0.2556
  721TMC3    H210663   3.391   0.128  14.327 -0.0757  0.0736 -1.1055
  721TMC3    C710664   3.308   0.199  14.099  0.4880 -0.2361 -0.4613
  721TMC3    C810665   3.256   0.173  14.556  0.2832 -0.7466  0.1603
  721TMC3    O110666   3.394   0.267  14.151 -0.0986 -0.0335 -0.6886
  721TMC3    O210667   3.381   0.172  14.563 -0.4444 -0.4091  0.1999
  722MPD2     C10668   1.185   3.576  13.193 -0.0832  0.2952  0.3646
  722MPD2    C110669   1.126   3.695  13.158 -0.7894 -0.5684 -0.2104
  722MPD2    C210670   1.003   3.703  13.104 -0.4671 -0.0669 -0.0055
  722MPD2    C310671   0.940   3.583  13.068 -1.0765 -0.6240  0.2808
  722MPD2    C410672   0.996   3.462  13.100 -0.5788  0.4723 -0.1891
  722MPD2    C510673   1.113   3.461  13.163 -0.0724 -0.8345  0.1397
  722MPD2     H10674   0.951   3.794  13.080 -1.3853 -1.0867 -1.8353
  722MPD2    H110675   0.934   3.375  13.083  0.3093 -0.0320 -0.8247
  722MPD2    H210676   1.286   3.557  13.226 -0.1399 -0.6929 -0.0194
  722MPD2    H310677   1.154   3.364  13.188  0.5073 -1.1082 -1.8149
  722MPD2     N10678   0.823   3.591  12.997  0.2614  0.1676  0.7021
  722MPD2    H510679   0.803   3.687  12.972  0.3008  0.2073  0.8223
  722MPD2    N110680   1.195   3.819  13.187 -0.1021 -0.3474  0.2009
  722MPD2    H710681   1.138   3.903  13.176 -0.2647 -0.2634  1.5963
  723TMC3    C110682   0.651   3.542  12.849 -0.4025 -0.0542  0.5443
  723TMC3    C210683   0.611   3.466  12.734 -1.0571 -0.0947  0.3767
  723TMC3    C310684   0.502   3.505  12.662  0.1625 -0.4272 -0.5327
  723TMC3    C410685   0.578   3.647  12.893 -0.4458  0.1847  0.2225
  723TMC3    C510686   0.471   3.685  12.815 -0.2299 -0.3522  0.3103
  723TMC3    C610687   0.435   3.626  12.695  0.2960  0.2990 -0.0181
  723TMC3     C10688   0.754   3.489  12.930 -0.5280 -0.2184  0.1336
  723TMC3     O10689   0.771   3.369  12.917 -0.1437 -0.5510 -0.1563
  723TMC3     H10690   0.677   3.393  12.687  0.6479  0.6014  1.7008
  723TMC3    H110691   0.598   3.695  12.988 -1.2024  0.0164  0.4631
  723TMC3    H210692   0.351   3.661  12.637 -0.3515  0.3090  0.9160
  723TMC3    C710693   0.395   3.802  12.851 -0.6794  0.3196  0.0151
  723TMC3    C810694   0.430   3.407  12.579 -0.4685  0.2306  0.8128
  723TMC3    O110695   0.284   3.807  12.803  0.1221 -0.0652 -0.4211
  723TMC3    O210696   0.367   3.454  12.483  0.0964  0.5349 -0.1407
  724TMC3    C110697   1.672   2.312  10.283 -0.0156  0.1871 -0.4397
  724TMC3    C210698   1.592   2.307  10.171 -0.2112 -0.5418 -0.2089
  724TMC3    C310699   1.640   2.367  10.062  0.3246  0.4417  0.0609
  724TMC3    C410700   1.792   2.375  10.298  0.4925 -0.3423  0.5005
  724TMC3    C510701   1.837   2.416  10.178  0.5071  0.4218  0.7288
  724TMC3    C610702   1.772   2.409  10.059  0.4937 -0.0585 -0.2522
  724TMC3     C10703   1.643   2.208  10.381  0.0677  0.0025  0.1737
  724TMC3     O10704   1.712   2.216  10.482 -0.0723 -1.2673 -0.0471
  724TMC3     H10705   1.487   2.281  10.176 -0.1025 -1.2851 -1.7946
  724TMC3    H110706   1.849   2.372  10.390 -2.2003 -5.1754  2.0052
  724TMC3    H210707   1.818   2.450   9.970 -1.1983  0.6874 -0.7803
  724TMC3    C710708   1.969   2.468  10.178 -0.0092 -0.1287  0.4769
  724TMC3    C810709   1.546   2.411   9.954 -0.2274  0.4124 -0.4923
  724TMC3    O110710   2.022   2.428  10.075 -0.4004 -0.4100 -0.5881
  724TMC3    O210711   1.435   2.353   9.948  0.1307 -0.5575  0.3990
  725TMC3    C110712   3.410   0.772  12.721 -0.4500 -0.2159 -0.1445
  725TMC3    C210713   3.293   0.810  12.649 -0.2799  0.0369 -0.9373
  725TMC3    C310714   3.192   0.719  12.640 -0.4344 -0.1034 -0.4957
  725TMC3    C410715   3.422   0.657  12.788  0.1761 -0.0706 -0.0283
  725TMC3    C510716   3.314   0.574  12.774  0.3193 -0.1987  0.2584
  725TMC3    C610717   3.204   0.600  12.701  0.3355 -0.3508 -0.1613
  725TMC3     C10718   3.466   0.889  12.786  0.6572  0.0586  0.3801
  725TMC3     O10719   3.446   0.992  12.717 -0.2419  0.1182 -0.2425
  725TMC3     H10720   3.291   0.906  12.599 -0.5140  1.0216  0.9356
  725TMC3    H110721   3.517   0.622  12.827 -1.3667 -2.8427  1.2148
  725TMC3    H210722   3.125   0.526  12.707  1.4868 -1.6911 -1.5504
  725TMC3    C710723   3.360   0.435  12.789  0.1715  0.2926 -0.2520
  725TMC3    C810724   3.066   0.783  12.618  0.2246  0.2981 -0.3917
  725TMC3    O110725   3.409   0.396  12.892 -0.1113  1.0334  0.1046
  725TMC3    O210726   2.992   0.791  12.716 -1.0306 -0.2304  0.2070
  726MPD2     C10727   1.135   2.074  10.271  0.4462  0.3588  0.8900
  726MPD2    C110728   1.033   2.128  10.343 -0.2953 -0.5926 -0.8578
  726MPD2    C210729   0.955   2.054  10.427 -0.6271 -0.3099  0.1001
  726MPD2    C310730   0.981   1.918  10.418 -0.0587  0.1134  0.4915
  726MPD2    C410731   1.067   1.862  10.326  0.4478 -0.2383 -0.5068
  726MPD2    C510732   1.150   1.942  10.257 -0.3569  0.5735 -0.1453
  726MPD2     H10733   0.880   2.098  10.492 -0.4896  0.5458 -0.3141
  726MPD2    H110734   1.063   1.757  10.298  0.8277  0.4033 -2.9073
  726MPD2    H210735   1.200   2.133  10.208 -0.1728  0.3514  0.2463
  726MPD2    H310736   1.229   1.904  10.193 -2.1330  0.1279 -2.0837
  726MPD2     N10737   0.903   1.820  10.486 -0.3949 -0.1383  0.3390
  726MPD2    H510738   0.926   1.725  10.455 -0.9071 -0.5933  1.3625
  726MPD2    N110739   1.001   2.261  10.323  0.1129 -0.5043  0.1513
  726MPD2    H710740   1.076   2.311  10.278 -0.6098 -0.6213 -1.1827
  727TMC3    C110741   0.879   2.456  10.348  0.8171 -0.5715 -0.0207
  727TMC3    C210742   0.988   2.526  10.396 -0.4754 -0.2378  0.4522
  727TMC3    C310743   0.988   2.657  10.377  0.1495  0.1776 -0.5650
  727TMC3    C410744   0.768   2.518  10.290  0.4768  0.4928 -0.0932
  727TMC3    C510745   0.773   2.658  10.269 -0.0669  0.2431  0.5829
  727TMC3    C610746   0.887   2.728  10.315  0.3443  0.1568  0.6459
  727TMC3     C10747   0.878   2.313  10.338  0.4997  0.9481  0.2447
  727TMC3     O10748   0.774   2.246  10.336  0.1061 -0.2321 -0.1516
  727TMC3     H10749   1.073   2.482  10.447  0.6435  1.4080  0.0222
  727TMC3    H110750   0.680   2.461  10.263  0.4549 -0.3431  1.6982
  727TMC3    H210751   0.900   2.836  10.313  1.4854 -0.0496 -3.4695
  727TMC3    C710752   0.656   2.727  10.221 -0.3190  0.1569  0.0106
  727TMC3    C810753   1.097   2.739  10.442 -0.7541 -0.3782  0.4930
  727TMC3    O110754   0.550   2.663  10.236  0.0818 -0.1794 -0.3421
  727TMC3    O210755   1.141   2.833  10.374 -0.4540  0.3372  0.2300
  728TMC3    C110756   0.744   0.807  15.410 -0.3458 -0.0391 -0.1077
  728TMC3    C210757   0.876   0.812  15.368 -0.3800 -0.1030  0.1195
  728TMC3    C310758   0.915   0.912  15.279  0.1605 -0.1660  0.0495
  728TMC3    C410759   0.657   0.900  15.350  1.0373 -0.6041  0.3335
  728TMC3    C510760   0.691   0.977  15.250  0.0377  0.5706  0.2886
  728TMC3    C610761   0.822   0.989  15.208 -0.5641  0.0156  0.1497
  728TMC3     C10762   0.722   0.755  15.546  0.4127  0.1927 -0.4774
  728TMC3     O10763   0.818   0.709  15.610 -0.5879 -0.2878 -0.5272
  728TMC3     H10764   0.949   0.748  15.418 -1.5901 -1.1300  0.5856
  728TMC3    H110765   0.552   0.910  15.375  0.4264 -1.0323 -2.1021
  728TMC3    H210766   0.839   1.054  15.124 -1.8261  2.6613  1.9431
  728TMC3    C710767   0.586   1.074  15.207  0.0425  0.3594 -0.3538
  728TMC3    C810768   1.048   0.911  15.218 -0.1497 -0.1475 -0.0663
  728TMC3    O110769   0.509   1.117  15.293  0.1240 -0.2044  0.8979
  728TMC3    O210770   1.100   1.023  15.220 -0.1109  0.5335  0.0776
  729MPD2     C10771   2.816   2.262  16.532 -0.3756  0.0555 -0.7354
  729MPD2    C110772   2.932   2.187  16.566  0.0297 -0.0011  0.3654
  729MPD2    C210773   2.943   2.129  16.700 -0.6302  0.0546 -0.1393
  729MPD2    C310774   2.846   2.161  16.792  0.1108 -0.2092 -0.1452
  729MPD2    C410775   2.733   2.231  16.750 -0.4318  0.0986 -0.4603
  729MPD2    C510776   2.720   2.277  16.623  0.2859 -0.0018 -0.1061
  729MPD2     H10777   3.019   2.055  16.720 -1.0635 -0.3544 -0.0090
  729MPD2    H110778   2.665   2.255  16.831 -0.4870 -1.8919  0.0909
  729MPD2    H210779   2.802   2.305  16.434 -0.4127  1.7042  0.0018
  729MPD2    H310780   2.635   2.332  16.586  0.9827  1.0135 -0.2096
  729MPD2     N10781   2.850   2.121  16.925  0.3230  0.1314 -0.3372
  729MPD2    H510782   2.769   2.148  16.980  1.3069 -1.5301  1.8958
  729MPD2    N110783   3.032   2.179  16.465 -0.2631 -0.1431  0.5260
  729MPD2    H710784   3.003   2.211  16.373 -1.3381 -4.4635 -0.6191
  730TMC3    C110785   2.934   2.043  17.131  0.1638  0.5984 -0.3089
  730TMC3    C210786   3.023   1.954  17.190  0.8149  0.2033  0.1364
  730TMC3    C310787   3.060   1.966  17.318 -0.9688  0.0946 -0.4020
  730TMC3    C410788   2.887   2.152  17.200 -0.3361 -0.2990  0.6041
  730TMC3    C510789   2.934   2.170  17.331  0.6978 -0.3044  0.6987
  730TMC3    C610790   3.011   2.073  17.389 -0.4480 -0.3287 -0.0083
  730TMC3     C10791   2.954   2.048  16.983 -0.0240  0.2878 -0.5262
  730TMC3     O10792   3.049   1.992  16.933  0.2595 -0.6383 -0.5842
  730TMC3     H10793   3.054   1.866  17.135  3.7240  0.4425  1.4102
  730TMC3    H110794   2.824   2.227  17.152 -1.2287 -0.0969  2.0902
  730TMC3    H210795   3.023   2.071  17.497  0.2866  0.5948 -0.0766
  730TMC3    C710796   2.899   2.295  17.398  0.1124  0.0322 -0.3591
  730TMC3    C810797   3.194   1.926  17.327 -0.1101 -0.6027 -0.0102
  730TMC3    O110798   2.845   2.293  17.510 -0.3501 -0.4338 -0.6445
  730TMC3    O210799   3.215   1.805  17.322  0.3103 -0.1790  0.5048
  731MPD2     C10800   2.741   0.669  12.338  0.1914  0.8857 -0.3483
  731MPD2    C110801   2.688   0.547  12.297  0.1811 -0.0152  0.0531
  731MPD2    C210802   2.612   0.487  12.397  0.9117 -0.1270  0.3023
  731MPD2    C310803   2.588   0.538  12.522 -0.1873  0.1352 -0.1758
  731MPD2    C410804   2.650   0.649  12.557  0.4016 -0.3276  0.3478
  731MPD2    C510805   2.718   0.726  12.465 -0.8875 -0.4610  0.0701
  731MPD2     H10806   2.575   0.387  12.377  2.0094 -0.6902  1.0169
  731MPD2    H110807   2.642   0.692  12.656 -1.7766 -1.2824  0.5680
  731MPD2    H210808   2.816   0.722  12.281  1.0578 -0.6370 -0.6199
  731MPD2    H310809   2.767   0.815  12.502 -0.5160  0.0907 -1.7647
  731MPD2     N10810   2.503   0.459  12.606 -0.2656 -0.4431  0.2449
  731MPD2    H510811   2.458   0.375  12.570  0.7513  0.2185 -2.5814
  731MPD2    N110812   2.712   0.504  12.165 -0.0118  0.0040 -0.2119
  731MPD2    H710813   2.766   0.559  12.099 -0.1009  1.2232  0.7173
  732TMC3    C110814   2.673   0.385  11.972  0.0715 -0.3753  0.1095
  732TMC3    C210815   2.578   0.317  11.896  0.3965  0.7157 -0.8375
  732TMC3    C310816   2.572   0.315  11.761  0.8988  0.1741 -0.0699
  732TMC3    C410817   2.761   0.460  11.902  0.0614  0.1793 -0.9104
  732TMC3    C510818   2.762   0.455  11.763 -0.6370  0.5046  0.4428
  732TMC3    C610819   2.658   0.395  11.692 -0.3809  0.4510  0.3978
  732TMC3     C10820   2.651   0.393  12.113 -0.2341  0.1300 -0.4738
  732TMC3     O10821   2.564   0.318  12.159  0.1752 -0.0475 -0.3607
  732TMC3     H10822   2.511   0.247  11.945  1.0556 -0.4440 -1.6122
  732TMC3    H110823   2.843   0.510  11.953 -0.2600 -2.0383  1.8349
  732TMC3    H210824   2.662   0.399  11.583  0.5627  1.2547  0.4565
  732TMC3    C710825   2.883   0.472  11.687 -0.3678 -1.0677 -0.1093
  732TMC3    C810826   2.485   0.231  11.684 -0.1904 -0.4370 -0.2150
  732TMC3    O110827   2.868   0.486  11.567 -0.4879  0.1075  0.1553
  732TMC3    O210828   2.533   0.194  11.576 -0.3065  0.0595  0.3301
  733TMC3    C110829   3.256   3.282  12.767 -0.1194  0.4707 -0.5994
  733TMC3    C210830   3.356   3.203  12.809  0.8150  0.3651  0.4759
  733TMC3    C310831   3.479   3.258  12.823 -0.3339 -0.1005  1.0422
  733TMC3    C410832   3.273   3.420  12.752  0.3353 -0.3219 -0.3581
  733TMC3    C510833   3.396   3.470  12.780  0.7351 -0.0076  0.0319
  733TMC3    C610834   3.506   3.389  12.805  0.2768  0.1688  0.7487
  733TMC3     C10835   3.117   3.250  12.809 -0.1582 -0.0668  0.4309
  733TMC3     O10836   3.035   3.316  12.747  0.1963 -0.6770  0.5910
  733TMC3     H10837   3.343   3.096  12.806 -2.0139  0.6807  0.9333
  733TMC3    H110838   3.189   3.488  12.753  1.0112  0.4841  3.3297
  733TMC3    H210839   3.612   3.409  12.792  0.0640 -0.4089 -1.7805
  733TMC3    C710840   3.430   3.599  12.743 -0.2629  0.1806 -0.2427
  733TMC3    C810841   3.566   3.179  12.904 -0.4384  0.6128 -0.6325
  733TMC3    O110842   3.355   3.666  12.669  0.3638 -0.1096 -0.0199
  733TMC3    O210843   3.582   3.060  12.883 -0.0328  0.1260  0.4750
  734MPD2     C10844   0.792   1.102  12.222 -0.1614 -0.2986 -0.6503
  734MPD2    C110845   0.809   0.978  12.169  0.6180 -0.7079 -0.5289
  734MPD2    C210846   0.907   0.967  12.076 -0.1643  0.1998  0.2794
  734MPD2    C310847   0.982   1.062  12.023 -0.5732  0.0149 -0.4205
  734MPD2    C410848   0.964   1.187  12.079 -0.3878  0.0877 -0.1206
  734MPD2    C510849   0.875   1.206  12.183  0.5833  0.0233 -0.2690
  734MPD2     H10850   0.928   0.873  12.027  1.1276  0.1072  0.9974
  734MPD2    H110851   1.025   1.271  12.048 -0.8961  0.3248 -0.4794
  734MPD2    H210852   0.723   1.124  12.303  0.9993  0.1937  0.2140
  734MPD2    H310853   0.863   1.304  12.229  1.9531  0.4585 -0.8613
  734MPD2     N10854   1.057   1.043  11.911 -0.0510 -1.2075 -0.0971
  734MPD2    H510855   1.062   0.948  11.874  0.8918 -1.6582  1.1856
  734MPD2    N110856   0.714   0.878  12.204  0.1876 -0.1864 -0.3704
  734MPD2    H710857   0.646   0.885  12.280  1.0710  3.0636  0.1166
  735TMC3    C110858   0.581   0.699  12.159  0.8268  0.1493 -0.5065
  735TMC3    C210859   0.501   0.670  12.055  0.3164  0.9525  0.0843
  735TMC3    C310860   0.485   0.539  12.008  0.2195  0.8461  0.6582
  735TMC3    C410861   0.623   0.599  12.233 -0.2525 -0.0687 -0.3269
  735TMC3    C510862   0.594   0.466  12.197  0.4571 -0.6460 -0.4446
  735TMC3    C610863   0.538   0.438  12.077  0.0480 -0.3095 -0.1466
  735TMC3     C10864   0.684   0.781  12.115 -0.1152  0.3439 -0.1056
  735TMC3     O10865   0.715   0.771  12.001 -0.5011  0.4692  0.4273
  735TMC3     H10866   0.454   0.750  11.999  3.2418  0.5262 -2.9268
  735TMC3    H110867   0.680   0.618  12.323 -0.0184 -2.4052  0.0223
  735TMC3    H210868   0.529   0.338  12.038 -2.8361 -0.0958 -0.0367
  735TMC3    C710869   0.671   0.365  12.267 -0.7968 -0.7252 -0.8039
  735TMC3    C810870   0.482   0.521  11.865  0.0952  0.0131 -0.4187
  735TMC3    O110871   0.757   0.394  12.352  0.3717 -0.0449  0.7585
  735TMC3    O210872   0.433   0.424  11.811 -0.0938  0.0143  0.4054
  736MPD2     C10873   0.661   4.721  12.206  0.0558 -0.1307  0.2618
  736MPD2    C110874   0.719   0.114  12.240 -0.5364  0.1114  0.6833
  736MPD2    C210875   0.855   0.110  12.280 -0.0227  0.3307 -0.5166
  736MPD2    C310876   0.927   4.714  12.278 -0.8253 -0.6684 -0.8065
  736MPD2    C410877   0.858   4.599  12.248 -0.8326 -0.2619 -0.3190
  736MPD2    C510878   0.725   4.601  12.211 -0.0911 -0.3541 -0.5793
  736MPD2     H10879   0.899   0.202  12.317  1.4381 -0.6041  0.0832
  736MPD2    H110880   0.905   4.501  12.244  0.1400  0.2029 -0.1695
  736MPD2    H210881   0.555   4.715  12.188  0.0153 -1.1191  0.8210
  736MPD2    H310882   0.674   4.508  12.189  0.2833 -0.3179 -1.5858
  736MPD2     N10883   1.064   4.708  12.287 -0.0128  0.1434 -0.2331
  736MPD2    H510884   1.115   4.622  12.274  0.1638  0.4313 -1.4950
  736MPD2    N110885   0.635   0.232  12.235  0.9360  0.2082 -0.0927
  736MPD2    H710886   0.543   0.219  12.195  1.3613  2.7893 -1.9496
  737TMC3    C110887   1.276   0.072  12.258  0.0076  0.0249 -0.1371
  737TMC3    C210888   1.369   0.173  12.295 -0.2370  0.3183  0.0607
  737TMC3    C310889   1.488   0.185  12.212 -0.0251  0.1426 -0.3515
  737TMC3    C410890   1.303   4.706  12.156  0.5353 -0.9011 -0.0131
  737TMC3    C510891   1.422   4.722  12.087  0.0435  0.0040 -0.0950
  737TMC3    C610892   1.515   0.093  12.115  0.4309  0.0004 -0.5294
  737TMC3     C10893   1.149   0.081  12.322 -0.5030 -0.0164 -0.2815
  737TMC3     O10894   1.119   0.187  12.379 -0.1159 -0.2261  0.0372
  737TMC3     H10895   1.347   0.244  12.375 -1.6657 -0.2360  0.1526
  737TMC3    H110896   1.239   4.621  12.136  0.2550 -0.3008 -1.6183
  737TMC3    H210897   1.615   0.087  12.075  1.7249  0.0777  2.7364
  737TMC3    C710898   1.466   4.611  12.004 -0.3277 -0.4500  0.0096
  737TMC3    C810899   1.554   0.308  12.208 -0.1932 -0.5407 -0.0339
  737TMC3    O110900   1.437   4.498  12.039 -0.0256  0.7416 -0.2372
  737TMC3    O210901   1.532   0.384  12.298  0.3234  0.0650  0.3825
  738MPD2     C10902   1.365   4.302  15.110  0.7357  0.4665  0.0309
  738MPD2    C110903   1.356   4.184  15.038 -0.4309 -0.2489 -0.0123
  738MPD2    C210904   1.456   4.144  14.950 -0.5090  0.2160 -0.6882
  738MPD2    C310905   1.571   4.225  14.940  0.5439  1.0496  0.6485
  738MPD2    C410906   1.583   4.339  15.019  0.2564  0.7209 -0.3401
  738MPD2    C510907   1.483   4.376  15.103  0.2015  0.2654  1.1319
  738MPD2     H10908   1.446   4.052  14.894  1.6529  0.3525 -1.3060
  738MPD2    H110909   1.670   4.403  15.008  0.3791  0.5433 -0.3983
  738MPD2    H210910   1.288   4.335  15.180 -2.0679  1.3033 -3.4756
  738MPD2    H310911   1.487   4.469  15.158  2.8055  0.3628  0.7707
  738MPD2     N10912   1.690   4.198  14.867 -0.2040  0.7677  0.3565
  738MPD2    H510913   1.764   4.261  14.896  0.8734 -1.1210  1.7282
  738MPD2    N110914   1.235   4.107  15.051  0.0017  0.8234 -0.2991
  738MPD2    H710915   1.227   4.032  14.984 -2.8399  0.8841 -0.0263
  739TMC3    C110916   1.834   4.066  14.741 -0.4865  0.3829  0.3498
  739TMC3    C210917   1.848   4.000  14.622  0.3710 -0.4299 -0.5678
  739TMC3    C310918   1.967   3.937  14.590  0.3995 -0.7322  0.2350
  739TMC3    C410919   1.937   4.086  14.825 -0.6600  0.7316  0.2288
  739TMC3    C510920   2.052   4.031  14.790  0.2840  0.0064 -0.3220
  739TMC3    C610921   2.068   3.952  14.681 -0.6958 -0.3245  0.0490
  739TMC3     C10922   1.698   4.098  14.780 -0.0002 -0.9652 -0.0595
  739TMC3     O10923   1.612   4.041  14.721  0.6880 -0.0647 -0.2250
  739TMC3     H10924   1.763   3.992  14.556 -0.9319  1.3176  0.9161
  739TMC3    H110925   1.930   4.143  14.916 -0.5812  1.9242 -0.5122
  739TMC3    H210926   2.162   3.901  14.660 -1.4212 -2.3098  1.6018
  739TMC3    C710927   2.162   4.118  14.791  0.6668  0.3702  0.1692
  739TMC3    C810928   2.004   3.950  14.451  0.3700 -0.6480 -0.2583
  739TMC3    O110929   2.228   4.128  14.689  0.1913  0.7493 -0.3854
  739TMC3    O210930   1.924   3.907  14.366 -0.2254 -0.1260  0.0397
  740TMC3    C110931   2.639   0.671  14.379  0.2376  0.8511  1.0204
  740TMC3    C210932   2.676   0.592  14.488 -1.2476  0.1706 -0.4017
  740TMC3    C310933   2.777   0.503  14.460 -0.1394  0.3170 -0.0141
  740TMC3    C410934   2.701   0.672  14.258  0.0925  0.1090 -0.3479
  740TMC3    C510935   2.806   0.587  14.247  0.0779  1.0881 -0.4218
  740TMC3    C610936   2.843   0.499  14.344  0.0750 -0.5326 -0.0289
  740TMC3     C10937   2.503   0.718  14.373  0.2110  0.0568 -0.3155
  740TMC3     O10938   2.467   0.796  14.284  0.0281 -0.2153 -0.8032
  740TMC3     H10939   2.624   0.598  14.583  3.0950 -1.5520  2.0912
  740TMC3    H110940   2.675   0.737  14.175  4.5285 -0.1803 -1.9448
  740TMC3    H210941   2.921   0.425  14.329  1.0563  0.9237 -2.0793
  740TMC3    C710942   2.856   0.562  14.113  0.9668 -0.2415  0.3547
  740TMC3    C810943   2.818   0.406  14.559  0.5758  0.7673  0.7305
  740TMC3    O110944   2.950   0.484  14.101  0.2638 -0.1489 -0.1093
  740TMC3    O210945   2.935   0.387  14.574 -0.0574 -0.9006  0.5469
  741TMC3    C110946   2.010   4.454  14.465  0.0065  0.1105 -0.6615
  741TMC3    C210947   1.888   4.432  14.410  0.6389 -0.6532  0.0055
  741TMC3    C310948   1.792   4.386  14.498  0.4953 -0.1248 -0.0910
  741TMC3    C410949   2.036   4.445  14.600  0.5457  0.0176  0.2613
  741TMC3    C510950   1.935   4.404  14.684  0.5237  0.2077  0.1720
  741TMC3    C610951   1.811   4.387  14.632 -0.7713 -0.2710  0.0246
  741TMC3     C10952   2.115   4.528  14.383  0.3269  0.2864 -0.1360
  741TMC3     O10953   2.212   4.572  14.446 -0.4411 -0.6936 -0.3701
  741TMC3     H10954   1.860   4.431  14.305  0.6379 -1.8847  0.0123
  741TMC3    H110955   2.124   4.487  14.648  0.2915  0.1820  0.5857
  741TMC3    H210956   1.730   4.387  14.703 -0.8848  1.8211 -0.1264
  741TMC3    C710957   1.942   4.444  14.822  0.6470  0.7603  0.0502
  741TMC3    C810958   1.656   4.365  14.443  0.3306  0.1515 -0.3752
  741TMC3    O110959   1.887   4.373  14.901  0.3937  0.0864 -0.4518
  741TMC3    O210960   1.638   4.410  14.330 -0.3636  0.1672 -0.6047
  742TMC3    C110961   1.314   3.325  15.367  0.2978  0.5484 -0.3928
  742TMC3    C210962   1.230   3.293  15.257  0.4364  0.0497  0.1638
  742TMC3    C310963   1.284   3.312  15.133  0.7079  0.2474 -0.8948
  742TMC3    C410964   1.436   3.385  15.350  0.4228 -0.3486  0.1801
  742TMC3    C510965   1.485   3.408  15.223  0.2865  0.1111 -0.0214
  742TMC3    C610966   1.410   3.361  15.120 -0.4238 -0.3303 -0.0872
  742TMC3     C10967   1.262   3.309  15.499 -0.1520 -0.2322 -0.1979
  742TMC3     O10968   1.143   3.295  15.511  0.3470 -0.0622  0.3784
  742TMC3     H10969   1.135   3.241  15.266  0.5552 -0.0183  1.0383
  742TMC3    H110970   1.505   3.408  15.430  1.5378  0.2896 -0.9646
  742TMC3    H210971   1.449   3.383  15.022  1.1525 -2.4284  0.0511
  742TMC3    C710972   1.619   3.428  15.177 -0.1780  0.1568  0.4656
  742TMC3    C810973   1.230   3.261  15.011  0.3764 -0.1759  0.1900
  742TMC3    O110974   1.671   3.353  15.097  0.2295  0.1703  0.1540
  742TMC3    O210975   1.308   3.238  14.921  0.8218  0.2187 -0.1984
  743MPD2     C10976   4.205   3.577   1.383  0.3123  0.5953 -0.4182
  743MPD2    C110977   4.309   3.660   1.366  0.3510 -0.7568  0.1871
  743MPD2    C210978   4.436   3.612   1.385 -0.7212 -0.3375 -0.4844
  743MPD2    C310979   4.455   3.483   1.425  0.1576 -0.3392 -0.2505
  743MPD2    C410980   4.350   3.395   1.433  0.0787 -0.0828 -0.0972
  743MPD2    C510981   4.223   3.446   1.426 -0.9725  0.6315 -0.3561
  743MPD2     H10982   4.515   3.687   1.379 -1.2929  0.3756  0.9180
  743MPD2    H110983   4.376   3.292   1.452  0.6060  0.3050  1.2459
  743MPD2    H210984   4.102   3.607   1.374 -0.2439 -1.5525 -1.2344
  743MPD2    H310985   4.139   3.387   1.462 -0.4024  0.5628  0.8802
  743MPD2     N10986   4.586   3.442   1.458  0.3628 -0.2730 -0.9225
  743MPD2    H510987   4.656   3.516   1.452  1.1491 -0.6811  3.2008
  743MPD2    N110988   4.273   3.787   1.312 -0.4922 -0.2057 -0.4498
  743MPD2    H710989   4.175   3.815   1.310 -0.3580  0.3258  0.1772
  744TMC3    C110990   4.307   3.976   1.163 -0.1876  0.7656  0.2229
  744TMC3    C210991   4.196   4.039   1.217 -0.3132 -0.1771 -0.1675
  744TMC3    C310992   4.142   4.132   1.140 -0.0651 -0.2940  0.8952
  744TMC3    C410993   4.371   4.005   1.042 -0.3166 -0.1419 -0.2076
  744TMC3    C510994   4.298   4.094   0.967  0.1791 -0.8425  0.0135
  744TMC3    C610995   4.189   4.161   1.010 -0.3373 -0.8026 -0.4309
  744TMC3     C10996   4.359   3.869   1.251  0.3219 -0.1000 -0.1330
  744TMC3     O10997   4.478   3.855   1.223 -0.8143  0.4157 -0.1513
  744TMC3     H10998   4.159   4.020   1.317  2.2120 -1.8616  0.4635
  744TMC3    H110999   4.464   3.973   0.997  0.1371 -0.4196  0.9250
  744TMC3    H211000   4.143   4.243   0.956  1.0954  1.4315  1.7569
  744TMC3    C711001   4.336   4.111   0.828  0.7904  0.7792  0.2689
  744TMC3    C811002   4.011   4.193   1.158  0.3209  0.3286 -0.0240
  744TMC3    O111003   4.452   4.100   0.790  0.1150  0.4147 -0.0601
  744TMC3    O211004   4.004   4.312   1.124 -0.4483  0.5381  0.7205
  745TMC3    C111005   1.828   2.827  13.235  0.0440  0.4143 -0.4090
  745TMC3    C211006   1.721   2.769  13.288 -0.0769 -0.7722 -0.9792
  745TMC3    C311007   1.592   2.813  13.249 -0.6921  0.0593  0.1370
  745TMC3    C411008   1.815   2.924  13.142 -0.6718  0.5050  0.2600
  745TMC3    C511009   1.690   2.965  13.107 -0.3409  0.2362  0.4901
  745TMC3    C611010   1.577   2.909  13.153 -0.3093  1.0295 -0.1634
  745TMC3     C11011   1.912   2.873  13.343 -0.3048  0.5765  0.0668
  745TMC3     O11012   1.863   2.837  13.449  0.5286  0.8057  0.3503
  745TMC3     H11013   1.718   2.688  13.360  0.3052  0.1286  0.0492
  745TMC3    H111014   1.912   2.963  13.113 -2.0182  2.9076 -1.0244
  745TMC3    H211015   1.482   2.948  13.120 -1.0700 -0.5058  0.2515
  745TMC3    C711016   1.682   3.076  13.010  0.4438  0.6913  0.4973
  745TMC3    C811017   1.505   2.840  13.356 -0.3673 -0.0220 -0.3494
  745TMC3    O111018   1.577   3.134  12.995 -0.7631 -0.0224 -0.2455
  745TMC3    O211019   1.387   2.863  13.334  0.3545  0.2605  0.2318
  746TMC3    C111020   4.546   4.588  10.752  1.0017  0.6630 -0.0551
  746TMC3    C211021   4.570   4.590  10.618 -0.8703  0.3836  0.1743
  746TMC3    C311022   4.485   4.519  10.541 -0.0706 -0.5684 -0.1629
  746TMC3    C411023   4.446   4.502  10.800  0.8230  0.0687 -0.3321
  746TMC3    C511024   4.366   4.439  10.716  0.2444  0.8237  0.8043
  746TMC3    C611025   4.386   4.440  10.583 -0.1933  0.0401 -0.2335
  746TMC3     C11026   4.547   4.716  10.813  0.3677  0.9799  0.0805
  746TMC3     O11027   4.466   0.006  10.907  0.2035 -0.0371 -0.4818
  746TMC3     H11028   4.656   4.647  10.583 -0.2834 -0.7943 -0.3048
  746TMC3    H111029   4.433   4.488  10.907 -0.4557 -4.1960 -1.0542
  746TMC3    H211030   4.324   4.388  10.512  0.9153  0.4343 -1.4869
  746TMC3    C711031   4.230   4.408  10.765 -0.6245 -0.1085  0.2998
  746TMC3    C811032   4.472   4.576  10.408 -0.4775 -0.4895  0.4275
  746TMC3    O111033   4.151   4.386  10.677 -0.4952  0.3382 -0.0778
  746TMC3    O211034   4.433   4.511  10.313  0.3079  0.2640 -0.0816
  747TMC3    C111035   2.064   4.708  11.126  0.5230  0.9768  0.4212
  747TMC3    C211036   1.976   4.629  11.187 -0.2189  0.3179  0.5113
  747TMC3    C311037   1.938   4.664  11.316  0.5854 -0.3727  0.1628
  747TMC3    C411038   2.124   0.084  11.190  0.7957  0.0449 -0.1337
  747TMC3    C511039   2.089   0.112  11.318 -0.3099  0.1215 -0.2736
  747TMC3    C611040   1.980   0.055  11.378 -0.0313  0.3388  0.9171
  747TMC3     C11041   2.074   4.714  10.980 -1.0184 -0.5392  0.8475
  747TMC3     O11042   2.125   0.086  10.923  0.5716  0.3485 -0.0619
  747TMC3     H11043   1.914   4.565  11.124 -0.1539  0.5892  0.1744
  747TMC3    H111044   2.197   0.142  11.134 -0.9176  1.9323 -0.4349
  747TMC3    H211045   1.947   0.074  11.480 -1.1602  1.8577  0.2747
  747TMC3    C711046   2.144   0.237  11.370 -0.4324  0.1063 -0.1811
  747TMC3    C811047   1.835   4.577  11.375  0.1277  0.3251  0.0104
  747TMC3    O111048   2.079   0.298  11.455  0.0175 -0.0051  0.0059
  747TMC3    O211049   1.794   4.477  11.314  0.0127  0.8685  0.2066
  748MPD2     C11050   3.699   0.847   1.568  0.4693 -0.4573 -0.3580
  748MPD2    C111051   3.786   0.748   1.616 -0.6436  0.2981  0.0432
  748MPD2    C211052   3.913   0.747   1.553 -0.2023  0.2611  0.1145
  748MPD2    C311053   3.958   0.853   1.471  0.9774 -0.3481  0.1038
  748MPD2    C411054   3.869   0.960   1.439  0.1281 -0.0540  0.4088
  748MPD2    C511055   3.741   0.946   1.483 -0.4085  0.6859 -0.0410
  748MPD2     H11056   3.986   0.670   1.574  0.5998  1.5486  1.9716
  748MPD2    H111057   3.894   1.050   1.383  0.1041  0.3543  1.0518
  748MPD2    H211058   3.596   0.858   1.603  1.0968 -0.1776  1.3967
  748MPD2    H311059   3.671   1.025   1.459 -1.6967 -0.9224 -1.5773
  748MPD2     N11060   4.089   0.850   1.418 -0.0921 -0.5647 -0.4204
  748MPD2    H511061   4.158   0.781   1.447  0.9461  0.3317 -0.7850
  748MPD2    N111062   3.730   0.648   1.702  0.4462 -0.6344 -0.2198
  748MPD2    H711063   3.643   0.658   1.752  0.4741 -3.4123  0.3950
  749TMC3    C111064   4.276   0.899   1.288 -0.3882 -0.1760  0.0559
  749TMC3    C211065   4.296   0.773   1.244  0.0466  0.3078  0.0319
  749TMC3    C311066   4.390   0.757   1.146 -0.3129  0.3531  0.3346
  749TMC3    C411067   4.356   1.009   1.249  0.3331 -0.1613 -0.6283
  749TMC3    C511068   4.455   0.982   1.160  0.5111 -0.4085  0.2663
  749TMC3    C611069   4.477   0.854   1.105 -0.6398 -0.4055 -0.5219
  749TMC3     C11070   4.146   0.935   1.333  0.1559  0.0135  0.4629
  749TMC3     O11071   4.105   1.039   1.288  0.1313  0.2948 -0.6848
  749TMC3     H11072   4.229   0.695   1.280  1.6042 -0.2826  1.6745
  749TMC3    H111073   4.324   1.107   1.283 -0.0955  0.1477 -1.9445
  749TMC3    H211074   4.540   0.830   1.020  0.7544 -0.7523  0.6165
  749TMC3    C711075   4.533   1.101   1.107 -0.4335  0.9631  0.9341
  749TMC3    C811076   4.372   0.646   1.051 -0.4556  0.4362 -0.1860
  749TMC3    O111077   4.477   1.211   1.123  0.0534 -0.0780  0.0449
  749TMC3    O211078   4.261   0.599   1.036  0.0145 -0.3118  0.3009
  750MPD2     C11079   0.241   1.715  11.256 -0.1092 -0.1405 -0.2780
  750MPD2    C111080   0.107   1.720  11.283 -0.5114 -0.1055 -0.0010
  750MPD2    C211081   0.015   1.657  11.204  0.3945 -0.1790 -0.0827
  750MPD2    C311082   0.049   1.582  11.094  0.5865 -0.4365 -0.0657
  750MPD2    C411083   0.182   1.578  11.068 -0.3692 -0.4302  0.4389
  750MPD2    C511084   0.275   1.637  11.150 -0.6455 -0.3630 -0.0565
  750MPD2     H11085   4.635   1.663  11.218  0.3192 -1.4293 -0.1261
  750MPD2    H111086   0.229   1.521  10.989 -0.3644 -0.5031  0.4944
  750MPD2    H211087   0.312   1.772  11.314  0.7340  0.3274 -1.7529
  750MPD2    H311088   0.379   1.614  11.127 -1.1450 -1.9806 -0.6460
  750MPD2     N11089   4.693   1.506  11.006 -0.0048 -0.1282  0.5413
  750MPD2    H511090   0.015   1.450  10.937 -0.9713  0.2027 -0.4061
  750MPD2    N111091   0.063   1.773  11.406 -0.0228  0.3817 -0.7044
  750MPD2    H711092   0.129   1.826  11.461  2.4242 -3.7486  0.3608
  751TMC3    C111093   4.522   1.394  10.904 -0.4582  0.0353  0.3951
  751TMC3    C211094   4.384   1.377  10.886  0.4215 -0.4802  0.4803
  751TMC3    C311095   4.351   1.278  10.800  0.0223 -0.3774 -0.0030
  751TMC3    C411096   4.616   1.336  10.823  0.1326  0.9453  0.3587
  751TMC3    C511097   4.573   1.239  10.741  0.5387  0.3004 -0.3478
  751TMC3    C611098   4.442   1.209  10.724  0.6662  0.0749 -0.0597
  751TMC3     C11099   4.555   1.480  11.015  0.0240  0.2470  0.4627
  751TMC3     O11100   4.474   1.549  11.074 -0.0279 -0.2634 -0.1789
  751TMC3     H11101   4.317   1.427  10.956  0.4580  1.7296 -1.0782
  751TMC3    H111102   4.721   1.363  10.823  0.0878  1.0961  3.1995
  751TMC3    H211103   4.401   1.132  10.659  0.4683  0.7681 -0.7552
  751TMC3    C711104   4.676   1.177  10.655  0.1113 -0.3097  0.3160
  751TMC3    C811105   4.223   1.214  10.804  0.2376  0.4712 -0.0144
  751TMC3    O111106   0.067   1.210  10.673  0.2911  0.1727  0.4832
  751TMC3    O211107   4.184   1.167  10.700 -0.0822  0.6961 -0.1243
  752TMC3    C111108   4.101   1.963  16.880 -0.5565  0.5793 -0.5281
  752TMC3    C211109   4.048   2.069  16.943  0.1382 -0.1786  0.5695
  752TMC3    C311110   4.027   2.056  17.076  0.3611  0.1795  0.0464
  752TMC3    C411111   4.132   1.847  16.941  0.4583 -0.1527 -0.2263
  752TMC3    C511112   4.114   1.846  17.079  0.0366  0.8365  0.1356
  752TMC3    C611113   4.067   1.949  17.149 -0.1550 -0.2515  0.4171
  752TMC3     C11114   4.088   1.970  16.741  0.0297 -0.1204  0.0665
  752TMC3     O11115   4.185   1.932  16.676 -0.5472  0.1049 -0.7973
  752TMC3     H11116   4.039   2.162  16.887 -0.5776  0.2940  1.4709
  752TMC3    H111117   4.161   1.755  16.891  2.1781  1.1659 -1.6492
  752TMC3    H211118   4.082   1.967  17.255 -0.1114  4.0931 -0.3382
  752TMC3    C711119   4.183   1.737  17.152  0.7251  0.2682  0.0533
  752TMC3    C811120   4.007   2.181  17.144  0.3750 -0.3577 -0.6669
  752TMC3    O111121   4.267   1.671  17.094 -0.3671 -0.1765 -0.5080
  752TMC3    O211122   4.033   2.284  17.082 -0.1693 -0.3074 -0.2263
  753TMC3    C111123   0.630   2.992  13.242 -0.6771  0.5902 -0.1475
  753TMC3    C211124   0.675   2.988  13.371  1.0388 -0.4818 -0.3125
  753TMC3    C311125   0.673   2.864  13.430  0.0478 -0.0520  0.1531
  753TMC3    C411126   0.587   2.875  13.176 -0.5237  0.0124  0.2227
  753TMC3    C511127   0.602   2.758  13.238  0.1154  0.6087  0.8044
  753TMC3    C611128   0.641   2.747  13.367  0.0289 -0.2633 -0.1039
  753TMC3     C11129   0.587   3.109  13.179 -0.2578  0.3725  0.5993
  753TMC3     O11130   0.499   3.100  13.094 -0.5793 -0.3093 -0.4506
  753TMC3     H11131   0.691   3.077  13.431  2.0321 -1.0328  0.2249
  753TMC3    H111132   0.566   2.893  13.071 -0.1959  0.8673  0.2981
  753TMC3    H211133   0.648   2.650  13.415 -0.3993  0.3146  1.1091
  753TMC3    C711134   0.545   2.645  13.170  0.0401  0.6306 -0.4218
  753TMC3    C811135   0.662   2.857  13.579 -0.0540 -0.6051 -0.4654
  753TMC3    O111136   0.555   2.638  13.048 -0.4548  0.6107 -0.3228
  753TMC3    O211137   0.668   2.746  13.626 -0.3983  0.3462  0.4325
  754MPD2     C11138   4.299   2.025  13.294  0.5372  0.2750 -0.0241
  754MPD2    C111139   4.319   1.898  13.250 -0.7399  0.5811  0.0099
  754MPD2    C211140   4.225   1.840  13.162 -0.0054 -0.3217  0.3528
  754MPD2    C311141   4.120   1.916  13.111 -0.0007  0.9752  0.4928
  754MPD2    C411142   4.104   2.048  13.146  0.3003 -0.4870 -0.2178
  754MPD2    C511143   4.192   2.098  13.240 -0.2438  0.2476 -0.1203
  754MPD2     H11144   4.222   1.734  13.140 -0.1123 -0.2004 -0.2103
  754MPD2    H111145   4.029   2.109  13.098  1.4420 -0.4795 -2.0057
  754MPD2    H211146   4.365   2.076  13.364  0.4529  2.1640 -1.3137
  754MPD2    H311147   4.182   2.201  13.272  2.1769  0.9856 -1.8050
  754MPD2     N11148   4.001   1.862  13.044 -0.0913  0.1121  0.1373
  754MPD2    H511149   3.925   1.927  13.025  0.4885  0.4545 -1.0252
  754MPD2    N111150   4.425   1.816  13.304  0.2307 -0.3315  0.3324
  754MPD2    H711151   4.463   1.828  13.397  1.8183  2.7416 -0.7294
  755MPD2     C11152   3.283   2.312  12.943  0.0458 -0.5828  0.6142
  755MPD2    C111153   3.228   2.186  12.933  0.0292 -0.1503  0.3627
  755MPD2    C211154   3.312   2.077  12.908 -0.1667  0.5188  0.4001
  755MPD2    C311155   3.450   2.098  12.892  0.2822  0.0996  0.3424
  755MPD2    C411156   3.503   2.225  12.906 -0.3163  0.0891  0.3331
  755MPD2    C511157   3.417   2.328  12.924  0.3974  0.3779  0.1336
  755MPD2     H11158   3.270   1.978  12.890 -0.7168  0.7727  0.2738
  755MPD2    H111159   3.609   2.246  12.894 -0.0063 -0.5743  1.9484
  755MPD2    H211160   3.217   2.394  12.969  0.3766  0.1845 -0.9591
  755MPD2    H311161   3.454   2.430  12.929  0.7833  0.3937 -2.5610
  755MPD2     N11162   3.546   1.993  12.890  0.0111  0.3425  0.2904
  755MPD2    H511163   3.642   2.020  12.911  0.5036 -1.3680  0.2156
  755MPD2    N111164   3.096   2.177  12.954  0.3287  0.6865  0.0832
  755MPD2    H711165   3.058   2.083  12.960 -1.3516  1.4298  1.0242
  756MPD2     C11166   4.335   2.773   9.458 -0.7236 -0.5574 -0.4091
  756MPD2    C111167   4.288   2.685   9.552 -0.2454  0.5104  0.4015
  756MPD2    C211168   4.181   2.608   9.515  0.3008  0.1747  0.1700
  756MPD2    C311169   4.136   2.605   9.386  0.4231 -0.4653 -0.5306
  756MPD2    C411170   4.192   2.692   9.295  1.4658 -0.2693 -0.3716
  756MPD2    C511171   4.294   2.776   9.330 -1.2308  0.1243  0.1219
  756MPD2     H11172   4.142   2.543   9.592  0.0823  0.3832  0.2394
  756MPD2    H111173   4.164   2.706   9.191  0.9961  2.1939  0.0868
  756MPD2    H211174   4.415   2.843   9.481 -2.2772  1.3602 -0.8067
  756MPD2    H311175   4.330   2.855   9.264 -1.2757 -0.2173 -0.3082
  756MPD2     N11176   4.029   2.517   9.352 -0.0510 -0.4519  0.1105
  756MPD2    H511177   3.991   2.456   9.423 -0.9359 -0.2980 -0.2321
  756MPD2    N111178   4.333   2.685   9.685  0.1604  0.6473  0.2367
  756MPD2    H711179   4.293   2.614   9.746  1.4230 -0.1077  0.1814
  757MPD2     C11180   3.724   1.825   9.873  0.3869 -0.5211  0.2312
  757MPD2    C111181   3.679   1.787   9.751 -0.1330  0.0340 -0.1799
  757MPD2    C211182   3.659   1.878   9.649  0.0712  0.0120  0.2432
  757MPD2    C311183   3.703   2.016   9.659 -0.1423  0.2084  0.2222
  757MPD2    C411184   3.750   2.051   9.787 -0.4262  0.1634  0.9033
  757MPD2    C511185   3.756   1.957   9.889  0.0172 -1.0213 -0.1169
  757MPD2     H11186   3.624   1.837   9.555 -0.5251  1.0566  0.0154
  757MPD2    H111187   3.785   2.151   9.811  2.6355 -1.7138  4.2186
  757MPD2    H211188   3.734   1.758   9.958  0.5506 -1.8207 -0.8160
  757MPD2    H311189   3.786   1.998   9.984 -0.5685  2.1168 -1.2774
  757MPD2     N11190   3.714   2.093   9.544 -0.4781 -0.6106  0.4731
  757MPD2    H511191   3.667   2.055   9.463 -1.4897  0.6497  0.4589
  757MPD2    N111192   3.645   1.654   9.738  0.1850  0.8472  0.4843
  757MPD2    H711193   3.669   1.596   9.818  0.0694 -0.7053 -0.5966
  758MPD2     C11194   4.618   1.974  15.689 -0.3281  0.0634 -0.6253
  758MPD2    C111195   4.668   1.851  15.727  0.1334  0.7460  0.1914
  758MPD2    C211196   4.625   1.804  15.851  0.2907 -0.0698 -0.3630
  758MPD2    C311197   4.523   1.863  15.922  1.2656  0.5487  0.5751
  758MPD2    C411198   4.467   1.973  15.871 -0.1215 -0.0301 -0.2329
  758MPD2    C511199   4.512   2.030  15.754 -0.3464  0.1077 -0.1524
  758MPD2     H11200   4.669   1.713  15.891 -1.4706 -0.8246 -0.1372
  758MPD2    H111201   4.381   2.024  15.912  2.0968  2.3897  1.4828
  758MPD2    H211202   4.655   2.014  15.596 -0.9061  1.5359 -0.2187
  758MPD2    H311203   4.472   2.125  15.719  3.0341  1.9673  1.0480
  758MPD2     N11204   4.489   1.801  16.051 -0.0271  0.2023 -0.6021
  758MPD2    H511205   4.550   1.725  16.080  0.8007  1.4315  0.8332
  758MPD2    N111206   0.025   1.776  15.641 -0.5233  0.1440 -0.6416
  758MPD2    H711207   0.036   1.820  15.550  1.8144  1.1029  0.1112
  759MPD2     C11208   3.595   4.058   9.816  0.7148  0.0489 -0.1202
  759MPD2    C111209   3.478   4.023   9.742  0.4635  0.6485 -0.2196
  759MPD2    C211210   3.433   4.101   9.637 -1.0169  1.0115 -0.2655
  759MPD2    C311211   3.513   4.200   9.590 -0.0351  0.1917 -0.3619
  759MPD2    C411212   3.634   4.234   9.654 -0.2013 -0.2299  0.1066
  759MPD2    C511213   3.668   4.172   9.774 -0.1316 -0.5520 -0.2287
  759MPD2     H11214   3.347   4.072   9.577 -0.3344 -1.2921 -0.1268
  759MPD2    H111215   3.689   4.323   9.622  1.5217 -0.6216  1.9821
  759MPD2    H211216   3.636   4.013   9.906  2.3193  1.8940  0.0687
  759MPD2    H311217   3.753   4.202   9.834 -1.8952 -0.6608  2.3573
  759MPD2     N11218   3.464   4.253   9.468 -0.1250  0.0939 -0.5206
  759MPD2    H511219   3.372   4.223   9.438 -1.6855  4.3570 -0.0399
  759MPD2    N111220   3.406   3.908   9.784  0.6242 -0.2554 -0.3135
  759MPD2    H711221   3.316   3.902   9.738 -0.4925 -1.3143  2.0824
  760MPD2     C11222   2.650   2.026  11.733 -0.4688 -0.1809  0.2641
  760MPD2    C111223   2.789   2.006  11.728 -0.4676 -0.4147 -0.8412
  760MPD2    C211224   2.845   1.886  11.765  0.2538  0.0095 -0.5595
  760MPD2    C311225   2.757   1.784  11.810  0.5899 -0.1407  0.0875
  760MPD2    C411226   2.617   1.805  11.799  0.9316 -0.1473 -0.0869
  760MPD2    C511227   2.563   1.930  11.772 -0.1426  0.6600  0.3282
  760MPD2     H11228   2.952   1.871  11.770 -0.1579 -2.3229  1.7991
  760MPD2    H111229   2.544   1.732  11.831  2.4900 -0.4271  2.8384
  760MPD2    H211230   2.607   2.125  11.722 -1.8222 -0.8723 -0.8141
  760MPD2    H311231   2.457   1.948  11.777 -0.1867  1.1097 -2.2252
  760MPD2     N11232   2.814   1.660  11.847 -0.5684  0.4501  0.4830
  760MPD2    H511233   2.914   1.655  11.862 -0.7552 -4.0261  0.4609
  760MPD2    N111234   2.881   2.100  11.681 -0.0079 -0.2157 -0.4991
  760MPD2    H711235   2.978   2.093  11.709  0.2477  0.1632 -1.2953
  761MPD2     C11236   3.854   0.977  11.065  0.1506  0.0101 -0.0429
  761MPD2    C111237   3.878   0.988  10.931 -0.3992  0.1437 -0.0637
  761MPD2    C211238   3.981   1.067  10.885 -0.2924  0.0312 -0.1436
  761MPD2    C311239   4.059   1.142  10.972 -0.6623  0.1196 -0.5277
  761MPD2    C411240   4.028   1.138  11.107  0.5248 -0.4034  1.2740
  761MPD2    C511241   3.920   1.056  11.150  0.1976  0.2627 -0.3351
  761MPD2     H11242   4.003   1.066  10.779  0.4719 -1.8508  0.0475
  761MPD2    H111243   4.073   1.197  11.186 -1.2019  1.2394  1.0537
  761MPD2    H211244   3.776   0.909  11.097  1.9335 -2.3464 -0.7174
  761MPD2    H311245   3.893   1.046  11.254 -0.9301  0.7888 -0.5746
  761MPD2     N11246   4.165   1.219  10.933 -0.0985  0.4436 -0.1014
  761MPD2    H511247   4.209   1.279  11.003 -1.9986  3.1779 -1.2633
  761MPD2    N111248   3.803   0.904  10.846 -0.1393 -0.2419  0.2739
  761MPD2    H711249   3.727   0.852  10.887 -0.9579 -0.1474 -1.1414
  762MPD2     C11250   4.246   0.843  10.911 -0.8302 -0.2745  0.4471
  762MPD2    C111251   4.235   0.747  10.814 -0.3451  0.0416 -0.0212
  762MPD2    C211252   4.338   0.728  10.730 -0.2930 -0.3714 -0.2454
  762MPD2    C311253   4.456   0.792  10.748  0.1748  0.0469  0.1281
  762MPD2    C411254   4.459   0.905  10.826  0.6414 -0.0692  0.1148
  762MPD2    C511255   4.351   0.926  10.912  0.2453  0.2231  0.5913
  762MPD2     H11256   4.330   0.656  10.649  0.0068  0.5277 -1.0768
  762MPD2    H111257   4.545   0.971  10.836  0.2276  0.4791  0.0781
  762MPD2    H211258   4.167   0.863  10.982  1.1107  1.2579  2.2021
  762MPD2    H311259   4.348   1.013  10.977 -0.8910  0.6783 -0.0691
  762MPD2     N11260   4.556   0.754  10.665 -0.6137  0.3871 -0.3319
  762MPD2    H511261   4.523   0.699  10.586  2.0829  0.2886 -1.4034
  762MPD2    N111262   4.114   0.677  10.806 -0.5985  0.4044 -0.3152
  762MPD2    H711263   4.045   0.691  10.879 -1.4170  0.5032 -1.1134
  763MPD2     C11264   1.665   1.254  16.024 -0.5684  0.4224  0.3109
  763MPD2    C111265   1.556   1.336  16.005  0.5319 -0.2769  0.1474
  763MPD2    C211266   1.545   1.447  16.087  0.8930  0.1867 -0.4392
  763MPD2    C311267   1.644   1.470  16.187  0.2784 -0.5176  0.0638
  763MPD2    C411268   1.748   1.385  16.205  0.0230  0.0414  0.3692
  763MPD2    C511269   1.755   1.281  16.125 -0.5144  0.3264  0.1190
  763MPD2     H11270   1.468   1.520  16.065 -0.1514 -0.9745 -0.6208
  763MPD2    H111271   1.817   1.387  16.289  1.3828  3.2752 -0.8006
  763MPD2    H211272   1.672   1.154  15.981 -2.2548  0.1909  0.5638
  763MPD2    H311273   1.840   1.215  16.135 -0.6061  0.1305 -0.4017
  763MPD2     N11274   1.645   1.588  16.264 -0.0365  0.0861 -0.0371
  763MPD2    H511275   1.723   1.601  16.328 -0.4177  0.6791  0.3042
  763MPD2    N111276   1.457   1.307  15.908 -0.1563  0.0003  0.2606
  763MPD2    H711277   1.370   1.357  15.923  0.1273  0.4655  0.3379
  764MPD2     C11278   4.089   3.457  17.504  0.5000 -0.7360 -0.2089
  764MPD2    C111279   4.046   3.369  17.410  0.0937  0.2520  0.2900
  764MPD2    C211280   3.938   3.286  17.447  0.5040  0.3993  0.0393
  764MPD2    C311281   3.875   3.299  17.565 -0.0654 -0.5103 -0.0344
  764MPD2    C411282   3.905   3.406  17.650 -0.5572 -0.1725 -0.0824
  764MPD2    C511283   4.016   3.480  17.616 -0.4621  0.6968 -0.9486
  764MPD2     H11284   3.915   3.202  17.384 -0.0105 -0.2516  1.1038
  764MPD2    H111285   3.843   3.435   0.026 -1.0519 -3.3639  0.6393
  764MPD2    H211286   4.160   3.534  17.475 -0.2286  0.0752  0.1746
  764MPD2    H311287   4.040   3.567  17.677 -0.0673 -0.5759  0.6969
  764MPD2     N11288   3.763   3.214  17.592 -0.2311  0.1638  0.4192
  764MPD2    H511289   3.735   3.155  17.515  0.0513  0.3261  0.1932
  764MPD2    N111290   4.103   3.344  17.282  0.6251  0.1181 -0.7366
  764MPD2    H711291   4.069   3.256  17.244 -1.7161  0.5116  0.4235
  765MPD2     C11292   3.928   0.638  15.950  0.7574  0.4239  0.5689
  765MPD2    C111293   4.028   0.732  15.950 -0.3405  0.1728 -0.0433
  765MPD2    C211294   4.160   0.684  15.935 -0.6215  0.4514 -0.6478
  765MPD2    C311295   4.187   0.550  15.912  0.1550 -0.1110 -0.5627
  765MPD2    C411296   4.082   0.464  15.914 -0.0723  0.0725 -0.0786
  765MPD2    C511297   3.955   0.508  15.926  0.1260  0.5005  0.2769
  765MPD2     H11298   4.243   0.754  15.935  0.3390 -0.6975  0.3120
  765MPD2    H111299   4.088   0.357  15.896  0.4860  0.1058 -0.0957
  765MPD2    H211300   3.822   0.660  15.942  1.0426  1.5494 -0.2279
  765MPD2    H311301   3.878   0.431  15.928  1.5284 -0.8743  1.9320
  765MPD2     N11302   4.322   0.511  15.881 -0.6054 -0.1541 -0.0927
  765MPD2    H511303   4.393   0.581  15.863 -2.9674  1.7465 -1.9285
  765MPD2    N111304   3.997   0.863  15.971 -0.6314  0.3149 -0.6653
  765MPD2    H711305   3.898   0.886  15.972 -0.3317  1.4731  1.9143
  766MPD2     C11306   3.389   1.201  15.729  0.2661  0.1740 -0.2833
  766MPD2    C111307   3.509   1.145  15.731  0.3278  0.3809 -0.0733
  766MPD2    C211308   3.545   1.057  15.626  0.2740  0.1000  0.3276
  766MPD2    C311309   3.459   1.040  15.520  0.0760  0.3681  0.3435
  766MPD2    C411310   3.330   1.089  15.534  0.1389  0.2269  0.4027
  766MPD2    C511311   3.294   1.167  15.636  0.2925  0.1897 -0.5769
  766MPD2     H11312   3.651   1.034  15.632 -0.4178 -3.1469 -0.1274
  766MPD2    H111313   3.260   1.063  15.455 -0.3423  1.4320  0.4261
  766MPD2    H211314   3.356   1.256  15.816  0.6870 -1.1221  0.6953
  766MPD2    H311315   3.192   1.204  15.647 -0.0371 -1.1505  0.8754
  766MPD2     N11316   3.496   0.961  15.405 -0.1381  0.2361  0.4507
  766MPD2    H511317   3.433   0.945  15.327  3.0288  1.6063 -2.4020
  766MPD2    N111318   3.596   1.179  15.834 -0.2207 -0.1660  0.4533
  766MPD2    H711319   3.573   1.264  15.885 -1.0027 -1.1254  1.6981
  767MPD2     C11320   2.855   0.947  15.343  0.5525  0.3232 -0.1705
  767MPD2    C111321   2.861   1.001  15.220  0.3439  0.2900  0.5490
  767MPD2    C211322   2.891   0.926  15.109  0.2467 -0.5993 -1.0334
  767MPD2    C311323   2.931   0.798  15.120  0.2560  0.9392 -0.7520
  767MPD2    C411324   2.924   0.738  15.245  0.1585  0.8760  0.2755
  767MPD2    C511325   2.877   0.811  15.354  0.2427  0.4710  0.8443
  767MPD2     H11326   2.898   0.982  15.017 -0.0336 -3.2933 -2.6941
  767MPD2    H111327   2.956   0.636  15.263  0.2617  0.5136 -1.9304
  767MPD2    H211328   2.830   1.009  15.428  1.4260  0.1282  0.2316
  767MPD2    H311329   2.861   0.765  15.451  1.0567  0.1544  0.8264
  767MPD2     N11330   3.001   0.743  15.013  0.1612  0.6310  0.0235
  767MPD2    H511331   3.009   0.800  14.929 -0.0702 -0.7844 -0.9592
  767MPD2    N111332   2.849   1.141  15.223 -0.1511 -0.2467  0.4151
  767MPD2    H711333   2.830   1.185  15.312  2.0943  2.0077 -0.2118
  768MPD2     C11334   3.993   4.165  10.444  0.5708  0.2313 -0.2209
  768MPD2    C111335   3.944   4.106  10.563  0.9632 -0.0362 -0.1601
  768MPD2    C211336   4.036   4.046  10.655 -0.1500 -0.0514 -0.0653
  768MPD2    C311337   4.170   4.062  10.637 -0.3123  0.0717  0.1188
  768MPD2    C411338   4.214   4.128  10.527  0.1123  0.0119 -0.0773
  768MPD2    C511339   4.129   4.178  10.429 -0.3501 -0.3744  0.5331
  768MPD2     H11340   3.998   3.994  10.742 -1.9473 -0.6318 -1.1995
  768MPD2    H111341   4.318   4.153  10.510  0.5920 -0.6010  1.9734
  768MPD2    H211342   3.932   4.216  10.371 -0.3754  0.9598  1.0670
  768MPD2    H311343   4.173   4.236  10.349 -1.9346  1.1005  0.7349
  768MPD2     N11344   4.263   4.023  10.729 -0.3553  0.8361 -0.5256
  768MPD2    H511345   4.358   4.056  10.718  0.7559 -1.5800  1.8974
  768MPD2    N111346   3.803   4.091  10.589  0.1852 -0.4268  0.1089
  768MPD2    H711347   3.788   4.034  10.672  3.2012 -4.4839 -2.1409
  769MPD2     C11348   0.077   2.332  15.230 -0.0516  0.0569 -0.5127
  769MPD2    C111349   0.079   2.220  15.301 -0.2171  0.1321 -0.2621
  769MPD2    C211350   0.176   2.198  15.403  0.1477  0.8376  0.1890
  769MPD2    C311351   0.275   2.293  15.426 -0.1317 -0.0043  0.2140
  769MPD2    C411352   0.279   2.398  15.332  0.0413 -0.1922  0.3959
  769MPD2    C511353   0.172   2.420  15.248  0.3102 -0.3863  0.5223
  769MPD2     H11354   0.171   2.108  15.463 -0.2645  0.4337 -0.4636
  769MPD2    H111355   0.360   2.470  15.330 -0.8466  0.8235  0.8921
  769MPD2    H211356   0.005   2.348  15.152  0.3896  2.5963 -0.3829
  769MPD2    H311357   0.184   2.509  15.187 -1.2451 -1.4114 -1.2826
  769MPD2     N11358   0.358   2.282  15.539 -0.0056 -0.0136  0.0167
  769MPD2    H511359   0.330   2.208  15.604 -0.2147  2.2828  2.5539
  769MPD2    N111360   4.705   2.127  15.277 -0.1614  0.8341 -0.2014
  769MPD2    H711361   4.634   2.139  15.205  1.9156  2.0256 -2.0650
  770MPD2     C11362   4.390   1.147  14.950 -0.1929 -0.3258  0.4309
  770MPD2    C111363   4.285   1.224  14.994  0.0899  0.6431 -0.1000
  770MPD2    C211364   4.314   1.353  15.028 -0.0121 -0.3844 -0.1843
  770MPD2    C311365   4.436   1.403  15.006 -0.2705  0.2167  0.2688
  770MPD2    C411366   4.522   1.337  14.925 -0.1141 -0.1917 -0.7837
  770MPD2    C511367   4.502   1.204  14.901 -0.5964  0.6153  0.2183
  770MPD2     H11368   4.241   1.420  15.071 -1.1957 -2.1726  0.6244
  770MPD2    H111369   4.616   1.373  14.885 -0.8906  0.5576 -1.9322
  770MPD2    H211370   4.375   1.040  14.949 -2.7067  0.0346 -0.5454
  770MPD2    H311371   4.584   1.141  14.866  0.1581  3.7071 -3.5395
  770MPD2     N11372   4.456   1.535  15.054 -0.1339  0.1099 -0.3863
  770MPD2    H511373   4.374   1.586  15.088  0.0200  0.4969 -0.6021
  770MPD2    N111374   4.159   1.161  15.033  0.0180  0.3021 -0.4715
  770MPD2    H711375   4.150   1.060  15.040  1.5805  0.0747 -1.8154
  771MPD2     C11376   1.234   0.020  13.860  0.5588  0.5181 -0.3661
  771MPD2    C111377   1.170   0.123  13.797  0.2241  0.0373 -0.5542
  771MPD2    C211378   1.070   0.091  13.707  1.2569 -0.1792  0.0744
  771MPD2    C311379   1.029   4.685  13.701  0.3425  0.0699  0.0451
  771MPD2    C411380   1.097   4.584  13.765 -0.0668 -0.1974  0.6584
  771MPD2    C511381   1.209   4.612  13.834  0.1480  0.4628  0.4156
  771MPD2     H11382   1.015   0.167  13.653  1.2200 -0.8756 -0.8633
  771MPD2    H111383   1.071   4.480  13.753  0.5806 -0.0845 -1.7743
  771MPD2    H211384   1.313   0.049  13.928 -0.2920 -0.6625  1.1248
  771MPD2    H311385   1.261   4.530  13.883 -1.8418  0.1025  1.8923
  771MPD2     N11386   0.927   4.654  13.610  0.7415 -0.0216 -0.2305
  771MPD2    H511387   0.898   4.722  13.540  0.0514  0.7449  0.8110
  771MPD2    N111388   1.197   0.262  13.825  0.5093 -0.1886 -0.2576
  771MPD2    H711389   1.149   0.322  13.759 -0.4759 -2.1078 -1.2734
  772MPD2     C11390   0.924   0.928  13.786 -0.4815 -0.2743  0.2349
  772MPD2    C111391   0.913   0.788  13.781  0.0446 -0.7880 -0.4397
  772MPD2    C211392   0.789   0.727  13.793  0.2880  0.1458  0.3249
  772MPD2    C311393   0.673   0.804  13.797  0.3382  0.2222  0.4828
  772MPD2    C411394   0.689   0.945  13.803 -0.7307 -0.4067  0.2124
  772MPD2    C511395   0.806   1.003  13.792  0.0770  0.0540  0.1859
  772MPD2     H11396   0.783   0.619  13.788  0.7938  0.1449 -0.2187
  772MPD2    H111397   0.609   1.016  13.823  0.3383  0.8331  0.0630
  772MPD2    H211398   1.013   0.989  13.780 -0.6014 -0.1960 -0.6657
  772MPD2    H311399   0.833   1.108  13.800 -2.0036  0.5213  1.1684
  772MPD2     N11400   0.539   0.760  13.805  0.4531  0.2026 -0.1506
  772MPD2    H511401   0.477   0.837  13.782  1.1109  0.9655  0.6691
  772MPD2    N111402   1.031   0.713  13.766  0.1540 -0.2616  0.4016
  772MPD2    H711403   1.017   0.614  13.749 -1.7818  0.3392 -1.6065
  773MPD2     C11404   0.339   1.433  17.632  0.9375  1.0771 -0.5655
  773MPD2    C111405   0.235   1.346  17.622 -0.5649  0.1779  0.0801
  773MPD2    C211406   0.263   1.213  17.620  0.0361  0.2680 -0.2815
  773MPD2    C311407   0.396   1.164  17.629 -0.4215 -0.1567 -1.0634
  773MPD2    C411408   0.497   1.256  17.651  0.0100 -0.5043  0.7362
  773MPD2    C511409   0.463   1.387  17.658  0.5261 -0.0811  0.2354
  773MPD2     H11410   0.187   1.136  17.620  1.3217 -0.9844  0.2625
  773MPD2    H111411   0.600   1.225  17.664  0.6710  0.9595 -1.2192
  773MPD2    H211412   0.327   1.541  17.623 -2.0872  0.8023  0.3366
  773MPD2    H311413   0.543   1.459  17.644  0.1405  0.5617  1.3265
  773MPD2     N11414   0.423   1.024  17.642  0.3302  0.1260 -0.7879
  773MPD2    H511415   0.356   0.955  17.610 -0.0884  1.4868 -2.8602
  773MPD2    N111416   0.103   1.378  17.617  0.0866  0.2692  0.1123
  773MPD2    H711417   0.037   1.301  17.630 -1.6798  1.8065  0.2832
  774MPD2     C11418   4.077   0.873  13.351  0.5845 -0.0014 -0.2015
  774MPD2    C111419   4.088   0.929  13.479 -0.4446 -0.9269  0.0110
  774MPD2    C211420   4.173   1.039  13.493  0.3777  0.6510 -0.9256
  774MPD2    C311421   4.251   1.096  13.390  0.3085  0.0910  0.0136
  774MPD2    C411422   4.238   1.036  13.264  0.2604 -0.0637 -0.0884
  774MPD2    C511423   4.147   0.933  13.246 -0.5877  0.4364 -0.4077
  774MPD2     H11424   4.185   1.087  13.589  0.6874 -0.2276 -0.5189
  774MPD2    H111425   4.299   1.071  13.181  0.8343 -0.1921  0.2761
  774MPD2    H211426   4.009   0.792  13.327 -0.1999  0.8326 -0.8008
  774MPD2    H311427   4.139   0.887  13.148  0.4771 -0.7171  0.0580
  774MPD2     N11428   4.342   1.197  13.419 -0.0341 -0.0413  0.4754
  774MPD2    H511429   4.312   1.248  13.502  0.1301  3.2116 -1.4601
  774MPD2    N111430   4.039   0.855  13.585 -0.0229 -0.4339 -0.0750
  774MPD2    H711431   3.990   0.768  13.563 -0.5235  0.0518 -0.8982
  775MPD2     C11432   0.775   2.345  16.100 -0.0672  0.6447  0.8235
  775MPD2    C111433   0.792   2.449  16.189 -0.5556 -0.3319  0.2518
  775MPD2    C211434   0.856   2.565  16.153 -0.2913  0.1290  0.1802
  775MPD2    C311435   0.911   2.566  16.025  0.2139  0.2543 -0.7287
  775MPD2    C411436   0.907   2.456  15.947 -0.3896 -0.5745 -0.2268
  775MPD2    C511437   0.844   2.344  15.981 -0.1876 -0.0864  0.2358
  775MPD2     H11438   0.866   2.652  16.216 -0.5614 -0.9487  1.7184
  775MPD2    H111439   0.944   2.456  15.845 -2.3599 -1.6254 -0.9263
  775MPD2    H211440   0.716   2.256  16.115  2.4150 -0.9235  1.3120
  775MPD2    H311441   0.847   2.257  15.916 -1.5033 -1.5553  2.1451
  775MPD2     N11442   0.973   2.684  15.960 -0.6126 -0.5603  0.3106
  775MPD2    H511443   0.988   2.683  15.860  0.3152  0.7243  0.4333
  775MPD2    N111444   0.728   2.433  16.310  0.1357  0.0117 -0.5767
  775MPD2    H711445   0.709   2.337  16.336 -1.0295  0.1439 -0.9393
  776MPD2     C11446   0.394   2.216  11.731  0.1944 -0.3907  0.3280
  776MPD2    C111447   0.258   2.242  11.697  0.0904 -0.0378  0.1902
  776MPD2    C211448   0.228   2.362  11.637 -0.3372 -0.0344  0.3528
  776MPD2    C311449   0.329   2.459  11.623  0.8731 -0.4576  0.3770
  776MPD2    C411450   0.456   2.441  11.675 -0.6022 -0.0336  0.1890
  776MPD2    C511451   0.478   2.315  11.735 -0.0269  0.3072  0.2503
  776MPD2     H11452   0.129   2.384  11.598  0.6206  1.4854 -1.2570
  776MPD2    H111453   0.527   2.523  11.671 -0.2919 -0.3594 -0.9862
  776MPD2    H211454   0.424   2.122  11.775  2.4508 -0.3523 -1.1097
  776MPD2    H311455   0.577   2.296  11.775 -0.0909  1.8534  1.1399
  776MPD2     N11456   0.311   2.580  11.551  0.1188 -0.2494  0.0672
  776MPD2    H511457   0.394   2.638  11.545 -0.8107  1.1766  0.7338
  776MPD2    N111458   0.166   2.144  11.720  0.2444  1.4447 -0.2340
  776MPD2    H711459   0.199   2.056  11.759  2.2811  1.6975 -1.3347
  777MPD2     C11460   0.533   4.579   0.284 -0.4950  0.7073  0.0803
  777MPD2    C111461   0.426   4.569   0.371  1.0319 -0.3409  0.1301
  777MPD2    C211462   0.330   4.470   0.354 -0.1325 -0.4836  0.2771
  777MPD2    C311463   0.338   4.389   0.239  0.0644  0.2652 -0.5913
  777MPD2    C411464   0.441   4.408   0.148 -0.1721  0.3846 -0.0068
  777MPD2    C511465   0.541   4.494   0.175  0.3699  0.2036  0.5573
  777MPD2     H11466   0.240   4.472   0.416 -0.7579  1.5917 -0.7055
  777MPD2    H111467   0.447   4.334   0.069 -1.6019 -0.4286  0.6487
  777MPD2    H211468   0.617   4.644   0.305 -2.0604  2.2343  1.6075
  777MPD2    H311469   0.631   4.499   0.114  0.6264  0.2860  0.9400
  777MPD2     N11470   0.243   4.286   0.220 -0.3180  0.0284 -0.3794
  777MPD2    H511471   0.176   4.281   0.296  2.4709 -0.9623  2.0245
  777MPD2    N111472   0.426   4.661   0.474 -0.5593  0.1997  0.0661
  777MPD2    H711473   0.505   4.725   0.467 -0.1176 -0.3938 -0.4301
  778MPD2     C11474   1.069   0.134  14.982 -0.3692 -0.6282 -0.5284
  778MPD2    C111475   1.003   0.114  14.860  0.1458 -0.5221 -0.0134
  778MPD2    C211476   1.069   0.159  14.745  0.0224  0.2915  0.4512
  778MPD2    C311477   1.185   0.230  14.759  0.3097  0.1798 -0.2046
  778MPD2    C411478   1.251   0.239  14.881  0.0329  0.4216  0.2137
  778MPD2    C511479   1.194   0.183  14.987  0.1065 -0.3231  0.7369
  778MPD2     H11480   1.013   0.149  14.654  0.6620 -1.9778  0.3043
  778MPD2    H111481   1.341   0.295  14.904 -0.4326  1.1810  0.1885
  778MPD2    H211482   1.025   0.099  15.075 -0.3455 -0.5176 -0.4741
  778MPD2    H311483   1.251   0.186  15.079 -0.1744 -0.7856  0.9235
  778MPD2     N11484   1.245   0.291  14.651 -0.0932  0.2034  0.4364
  778MPD2    H511485   1.203   0.264  14.562 -0.0651  0.2004  0.4241
  778MPD2    N111486   0.869   0.061  14.846 -0.2366 -0.4345 -0.0191
  778MPD2    H711487   0.832   0.068  14.751 -0.6994  1.8056  0.3337
  779MPD2     C11488   0.523   4.037  13.808  0.3175 -0.1682 -0.7316
  779MPD2    C111489   0.586   4.009  13.925  0.6409 -0.4154 -0.2680
  779MPD2    C211490   0.657   4.103  13.994 -0.5630 -0.4257 -0.3275
  779MPD2    C311491   0.674   4.226  13.935 -0.1475  0.4354  0.1181
  779MPD2    C411492   0.615   4.249  13.813 -0.1116  0.2631 -0.3746
  779MPD2    C511493   0.543   4.158  13.746 -0.1985 -0.4498 -0.5027
  779MPD2     H11494   0.703   4.086  14.091  0.1833  2.4124 -0.1686
  779MPD2    H111495   0.612   4.345  13.761  0.8683  0.0039 -0.9039
  779MPD2    H211496   0.460   3.965  13.755 -0.1887 -0.3106  0.0693
  779MPD2    H311497   0.485   4.184  13.658  0.3595  2.0986 -0.0961
  779MPD2     N11498   0.753   4.320  14.002 -0.1278  0.0613  0.6022
  779MPD2    H511499   0.815   4.283  14.074 -0.9792  0.5887  1.6068
  779MPD2    N111500   0.552   3.878  13.976 -0.7230 -0.2251  0.1995
  779MPD2    H711501   0.495   3.822  13.914  2.5668  0.5763 -3.5530
  780MPD2     C11502   0.233   3.870   1.075 -0.1250 -0.0615 -1.0142
  780MPD2    C111503   0.272   3.756   1.010 -0.8687 -0.3591 -0.0279
  780MPD2    C211504   0.375   3.766   0.920 -0.3156 -0.0929  0.1880
  780MPD2    C311505   0.426   3.890   0.879  0.0063  0.6081 -0.3075
  780MPD2    C411506   0.376   4.013   0.925  0.0344  0.4126  0.2358
  780MPD2    C511507   0.280   3.999   1.027 -0.0457 -0.6850  0.3820
  780MPD2     H11508   0.418   3.674   0.881  0.5519  1.1966 -1.9031
  780MPD2    H111509   0.391   4.101   0.864  2.4972  0.9577  1.6001
  780MPD2    H211510   0.154   3.887   1.146 -0.6732 -0.5978 -1.4938
  780MPD2    H311511   0.217   4.085   1.051 -0.4109 -0.3324 -1.8774
  780MPD2     N11512   0.505   3.891   0.766 -0.9951  0.3970 -0.2491
  780MPD2    H511513   0.520   3.795   0.735 -1.7232  0.0955  0.3276
  780MPD2    N111514   0.221   3.628   1.043 -0.1266  0.2908  0.1646
  780MPD2    H711515   0.263   3.551   0.992  0.0165 -1.3869  2.7943
  781MPD2     C11516   1.809   0.996  12.248 -0.2971 -0.4988  0.1228
  781MPD2    C111517   1.926   0.925  12.260  0.7305  0.1514 -0.3970
  781MPD2    C211518   2.026   0.929  12.169  0.5902  0.8072  0.0857
  781MPD2    C311519   2.002   1.022  12.064 -0.8668  0.2105  0.2152
  781MPD2    C411520   1.878   1.086  12.048  0.4015  0.4356  0.4424
  781MPD2    C511521   1.790   1.071  12.142 -0.1512  0.1498  0.1841
  781MPD2     H11522   2.114   0.866  12.179  1.3615  1.7851 -0.5715
  781MPD2    H111523   1.847   1.160  11.974  0.3737 -0.8312 -0.8236
  781MPD2    H211524   1.731   1.000  12.323  0.1287  0.6240  0.5174
  781MPD2    H311525   1.695   1.122  12.129 -0.3207 -0.2035  0.0404
  781MPD2     N11526   2.095   1.030  11.958  0.2962 -0.5161  0.1686
  781MPD2    H511527   2.070   1.070  11.869  0.5293  0.8530  0.7262
  781MPD2    N111528   1.939   0.841  12.376  0.0187  0.5133 -0.8118
  781MPD2    H711529   2.036   0.812  12.387 -0.4346 -0.5692  0.3167
  782MPD2     C11530   0.292   1.393  10.097 -0.7488  0.4642 -0.7589
  782MPD2    C111531   0.429   1.390  10.068 -0.6179 -0.0018 -0.1388
  782MPD2    C211532   0.515   1.424  10.173  0.2007 -0.0785 -0.4198
  782MPD2    C311533   0.469   1.461  10.297  0.8291 -0.1601  0.0529
  782MPD2    C411534   0.332   1.461  10.321 -0.4904 -0.0389  0.0455
  782MPD2    C511535   0.247   1.441  10.214 -0.4745 -0.4636  0.7292
  782MPD2     H11536   0.621   1.422  10.154  0.5738  0.0321  1.6972
  782MPD2    H111537   0.283   1.492  10.413 -1.3483 -1.9872  0.2445
  782MPD2    H211538   0.221   1.350  10.028 -0.8371 -0.7853  0.1158
  782MPD2    H311539   0.140   1.451  10.229 -0.6730 -0.7279 -0.4850
  782MPD2     N11540   0.560   1.477  10.399 -0.3551 -0.4539  0.5357
  782MPD2    H511541   0.651   1.504  10.362 -0.3009 -1.2172  0.1070
  782MPD2    N111542   0.470   1.331   9.950 -0.2466  0.0705  0.2354
  782MPD2    H711543   0.396   1.281   9.902 -1.0988  2.1752 -0.6522
  783MPD2     C11544   4.610   0.990  10.339 -0.0638  0.7518 -0.4643
  783MPD2    C111545   4.685   1.055  10.432  0.1679 -0.0916  0.6682
  783MPD2    C211546   0.098   1.061  10.409  0.1722 -0.6343  0.5684
  783MPD2    C311547   0.157   1.005  10.294 -0.7282  0.1857 -0.0905
  783MPD2    C411548   0.078   0.944  10.203 -0.6637  0.1406 -0.1561
  783MPD2    C511549   4.669   0.936  10.226 -0.2668  0.2970 -0.9415
  783MPD2     H11550   0.169   1.102  10.479  1.2060 -3.0997  0.9680
  783MPD2    H111551   0.112   0.899  10.110  1.6805  1.4779  0.0498
  783MPD2    H211552   4.503   0.974  10.350  0.1339 -0.8909 -0.8842
  783MPD2    H311553   4.608   0.880  10.156  0.5177 -0.6094 -0.9071
  783MPD2     N11554   0.300   1.028  10.265 -0.1098  0.0016 -0.0347
  783MPD2    H511555   0.355   1.068  10.340  0.2228  0.2287 -0.3996
  783MPD2    N111556   4.622   1.108  10.545  0.0194  0.4983  0.6882
  783MPD2    H711557   4.521   1.094  10.545  0.0906 -0.0385 -1.6126
  784MPD2     C11558   3.532   2.073   0.392 -0.0226  1.3826  0.3407
  784MPD2    C111559   3.471   2.061   0.514 -0.2766 -0.9303 -0.0183
  784MPD2    C211560   3.365   2.148   0.544 -0.0738  0.0741  0.3500
  784MPD2    C311561   3.306   2.232   0.451 -0.2108 -0.3594  0.3808
  784MPD2    C411562   3.359   2.241   0.323 -0.4579  0.5180 -0.0942
  784MPD2    C511563   3.469   2.160   0.303  0.4863  0.8441 -0.4144
  784MPD2     H11564   3.334   2.148   0.648 -2.5664 -0.1064 -0.3803
  784MPD2    H111565   3.330   2.303   0.240 -2.0028 -2.5544 -1.8441
  784MPD2    H211566   3.626   2.032   0.357 -0.4409  0.7750 -0.0875
  784MPD2    H311567   3.511   2.181   0.205  1.3349  0.0512 -0.2202
  784MPD2     N11568   3.187   2.297   0.486  0.1150 -0.2379  0.3108
  784MPD2    H511569   3.155   2.267   0.578 -0.3897 -1.5710 -0.2994
  784MPD2    N111570   3.533   1.987   0.619 -0.3862  0.6389 -0.0862
  784MPD2    H711571   3.509   2.001   0.717 -0.2735 -0.1019  0.0493
  785MPD2     C11572   2.877   0.396  11.010  0.1111 -0.7065  0.1739
  785MPD2    C111573   2.779   0.457  10.933 -0.2398  0.0479  0.9706
  785MPD2    C211574   2.695   0.381  10.857 -0.8479 -0.2125 -0.1615
  785MPD2    C311575   2.705   0.246  10.859 -0.8706 -0.2445 -0.4727
  785MPD2    C411576   2.800   0.183  10.938 -0.5156 -0.4389  0.5836
  785MPD2    C511577   2.879   0.261  11.020 -0.5321  0.1881 -0.5142
  785MPD2     H11578   2.611   0.419  10.799 -0.7169  0.6636  0.2128
  785MPD2    H111579   2.809   0.075  10.951  0.1093 -0.2352  1.8554
  785MPD2    H211580   2.940   0.458  11.072 -0.7497  0.1713  0.1817
  785MPD2    H311581   2.952   0.217  11.087 -0.3788 -0.6405 -1.2243
  785MPD2     N11582   2.607   0.177  10.784 -0.4847  0.2131  0.2217
  785MPD2    H511583   2.542   0.237  10.733 -0.9740 -1.9064 -1.6485
  785MPD2    N111584   2.768   0.597  10.931  0.3387 -0.0653 -0.0576
  785MPD2    H711585   2.687   0.646  10.895  0.0140  0.4798  1.4302
  786MPD2     C11586   0.855   3.201  14.656 -0.3739 -0.5578  0.3734
  786MPD2    C111587   0.989   3.164  14.657 -0.4070  0.0488 -0.0808
  786MPD2    C211588   1.074   3.192  14.767  0.2382  0.4372  0.3179
  786MPD2    C311589   1.017   3.248  14.882  0.3341 -0.0259 -0.4744
  786MPD2    C411590   0.881   3.275  14.878  0.0946  0.3297  0.2744
  786MPD2    C511591   0.802   3.250  14.768  0.1215  0.0864  0.3811
  786MPD2     H11592   1.176   3.156  14.771 -0.8017 -2.5494 -0.2189
  786MPD2    H111593   0.831   3.303  14.970  1.6280  0.4973  1.0516
  786MPD2    H211594   0.784   3.186  14.576  1.6002  1.0077 -1.6932
  786MPD2    H311595   0.698   3.281  14.765  0.1207  0.4858  4.2861
  786MPD2     N11596   1.090   3.268  14.999  0.7689  0.2487  0.4925
  786MPD2    H511597   1.033   3.304  15.074 -1.1234  0.9025 -1.2591
  786MPD2    N111598   1.042   3.072  14.563  0.1566  0.6431  0.2883
  786MPD2    H711599   1.135   3.033  14.574 -0.8920 -2.8220 -2.9842
  787MPD2     C11600   1.376   2.637  14.837 -0.3702  0.3168 -0.1870
  787MPD2    C111601   1.399   2.635  14.701  0.5911  0.0806  0.1607
  787MPD2    C211602   1.528   2.600  14.667  0.6498  0.3046  0.5606
  787MPD2    C311603   1.633   2.591  14.751 -0.5189  0.4530 -0.4820
  787MPD2    C411604   1.601   2.593  14.885 -0.1786  0.1265 -0.5309
  787MPD2    C511605   1.477   2.612  14.931  0.7597  0.0114  0.1199
  787MPD2     H11606   1.557   2.607  14.562  1.5355  0.8251  0.8410
  787MPD2    H111607   1.666   2.576  14.970 -1.0469 -1.7646 -0.2235
  787MPD2    H211608   1.277   2.638  14.882 -0.3728  1.3386 -0.2204
  787MPD2    H311609   1.452   2.595  15.035  2.0960 -0.1348  0.4179
  787MPD2     N11610   1.767   2.553  14.711 -0.3248 -0.0607  0.0116
  787MPD2    H511611   1.784   2.539  14.612 -1.3212 -1.5415  0.0472
  787MPD2    N111612   1.296   2.657  14.609  0.2865  0.3036  0.2953
  787MPD2    H711613   1.206   2.680  14.650 -0.7653 -2.6832 -0.3357
  788MPD2     C11614   3.057   0.960   1.200 -0.0593  0.1510 -0.4341
  788MPD2    C111615   3.063   0.938   1.065  0.3982 -0.5688 -0.0238
  788MPD2    C211616   3.160   1.005   0.990 -0.2283  0.1571 -0.1439
  788MPD2    C311617   3.249   1.094   1.048 -0.3786 -0.3962  0.2601
  788MPD2    C411618   3.234   1.120   1.176 -0.5245 -0.1637 -0.3655
  788MPD2    C511619   3.143   1.047   1.252 -0.8386  0.1422 -0.4333
  788MPD2     H11620   3.164   0.984   0.884  1.0115 -1.6579  0.2563
  788MPD2    H111621   3.295   1.192   1.229  0.2211 -2.2028  1.4812
  788MPD2    H211622   2.986   0.915   1.268  0.0506 -1.8185 -1.5829
  788MPD2    H311623   3.138   1.074   1.357  0.3158  3.0498 -1.1078
  788MPD2     N11624   3.343   1.168   0.968  0.2907 -0.6352  0.2918
  788MPD2    H511625   3.395   1.231   1.028 -3.3516  1.5438  1.1348
  788MPD2    N111626   2.970   0.853   0.999 -0.3527 -0.0084 -0.4293
  788MPD2    H711627   2.964   0.862   0.898 -2.8177  1.9267 -0.1219
  789MPD2     C11628   4.272   1.441  16.039 -0.0852 -0.2109  0.6010
  789MPD2    C111629   4.240   1.342  16.126  0.5176  1.0125 -0.8702
  789MPD2    C211630   4.118   1.354  16.192 -0.0399 -0.0193  0.1709
  789MPD2    C311631   4.025   1.449  16.167 -0.0824  0.1536  0.6070
  789MPD2    C411632   4.060   1.545  16.075 -0.5299  0.0569 -0.0783
  789MPD2    C511633   4.185   1.542  16.021  0.5592 -0.8818  0.3078
  789MPD2     H11634   4.095   1.296  16.281 -0.3153 -0.1844 -0.0089
  789MPD2    H111635   3.991   1.627  16.058  0.4586  0.8809 -0.1370
  789MPD2    H211636   4.370   1.453  15.993  0.7884 -0.6628  2.3413
  789MPD2    H311637   4.213   1.618  15.950  2.6020 -1.3362  0.6403
  789MPD2     N11638   3.894   1.469  16.232  0.6555 -0.0108  0.3014
  789MPD2    H511639   3.849   1.559  16.219 -0.2648 -0.6325 -0.7852
  789MPD2    N111640   4.321   1.233  16.162  0.5048 -0.0282 -0.1443
  789MPD2    H711641   4.281   1.174  16.234 -1.8278  0.9572 -0.6423
  790MPD2     C11642   0.232   2.860  13.443  0.5408  0.0162  0.0215
  790MPD2    C111643   0.113   2.826  13.509  0.8149  0.3813  0.7437
  790MPD2    C211644   0.011   2.767  13.433 -0.8373 -0.1051  0.9941
  790MPD2    C311645   0.033   2.729  13.298  0.4566 -0.4204  0.4209
  790MPD2    C411646   0.154   2.755  13.245 -0.0655  0.3737 -0.3689
  790MPD2    C511647   0.251   2.822  13.316 -0.3172 -0.7467  0.1442
  790MPD2     H11648   4.648   2.732  13.482 -2.2844 -0.0457 -1.6191
  790MPD2    H111649   0.181   2.720  13.146  1.6125 -0.6620  0.4498
  790MPD2    H211650   0.315   2.903  13.497 -0.4781 -0.2790  1.8297
  790MPD2    H311651   0.342   2.840  13.259 -0.6888 -1.1464 -0.5805
  790MPD2     N11652   4.674   2.645  13.222  0.0830  0.1146 -0.8877
  790MPD2    H511653   4.715   2.609  13.136 -0.9891 -1.4148 -0.7665
  790MPD2    N111654   0.091   2.875  13.639 -0.2032  0.2800  0.0019
  790MPD2    H711655   0.178   2.906  13.682 -0.1023  1.1890 -0.8602
  791MPD2     C11656   3.927   2.691  12.925  0.1060 -0.5186  0.7388
  791MPD2    C111657   3.983   2.563  12.917  0.1405 -0.3510  0.0578
  791MPD2    C211658   3.920   2.470  12.838  0.1698 -0.7037  0.4172
  791MPD2    C311659   3.804   2.501  12.768 -0.0802  0.4440  0.7404
  791MPD2    C411660   3.743   2.624  12.788  0.0776 -0.4148 -0.2773
  791MPD2    C511661   3.809   2.721  12.859  1.4617  0.8309 -0.3082
  791MPD2     H11662   3.953   2.366  12.839  0.2422 -0.6905 -1.4637
  791MPD2    H111663   3.643   2.645  12.753  0.5266  0.3750 -1.0855
  791MPD2    H211664   3.969   2.761  12.997  0.9981 -0.8051  0.5016
  791MPD2    H311665   3.763   2.818  12.879 -0.2597 -0.6075  2.7315
  791MPD2     N11666   3.745   2.396  12.688  0.1072  0.2635 -0.2516
  791MPD2    H511667   3.798   2.310  12.679 -0.7943 -0.2304 -0.8053
  791MPD2    N111668   4.107   2.549  12.975  0.0215  0.2502  0.1261
  791MPD2    H711669   4.147   2.635  13.012 -0.7966  0.2659  0.9809
  792MPD2     C11670   0.204   2.251  11.291  0.0317  0.0373  0.7330
  792MPD2    C111671   0.162   2.311  11.180  0.1550 -0.4130 -0.3486
  792MPD2    C211672   0.035   2.275  11.128  0.5022  0.2413  0.0678
  792MPD2    C311673   4.700   2.165  11.178 -0.1682  0.0017  0.1714
  792MPD2    C411674   0.023   2.099  11.289 -0.7422 -0.2535 -0.7102
  792MPD2    C511675   0.139   2.144  11.346 -0.3016 -0.3150  0.3516
  792MPD2     H11676   4.723   2.334  11.046  0.3010 -0.6862 -0.5059
  792MPD2    H111677   4.692   2.020  11.335  1.5917 -1.2708  0.4424
  792MPD2    H211678   0.287   2.287  11.351  0.2953 -1.5654  1.3157
  792MPD2    H311679   0.165   2.120  11.448  0.5337  0.4969  0.3352
  792MPD2     N11680   4.593   2.105  11.117  0.4452  0.3451 -0.4213
  792MPD2    H511681   4.557   2.026  11.171  1.3682 -1.2273 -2.1142
  792MPD2    N111682   0.243   2.410  11.126 -0.0681  0.2545 -0.4577
  792MPD2    H711683   0.316   2.453  11.181 -0.3496  0.3463 -0.1583
  793MPD2     C11684   4.085   2.467  10.367  0.2499 -0.1716  0.3926
  793MPD2    C111685   4.224   2.443  10.361 -0.7788  0.6891 -0.7202
  793MPD2    C211686   4.275   2.364  10.459 -0.3009  0.2995  0.0023
  793MPD2    C311687   4.194   2.290  10.548 -0.1060  0.7028 -0.0351
  793MPD2    C411688   4.063   2.309  10.546  0.1835 -0.7693  0.0441
  793MPD2    C511689   4.005   2.398  10.459 -0.6952 -0.1079 -0.2510
  793MPD2     H11690   4.383   2.353  10.466 -0.3078  0.7330  0.8946
  793MPD2    H111691   4.005   2.250  10.615  0.0494 -0.6892 -0.0008
  793MPD2    H211692   4.023   2.530  10.304  1.2417  2.5321  2.1105
  793MPD2    H311693   3.896   2.403  10.458 -0.6311  0.9333 -1.9554
  793MPD2     N11694   4.248   2.192  10.633 -0.0213  0.3784 -0.6601
  793MPD2    H511695   4.348   2.189  10.651  0.2101  3.6504 -1.4383
  793MPD2    N111696   4.309   2.506  10.268  0.5031 -0.2863 -0.5264
  793MPD2    H711697   4.408   2.506  10.289 -0.0152 -0.0587  1.9958
  794MPD2     C11698   4.317   2.053  17.520  0.2256  0.0141 -1.1469
  794MPD2    C111699   4.351   1.967  17.419 -0.1886 -0.1020  0.5023
  794MPD2    C211700   4.376   2.021  17.293 -0.4237  0.9852  0.2171
  794MPD2    C311701   4.345   2.147  17.265 -0.7726  0.3693 -0.0990
  794MPD2    C411702   4.294   2.229  17.360 -1.1531  0.1854 -0.7444
  794MPD2    C511703   4.282   2.182  17.489  0.4873 -0.5033  0.7578
  794MPD2     H11704   4.420   1.956  17.218  2.0631  1.0080  1.6762
  794MPD2    H111705   4.277   2.335  17.346 -0.4439  0.6136  1.6397
  794MPD2    H211706   4.311   2.015  17.622 -3.0611 -0.9705 -1.6919
  794MPD2    H311707   4.242   2.247  17.565 -1.2857 -1.2086  0.4193
  794MPD2     N11708   4.347   2.206  17.133  0.2448  0.2864  0.1390
  794MPD2    H511709   4.314   2.301  17.123  0.2994  0.0622 -2.0687
  794MPD2    N111710   4.397   1.836  17.448 -0.1504 -0.1852  0.3483
  794MPD2    H711711   4.435   1.787  17.367  0.0136 -0.9797  0.9158
  795MPD2     C11712   1.937   4.225  13.339  0.2634 -0.1840 -0.1558
  795MPD2    C111713   1.883   4.102  13.330  0.6557 -0.1488 -0.4123
  795MPD2    C211714   1.967   3.986  13.346 -0.0468 -0.3048  0.9249
  795MPD2    C311715   2.103   4.001  13.372 -0.1600  0.3270  0.4844
  795MPD2    C411716   2.159   4.127  13.374  0.3985 -0.3873 -0.0067
  795MPD2    C511717   2.072   4.237  13.364 -0.1952 -0.2173  0.8078
  795MPD2     H11718   1.916   3.890  13.338 -1.7132  0.5154  1.8291
  795MPD2    H111719   2.266   4.138  13.385  0.6063  0.1596 -2.5359
  795MPD2    H211720   1.887   4.318  13.314 -2.5587 -1.4316  0.8543
  795MPD2    H311721   2.109   4.339  13.369 -1.1741  0.0619  2.6380
  795MPD2     N11722   2.186   3.888  13.366 -0.1633  0.2962 -0.0301
  795MPD2    H511723   2.141   3.800  13.342  0.4523 -0.7532  2.6073
  795MPD2    N111724   1.744   4.086  13.313  0.0761  1.2826  0.1927
  795MPD2    H711725   1.708   3.991  13.304  2.2218  0.4295  0.5276
  796MPD2     C11726   1.522   1.415  15.465 -0.2262  0.8058 -0.1070
  796MPD2    C111727   1.592   1.485  15.562  0.0112 -0.8654 -0.6861
  796MPD2    C211728   1.542   1.607  15.609 -0.0971 -0.3543 -0.3614
  796MPD2    C311729   1.427   1.659  15.555  0.6121  0.1915 -0.5060
  796MPD2    C411730   1.344   1.574  15.476  0.0037  0.2043 -0.4799
  796MPD2    C511731   1.398   1.458  15.429  0.0030  0.0589 -0.2462
  796MPD2     H11732   1.604   1.661  15.680 -1.3175 -0.8203  1.0571
  796MPD2    H111733   1.243   1.596  15.444 -0.4728  2.1880  2.3690
  796MPD2    H211734   1.552   1.316  15.431 -0.0393  0.4304  1.1623
  796MPD2    H311735   1.340   1.405  15.354 -2.6230  2.0414  0.3816
  796MPD2     N11736   1.398   1.791  15.584  0.1632  0.2552  0.2302
  796MPD2    H511737   1.467   1.856  15.621 -1.0630  1.4887  0.3415
  796MPD2    N111738   1.706   1.415  15.616  0.4329  0.6999  0.3389
  796MPD2    H711739   1.714   1.318  15.587 -0.0177  1.2933 -1.7192
  797MPD2     C11740   2.769   0.718  16.939 -0.4964  0.5052 -0.3445
  797MPD2    C111741   2.789   0.832  17.011 -0.2500  0.2093  0.2125
  797MPD2    C211742   2.697   0.933  17.002 -0.0494 -0.4655  0.3004
  797MPD2    C311743   2.592   0.933  16.909 -0.0934  0.2912  0.2690
  797MPD2    C411744   2.573   0.807  16.843  0.3558 -0.0991 -0.5483
  797MPD2    C511745   2.657   0.703  16.864  0.7236 -0.3656 -0.3857
  797MPD2     H11746   2.714   1.028  17.051  0.2805  0.2020 -1.0988
  797MPD2    H111747   2.503   0.789  16.762  0.9235 -0.2061 -1.0134
  797MPD2    H211748   2.840   0.637  16.943  0.7549  1.6928  1.6383
  797MPD2    H311749   2.649   0.606  16.815  1.1447  0.9624 -3.0502
  797MPD2     N11750   2.506   1.050  16.895  0.1459 -0.1371  0.6451
  797MPD2    H511751   2.538   1.136  16.940  1.2930  0.2460 -0.8981
  797MPD2    N111752   2.916   0.856  17.067  0.0216  0.5635  0.5007
  797MPD2    H711753   2.967   0.772  17.092  0.1508  0.0814 -1.4188
  798MPD2     C11754   2.608   1.417  17.332 -0.1318  0.3667  0.1264
  798MPD2    C111755   2.645   1.379  17.205 -0.2669  0.2085  0.1003
  798MPD2    C211756   2.772   1.324  17.192  0.7477 -0.0694 -0.1946
  798MPD2    C311757   2.859   1.322  17.301 -0.1914 -0.6039  0.2289
  798MPD2    C411758   2.823   1.373  17.428 -0.1543 -0.1445 -0.2551
  798MPD2    C511759   2.694   1.416  17.439 -0.1801  0.0667  0.0300
  798MPD2     H11760   2.796   1.283  17.094  0.2054 -0.3603 -0.2057
  798MPD2    H111761   2.883   1.367  17.519  1.0260  1.3941 -0.9166
  798MPD2    H211762   2.508   1.459  17.334  0.0943  1.0065 -1.4165
  798MPD2    H311763   2.649   1.449  17.531 -0.3003  1.6331 -0.5936
  798MPD2     N11764   2.982   1.266  17.280  0.0982 -0.2406 -0.4192
  798MPD2    H511765   2.997   1.222  17.190  0.4622 -0.8120 -0.0736
  798MPD2    N111766   2.550   1.390  17.106  0.6207 -0.3140  0.1060
  798MPD2    H711767   2.455   1.405  17.137  1.0662  1.0206  0.8490
  799MPD2     C11768   1.750   2.032  14.972  0.2710 -0.6810  0.2144
  799MPD2    C111769   1.655   1.976  14.887  1.1723 -0.0291 -0.7962
  799MPD2    C211770   1.569   2.064  14.824 -0.1586  0.4869  0.0733
  799MPD2    C311771   1.572   2.204  14.832 -0.2836 -0.0935  0.0269
  799MPD2    C411772   1.667   2.253  14.914  0.2588 -0.5995  0.4448
  799MPD2    C511773   1.746   2.168  14.989  0.1489 -0.4731 -0.7093
  799MPD2     H11774   1.486   2.026  14.767 -1.2878  1.0883  1.3142
  799MPD2    H111775   1.679   2.359  14.935  0.3724 -0.8962  1.8943
  799MPD2    H211776   1.821   1.981  15.035  0.8733  0.8799  0.7928
  799MPD2    H311777   1.813   2.214  15.061  1.9097 -0.7898 -2.1557
  799MPD2     N11778   1.493   2.282  14.748 -0.2615  0.0708  0.1884
  799MPD2    H511779   1.524   2.379  14.756 -2.7035  0.8031  0.7945
  799MPD2    N111780   1.663   1.839  14.855  0.3115 -0.0054  0.1404
  799MPD2    H711781   1.590   1.801  14.797 -0.2991  0.8539  0.3392
  800MPD2     C11782   1.444   3.015  13.827  0.4849  0.1053  0.5648
  800MPD2    C111783   1.572   2.982  13.808  0.2083 -0.2025 -0.1849
  800MPD2    C211784   1.607   2.916  13.695  0.4887 -0.0180 -0.0379
  800MPD2    C311785   1.522   2.907  13.589 -0.1669  0.4556  0.4878
  800MPD2    C411786   1.391   2.939  13.608  0.1022 -0.0625 -0.2687
  800MPD2    C511787   1.351   2.991  13.732  0.1723  0.6126 -0.0947
  800MPD2     H11788   1.711   2.889  13.678  0.0902 -0.4661 -1.7518
  800MPD2    H111789   1.314   2.931  13.532 -0.0173 -1.7068  0.0221
  800MPD2    H211790   1.411   3.071  13.914 -1.8459 -1.6731  0.8044
  800MPD2    H311791   1.253   3.034  13.744 -0.4503 -0.4681 -1.3631
  800MPD2     N11792   1.578   2.865  13.466  0.8462  0.5226  0.4505
  800MPD2    H511793   1.680   2.859  13.469  0.9317  1.9192  0.2585
  800MPD2    N111794   1.671   3.011  13.916  0.4449  0.5974 -0.0775
  800MPD2    H711795   1.637   3.064  13.996  3.5670  0.2693  1.4565
  801MPD2     C11796   1.767   3.189  14.624 -0.0637  0.5599  0.2854
  801MPD2    C111797   1.708   3.235  14.506 -0.8221 -0.1490 -0.4837
  801MPD2    C211798   1.575   3.281  14.514  0.0525  0.9053  1.1015
  801MPD2    C311799   1.512   3.287  14.637  0.4074  0.0812  0.3375
  801MPD2    C411800   1.576   3.263  14.745  0.2934  0.1554 -0.0728
  801MPD2    C511801   1.700   3.203  14.738 -0.3370 -0.6197  0.4743
  801MPD2     H11802   1.523   3.313  14.425 -0.7024 -5.4425 -0.6750
  801MPD2    H111803   1.537   3.275  14.846  1.6607 -0.4869  0.5194
  801MPD2    H211804   1.866   3.144  14.629  0.0197  1.0633  2.7234
  801MPD2    H311805   1.759   3.171  14.824  1.3687 -1.7545 -1.0987
  801MPD2     N11806   1.385   3.345  14.658  1.0508  0.2457  0.4761
  801MPD2    H511807   1.349   3.343  14.753  1.5533  1.6518  0.6840
  801MPD2    N111808   1.769   3.235  14.380  0.6280 -0.2415 -0.2953
  801MPD2    H711809   1.705   3.251  14.303 -1.1404 -0.9109  1.0364
  802MPD2     C11810   1.744   3.174  17.408  0.8378  0.4723  0.3480
  802MPD2    C111811   1.778   3.300  17.351  0.2056 -0.5369 -0.1100
  802MPD2    C211812   1.858   3.300  17.240 -0.1010 -0.2301 -0.2448
  802MPD2    C311813   1.897   3.184  17.179  0.5079 -0.9816  0.4060
  802MPD2    C411814   1.860   3.063  17.236 -0.1107 -0.5312 -0.0078
  802MPD2    C511815   1.772   3.058  17.339  0.3044 -0.2813  0.1051
  802MPD2     H11816   1.892   3.392  17.196 -0.7631 -0.3614 -1.0187
  802MPD2    H111817   1.904   2.971  17.200 -0.5265 -0.0173 -1.8157
  802MPD2    H211818   1.656   3.165  17.472 -0.4782 -1.0736 -1.6523
  802MPD2    H311819   1.728   2.963  17.368  1.0845 -0.1748  1.6063
  802MPD2     N11820   1.958   3.194  17.055 -0.2344  0.5194  0.7897
  802MPD2    H511821   1.947   3.282  17.005  1.7285 -0.4448 -1.3423
  802MPD2    N111822   1.755   3.430  17.403  0.2190 -0.0204  0.0337
  802MPD2    H711823   1.796   3.509  17.353  0.7882 -0.0672  0.4181
  803MPD2     C11824   2.713   2.523  11.764  0.3514 -0.3967 -0.0287
  803MPD2    C111825   2.800   2.468  11.854 -0.0223 -0.0559 -1.0790
  803MPD2    C211826   2.764   2.373  11.942 -0.2199  0.1389  1.3245
  803MPD2    C311827   2.635   2.333  11.944  0.6112  0.0732  0.2133
  803MPD2    C411828   2.553   2.376  11.839 -0.3850 -0.7676  0.5243
  803MPD2    C511829   2.588   2.473  11.754 -0.7264 -0.1852 -0.1083
  803MPD2     H11830   2.840   2.344  12.014  0.0592 -1.4571  0.3871
  803MPD2    H111831   2.451   2.343  11.826 -1.6609  2.8712  1.1167
  803MPD2    H211832   2.744   2.610  11.706  1.4698 -1.9121 -1.7090
  803MPD2    H311833   2.512   2.504  11.683 -0.7518 -0.8329 -0.3547
  803MPD2     N11834   2.576   2.239  12.031 -0.1965  0.4394  0.6291
  803MPD2    H511835   2.478   2.219  12.012  0.2925 -1.7282  0.4092
  803MPD2    N111836   2.930   2.505  11.868 -0.8462 -0.0791 -0.9716
  803MPD2    H711837   2.985   2.468  11.945  0.1512  2.1872 -0.5980
  804MPD2     C11838   2.218   4.136  16.942 -0.4602 -0.1387  0.1792
  804MPD2    C111839   2.303   4.125  17.050 -0.1244  0.0318 -0.0033
  804MPD2    C211840   2.369   4.238  17.108 -0.4487 -0.7033  0.1635
  804MPD2    C311841   2.346   4.360  17.045 -0.2458 -0.5365  0.5920
  804MPD2    C411842   2.275   4.370  16.931  0.0955 -0.1180  0.2393
  804MPD2    C511843   2.213   4.253  16.875 -0.2114  0.5083  0.5181
  804MPD2     H11844   2.424   4.228  17.200  0.2887  1.8879 -0.0103
  804MPD2    H111845   2.250   4.464  16.882 -0.5580 -0.6128 -0.3884
  804MPD2    H211846   2.164   4.055  16.895 -2.0656 -0.9499  3.4258
  804MPD2    H311847   2.155   4.257  16.783  1.6311 -1.3037 -0.7170
  804MPD2     N11848   2.413   4.473  17.100  0.2360  0.0261 -0.4491
  804MPD2    H511849   2.490   4.457  17.164  0.5868  2.0932 -0.3514
  804MPD2    N111850   2.314   3.996  17.115 -0.6183  0.4706  0.2302
  804MPD2    H711851   2.341   4.008  17.212 -2.0202  1.6214  0.4713
  805MPD2     C11852   1.252   2.489  15.800  0.1532 -0.3686 -1.6200
  805MPD2    C111853   1.366   2.521  15.724 -0.0465 -0.4390  0.5630
  805MPD2    C211854   1.485   2.556  15.792  0.0916  0.9443  0.4363
  805MPD2    C311855   1.490   2.583  15.925 -0.2696 -0.4465  0.1297
  805MPD2    C411856   1.368   2.568  15.988 -1.0828 -0.5621  0.2395
  805MPD2    C511857   1.257   2.520  15.931  0.3726 -0.3826  0.1093
  805MPD2     H11858   1.574   2.572  15.732  0.2720 -0.7158  0.2745
  805MPD2    H111859   1.361   2.590  16.094  1.6882 -2.1403  0.7506
  805MPD2    H211860   1.155   2.459  15.762 -0.6398  0.3575 -0.1760
  805MPD2    H311861   1.177   2.497  15.999 -0.7501  1.2033 -0.6723
  805MPD2     N11862   1.613   2.617  15.989 -0.0947  0.8229 -0.2396
  805MPD2    H511863   1.692   2.629  15.927 -0.8295 -0.4742 -1.4383
  805MPD2    N111864   1.368   2.535  15.582 -0.6726 -0.6391  0.4179
  805MPD2    H711865   1.450   2.586  15.552 -0.8849  0.4027  1.6095
  806MPD2     C11866   2.555   2.135   0.940 -0.1027  0.0927  0.6160
  806MPD2    C111867   2.676   2.092   0.901 -0.2568 -0.5350  0.1726
  806MPD2    C211868   2.717   2.118   0.769  0.2883  0.7846 -0.2730
  806MPD2    C311869   2.629   2.151   0.671  0.3174 -0.9899 -0.2418
  806MPD2    C411870   2.504   2.182   0.715 -0.4923 -0.3303  0.3169
  806MPD2    C511871   2.469   2.180   0.845  0.0475 -0.4581 -0.7870
  806MPD2     H11872   2.821   2.100   0.744  0.4922 -0.4585  1.5355
  806MPD2    H111873   2.431   2.218   0.643  0.7823 -1.3135 -1.4791
  806MPD2    H211874   2.526   2.149   1.043  0.0075 -1.6554  0.8865
  806MPD2    H311875   2.366   2.200   0.872  0.1033 -1.3482  0.0704
  806MPD2     N11876   2.662   2.156   0.538 -0.0140  0.5223  0.1213
  806MPD2    H511877   2.594   2.194   0.472 -0.6715  1.6172  1.4372
  806MPD2    N111878   2.754   2.054   1.011 -0.0516  0.8512 -0.4287
  806MPD2    H711879   2.721   2.082   1.103 -0.4536  0.1592 -0.3681
  807MPD2     C11880   2.871   1.468   1.491  0.0805  0.1550 -0.4330
  807MPD2    C111881   2.799   1.547   1.398 -0.6876 -0.1204  0.6268
  807MPD2    C211882   2.681   1.493   1.347  0.8108  0.2643  0.5023
  807MPD2    C311883   2.647   1.362   1.387 -0.8210 -1.3214  0.4451
  807MPD2    C411884   2.722   1.283   1.471 -0.2228 -0.0289 -0.0749
  807MPD2    C511885   2.835   1.333   1.523  0.6237  0.0666  0.5787
  807MPD2     H11886   2.620   1.546   1.276  0.5001 -1.3024 -0.3953
  807MPD2    H111887   2.695   1.179   1.487 -0.2022  0.3111  2.1376
  807MPD2    H211888   2.967   1.494   1.535 -0.9901  1.0265  1.3679
  807MPD2    H311889   2.904   1.273   1.580  2.1168  0.2300 -1.0845
  807MPD2     N11890   2.527   1.315   1.321  0.4670  0.0934  0.0207
  807MPD2    H511891   2.471   1.384   1.272 -0.3863  0.5423  1.6221
  807MPD2    N111892   2.849   1.680   1.351  0.1373 -0.2312  0.1130
  807MPD2    H711893   2.794   1.721   1.277 -0.2187 -0.3267  0.3241
  808MPD2     C11894   1.876   3.411   9.038  0.5210  0.3538  0.4598
  808MPD2    C111895   1.968   3.397   9.137 -0.6536  0.2508  0.3523
  808MPD2    C211896   2.078   3.482   9.137 -0.0356 -0.3826  0.3970
  808MPD2    C311897   2.106   3.573   9.033  0.5096  0.3647  0.1640
  808MPD2    C411898   2.022   3.576   8.928  0.9528 -0.6422  0.1849
  808MPD2    C511899   1.906   3.492   8.933  0.1904 -0.1615 -0.3412
  808MPD2     H11900   2.150   3.471   9.217 -0.0122 -0.9988  0.2903
  808MPD2    H111901   2.045   3.627   8.835 -1.3026  0.2810  0.1300
  808MPD2    H211902   1.789   3.347   9.035  0.6592  0.0925  2.0701
  808MPD2    H311903   1.839   3.495   8.848 -0.0198  0.7356 -0.1386
  808MPD2     N11904   2.228   3.648   9.035  0.4407  0.0568 -0.0592
  808MPD2    H511905   2.235   3.714   8.958 -0.3977  0.8510  0.5519
  808MPD2    N111906   1.953   3.311   9.247  0.3881 -0.4189 -0.5419
  808MPD2    H711907   2.020   3.325   9.321  0.7031  0.3234 -0.9670
  809MPD2     C11908   3.160   3.762   8.624  0.1542 -0.7954  0.0987
  809MPD2    C111909   3.185   3.822   8.749  0.4413  0.0762  0.0189
  809MPD2    C211910   3.079   3.847   8.834  0.0828 -0.4331 -0.1023
  809MPD2    C311911   2.953   3.799   8.803 -0.9431  0.1820 -0.3643
  809MPD2    C411912   2.929   3.743   8.675 -0.5486  0.2393  0.1545
  809MPD2    C511913   3.037   3.722   8.590 -0.6477 -0.6941 -0.7735
  809MPD2     H11914   3.094   3.886   8.934 -0.0096  0.6312 -0.5036
  809MPD2    H111915   2.833   3.706   8.639  1.1837 -2.3872 -1.7662
  809MPD2    H211916   3.234   3.751   8.546  1.2226 -2.2509  1.3177
  809MPD2    H311917   3.027   3.667   8.497  1.8979 -1.6095 -0.5161
  809MPD2     N11918   2.845   3.800   8.897 -0.5541 -0.2207  0.2571
  809MPD2    H511919   2.863   3.858   8.978  0.1672  1.6232 -1.2006
  809MPD2    N111920   3.312   3.872   8.790 -0.3228 -0.2853  0.4327
  809MPD2    H711921   3.311   3.914   8.882 -0.4216 -0.4292  0.4978
  810MPD2     C11922   1.985   3.009  10.140  0.4631 -0.2834 -0.1526
  810MPD2    C111923   1.914   2.983  10.259 -0.5642  0.7930  0.1661
  810MPD2    C211924   1.925   3.066  10.363 -0.2051 -0.1712  0.1285
  810MPD2    C311925   2.010   3.170  10.356 -0.1903 -0.0536  0.4222
  810MPD2    C411926   2.075   3.201  10.239 -0.1175  0.0305  1.0974
  810MPD2    C511927   2.070   3.115  10.136 -0.2773 -1.0341  0.3548
  810MPD2     H11928   1.884   3.044  10.461 -0.7779 -1.0030 -0.2958
  810MPD2    H111929   2.142   3.286  10.232 -2.7540  2.0772  0.8282
  810MPD2    H211930   1.980   2.935  10.062 -0.1857 -0.1184 -0.2661
  810MPD2    H311931   2.134   3.133  10.051 -0.0943  0.6853  0.8436
  810MPD2     N11932   2.051   3.248  10.470 -0.3247  0.1451  0.4454
  810MPD2    H511933   2.137   3.302  10.464 -1.2765  1.4905 -0.9687
  810MPD2    N111934   1.823   2.870  10.256  0.1413  0.0906 -0.2426
  810MPD2    H711935   1.806   2.816  10.172 -0.6786 -1.5051  0.9471
  811MPD2     C11936   1.034   2.733   9.952 -0.2928 -0.4152 -0.2445
  811MPD2    C111937   1.151   2.795   9.986 -0.3228 -0.0230  0.0005
  811MPD2    C211938   1.135   2.937   9.990 -0.2645  0.3655 -0.1719
  811MPD2    C311939   1.022   3.003   9.939 -0.1943 -0.5930  0.1650
  811MPD2    C411940   0.921   2.935   9.883 -0.0356 -0.6750  0.2607
  811MPD2    C511941   0.925   2.799   9.908 -0.8599 -0.3016  0.4104
  811MPD2     H11942   1.217   2.992  10.035  0.8779 -2.1579  0.8590
  811MPD2    H111943   0.827   2.975   9.846 -1.2542 -1.8418  2.1146
  811MPD2    H211944   1.032   2.624   9.952  1.8305 -0.4649  0.7812
  811MPD2    H311945   0.842   2.742   9.867 -1.2124 -0.0356  0.7508
  811MPD2     N11946   1.025   3.142   9.943 -0.3845 -0.2014  0.2361
  811MPD2    H511947   1.103   3.190   9.985  0.4622 -1.5793  0.2158
  811MPD2    N111948   1.266   2.728  10.033  0.7176  0.3724  0.3495
  811MPD2    H711949   1.260   2.627  10.036  3.0529  0.1884 -0.9976
  812MPD2     C11950   0.730   2.227  12.043  0.0017  0.9211  0.0217
  812MPD2    C111951   0.684   2.296  12.153  0.7812  0.1476 -0.2358
  812MPD2    C211952   0.638   2.223  12.260  0.0027  0.5816 -0.8144
  812MPD2    C311953   0.655   2.085  12.266 -0.6298 -0.2178 -0.4679
  812MPD2    C411954   0.703   2.014  12.154  0.5937 -0.0608  0.0169
  812MPD2    C511955   0.746   2.088  12.050 -0.4674  0.3941 -0.4335
  812MPD2     H11956   0.595   2.277  12.344 -1.1515  0.3448 -1.2604
  812MPD2    H111957   0.732   1.910  12.146 -1.6703 -0.9204  2.8515
  812MPD2    H211958   0.759   2.279  11.952 -1.1569  0.1035 -0.8156
  812MPD2    H311959   0.777   2.033  11.962 -2.4257  0.0787 -0.9207
  812MPD2     N11960   0.629   2.024  12.386 -0.9107  0.5160 -0.2113
  812MPD2    H511961   0.614   2.082  12.468  0.0664 -0.5637  0.7303
  812MPD2    N111962   0.665   2.441  12.140 -0.6509  0.3284  0.5786
  812MPD2    H711963   0.699   2.473  12.050 -1.2883  2.9176  1.2385
  813MPD2     C11964   0.068   4.262  12.404 -0.2472  0.7677 -1.0018
  813MPD2    C111965   0.071   4.372  12.485  0.0541 -0.3618  0.6008
  813MPD2    C211966   4.727   4.367  12.604 -0.0675  0.2653 -0.5044
  813MPD2    C311967   4.646   4.257  12.632 -0.3630  0.1449 -0.9777
  813MPD2    C411968   4.639   4.148  12.541  0.4032 -0.0367  0.1218
  813MPD2    C511969   4.720   4.149  12.433 -0.0517 -0.0224  0.6674
  813MPD2     H11970   4.717   4.444  12.679  2.6900  1.7770 -1.7222
  813MPD2    H111971   4.565   4.070  12.554  0.1976  0.0048 -0.8239
  813MPD2    H211972   0.116   4.269  12.307  1.3964 -2.3012 -0.4254
  813MPD2    H311973   4.716   4.066  12.363 -0.4672  0.1535  0.4828
  813MPD2     N11974   4.581   4.255  12.755 -0.3444 -0.2233 -0.0002
  813MPD2    H511975   4.586   4.343  12.807 -1.8883 -0.3195  0.3237
  813MPD2    N111976   0.147   4.492  12.458 -0.1845  0.8411 -0.8448
  813MPD2    H711977   0.136   4.569  12.523  1.3629  1.2111 -1.0240
  814MPD2     C11978   0.152   0.573  12.065  0.2041  0.6693 -0.7592
  814MPD2    C111979   0.154   0.667  11.964  0.3161  0.0957 -0.5870
  814MPD2    C211980   0.180   0.801  11.997 -0.1673 -0.6978  0.0174
  814MPD2    C311981   0.202   0.847  12.131  0.2755 -0.3433 -0.3428
  814MPD2    C411982   0.199   0.748  12.233  0.3301  0.0087  0.0795
  814MPD2    C511983   0.171   0.617  12.199  0.2493 -0.6438 -0.2658
  814MPD2     H11984   0.191   0.866  11.911  0.8956  1.0351  1.4660
  814MPD2    H111985   0.224   0.779  12.334  1.5877  1.5227 -0.6861
  814MPD2    H211986   0.140   0.466  12.054 -0.4519  0.5837  0.7645
  814MPD2    H311987   0.166   0.552  12.286 -0.3334  0.5893  0.6149
  814MPD2     N11988   0.257   0.975  12.166 -0.1363 -0.5901  0.9562
  814MPD2    H511989   0.288   0.989  12.262  0.8929  1.1119  0.3621
  814MPD2    N111990   0.149   0.620  11.829  0.0904  0.4329 -0.2893
  814MPD2    H711991   0.160   0.685  11.752 -2.0826 -0.4377 -1.3106
  815MPD2     C11992   0.271   4.267  11.804 -0.0914  0.4464 -0.1990
  815MPD2    C111993   0.295   4.131  11.808  0.4714  0.9330 -0.6684
  815MPD2    C211994   0.207   4.035  11.865 -0.0888  0.1456 -0.1097
  815MPD2    C311995   0.089   4.085  11.925  0.3507 -0.5279 -0.5698
  815MPD2    C411996   0.057   4.217  11.910 -0.2170  0.1786  0.3212
  815MPD2    C511997   0.152   4.306  11.858 -0.2935  0.4249  0.3154
  815MPD2     H11998   0.218   3.928  11.855 -1.1826 -0.1559  1.9569
  815MPD2    H111999   4.689   4.261  11.940 -1.7954 -2.1453 -1.2513
  815MPD2    H212000   0.337   4.335  11.751  1.4220 -1.7359 -1.1103
  815MPD2    H312001   0.131   4.412  11.868  1.6247  0.8661 -0.3983
  815MPD2     N12002   4.713   3.995  11.975  0.0384  0.3677 -0.0202
  815MPD2    H512003   4.617   4.025  11.980 -0.4004 -1.2846  1.4328
  815MPD2    N112004   0.406   4.093  11.732  0.0560  0.2803  0.5216
  815MPD2    H712005   0.466   4.168  11.698 -0.8365  0.1638 -1.2785
  816MPD2     C12006   0.356   3.282  17.437 -0.4271  0.6843 -0.1466
  816MPD2    C112007   0.465   3.363  17.425  0.2421 -0.4370 -0.4499
  816MPD2    C212008   0.570   3.319  17.348 -0.4876 -0.0460  0.4411
  816MPD2    C312009   0.578   3.191  17.296 -0.0576 -0.9442 -0.2457
  816MPD2    C412010   0.462   3.114  17.312  0.4405  0.1960  0.6433
  816MPD2    C512011   0.355   3.157  17.385  0.6467 -0.0244  0.0785
  816MPD2     H12012   0.660   3.380  17.343  0.5235 -1.7021 -1.0772
  816MPD2    H112013   0.447   3.014  17.271 -0.9168  0.1720  1.1980
  816MPD2    H212014   0.272   3.321  17.493 -1.7527 -0.6305 -1.1992
  816MPD2    H312015   0.265   3.100  17.402  0.7463 -0.2528 -0.1782
  816MPD2     N12016   0.686   3.155  17.221 -0.0116 -0.0791  0.0502
  816MPD2    H512017   0.757   3.228  17.218  0.0276 -0.1963 -2.2908
  816MPD2    N112018   0.459   3.487  17.490  0.2275  0.4461  0.5840
  816MPD2    H712019   0.368   3.519  17.521 -0.3963  1.4033 -2.2298
  817MPD2     C12020   4.711   0.321   9.804  0.1073 -0.1871 -0.4769
  817MPD2    C112021   4.675   0.252   9.695  0.0437 -1.3046  0.1411
  817MPD2    C212022   4.579   0.312   9.616  0.0720  0.4290  0.3750
  817MPD2    C312023   4.516   0.429   9.645  0.1006  0.7730 -0.1742
  817MPD2    C412024   4.557   0.490   9.757  0.2630 -0.5317 -1.0999
  817MPD2    C512025   4.656   0.440   9.834 -0.1939 -0.0611  0.3049
  817MPD2     H12026   4.543   0.256   9.531  0.9867 -2.3975  1.8328
  817MPD2    H112027   4.509   0.582   9.788 -1.0456 -2.5029  2.6999
  817MPD2    H212028   0.061   0.287   9.873 -0.9590  1.2870  1.4399
  817MPD2    H312029   4.682   0.492   9.925  3.1035  2.0365 -1.8390
  817MPD2     N12030   4.397   0.474   9.576  0.0807 -0.3511  0.6824
  817MPD2    H512031   4.356   0.403   9.516 -2.3032  1.1178  0.5810
  817MPD2    N112032   0.003   0.123   9.660  0.6824  0.1024 -0.4409
  817MPD2    H712033   4.717   0.075   9.572 -0.0189 -0.8574  0.1910
  818MPD2     C12034   2.881   4.387   9.944 -0.4096 -0.3638  0.8708
  818MPD2    C112035   2.911   4.416  10.074 -0.4010 -0.1469 -0.3332
  818MPD2    C212036   2.963   4.316  10.154 -0.0046  0.5529  0.2101
  818MPD2    C312037   2.989   4.195  10.100 -0.5482  0.3845  0.0004
  818MPD2    C412038   2.958   4.163   9.973  0.1892 -0.9141 -0.0676
  818MPD2    C512039   2.893   4.257   9.899  0.0158  0.3938  0.2135
  818MPD2     H12040   2.989   4.346  10.254  0.7123 -0.0712  0.2123
  818MPD2    H112041   2.983   4.071   9.923  2.3202 -1.6009  2.2689
  818MPD2    H212042   2.836   4.463   9.881  0.8912 -1.8320 -1.8125
  818MPD2    H312043   2.883   4.242   9.792  4.2347 -2.0206  0.1384
  818MPD2     N12044   3.062   4.108  10.179  0.0666 -0.1038  0.0250
  818MPD2    H512045   3.099   4.149  10.264  0.0183 -1.0928  0.5075
  818MPD2    N112046   2.875   4.540  10.141 -0.4329 -0.6281  0.4334
  818MPD2    H712047   2.899   4.555  10.239 -0.8111 -1.9113  0.7277
  819MPD2     C12048   2.146   2.004  15.680  0.3427  1.2079 -0.2835
  819MPD2    C112049   2.178   1.889  15.607 -0.5163 -0.6482  0.2904
  819MPD2    C212050   2.310   1.856  15.606 -0.2557 -0.0907  0.2363
  819MPD2    C312051   2.410   1.922  15.684 -0.3478  0.0163  0.0384
  819MPD2    C412052   2.371   2.027  15.755 -0.1295  0.6881 -0.2255
  819MPD2    C512053   2.242   2.070  15.752 -0.9162 -0.3026  0.7943
  819MPD2     H12054   2.333   1.764  15.555  1.0568  0.4860 -0.2319
  819MPD2    H112055   2.435   2.101  15.802 -0.1695 -0.0418  0.9637
  819MPD2    H212056   2.046   2.045  15.683  0.0556  0.3572  1.6340
  819MPD2    H312057   2.225   2.160  15.809 -0.2288 -1.5674  3.0107
  819MPD2     N12058   2.545   1.885  15.676  0.0780 -0.3458  0.6332
  819MPD2    H512059   2.571   1.827  15.597 -0.0395 -0.1961  0.4826
  819MPD2    N112060   2.071   1.827  15.532 -0.2788 -1.0775  0.0170
  819MPD2    H712061   1.977   1.862  15.543  0.6705  1.3312  0.6681
  820MPD2     C12062   1.187   1.966  15.110  0.2325  0.0650  0.2870
  820MPD2    C112063   1.297   2.036  15.150 -0.5087 -0.7224 -0.7454
  820MPD2    C212064   1.418   1.966  15.174 -0.5628  0.3644 -0.0620
  820MPD2    C312065   1.422   1.828  15.169 -0.0356  0.2162 -0.8049
  820MPD2    C412066   1.308   1.759  15.146  0.1665 -0.3981  0.0586
  820MPD2    C512067   1.194   1.828  15.113  0.2706  0.3976  0.5731
  820MPD2     H12068   1.508   2.024  15.191  0.7626 -2.4700  2.6115
  820MPD2    H112069   1.310   1.652  15.162  2.8202 -0.3528 -0.0474
  820MPD2    H212070   1.094   2.011  15.079  1.2526  1.1073 -1.2960
  820MPD2    H312071   1.109   1.764  15.093  0.0873  0.4699  1.1084
  820MPD2     N12072   1.537   1.755  15.200  0.3883  0.3091  0.4252
  820MPD2    H512073   1.539   1.655  15.184 -2.8093  0.5736 -1.6077
  820MPD2    N112074   1.285   2.179  15.151 -0.5241 -1.1346 -0.1660
  820MPD2    H712075   1.199   2.214  15.111  0.2842 -0.2981 -1.1655
  821MPD2     C12076   1.740   3.252  12.764 -0.3966  0.3668  0.1186
  821MPD2    C112077   1.822   3.220  12.871 -0.3135  0.5720 -1.0170
  821MPD2    C212078   1.945   3.288  12.881 -0.7854 -0.4002  0.2542
  821MPD2    C312079   1.994   3.379  12.790  0.3500  0.0601 -0.6421
  821MPD2    C412080   1.916   3.399  12.682  0.4983  0.2427 -0.3958
  821MPD2    C512081   1.788   3.340  12.672  0.1613 -0.6103 -0.2423
  821MPD2     H12082   2.006   3.251  12.963  0.9488 -0.5983 -1.1159
  821MPD2    H112083   1.957   3.467  12.608 -2.0829  2.3709  0.1172
  821MPD2    H212084   1.645   3.203  12.749 -0.6357  0.0521  2.5587
  821MPD2    H312085   1.719   3.380  12.599 -0.7144 -0.6139  0.5888
  821MPD2     N12086   2.124   3.443  12.799 -0.4548  0.3666 -0.6445
  821MPD2    H512087   2.165   3.475  12.711 -0.4288  1.1707 -0.3444
  821MPD2    N112088   1.801   3.118  12.966  0.0911  0.0597  0.3893
  821MPD2    H712089   1.883   3.082  13.013  0.4996  2.2703  1.3688
  822MPD2     C12090   2.924   3.393  15.653  0.4418  0.5256 -0.0839
  822MPD2    C112091   2.960   3.350  15.778 -0.2742  0.6013 -0.6431
  822MPD2    C212092   2.919   3.422  15.883  0.3220 -0.9266 -0.3191
  822MPD2    C312093   2.850   3.539  15.867 -0.1540 -0.3738 -0.0943
  822MPD2    C412094   2.807   3.575  15.743 -1.0626  0.7852  0.1236
  822MPD2    C512095   2.833   3.494  15.634 -0.3228 -0.6432 -0.0134
  822MPD2     H12096   2.955   3.390  15.980  0.9868  0.9837  0.0693
  822MPD2    H112097   2.735   3.654  15.725 -0.2736  1.5695  0.4361
  822MPD2    H212098   2.958   3.346  15.561  1.3300  1.7445 -0.3751
  822MPD2    H312099   2.807   3.532  15.536  0.2898  0.5350  0.2896
  822MPD2     N12100   2.811   3.618  15.978  0.1673  0.0451  0.2434
  822MPD2    H512101   2.826   3.577  16.070 -1.1367 -0.1645  0.3638
  822MPD2    N112102   3.060   3.245  15.808 -0.1453  0.3241  0.4034
  822MPD2    H712103   3.099   3.236  15.902 -0.1516 -1.0242  0.2782
  823MPD2     C12104   2.579   3.748  16.779 -0.1518 -0.7461 -0.1370
  823MPD2    C112105   2.621   3.675  16.674  0.1345  1.4889 -0.1671
  823MPD2    C212106   2.700   3.562  16.697 -0.6163  0.4960 -0.6331
  823MPD2    C312107   2.713   3.511  16.827  0.9402 -0.0625  0.1505
  823MPD2    C412108   2.668   3.590  16.936 -0.1756  0.2074 -0.3110
  823MPD2    C512109   2.612   3.710  16.911  0.2059 -0.5471 -0.6420
  823MPD2     H12110   2.755   3.520  16.613 -1.9799 -1.0486 -0.7559
  823MPD2    H112111   2.681   3.561  17.040 -1.4821 -2.8897 -0.9986
  823MPD2    H212112   2.539   3.847  16.761  0.7166 -0.0189  1.8657
  823MPD2    H312113   2.576   3.776  16.988  2.8610  0.9975 -0.7085
  823MPD2     N12114   2.788   3.402  16.865 -0.3290 -0.2364 -0.5001
  823MPD2    H512115   2.782   3.366  16.959 -3.1885 -0.6958 -0.8845
  823MPD2    N112116   2.598   3.732  16.541 -0.3005 -0.1321  0.8156
  823MPD2    H712117   2.560   3.826  16.536  0.3226 -0.0572 -2.1169
  824MPD2     C12118   3.403   2.419  15.792 -0.0449  0.0546 -0.2932
  824MPD2    C112119   3.471   2.522  15.735 -0.7347 -0.3149 -0.1140
  824MPD2    C212120   3.583   2.490  15.656  0.5095  0.0791 -0.2751
  824MPD2    C312121   3.627   2.363  15.640  0.3283 -0.1949  0.0831
  824MPD2    C412122   3.552   2.265  15.702 -0.1018  0.0788 -0.0294
  824MPD2    C512123   3.445   2.290  15.777 -0.1764  0.3315  0.4301
  824MPD2     H12124   3.644   2.572  15.618  0.1732 -0.2559 -1.5228
  824MPD2    H112125   3.566   2.158  15.685 -0.1128  0.0240  0.3011
  824MPD2    H212126   3.324   2.439  15.864 -0.0713 -0.7478 -0.0980
  824MPD2    H312127   3.394   2.213  15.835  0.8702 -1.1733 -0.6418
  824MPD2     N12128   3.744   2.342  15.575  0.1987 -0.2634 -0.0893
  824MPD2    H512129   3.802   2.420  15.544 -0.8915  0.3186 -0.6811
  824MPD2    N112130   3.427   2.655  15.752  0.7152  0.3614 -0.3465
  824MPD2    H712131   3.491   2.731  15.734  2.3566 -0.3095  2.5183
  825MPD2     C12132   4.309   2.423  14.950 -0.3267  0.3472 -0.0013
  825MPD2    C112133   4.220   2.468  15.045 -0.5798  0.0339  0.0872
  825MPD2    C212134   4.168   2.599  15.021 -0.1586 -0.0356 -0.0640
  825MPD2    C312135   4.194   2.676  14.907 -0.1928  0.5379 -0.5506
  825MPD2    C412136   4.290   2.633  14.826 -0.0208  0.2302 -0.0615
  825MPD2    C512137   4.343   2.508  14.845 -0.8404  0.3689  0.8784
  825MPD2     H12138   4.090   2.630  15.090 -0.3405 -0.4244 -0.0907
  825MPD2    H112139   4.317   2.683  14.733  0.3897 -2.5399 -1.4330
  825MPD2    H212140   4.348   2.322  14.956 -0.8588  0.1925  0.7983
  825MPD2    H312141   4.404   2.468  14.765 -1.9248  1.5230 -0.5313
  825MPD2     N12142   4.107   2.777  14.857 -0.2890 -0.9647 -0.3888
  825MPD2    H512143   4.145   2.822  14.774 -1.5901  0.6839 -0.0934
  825MPD2    N112144   4.177   2.381  15.147  0.3600  0.0820 -0.1108
  825MPD2    H712145   4.208   2.285  15.144 -1.3740 -0.4661 -0.7381
  826MPD2     C12146   3.363   1.882  13.192 -0.0039  0.5257 -0.1723
  826MPD2    C112147   3.367   1.995  13.270 -0.0354  0.7859 -0.4497
  826MPD2    C212148   3.248   2.054  13.312 -0.4322  0.6633  0.1966
  826MPD2    C312149   3.127   1.989  13.290 -0.1273  0.6762  0.0909
  826MPD2    C412150   3.119   1.867  13.224  0.1881 -0.7025  0.3023
  826MPD2    C512151   3.239   1.820  13.171  0.5285 -0.9238  0.0171
  826MPD2     H12152   3.259   2.138  13.380  0.5670  0.5250  0.2090
  826MPD2    H112153   3.026   1.821  13.193  0.1204 -0.0830 -0.4261
  826MPD2    H212154   3.455   1.838  13.154  0.6263  2.2308 -0.6668
  826MPD2    H312155   3.235   1.725  13.119  0.2301  0.5982 -2.7132
  826MPD2     N12156   3.018   2.055  13.335  0.0790 -0.9378 -0.4495
  826MPD2    H512157   2.926   2.011  13.335 -0.4533  0.1712 -0.0125
  826MPD2    N112158   3.491   2.053  13.294 -0.2882  0.2852  0.1048
  826MPD2    H712159   3.573   2.002  13.265  0.4686  0.9894  1.0124
  827MPD2     C12160   4.546   3.989   9.812  0.3322  0.8041 -0.3994
  827MPD2    C112161   4.504   3.864   9.862  0.4468 -0.2952 -0.5327
  827MPD2    C212162   4.374   3.819   9.832 -0.5809 -0.1160 -0.3915
  827MPD2    C312163   4.285   3.902   9.766  0.1405  0.1002  0.1690
  827MPD2    C412164   4.334   4.017   9.709 -0.5809 -0.3533 -0.0468
  827MPD2    C512165   4.459   4.061   9.731 -0.2703 -0.5411  0.2653
  827MPD2     H12166   4.331   3.726   9.867 -0.6123 -0.5333 -1.5432
  827MPD2    H112167   4.268   4.074   9.645  0.2505 -1.3144 -1.7429
  827MPD2    H212168   4.647   4.026   9.827 -0.2280  1.6668  1.1595
  827MPD2    H312169   4.489   4.159   9.696 -1.3430 -0.0238  0.8237
  827MPD2     N12170   4.156   3.861   9.759 -0.1189 -0.1130 -0.1881
  827MPD2    H512171   4.139   3.763   9.782  1.1183  0.3094  2.4695
  827MPD2    N112172   4.589   3.792   9.944 -0.3498 -0.4712 -0.2229
  827MPD2    H712173   4.683   3.826   9.964 -0.0072 -1.4763 -0.1159
  828MPD2     C12174   2.519   3.305  12.625  0.2585  0.0060 -0.9797
  828MPD2    C112175   2.541   3.361  12.501  0.0589  0.0323  0.4856
  828MPD2    C212176   2.670   3.376  12.452  0.2743 -0.0905  0.0366
  828MPD2    C312177   2.780   3.328  12.529 -0.1076  0.4754  0.8213
  828MPD2    C412178   2.752   3.272  12.650  0.5140 -0.0154 -0.1430
  828MPD2    C512179   2.625   3.265  12.692  0.4399 -0.1308 -0.1665
  828MPD2     H12180   2.680   3.411  12.350  0.7593  0.2004  0.1876
  828MPD2    H112181   2.826   3.239  12.722  0.4068 -1.2000 -0.5789
  828MPD2    H212182   2.426   3.266  12.666  0.9999 -0.7458 -0.0135
  828MPD2    H312183   2.602   3.225  12.790  1.5231  0.4022  0.3099
  828MPD2     N12184   2.913   3.337  12.486  0.3209 -0.1986 -0.3834
  828MPD2    H512185   2.987   3.306  12.549 -0.9899 -0.0243  1.2374
  828MPD2    N112186   2.443   3.418  12.422  0.1424  0.9709 -0.6311
  828MPD2    H712187   2.463   3.454  12.330 -1.6907  4.2896  0.2781
  829MPD2     C12188   2.637   3.938  11.827 -0.5982 -0.6418  0.4024
  829MPD2    C112189   2.504   3.981  11.840  0.6124 -0.3899  0.5614
  829MPD2    C212190   2.411   3.898  11.906  0.1475 -0.0730 -0.8652
  829MPD2    C312191   2.455   3.775  11.956  0.0457 -0.3018  0.3637
  829MPD2    C412192   2.587   3.737  11.938 -0.0239  0.3236 -0.6490
  829MPD2    C512193   2.674   3.817  11.873  0.5429  0.0899 -0.3678
  829MPD2     H12194   2.306   3.924  11.910  0.1769  0.3554 -3.2699
  829MPD2    H112195   2.622   3.640  11.970 -2.2945 -0.1996  0.2863
  829MPD2    H212196   2.717   3.998  11.785 -2.3926 -0.5877 -2.9431
  829MPD2    H312197   2.779   3.790  11.863  0.5171  0.4021 -1.4686
  829MPD2     N12198   2.373   3.692  12.033 -0.5772  0.5562  0.0381
  829MPD2    H512199   2.424   3.614  12.074  0.8535  1.9531  0.9275
  829MPD2    N112200   2.475   4.099  11.766 -0.2753 -0.3705  0.0461
  829MPD2    H712201   2.552   4.148  11.721 -1.1831  0.3130 -0.7731
  830MPD2     C12202   3.192   1.871  15.165  0.0020  0.6451  0.4435
  830MPD2    C112203   3.106   1.964  15.217  0.5803  0.7803  0.6608
  830MPD2    C212204   3.079   2.086  15.154 -0.9444 -0.4520  0.0422
  830MPD2    C312205   3.146   2.105  15.027  0.1559  0.1896  0.3775
  830MPD2    C412206   3.216   2.004  14.968 -0.8137 -1.0057  0.1774
  830MPD2    C512207   3.246   1.889  15.040 -0.2611 -0.0792  0.2625
  830MPD2     H12208   3.004   2.150  15.199  0.4716  2.3270 -1.5918
  830MPD2    H112209   3.269   2.020  14.874 -2.0251 -2.1636 -0.6909
  830MPD2    H212210   3.217   1.776  15.212  0.8181  0.9988  0.7131
  830MPD2    H312211   3.315   1.812  15.009  0.6128  0.8005  0.0062
  830MPD2     N12212   3.126   2.220  14.946 -0.2927 -0.1431 -0.8062
  830MPD2    H512213   3.158   2.221  14.849  0.2038  1.2558 -0.6245
  830MPD2    N112214   3.051   1.929  15.340 -0.3648  0.6589 -0.2700
  830MPD2    H712215   3.098   1.851  15.385  1.7615  1.2950 -1.3651
  831MPD2     C12216   3.068   3.806  16.343  0.6497 -0.0097 -0.1829
  831MPD2    C112217   3.068   3.717  16.236 -0.1642  0.5209 -0.6773
  831MPD2    C212218   3.009   3.592  16.249  0.2592  0.0906 -0.0926
  831MPD2    C312219   2.970   3.549  16.376 -0.2606  0.1543 -0.7627
  831MPD2    C412220   2.991   3.631  16.484  0.9121  0.8002 -0.0742
  831MPD2    C512221   3.026   3.763  16.464 -0.1714  0.0788  0.7518
  831MPD2     H12222   2.997   3.537  16.156  0.8427 -1.2334  0.6016
  831MPD2    H112223   2.968   3.603  16.586 -2.1024 -0.0672 -0.9936
  831MPD2    H212224   3.101   3.907  16.321  1.1745  0.3731  2.4585
  831MPD2    H312225   3.025   3.825  16.553  0.5544  1.8947 -0.5069
  831MPD2     N12226   2.913   3.421  16.397 -0.3860  0.2861  0.2901
  831MPD2    H512227   2.906   3.378  16.488 -0.2255 -2.0070 -0.7784
  831MPD2    N112228   3.117   3.750  16.107 -0.0866  0.1057  0.2070
  831MPD2    H712229   3.110   3.846  16.074 -0.4949  0.5890  1.7362
  832MPD2     C12230   1.659   4.177  17.492  0.0452  0.4811 -0.4037
  832MPD2    C112231   1.683   4.278  17.395 -0.1419  0.1816 -1.0319
  832MPD2    C212232   1.576   4.313  17.314  0.3045 -0.0545 -0.3979
  832MPD2    C312233   1.450   4.260  17.330  0.3656 -0.0895  0.6835
  832MPD2    C412234   1.434   4.156  17.419 -0.1415 -0.2848 -0.2097
  832MPD2    C512235   1.537   4.120  17.500  0.4450  0.1372 -0.1911
  832MPD2     H12236   1.592   4.407  17.263 -3.5019 -0.4200 -2.2180
  832MPD2    H112237   1.339   4.105  17.427 -2.3388  3.6150 -1.7040
  832MPD2    H212238   1.739   4.137  17.554  0.1066 -0.7573 -1.2693
  832MPD2    H312239   1.517   4.041  17.572  1.9220 -0.9578 -1.0096
  832MPD2     N12240   1.335   4.301  17.255 -0.5587 -0.2900 -0.4790
  832MPD2    H512241   1.252   4.245  17.272  0.1502 -0.7294  1.5724
  832MPD2    N112242   1.816   4.342  17.380 -0.2885 -0.3083  0.3668
  832MPD2    H712243   1.884   4.327  17.454 -0.5762 -0.2752  0.6412
  833MPD2     C12244   3.266   1.073  12.228 -0.3525  0.0513  0.0802
  833MPD2    C112245   3.294   1.208  12.218  0.8448  0.2638 -1.2318
  833MPD2    C212246   3.314   1.264  12.090 -0.0793 -0.9411  0.8452
  833MPD2    C312247   3.315   1.178  11.978  0.3528 -0.4583 -0.5196
  833MPD2    C412248   3.307   1.043  11.995 -0.6078 -1.0854 -0.0047
  833MPD2    C512249   3.282   0.986  12.124  0.5567 -0.6886 -0.0564
  833MPD2     H12250   3.332   1.371  12.083 -1.5134 -0.7012  0.8105
  833MPD2    H112251   3.307   0.978  11.908  0.5412  0.6143 -1.2561
  833MPD2    H212252   3.251   1.045  12.332 -0.5347 -0.4509 -0.0815
  833MPD2    H312253   3.275   0.879  12.138  1.5613 -0.8317 -0.6836
  833MPD2     N12254   3.325   1.240  11.851 -0.2505 -0.2023 -0.1004
  833MPD2    H512255   3.339   1.179  11.770  1.4839 -2.5705  1.9836
  833MPD2    N112256   3.282   1.288  12.336  0.2790  0.7645 -0.3055
  833MPD2    H712257   3.256   1.242  12.423 -1.7349 -1.2380 -1.9545
  834MPD2     C12258   3.548   1.213  11.028 -0.0059  0.1353 -0.1965
  834MPD2    C112259   3.507   1.126  11.129  0.6462  0.0130  0.0462
  834MPD2    C212260   3.530   1.153  11.262  0.2477 -0.3287  0.0750
  834MPD2    C312261   3.590   1.273  11.298  0.2511  0.0808  0.4085
  834MPD2    C412262   3.654   1.343  11.200 -0.0970 -0.4710  0.3587
  834MPD2    C512263   3.623   1.324  11.068 -0.3310 -0.5279  0.2708
  834MPD2     H12264   3.495   1.091  11.343 -1.3159  2.3576  1.4646
  834MPD2    H112265   3.729   1.417  11.227 -1.3180  1.3984 -1.4103
  834MPD2    H212266   3.535   1.196  10.922 -2.0572  0.4128  0.0120
  834MPD2    H312267   3.656   1.395  10.993  1.3603 -2.1070 -0.4962
  834MPD2     N12268   3.586   1.321  11.436 -0.6154  0.0517  0.4699
  834MPD2    H512269   3.530   1.263  11.499  0.4550 -0.1912  1.1938
  834MPD2    N112270   3.432   1.011  11.097 -0.6323  0.0730  0.0814
  834MPD2    H712271   3.406   0.955  11.177 -0.8739  0.0520 -0.0129
  835MPD2     C12272   3.646   3.723  10.884 -0.6400  0.4767  0.1114
  835MPD2    C112273   3.552   3.820  10.931  0.5504  0.2839 -0.4729
  835MPD2    C212274   3.586   3.876  11.056  0.0175  0.3111 -0.6264
  835MPD2    C312275   3.705   3.845  11.120 -0.5954  0.2336 -0.1140
  835MPD2    C412276   3.791   3.760  11.058  0.0132  0.1766  0.7682
  835MPD2    C512277   3.766   3.693  10.943 -0.1823  0.6239  0.6400
  835MPD2     H12278   3.515   3.943  11.103 -0.2072  1.5986 -2.8030
  835MPD2    H112279   3.883   3.741  11.112  0.2466  0.8408  0.5993
  835MPD2    H212280   3.631   3.668  10.792  0.4047  2.0468 -1.0014
  835MPD2    H312281   3.844   3.628  10.904 -2.7685 -0.6114 -2.4212
  835MPD2     N12282   3.745   3.895  11.247 -0.1319 -0.6850  0.3918
  835MPD2    H512283   3.841   3.873  11.272 -0.2001 -0.4655  0.8488
  835MPD2    N112284   3.427   3.853  10.869  0.2559  0.0636  0.1028
  835MPD2    H712285   3.369   3.915  10.926  0.0108  1.0459 -1.2184
  836MPD2     C12286   3.193   4.104  11.455  0.0471  0.6904  0.2283
  836MPD2    C112287   3.257   4.123  11.571 -0.3841 -0.0478  0.1774
  836MPD2    C212288   3.175   4.150  11.691 -0.5684  0.0906  0.0347
  836MPD2    C312289   3.041   4.156  11.682 -0.5185 -0.5122  0.2590
  836MPD2    C412290   2.980   4.138  11.559  0.0059  0.3417 -0.2982
  836MPD2    C512291   3.057   4.112  11.447 -0.5348 -0.1289  1.3124
  836MPD2     H12292   3.224   4.162  11.787 -0.3085 -2.0524  0.1778
  836MPD2    H112293   2.874   4.157  11.556  0.1935  1.3305 -0.6652
  836MPD2    H212294   3.257   4.092  11.369 -0.0778  2.0214 -0.0574
  836MPD2    H312295   2.999   4.081  11.361  0.1924 -0.5310  0.9600
  836MPD2     N12296   2.957   4.197  11.792 -0.1488  0.4588  0.3522
  836MPD2    H512297   2.861   4.224  11.773 -0.3605 -2.5767 -2.8098
  836MPD2    N112298   3.395   4.136  11.573  0.5826 -0.2311 -0.9166
  836MPD2    H712299   3.445   4.136  11.485 -1.4795  0.3466 -2.0944
  837MPD2     C12300   1.459   3.681  10.171  0.4355  0.2986 -0.5712
  837MPD2    C112301   1.394   3.744  10.067  0.5256  0.0232  0.6556
  837MPD2    C212302   1.449   3.863  10.016  0.1970  0.0984  0.2490
  837MPD2    C312303   1.575   3.901  10.055 -0.7145  0.0764 -0.1756
  837MPD2    C412304   1.640   3.844  10.162  0.8358 -0.1897 -1.0013
  837MPD2    C512305   1.579   3.735  10.227 -0.4101 -0.1599 -0.6553
  837MPD2     H12306   1.403   3.904   9.927  0.1391  2.0150  1.1598
  837MPD2    H112307   1.738   3.875  10.197  0.0874 -0.5966  1.4881
  837MPD2    H212308   1.422   3.591  10.219  0.3487 -0.4579 -2.0594
  837MPD2    H312309   1.634   3.688  10.307 -0.5544 -0.4131 -0.7054
  837MPD2     N12310   1.617   4.005   9.970 -0.2446 -0.3797  0.4936
  837MPD2    H512311   1.546   4.038   9.906 -0.1660  0.8378  1.0425
  837MPD2    N112312   1.270   3.701  10.006  0.1328  0.5124 -0.2622
  837MPD2    H712313   1.240   3.763   9.932 -2.7429  1.0659  1.3957
  838MPD2     C12314   4.718   1.387  11.543 -0.5897 -0.4149  0.3298
  838MPD2    C112315   4.643   1.433  11.645  0.2087  0.1193  0.0271
  838MPD2    C212316   4.518   1.382  11.665  0.2706 -1.1717  0.2169
  838MPD2    C312317   4.461   1.300  11.573 -0.3251 -0.4883 -0.4011
  838MPD2    C412318   4.535   1.253  11.466 -0.3322 -0.7777  0.4737
  838MPD2    C512319   4.662   1.295  11.454  0.3531  0.6230 -0.6494
  838MPD2     H12320   4.473   1.396  11.762 -1.8241  0.4131 -0.9935
  838MPD2    H112321   4.499   1.187  11.387  1.3940  0.6263 -1.4798
  838MPD2    H212322   0.089   1.425  11.516  0.6134 -2.8799  1.2386
  838MPD2    H312323   4.724   1.257  11.373  0.7999  2.8113 -1.3375
  838MPD2     N12324   4.328   1.259  11.609  0.6258  0.5538  0.1576
  838MPD2    H512325   4.294   1.278  11.703 -0.7949 -1.4878  0.0710
  838MPD2    N112326   4.694   1.527  11.745 -0.3907  0.3633  0.7184
  838MPD2    H712327   4.628   1.567  11.810 -1.4487  2.0358 -1.3794
  839MPD2     C12328   4.473   0.853  11.724 -0.1870  0.5520 -0.6018
  839MPD2    C112329   4.539   0.892  11.605 -0.1935  1.0014  0.0331
  839MPD2    C212330   4.638   0.986  11.609  0.2579 -0.0137 -0.2160
  839MPD2    C312331   4.689   1.024  11.735  0.1779  0.6769 -0.2310
  839MPD2    C412332   4.613   1.001  11.845  0.2185  0.6301  0.3989
  839MPD2    C512333   4.508   0.920  11.836 -0.3531 -0.6994  0.3601
  839MPD2     H12334   4.676   1.016  11.512  0.0353  4.1054  0.9711
  839MPD2    H112335   4.652   1.029  11.942  1.2188  0.7637 -0.0410
  839MPD2    H212336   4.396   0.779  11.737  2.5767 -2.0359  1.2390
  839MPD2    H312337   4.450   0.903  11.926 -2.0291  2.4875 -0.1150
  839MPD2     N12338   0.073   1.107  11.748  0.5466  0.3023  0.0426
  839MPD2    H512339   0.093   1.134  11.844  2.0866  0.7288 -0.3938
  839MPD2    N112340   4.493   0.851  11.480  0.4328  0.2284 -0.4737
  839MPD2    H712341   4.554   0.862  11.399  0.9048  2.0845  0.1344
  840MPD2     C12342   0.298   4.109  10.218  0.7158 -0.5776  0.4221
  840MPD2    C112343   0.249   4.041  10.317  0.1606  0.2788 -0.4338
  840MPD2    C212344   0.266   4.089  10.448 -0.0432  0.2247 -0.3856
  840MPD2    C312345   0.316   4.211  10.472 -0.1403  0.2534 -0.1777
  840MPD2    C412346   0.367   4.280  10.364  0.3028 -0.0590  0.2604
  840MPD2    C512347   0.357   4.233  10.236  0.9214 -0.3185  0.2736
  840MPD2     H12348   0.230   4.020  10.523 -2.4662  0.6905 -1.1330
  840MPD2    H112349   0.414   4.377  10.377  3.3986 -1.1482 -2.7311
  840MPD2    H212350   0.294   4.079  10.114  1.9978  1.2642 -0.1656
  840MPD2    H312351   0.403   4.287  10.154  1.3353 -2.5879 -0.9821
  840MPD2     N12352   0.330   4.263  10.603  0.6086  0.6058  0.3799
  840MPD2    H512353   0.381   4.350  10.615  1.6739  0.0882 -0.3854
  840MPD2    N112354   0.187   3.921  10.281 -0.5418 -0.7157 -0.5021
  840MPD2    H712355   0.192   3.899  10.182 -1.2577  1.2740 -0.9855
  841MPD2     C12356   4.108   3.661  14.634 -1.1843  0.1831 -0.5744
  841MPD2    C112357   4.124   3.624  14.505 -0.3266  0.2493 -0.2411
  841MPD2    C212358   4.182   3.713  14.418  0.4334  0.6158 -0.1461
  841MPD2    C312359   4.220   3.837  14.454 -0.3654 -0.3608 -0.6344
  841MPD2    C412360   4.197   3.880  14.580  0.3729 -0.3744  0.2809
  841MPD2    C512361   4.153   3.782  14.674 -0.5001  0.4837  1.2647
  841MPD2     H12362   4.183   3.689  14.313  0.2770  2.7644 -0.6451
  841MPD2    H112363   4.221   3.980  14.613 -0.2506  0.4190 -1.7441
  841MPD2    H212364   4.080   3.591  14.712 -1.1946  1.4022  0.5216
  841MPD2    H312365   4.143   3.806  14.779  0.7329  1.3105  1.1892
  841MPD2     N12366   4.287   3.911  14.353 -0.5478 -0.2613 -0.0407
  841MPD2    H512367   4.290   3.867  14.262  0.9612 -1.6870  0.6856
  841MPD2    N112368   4.108   3.489  14.465 -0.1101  0.2176 -0.0288
  841MPD2    H712369   4.133   3.477  14.367  1.1963 -2.0641  0.5778
  842MPD2     C12370   0.652   0.074  16.937  0.0566 -0.7065 -0.3184
  842MPD2    C112371   0.537   0.004  16.934  0.9795  0.3740 -0.4281
  842MPD2    C212372   0.422   0.064  16.992  0.3320  0.5265 -0.2324
  842MPD2    C312373   0.428   0.155  17.095 -0.2231  0.4010  0.1560
  842MPD2    C412374   0.552   0.218  17.114  0.0182  0.0773  0.3541
  842MPD2    C512375   0.650   0.176  17.029 -0.6065 -0.2871  0.6377
  842MPD2     H12376   0.324   0.023  16.973  0.1169  1.7035 -1.6606
  842MPD2    H112377   0.564   0.287  17.196  1.7423 -1.7137  1.5924
  842MPD2    H212378   0.743   0.051  16.882  0.0059  1.8580 -1.4630
  842MPD2    H312379   0.745   0.228  17.035 -0.2067 -0.6996 -2.2272
  842MPD2     N12380   0.307   0.196  17.162 -0.4978 -0.4927 -0.9348
  842MPD2    H512381   0.218   0.153  17.139 -0.5904 -1.0300  0.4282
  842MPD2    N112382   0.526   4.631  16.828  0.0974 -0.2521  0.6676
  842MPD2    H712383   0.611   4.620  16.774 -0.7560 -2.4208 -0.2163
  843MPD2     C12384   2.395   0.042   0.158  0.4350 -0.0053  0.4892
  843MPD2    C112385   2.451   0.024   0.284  0.2643 -0.1837 -0.5997
  843MPD2    C212386   2.558   0.106   0.327  0.0647 -0.2662 -0.8874
  843MPD2    C312387   2.606   0.215   0.255  0.2953  0.2843 -0.3010
  843MPD2    C412388   2.549   0.232   0.130 -0.2274 -0.4382  0.0958
  843MPD2    C512389   2.451   0.149   0.085 -0.7071  0.3309  0.0928
  843MPD2     H12390   2.593   0.091   0.428  2.4358  1.1774 -1.4829
  843MPD2    H112391   2.590   0.304   0.061 -1.4717  0.6530  0.4947
  843MPD2    H212392   2.312   4.714   0.114  1.7112 -1.8364  0.3644
  843MPD2    H312393   2.414   0.165  17.692  2.5470 -2.1303 -1.4842
  843MPD2     N12394   2.713   0.300   0.304 -0.1077 -0.8221 -0.0799
  843MPD2    H512395   2.746   0.370   0.238 -1.5639  1.7841  1.9053
  843MPD2    N112396   2.386   4.661   0.375 -0.1452  0.5244 -0.4130
  843MPD2    H712397   2.306   4.620   0.329 -1.0557  0.2176  1.4570
  844MPD2     C12398   1.020   4.036  16.968 -0.3720 -0.3363  0.9188
  844MPD2    C112399   1.093   4.059  16.854 -0.2268  0.8303  0.8428
  844MPD2    C212400   1.231   4.079  16.862  0.3203  0.3633  0.1290
  844MPD2    C312401   1.297   4.069  16.979  0.2608  0.4829 -0.6730
  844MPD2    C412402   1.229   4.026  17.086  0.0480 -0.1921 -0.0059
  844MPD2    C512403   1.093   4.020  17.083 -0.4220  0.7333 -0.4763
  844MPD2     H12404   1.286   4.101  16.771  0.0560 -1.6453 -0.5298
  844MPD2    H112405   1.286   4.007  17.176  1.7356 -0.8265 -1.2084
  844MPD2    H212406   0.913   4.020  16.974 -1.0747  3.0387 -2.5643
  844MPD2    H312407   1.037   3.980  17.167  0.3118  2.4465  0.8194
  844MPD2     N12408   1.437   4.089  16.975 -0.1295 -0.1822 -0.1650
  844MPD2    H512409   1.481   4.144  16.902 -0.5821 -0.2972 -0.5242
  844MPD2    N112410   1.030   4.056  16.730 -0.2540 -0.1157  0.4907
  844MPD2    H712411   1.095   4.058  16.652 -0.2761 -2.6173  0.4055
  845MPD2     C12412   1.535   0.079  16.785  0.1118 -0.4117 -0.9407
  845MPD2    C112413   1.576   0.052  16.913  1.0165  0.6385 -0.9849
  845MPD2    C212414   1.640   4.657  16.947  0.8485  1.3589  0.2631
  845MPD2    C312415   1.670   4.568  16.847  0.4416 -0.3309 -0.0894
  845MPD2    C412416   1.622   4.585  16.719 -0.0554 -0.5237 -0.4514
  845MPD2    C512417   1.552   4.702  16.692 -0.6618 -0.6468  0.1964
  845MPD2     H12418   1.679   4.638  17.047 -1.0050 -3.8802 -0.0621
  845MPD2    H112419   1.637   4.515  16.638  0.8131 -2.1260  1.1019
  845MPD2    H212420   1.488   0.169  16.747 -2.2184 -1.0382  0.4019
  845MPD2    H312421   1.519   4.719  16.590 -0.8726  0.0516  0.3785
  845MPD2     N12422   1.726   4.447  16.894 -0.1848 -0.0275 -0.2072
  845MPD2    H512423   1.744   4.454  16.994  1.0608 -0.2111 -0.4264
  845MPD2    N112424   1.565   0.150  17.018 -0.5150  1.2726  0.1912
  845MPD2    H712425   1.509   0.234  17.003  0.9445  2.2693  0.3703
  846MPD2     C12426   2.852   0.587  13.594  0.4845  0.3318  0.2302
  846MPD2    C112427   2.806   0.708  13.646  0.5244 -0.5291 -0.0936
  846MPD2    C212428   2.799   0.726  13.783  0.0741 -0.0822  0.3854
  846MPD2    C312429   2.831   0.625  13.874 -0.4704 -0.6024  0.4259
  846MPD2    C412430   2.890   0.514  13.819 -0.3277  0.4835  0.6101
  846MPD2    C512431   2.895   0.490  13.683  0.0866 -0.2738  0.4491
  846MPD2     H12432   2.748   0.814  13.820 -3.1523 -3.1430  3.0933
  846MPD2    H112433   2.916   0.427  13.877  0.8633 -0.9182 -2.0286
  846MPD2    H212434   2.858   0.558  13.490 -1.1061  1.8243 -0.2825
  846MPD2    H312435   2.919   0.394  13.638  0.6682  0.2454 -0.3565
  846MPD2     N12436   2.803   0.639  14.011 -0.0522  0.2041 -0.4097
  846MPD2    H512437   2.740   0.712  14.043 -2.6564 -1.5780 -1.5102
  846MPD2    N112438   2.773   0.809  13.561  0.4424  0.2482 -0.0069
  846MPD2    H712439   2.759   0.902  13.598 -1.3138  0.6227 -1.5717
  847MPD2     C12440   2.822   1.709  13.621 -0.5700 -0.4674 -0.4971
  847MPD2    C112441   2.796   1.748  13.753  0.1541  0.0958  0.5882
  847MPD2    C212442   2.911   1.787  13.826 -0.2808 -0.1184  0.2714
  847MPD2    C312443   3.040   1.777  13.781 -0.4419  0.7991 -0.6813
  847MPD2    C412444   3.062   1.745  13.646 -0.3723 -0.7965  0.1181
  847MPD2    C512445   2.950   1.720  13.564 -0.6160 -0.0006  0.0612
  847MPD2     H12446   2.898   1.823  13.928 -1.0620 -0.6762  0.3695
  847MPD2    H112447   3.164   1.749  13.610 -1.3214 -0.6244 -2.5605
  847MPD2    H212448   2.748   1.671  13.551  0.2281 -0.0496 -1.5751
  847MPD2    H312449   2.966   1.702  13.459  1.1185  0.9999  0.1361
  847MPD2     N12450   3.139   1.784  13.881 -0.9784 -0.1192 -0.7846
  847MPD2    H512451   3.123   1.804  13.979 -0.0281  0.5380 -0.7605
  847MPD2    N112452   2.669   1.751  13.813 -0.0061 -0.3993  0.5957
  847MPD2    H712453   2.657   1.786  13.908 -0.6769  0.9986 -0.0021
  848MPD2     C12454   1.186   4.521  16.462 -0.3465 -1.1128 -0.7856
  848MPD2    C112455   1.203   4.608  16.577 -0.6430  0.2297  0.1699
  848MPD2    C212456   1.233   0.018  16.553  0.2913  0.0520  0.0382
  848MPD2    C312457   1.248   0.059  16.413 -0.3378  0.0096 -0.3662
  848MPD2    C412458   1.244   4.696  16.307  0.0053 -0.3141 -0.3176
  848MPD2    C512459   1.216   4.565  16.333 -0.3478  0.8889 -0.1828
  848MPD2     H12460   1.240   0.079  16.642  1.7075  0.8233 -0.6109
  848MPD2    H112461   1.249   0.010  16.207 -0.3016  2.7947  0.9413
  848MPD2    H212462   1.136   4.425  16.459 -1.3143 -0.5864 -1.6192
  848MPD2    H312463   1.207   4.497  16.250  1.3499  1.7116 -1.0341
  848MPD2     N12464   1.252   0.194  16.381 -0.3926 -0.4449  0.2003
  848MPD2    H512465   1.245   0.206  16.281  2.5560  0.5039  0.1254
  848MPD2    N112466   1.176   4.563  16.709 -0.2491  0.3610  0.1109
  848MPD2    H712467   1.184   4.622  16.791  0.4438  0.3519  0.0553
  849MPD2     C12468   4.391   4.553  13.619 -0.1169  0.6892 -0.0349
  849MPD2    C112469   4.519   4.587  13.594 -0.4723 -0.4583 -0.0913
  849MPD2    C212470   4.620   4.583  13.696 -0.0680 -0.4327 -1.0823
  849MPD2    C312471   4.582   4.525  13.816 -0.2746 -0.2933 -0.5097
  849MPD2    C412472   4.454   4.497  13.841 -0.8590  0.1762 -0.1337
  849MPD2    C512473   4.357   4.507  13.744  0.3328 -0.5265 -0.0424
  849MPD2     H12474   4.721   4.618  13.674 -0.5958  1.6021 -0.2804
  849MPD2    H112475   4.422   4.456  13.936 -0.1498  0.6309  0.3015
  849MPD2    H212476   4.313   4.577  13.547  0.7206  1.6090 -0.6324
  849MPD2    H312477   4.253   4.488  13.768 -0.3837  2.6331 -0.6777
  849MPD2     N12478   4.692   4.499  13.898 -0.6061 -0.3684  0.1324
  849MPD2    H512479   0.055   4.507  13.851  0.6494  1.1106  2.7660
  849MPD2    N112480   4.567   4.632  13.469  0.0305 -0.3376  0.2203
  849MPD2    H712481   4.666   4.656  13.467  0.3706 -1.8502 -1.0286
  850MPD2     C12482   2.330   3.142  14.386 -0.0733 -0.0436  0.4580
  850MPD2    C112483   2.335   3.211  14.503 -0.3750 -0.6987  0.2511
  850MPD2    C212484   2.457   3.262  14.550 -0.4458 -0.4116 -0.4052
  850MPD2    C312485   2.573   3.209  14.499 -0.5654  0.0183  0.0292
  850MPD2    C412486   2.571   3.133  14.387  0.3345 -0.1966 -0.3243
  850MPD2    C512487   2.453   3.110  14.319 -0.4255 -0.8179 -0.0178
  850MPD2     H12488   2.469   3.321  14.641 -0.4957 -1.3535  0.2080
  850MPD2    H112489   2.663   3.099  14.341 -0.7974 -0.0633 -2.6837
  850MPD2    H212490   2.238   3.100  14.345  0.1270  2.1288 -2.2007
  850MPD2    H312491   2.461   3.061  14.223 -0.0023  2.5832 -1.6927
  850MPD2     N12492   2.701   3.243  14.547 -0.4426  0.0910  0.2560
  850MPD2    H512493   2.779   3.197  14.499  0.7395  1.4320  0.9078
  850MPD2    N112494   2.213   3.217  14.570  0.6977 -0.3065 -0.3106
  850MPD2    H712495   2.136   3.177  14.517  0.7565 -0.4136 -0.3163
  851MPD2     C12496   2.869   3.153  15.169  0.0563  0.4064 -0.3192
  851MPD2    C112497   2.792   3.108  15.059  0.0863 -0.5120 -0.7553
  851MPD2    C212498   2.845   3.011  14.976 -0.1448 -0.4016  0.3541
  851MPD2    C312499   2.982   2.975  15.001 -0.0648 -0.6432 -0.4776
  851MPD2    C412500   3.056   3.023  15.102  0.2747 -0.0078 -0.6898
  851MPD2    C512501   2.993   3.107  15.188  0.7835 -0.6382  0.1180
  851MPD2     H12502   2.788   2.964  14.897  1.8866 -1.1021 -0.6907
  851MPD2    H112503   3.155   2.983  15.120 -0.4626 -1.7533 -0.5409
  851MPD2    H212504   2.827   3.224  15.238 -0.3586  1.1524 -1.3293
  851MPD2    H312505   3.046   3.143  15.275  0.4048 -0.6618  0.3607
  851MPD2     N12506   3.029   2.871  14.913 -0.3292 -0.0327 -0.4113
  851MPD2    H512507   2.964   2.837  14.843  0.5578 -1.4360 -0.5416
  851MPD2    N112508   2.665   3.173  15.039  0.0499 -0.3832  0.9447
  851MPD2    H712509   2.639   3.250  15.101  2.7990  2.7388 -1.7827
  852MPD2     C12510   2.444   0.038  10.050 -0.7954 -0.0845  0.8179
  852MPD2    C112511   2.456   0.140  10.142  0.1697  0.4461  0.3238
  852MPD2    C212512   2.488   0.269  10.095  0.9826 -0.7899 -0.1382
  852MPD2    C312513   2.518   0.291   9.965  0.1138  0.3680  0.5778
  852MPD2    C412514   2.517   0.186   9.877  0.3497  0.8698 -0.3475
  852MPD2    C512515   2.470   0.066   9.918  0.2497  0.6666  0.7232
  852MPD2     H12516   2.490   0.359  10.156 -0.3239  0.2034 -1.5666
  852MPD2    H112517   2.532   0.207   9.772 -1.5260  0.4119 -0.6998
  852MPD2    H212518   2.431   4.660  10.078 -2.4748  0.7182  2.9654
  852MPD2    H312519   2.465   4.708   9.849 -1.2750 -0.9883  2.8793
  852MPD2     N12520   2.557   0.424   9.939 -0.1476  0.2453 -0.0592
  852MPD2    H512521   2.543   0.485  10.019  0.1693 -0.5543  0.6028
  852MPD2    N112522   2.445   0.132  10.278  0.0874 -0.8147 -0.1039
  852MPD2    H712523   2.450   0.215  10.337  1.3063  0.1407 -1.5436
  853MPD2     C12524   4.138   4.636  12.273 -0.0996  0.2190 -0.1548
  853MPD2    C112525   4.047   4.725  12.228  0.3895  0.0454 -0.0357
  853MPD2    C212526   4.047   0.035  12.090  0.5633  0.0132 -0.1554
  853MPD2    C312527   4.137   4.701  12.006 -0.0725 -0.6006 -0.1343
  853MPD2    C412528   4.217   4.606  12.052  0.7580  0.0686 -0.2802
  853MPD2    C512529   4.221   4.570  12.186  0.0091  0.2199 -0.3304
  853MPD2     H12530   3.990   0.121  12.056  1.0539  0.4971  0.2595
  853MPD2    H112531   4.272   4.544  11.983  1.7275  0.5670  0.0377
  853MPD2    H212532   4.150   4.609  12.377 -0.8604  0.3899 -0.0229
  853MPD2    H312533   4.283   4.486  12.213 -1.3279 -0.1563  1.5228
  853MPD2     N12534   4.149   0.008  11.869 -0.6129 -0.0684  0.6877
  853MPD2    H512535   4.221   4.686  11.818 -2.0999  0.6703 -2.1769
  853MPD2    N112536   3.967   0.051  12.326  0.4081  0.0601 -0.0844
  853MPD2    H712537   3.974   0.016  12.421  0.9915 -3.0953 -1.2975
  854MPD2     C12538   1.498   0.782  12.827  0.2973  0.0888  0.4260
  854MPD2    C112539   1.435   0.719  12.716  0.2353 -0.0961  1.0801
  854MPD2    C212540   1.461   0.585  12.701 -0.1258 -0.1365  0.6305
  854MPD2    C312541   1.529   0.516  12.801 -0.1577  0.1053  0.2515
  854MPD2    C412542   1.594   0.586  12.900 -0.4697  0.1713 -0.4559
  854MPD2    C512543   1.572   0.715  12.921  0.3022  0.2844  0.0465
  854MPD2     H12544   1.420   0.537  12.613 -2.0996  1.3337  0.7223
  854MPD2    H112545   1.660   0.534  12.968 -2.2457 -1.2558  0.1775
  854MPD2    H212546   1.487   0.886  12.856  1.3280  0.4514 -0.4714
  854MPD2    H312547   1.609   0.767  13.009 -0.7387 -0.8383  1.1518
  854MPD2     N12548   1.542   0.368  12.806 -0.4757  0.0820  0.4949
  854MPD2    H512549   1.602   0.333  12.880  1.4102  1.0104 -0.6135
  854MPD2    N112550   1.373   0.778  12.606  0.3888 -0.2230  0.0759
  854MPD2    H712551   1.376   0.729  12.518  0.4362 -0.6484  0.3155
  855MPD2     C12552   1.940   4.671  13.355 -0.3015 -0.2951  0.1431
  855MPD2    C112553   1.821   4.613  13.379  0.2849  0.8976  0.3316
  855MPD2    C212554   1.724   4.636  13.280  0.1282  0.1262  0.0187
  855MPD2    C312555   1.736   0.001  13.176 -0.2811  0.2546 -0.1520
  855MPD2    C412556   1.860   0.064  13.161 -0.5213 -0.2650 -0.5300
  855MPD2    C512557   1.960   0.032  13.249  0.7598  0.0091 -0.1595
  855MPD2     H12558   1.624   4.594  13.285  0.5945 -0.5739  3.6618
  855MPD2    H112559   1.884   0.143  13.091  1.2110  0.5544  0.9998
  855MPD2    H212560   2.019   4.643  13.424  0.1827  0.7852  0.0197
  855MPD2    H312561   2.054   0.083  13.231  0.6120 -0.6433 -2.6710
  855MPD2     N12562   1.636   0.021  13.074  0.3657 -0.2815 -0.0230
  855MPD2    H512563   1.652   0.095  13.005  0.4915  0.2890  0.6179
  855MPD2    N112564   1.779   4.524  13.480  0.1538 -0.3379 -0.1002
  855MPD2    H712565   1.688   4.481  13.467 -1.4530  2.8483  0.4280
  856MPD2     C12566   3.716   0.924  14.060  0.1427 -0.2191 -0.7362
  856MPD2    C112567   3.787   1.037  14.100 -0.5063 -0.4285  0.3063
  856MPD2    C212568   3.771   1.156  14.033 -0.4095  0.1705 -0.3212
  856MPD2    C312569   3.701   1.156  13.911 -0.2754  0.4628  0.3278
  856MPD2    C412570   3.655   1.039  13.859  1.1843  0.3821 -0.4253
  856MPD2    C512571   3.658   0.924  13.933 -0.5777  0.0033 -0.4986
  856MPD2     H12572   3.814   1.248  14.070  0.5873  0.0860 -1.2702
  856MPD2    H112573   3.617   1.045  13.757  2.0074 -1.0420 -0.8288
  856MPD2    H212574   3.739   0.833  14.114  0.4383 -0.6585 -1.6053
  856MPD2    H312575   3.613   0.834  13.892 -0.5792 -0.9570  1.6344
  856MPD2     N12576   3.691   1.270  13.830 -0.1580  0.5533  0.0252
  856MPD2    H512577   3.645   1.269  13.739 -1.3012 -2.7088  0.6667
  856MPD2    N112578   3.857   1.048  14.221  0.5533  0.0141 -0.2593
  856MPD2    H712579   3.901   1.139  14.233 -0.2506  0.2507  0.8645
  857MPD2     C12580   0.322   2.905  12.484  0.1785  0.8687 -0.0374
  857MPD2    C112581   0.433   2.913  12.571 -1.0582 -0.7625 -0.3508
  857MPD2    C212582   0.476   3.038  12.608 -0.0228  0.2733 -0.2805
  857MPD2    C312583   0.406   3.151  12.572  0.1521  0.9284  0.4756
  857MPD2    C412584   0.302   3.139  12.486 -0.3894  0.4069  0.0222
  857MPD2    C512585   0.264   3.018  12.435 -0.4530 -0.1608  0.9072
  857MPD2     H12586   0.552   3.064  12.680 -0.7696 -1.4077  1.0822
  857MPD2    H112587   0.248   3.227  12.453  1.5665  1.8712  0.7287
  857MPD2    H212588   0.281   2.810  12.451  0.8807 -0.5626  3.1738
  857MPD2    H312589   0.189   3.003  12.359 -1.8702 -0.2704  2.3376
  857MPD2     N12590   0.454   3.274  12.625  0.5368  0.5569  0.3113
  857MPD2    H512591   0.525   3.259  12.696 -0.3690 -0.3449  1.0414
  857MPD2    N112592   0.479   2.787  12.615  0.2385 -0.1237  0.0783
  857MPD2    H712593   0.422   2.709  12.585  0.0725 -0.8015  2.1586
  858MPD2     C12594   1.232   1.962  16.807 -0.2186  0.2281 -0.0557
  858MPD2    C112595   1.358   2.009  16.784  0.1879 -0.5068 -0.9312
  858MPD2    C212596   1.416   2.082  16.883  0.2279  0.1416  0.5662
  858MPD2    C312597   1.341   2.122  16.993 -0.3146  0.6891 -0.3984
  858MPD2    C412598   1.209   2.077  17.010 -0.0983  0.4591 -0.1558
  858MPD2    C512599   1.162   1.990  16.913  0.0405 -0.1461 -0.0003
  858MPD2     H12600   1.518   2.112  16.860 -0.7314  2.5498 -0.5305
  858MPD2    H112601   1.146   2.106  17.093  2.3857 -1.9457  2.5508
  858MPD2    H212602   1.193   1.905  16.723  1.2498 -1.0547  0.1429
  858MPD2    H312603   1.059   1.957  16.914  0.3768 -1.1283  2.5116
  858MPD2     N12604   1.389   2.209  17.098 -0.2629 -0.1016 -0.5033
  858MPD2    H512605   1.323   2.233  17.171  0.4825  2.1501 -0.5805
  858MPD2    N112606   1.426   1.966  16.664  0.5882 -0.0662  0.3750
  858MPD2    H712607   1.393   1.889  16.607  2.9546 -0.2746 -0.6783
  859MPD2     C12608   4.108   4.137  15.060  0.6287 -0.6505 -0.0990
  859MPD2    C112609   4.241   4.142  15.030 -0.1883  0.1650 -0.2468
  859MPD2    C212610   4.305   4.024  15.030  0.4507 -0.0327  0.3615
  859MPD2    C312611   4.245   3.897  15.051 -0.2789 -0.0454 -0.7815
  859MPD2    C412612   4.111   3.904  15.088  0.3796 -0.1031 -0.4115
  859MPD2    C512613   4.041   4.016  15.081  0.0200 -0.7452  0.0204
  859MPD2     H12614   4.406   4.031  14.993 -0.1795  1.7899 -1.0060
  859MPD2    H112615   4.051   3.816  15.106 -0.1146  0.4114  0.4140
  859MPD2    H212616   4.046   4.226  15.056  1.3788 -0.0921  0.9124
  859MPD2    H312617   3.934   4.017  15.100  0.3071  0.0314  1.5725
  859MPD2     N12618   4.301   3.775  15.019 -0.1299  0.1811  0.5164
  859MPD2    H512619   4.256   3.697  15.065 -2.2514  1.7821  1.1849
  859MPD2    N112620   4.306   4.269  15.024 -0.5170  0.2625 -0.0541
  859MPD2    H712621   4.248   4.348  15.049 -0.2805  0.4525 -0.1036
  860MPD2     C12622   2.294   0.015  11.598  0.1612  0.6695  0.6318
  860MPD2    C112623   2.282   0.088  11.715 -0.2233 -0.0268 -0.2455
  860MPD2    C212624   2.179   0.056  11.799  0.6270 -0.4279 -0.4948
  860MPD2    C312625   2.096   4.668  11.772 -1.3011  0.0272 -0.1471
  860MPD2    C412626   2.101   4.610  11.646  0.1740  0.2186  0.1776
  860MPD2    C512627   2.200   4.643  11.566 -0.0307  0.0014  0.2956
  860MPD2     H12628   2.167   0.111  11.891 -1.1569  0.6289 -1.3449
  860MPD2    H112629   2.022   4.542  11.615 -1.0279  2.0269 -0.7400
  860MPD2    H212630   2.371   0.030  11.523  1.1634  0.4669  1.6200
  860MPD2    H312631   2.202   4.587  11.473 -0.1418 -1.3559  1.1143
  860MPD2     N12632   2.007   4.624  11.874  0.3043  0.4293 -0.8920
  860MPD2    H512633   2.002   4.682  11.957 -3.4041 -0.5549 -0.4067
  860MPD2    N112634   2.374   0.183  11.754  0.7312 -0.3604 -1.0915
  860MPD2    H712635   2.368   0.230  11.844  3.2305 -2.1332  0.0062
  861MPD2     C12636   1.417   3.279  11.049  0.1481  0.0479 -0.3433
  861MPD2    C112637   1.299   3.218  11.093 -0.7178  0.3707 -0.5987
  861MPD2    C212638   1.193   3.218  11.008  0.4623  0.6760 -0.1539
  861MPD2    C312639   1.203   3.273  10.880  1.3008  0.1324 -0.2582
  861MPD2    C412640   1.324   3.329  10.834 -0.0018 -0.1059  0.1480
  861MPD2    C512641   1.423   3.330  10.926 -0.8060  0.0893  0.5159
  861MPD2     H12642   1.100   3.179  11.046  0.2018  1.4115 -0.0412
  861MPD2    H112643   1.341   3.382  10.741  1.0650 -2.9025 -1.2568
  861MPD2    H212644   1.505   3.275  11.113 -0.6177  0.5821  0.7586
  861MPD2    H312645   1.521   3.362  10.893 -0.1309 -1.8751  0.5812
  861MPD2     N12646   1.094   3.280  10.785 -0.3435 -0.3345  0.2679
  861MPD2    H512647   1.100   3.343  10.706 -0.6406 -1.0792 -0.3482
  861MPD2    N112648   1.286   3.154  11.217 -0.3475  1.0147  0.1573
  861MPD2    H712649   1.200   3.132  11.266 -0.9053  0.4984 -1.0633
  862MPD2     C12650   0.546   3.349  10.248 -0.1854  0.1820 -0.4190
  862MPD2    C112651   0.668   3.317  10.309 -0.4329 -0.4471  0.6036
  862MPD2    C212652   0.670   3.209  10.390  0.6028  0.9648 -0.5996
  862MPD2    C312653   0.557   3.127  10.413  0.0681  0.0217 -0.3102
  862MPD2    C412654   0.436   3.175  10.370 -0.9815 -0.3466 -0.1089
  862MPD2    C512655   0.434   3.283  10.283 -0.2614 -0.3653  0.0991
  862MPD2     H12656   0.766   3.184  10.433  1.4755 -0.0857 -3.1823
  862MPD2    H112657   0.342   3.128  10.397 -1.7528  0.0186 -2.1389
  862MPD2    H212658   0.530   3.442  10.194  0.2491  0.2232 -0.4770
  862MPD2    H312659   0.340   3.322  10.244  1.0280  1.1262 -1.4631
  862MPD2     N12660   0.562   3.011  10.487 -0.0968 -0.1080 -0.1250
  862MPD2    H512661   0.475   2.975  10.524  0.0434 -1.0014 -0.6461
  862MPD2    N112662   0.780   3.404  10.288 -0.6762  0.1010  0.5450
  862MPD2    H712663   0.777   3.456  10.201 -0.8397 -0.6465  0.1055
  863MPD2     C12664   0.013   1.242  16.265  0.1299  0.0859  0.0435
  863MPD2    C112665   4.665   1.286  16.367  0.2735 -0.0941 -0.7850
  863MPD2    C212666   4.686   1.229  16.492  0.1968 -0.6800  0.4478
  863MPD2    C312667   0.053   1.134  16.516 -0.0893  0.2201 -0.1983
  863MPD2    C412668   0.131   1.096  16.408 -0.5308 -0.1052 -1.0068
  863MPD2    C512669   0.111   1.148  16.276 -0.3648  0.7319 -0.2103
  863MPD2     H12670   4.634   1.267  16.579  1.4871  3.0162 -0.3898
  863MPD2    H112671   0.211   1.023  16.412 -1.3945 -0.7791  3.6296
  863MPD2    H212672   0.000   1.286  16.167 -0.3127 -0.0739  0.0286
  863MPD2    H312673   0.174   1.123  16.192  1.9873 -2.7414  2.6030
  863MPD2     N12674   0.092   1.087  16.641  0.2260  0.2951 -0.4192
  863MPD2    H512675   0.184   1.044  16.643  0.6513  1.0937 -3.6693
  863MPD2    N112676   4.578   1.395  16.341  0.6606 -0.5483 -1.0177
  863MPD2    H712677   4.584   1.441  16.251 -0.1999  1.7306  0.0884
  864MPD2     C12678   4.564   2.693  17.546 -0.7077  0.1959  0.2484
  864MPD2    C112679   4.648   2.611  17.480 -0.2173  0.7580 -0.1137
  864MPD2    C212680   0.024   2.673  17.398 -0.1876 -0.6652 -0.4402
  864MPD2    C312681   0.040   2.811  17.386  0.4753 -0.7670  0.8594
  864MPD2    C412682   4.682   2.884  17.462 -0.3446  0.0762 -0.0191
  864MPD2    C512683   4.582   2.827  17.537 -0.2339  0.8265  0.6518
  864MPD2     H12684   0.093   2.606  17.348 -0.8381  0.4562 -2.8318
  864MPD2    H112685   4.687   2.992  17.453  2.2887 -0.1655 -1.1004
  864MPD2    H212686   4.482   2.643  17.596 -0.5830 -0.8464 -0.5795
  864MPD2    H312687   4.509   2.892  17.584  1.2318  1.4448  2.0682
  864MPD2     N12688   0.128   2.876  17.298 -0.4518  0.4035 -0.3512
  864MPD2    H512689   0.125   2.977  17.294  2.0283  0.6320  3.3505
  864MPD2    N112690   4.629   2.468  17.478 -0.1464 -0.1663 -0.7112
  864MPD2    H712691   4.558   2.431  17.539  1.2079 -1.4528  0.1071
  865MPD2     C12692   0.093   2.850  16.382  0.4511 -0.4398  0.3530
  865MPD2    C112693   0.138   2.809  16.503  0.0991  0.2764  0.6683
  865MPD2    C212694   0.090   2.873  16.618 -0.1792  0.3030 -0.2852
  865MPD2    C312695   0.007   2.982  16.616 -0.0191 -0.0728 -0.2640
  865MPD2    C412696   4.686   3.018  16.490 -0.5376 -0.2648 -0.2540
  865MPD2    C512697   4.726   2.953  16.378 -0.1102 -0.0195 -0.6181
  865MPD2     H12698   0.110   2.835  16.717 -0.3862 -0.0346 -0.3714
  865MPD2    H112699   4.633   3.111  16.475 -2.1163 -1.6322 -3.1514
  865MPD2    H212700   0.130   2.814  16.287  0.8421  1.9010 -0.3853
  865MPD2    H312701   4.698   2.992  16.281 -0.7979 -0.9669 -0.7973
  865MPD2     N12702   4.687   3.069  16.718  0.2444 -0.1843  0.0532
  865MPD2    H512703   4.618   3.138  16.689 -0.1133 -1.0943 -1.2408
  865MPD2    N112704   0.227   2.705  16.513 -1.0147  0.6952 -0.3613
  865MPD2    H712705   0.243   2.656  16.425  0.5964 -1.5367  1.1819
  866MPD2     C12706   1.807   3.613  11.442  1.1937 -0.7366  0.5359
  866MPD2    C112707   1.766   3.538  11.332  0.4976  0.0797  0.6833
  866MPD2    C212708   1.630   3.546  11.298  0.7963 -0.2153 -0.3273
  866MPD2    C312709   1.542   3.619  11.375 -0.7548  0.7603 -0.6120
  866MPD2    C412710   1.589   3.677  11.493 -0.2658  0.3180  0.0166
  866MPD2    C512711   1.721   3.665  11.527  0.4308  0.2853 -0.1391
  866MPD2     H12712   1.595   3.495  11.209  1.2491  0.1704 -0.7251
  866MPD2    H112713   1.517   3.727  11.557 -1.0406  1.3192 -1.6499
  866MPD2    H212714   1.906   3.588  11.480  1.5347 -1.2617 -0.6883
  866MPD2    H312715   1.760   3.710  11.618  1.2720 -1.6664  0.4612
  866MPD2     N12716   1.404   3.630  11.353 -0.1645 -0.4679 -0.5878
  866MPD2    H512717   1.340   3.660  11.425  0.2822 -0.5641 -0.1517
  866MPD2    N112718   1.868   3.483  11.250 -0.0472  0.4185  0.1897
  866MPD2    H712719   1.965   3.496  11.275  0.1605  0.9495 -0.8857
  867MPD2     C12720   3.959   2.645  17.064 -0.5340 -0.4732 -0.1854
  867MPD2    C112721   4.026   2.649  16.946  0.0784 -0.7918  0.4058
  867MPD2    C212722   4.056   2.774  16.902 -0.4314  0.4428  0.5119
  867MPD2    C312723   3.999   2.888  16.963  0.6610  1.1402 -0.6804
  867MPD2    C412724   3.908   2.864  17.057  0.2076 -0.3718 -0.0519
  867MPD2    C512725   3.886   2.741  17.115 -0.1403 -0.3464  0.4305
  867MPD2     H12726   4.122   2.798  16.820  0.0935 -0.3438  0.7036
  867MPD2    H112727   3.854   2.941  17.111 -0.8373  0.1110 -1.7889
  867MPD2    H212728   3.938   2.552  17.115  2.2909 -1.2873 -0.4961
  867MPD2    H312729   3.824   2.739  17.204  0.7102 -0.8241  1.0097
  867MPD2     N12730   4.041   3.021  16.943 -0.0378  0.1368 -0.2800
  867MPD2    H512731   4.000   3.087  17.008 -0.7456 -1.3197  0.7701
  867MPD2    N112732   4.084   2.528  16.903  0.1561 -0.1078 -0.1085
  867MPD2    H712733   4.066   2.444  16.958 -0.6549  1.1176  1.5180
  868MPD2     C12734   1.203   1.150  13.436 -0.3557 -0.7899 -0.0935
  868MPD2    C112735   1.216   1.281  13.403  0.6450 -0.2488  0.3456
  868MPD2    C212736   1.109   1.370  13.401 -0.5650 -0.6321  0.4192
  868MPD2    C312737   0.983   1.328  13.444 -1.2741 -0.1147  0.0007
  868MPD2    C412738   0.961   1.196  13.481  0.6241 -0.1822  0.4592
  868MPD2    C512739   1.074   1.115  13.481  0.2099 -1.1895  0.3909
  868MPD2     H12740   1.117   1.477  13.382  1.4468 -0.3840  2.5794
  868MPD2    H112741   0.872   1.154  13.527 -0.5069 -0.6525 -2.1312
  868MPD2    H212742   1.283   1.078  13.425  0.1103 -0.2224 -0.4569
  868MPD2    H312743   1.065   1.010  13.506 -0.0272 -0.8541  1.7078
  868MPD2     N12744   0.882   1.426  13.456  0.1662  0.4757  0.1371
  868MPD2    H512745   0.911   1.521  13.432 -0.0498  0.6250  0.4785
  868MPD2    N112746   1.347   1.329  13.375  0.3390  0.6876  0.0776
  868MPD2    H712747   1.425   1.265  13.391  2.2078  2.6229 -1.1839
  869MPD2     C12748   3.238   4.275   1.985 -0.1430  0.5316  0.7696
  869MPD2    C112749   3.174   4.168   1.925 -0.3335  0.3828 -0.7348
  869MPD2    C212750   3.057   4.189   1.857  0.8798 -0.1584  0.2375
  869MPD2    C312751   3.014   4.322   1.816 -0.0132  0.0957  0.2485
  869MPD2    C412752   3.091   4.424   1.871  0.1977  0.7774  0.2982
  869MPD2    C512753   3.199   4.405   1.956 -0.2039 -0.3603  0.2270
  869MPD2     H12754   2.998   4.114   1.806 -1.0995  0.9302  0.9229
  869MPD2    H112755   3.070   4.528   1.853  0.0758  0.1092 -3.3653
  869MPD2    H212756   3.328   4.255   2.042 -0.1733 -1.1383  0.2283
  869MPD2    H312757   3.262   4.488   1.987  0.6518 -1.1049  0.4911
  869MPD2     N12758   2.901   4.357   1.732 -0.3156 -0.2244 -0.4649
  869MPD2    H512759   2.887   4.456   1.720  0.8817 -0.0624 -0.5677
  869MPD2    N112760   3.220   4.037   1.948  0.5308 -0.4429 -0.3830
  869MPD2    H712761   3.309   4.024   1.995 -0.8948  1.7159  2.8969
  870MPD2     C12762   1.801   2.647   1.856  0.0261 -0.5713  0.3068
  870MPD2    C112763   1.926   2.700   1.836  0.4581  0.4407 -0.0272
  870MPD2    C212764   1.938   2.834   1.793  1.0099 -0.9945 -0.2220
  870MPD2    C312765   1.826   2.911   1.765  0.0932  0.3420 -0.7070
  870MPD2    C412766   1.699   2.857   1.780 -0.5024  0.3006  0.2308
  870MPD2    C512767   1.690   2.730   1.821 -0.9799 -0.7330  0.9421
  870MPD2     H12768   2.034   2.878   1.769  0.4622  0.7871  0.8577
  870MPD2    H112769   1.610   2.909   1.746 -0.2140 -0.0228 -1.0121
  870MPD2    H212770   1.777   2.550   1.897 -0.6268 -0.4545  0.2018
  870MPD2    H312771   1.594   2.680   1.819 -0.1779 -2.2692  0.6627
  870MPD2     N12772   1.852   3.041   1.718 -0.6274 -0.3862  0.0123
  870MPD2    H512773   1.949   3.073   1.718 -1.0780  0.9610  1.0722
  870MPD2    N112774   2.033   2.618   1.855 -0.3603 -0.6296 -0.2466
  870MPD2    H712775   2.011   2.520   1.869 -0.2029 -0.5205  0.7360
  871MPD2     C12776   3.122   2.983  16.317  0.2187  0.1444 -1.0468
  871MPD2    C112777   3.109   2.913  16.434  0.2791 -0.4160 -0.2333
  871MPD2    C212778   3.144   2.777  16.428  0.8678 -0.3735  0.2474
  871MPD2    C312779   3.186   2.718  16.314  0.0022 -0.3339 -0.7505
  871MPD2    C412780   3.173   2.784  16.196  0.3111  0.1356  0.7839
  871MPD2    C512781   3.146   2.924  16.200  0.0246 -0.4169  0.0211
  871MPD2     H12782   3.161   2.722  16.520 -1.3119 -0.0379  0.8660
  871MPD2    H112783   3.192   2.742  16.098  2.3196 -2.5892  2.3052
  871MPD2    H212784   3.101   3.090  16.319 -0.3718  0.0044  0.0934
  871MPD2    H312785   3.147   2.990  16.114 -0.8569  1.2705  1.3144
  871MPD2     N12786   3.232   2.582  16.313 -0.4898  0.7723 -0.2400
  871MPD2    H512787   3.230   2.539  16.405 -0.6704 -3.4747 -2.2179
  871MPD2    N112788   3.068   2.985  16.548  0.5800 -0.2666 -0.2439
  871MPD2    H712789   3.041   3.082  16.542  0.1962 -0.2964  0.9680
  872MPD2     C12790   3.433   0.435  13.664  0.3059  0.9304 -0.6900
  872MPD2    C112791   3.507   0.416  13.777 -0.5227  0.2937 -0.7165
  872MPD2    C212792   3.447   0.335  13.882  0.5584 -0.7036 -0.9920
  872MPD2    C312793   3.321   0.274  13.870 -0.1662  0.7334 -0.3628
  872MPD2    C412794   3.257   0.291  13.742 -0.0936 -0.4948  0.9730
  872MPD2    C512795   3.318   0.362  13.643 -0.8762 -0.3968 -0.4825
  872MPD2     H12796   3.511   0.321  13.968 -1.1249  0.1133  0.3873
  872MPD2    H112797   3.157   0.264  13.713  0.0359 -0.9765  0.9841
  872MPD2    H212798   3.462   0.516  13.599  0.9430  0.7082 -0.6782
  872MPD2    H312799   3.280   0.384  13.544 -0.0758 -0.3660 -0.7767
  872MPD2     N12800   3.260   0.200  13.969 -0.0922  0.0793  0.5447
  872MPD2    H512801   3.177   0.148  13.946  0.6991 -0.2792 -1.4450
  872MPD2    N112802   3.630   0.478  13.798 -0.1512 -0.4089  0.0067
  872MPD2    H712803   3.679   0.476  13.887  0.5759 -0.4075 -0.3935
  873MPD2     C12804   1.339   4.451   0.648 -0.1913  0.0386  0.1817
  873MPD2    C112805   1.241   4.533   0.704 -0.4317 -0.0362  0.5371
  873MPD2    C212806   1.144   4.466   0.776  0.1015 -0.2026  0.2388
  873MPD2    C312807   1.143   4.326   0.789  0.4168  0.2741 -0.5644
  873MPD2    C412808   1.248   4.258   0.748  0.0080 -0.1579 -0.1707
  873MPD2    C512809   1.348   4.319   0.675  0.5619  0.9097 -0.3638
  873MPD2     H12810   1.062   4.519   0.822 -0.3364 -1.7145  1.2063
  873MPD2    H112811   1.231   4.151   0.737  0.6435 -0.2658 -0.0530
  873MPD2    H212812   1.421   4.504   0.599 -0.5794 -1.3552 -1.9942
  873MPD2    H312813   1.410   4.266   0.603 -0.2239 -1.6524  0.8432
  873MPD2     N12814   1.039   4.251   0.855  0.4394 -0.0049 -0.0332
  873MPD2    H512815   1.075   4.161   0.888 -0.4480  0.1409  1.3548
  873MPD2    N112816   1.244   4.668   0.678  0.2334  0.5603 -0.2952
  873MPD2    H712817   1.326   4.711   0.637  0.3968  1.7333  1.2445
  874MPD2     C12818   0.444   0.261  16.248 -0.1462 -0.1241  0.5631
  874MPD2    C112819   0.529   0.186  16.327  0.0786  0.3885 -0.2076
  874MPD2    C212820   0.656   0.235  16.353  0.4370  0.5433 -0.3682
  874MPD2    C312821   0.695   0.356  16.298 -0.2930 -0.0345  0.0316
  874MPD2    C412822   0.602   0.432  16.221 -0.7719  0.1368 -0.4580
  874MPD2    C512823   0.476   0.389  16.202  0.2418  0.2185 -0.2295
  874MPD2     H12824   0.712   0.182  16.430 -1.1835 -0.2210  0.2890
  874MPD2    H112825   0.629   0.527  16.175  1.7852 -1.1202 -1.5734
  874MPD2    H212826   0.345   0.226  16.222  0.4241 -2.7570  1.8963
  874MPD2    H312827   0.412   0.456  16.145  0.5893  0.7285 -0.0239
  874MPD2     N12828   0.825   0.401  16.325 -0.0538  0.2328  0.6750
  874MPD2    H512829   0.880   0.337  16.382 -0.8081 -0.5715  0.4991
  874MPD2    N112830   0.493   0.066  16.388  0.8138 -0.3622  0.4287
  874MPD2    H712831   0.557   0.031  16.458  0.0509  0.0440  1.3275
  875MPD2     C12832   0.475   3.475  14.750 -0.0719  0.0418 -0.3184
  875MPD2    C112833   0.536   3.583  14.685  0.0676 -0.3330 -0.3247
  875MPD2    C212834   0.592   3.687  14.764  0.9947 -0.4278  0.7641
  875MPD2    C312835   0.597   3.671  14.903  0.1082  0.1349  0.3405
  875MPD2    C412836   0.538   3.559  14.959 -0.3465  0.0849 -0.3059
  875MPD2    C512837   0.477   3.466  14.882 -0.0503  0.3519  0.2160
  875MPD2     H12838   0.628   3.783  14.728  3.1174 -1.2564  0.6779
  875MPD2    H112839   0.556   3.539  15.064  2.5231 -1.4279 -1.0766
  875MPD2    H212840   0.420   3.392  14.706  1.5984 -0.7794 -0.8373
  875MPD2    H312841   0.420   3.386  14.926 -1.7722  0.4492 -1.8596
  875MPD2     N12842   0.667   3.758  14.982 -1.0566  0.0341  0.1693
  875MPD2    H512843   0.656   3.737  15.081  1.9338 -1.3694  0.1960
  875MPD2    N112844   0.539   3.604  14.542 -0.1527 -0.4525  0.1876
  875MPD2    H712845   0.576   3.695  14.516 -0.4334  0.0581  1.5772
  876MPD2     C12846   0.694   0.274  15.825 -0.1873 -0.2838  0.4069
  876MPD2    C112847   0.633   0.186  15.744 -0.6632 -0.2933 -0.4122
  876MPD2    C212848   0.607   0.060  15.790  0.4730  0.1863 -0.1848
  876MPD2    C312849   0.649   0.017  15.910 -0.6750  0.3751 -0.4847
  876MPD2    C412850   0.709   0.105  15.989 -0.2714  0.4437  0.3405
  876MPD2    C512851   0.731   0.230  15.948 -0.9010 -0.2049  0.3038
  876MPD2     H12852   0.567   4.711  15.723 -0.5556 -1.1117  1.8907
  876MPD2    H112853   0.743   0.077  16.088  0.7636 -0.9457 -0.4013
  876MPD2    H212854   0.730   0.372  15.795  1.6501 -1.0462  0.1509
  876MPD2    H312855   0.798   0.292  16.007  0.6071 -0.3032 -1.3258
  876MPD2     N12856   0.631   4.603  15.943 -0.1543  0.3852 -0.0251
  876MPD2    H512857   0.595   4.549  15.865 -1.7193  2.2398 -0.5713
  876MPD2    N112858   0.586   0.239  15.623 -0.3940 -0.0531 -0.0834
  876MPD2    H712859   0.630   0.328  15.605 -1.0591 -0.4229 -3.5170
  877MPD2     C12860   0.446   0.796  15.062 -0.1847  0.0220  0.1690
  877MPD2    C112861   0.498   0.673  15.016  0.1618 -0.6971  0.0744
  877MPD2    C212862   0.516   0.662  14.881  0.6070  0.1797  0.6870
  877MPD2    C312863   0.459   0.753  14.795  0.1487 -0.6823 -0.2353
  877MPD2    C412864   0.397   0.867  14.841 -0.8148  0.3344  0.6282
  877MPD2    C512865   0.386   0.881  14.980 -0.8726 -0.1337  0.4532
  877MPD2     H12866   0.566   0.575  14.840  1.6504  0.6489  0.9774
  877MPD2    H112867   0.359   0.950  14.782 -3.4030  0.3653  2.3568
  877MPD2    H212868   0.430   0.814  15.168 -0.6955 -0.7467  0.2258
  877MPD2    H312869   0.340   0.969  15.022  1.8099  1.3220  0.3599
  877MPD2     N12870   0.462   0.741  14.654 -0.0195  0.0914 -0.0448
  877MPD2    H512871   0.416   0.815  14.602  4.4562  2.8863  0.0302
  877MPD2    N112872   0.536   0.570  15.097  0.3700  0.3126  0.3193
  877MPD2    H712873   0.562   0.485  15.047 -1.3629  1.5155 -2.6231
  878MPD2     C12874   0.359   4.210  12.673 -0.2292  0.6215 -0.3454
  878MPD2    C112875   0.408   4.337  12.700 -0.0836  0.1096  0.8484
  878MPD2    C212876   0.351   4.408  12.803  0.7304 -0.2565 -0.3317
  878MPD2    C312877   0.239   4.361  12.871 -0.3646  0.6813  1.1323
  878MPD2    C412878   0.207   4.227  12.851 -0.7617 -0.1912  0.0744
  878MPD2    C512879   0.264   4.153  12.752 -0.0192 -0.7977  0.8154
  878MPD2     H12880   0.377   4.513  12.812 -0.9820 -0.0029  1.7375
  878MPD2    H112881   0.118   4.184  12.896 -1.5091  0.1493 -1.0627
  878MPD2    H212882   0.400   4.162  12.585  0.5331 -1.3804  1.0973
  878MPD2    H312883   0.228   4.054  12.726  1.6967 -1.6594  1.7115
  878MPD2     N12884   0.176   4.457  12.955 -0.1544 -0.1521 -0.8322
  878MPD2    H512885   0.203   4.555  12.954 -1.4248  0.2015 -0.1325
  878MPD2    N112886   0.498   4.396  12.609 -0.0410 -0.4711  0.0455
  878MPD2    H712887   0.509   4.349  12.520  2.6644 -1.9126  1.1627
  879MPD2     C12888   0.794   0.436  16.726 -0.2839 -0.4828  0.1345
  879MPD2    C112889   0.814   0.560  16.679  0.8542 -0.2500 -0.3105
  879MPD2    C212890   0.714   0.614  16.606  0.3799  0.0872 -0.8830
  879MPD2    C312891   0.599   0.544  16.564  0.4411  0.0955  0.1088
  879MPD2    C412892   0.593   0.412  16.604  0.7566  0.2673 -0.6361
  879MPD2    C512893   0.694   0.358  16.685  0.5379  0.3015 -0.1053
  879MPD2     H12894   0.726   0.717  16.573 -1.9371  0.3304 -0.9372
  879MPD2    H112895   0.513   0.343  16.581 -0.0645  1.5338 -1.5640
  879MPD2    H212896   0.880   0.397  16.778 -0.4754 -1.4902 -0.3138
  879MPD2    H312897   0.669   0.256  16.711  1.8926 -0.3131 -1.2289
  879MPD2     N12898   0.497   0.597  16.479  0.0063 -0.2202  0.4485
  879MPD2    H512899   0.425   0.530  16.450 -1.2215  1.7924 -1.1678
  879MPD2    N112900   0.920   0.640  16.735 -0.4180  0.1095  0.2182
  879MPD2    H712901   0.981   0.591  16.800 -0.1943  0.0959 -0.0024
  880MPD2     C12902   2.298   2.881   0.174  0.5150  0.3279  0.2705
  880MPD2    C112903   2.330   2.908   0.305 -0.0520  0.0351 -0.0143
  880MPD2    C212904   2.433   2.847   0.366  0.2325 -0.7092  0.4422
  880MPD2    C312905   2.511   2.761   0.288  0.2041  1.3844  0.2008
  880MPD2    C412906   2.478   2.730   0.161 -0.0072  0.0121 -0.0025
  880MPD2    C512907   2.373   2.796   0.104  0.5728 -0.2848  0.1266
  880MPD2     H12908   2.446   2.864   0.473  2.7093 -0.9855  0.2023
  880MPD2    H112909   2.515   2.645   0.104 -0.2956  0.2018 -0.4731
  880MPD2    H212910   2.205   2.915   0.131 -0.1523 -0.3873  1.1456
  880MPD2    H312911   2.334   2.758   0.010 -1.8121  1.8754  0.2446
  880MPD2     N12912   2.609   2.689   0.358  0.4953  0.3760  0.9728
  880MPD2    H512913   2.627   2.717   0.453  2.6506  2.4834 -0.0651
  880MPD2    N112914   2.259   3.017   0.361  0.7650  0.4745 -0.2474
  880MPD2    H712915   2.191   3.061   0.300  0.8673 -0.9177 -1.3890
  881MPD2     C12916   2.388   3.872   0.009  0.1342  0.4397  0.0672
  881MPD2    C112917   2.284   3.793  17.688 -0.4833  0.2648  0.0061
  881MPD2    C212918   2.237   3.713   0.080 -0.4103  0.2290 -0.3436
  881MPD2    C312919   2.283   3.718   0.213 -0.2387 -0.5322  0.6134
  881MPD2    C412920   2.386   3.803   0.246 -0.0442  0.5519 -0.1901
  881MPD2    C512921   2.438   3.877   0.139  0.2410 -0.0573  0.3007
  881MPD2     H12922   2.162   3.639   0.056  0.5176 -0.4715 -1.0937
  881MPD2    H112923   2.433   3.803   0.344 -0.3479  1.6083 -0.0364
  881MPD2    H212924   2.448   3.912  17.635 -2.9876  0.2980 -2.3082
  881MPD2    H312925   2.532   3.928   0.154 -2.2437  4.0069  1.9739
  881MPD2     N12926   2.233   3.628   0.310 -0.0494  0.0084 -0.7117
  881MPD2    H512927   2.253   3.643   0.408  0.6456  2.3978 -1.2111
  881MPD2    N112928   2.250   3.773  17.552 -0.4283 -0.0301 -0.5704
  881MPD2    H712929   2.284   3.840  17.484  0.0597 -0.3344 -0.6310
  882MPD2     C12930   0.154   0.259  14.069 -0.3560  0.1950 -0.5044
  882MPD2    C112931   0.102   0.371  14.136  0.2726 -0.3322 -0.5591
  882MPD2    C212932   4.693   0.391  14.162 -0.1521  0.1180 -0.0900
  882MPD2    C312933   4.607   0.280  14.131  0.1014 -0.4126 -0.4372
  882MPD2    C412934   4.656   0.187  14.047 -0.0078  0.5549 -1.0218
  882MPD2    C512935   0.064   0.171  14.013 -0.1052 -0.0260  0.6096
  882MPD2     H12936   4.661   0.470  14.228 -2.4800 -0.5831 -0.3860
  882MPD2    H112937   4.589   0.115  14.002  2.8249 -2.8489  0.1570
  882MPD2    H212938   0.260   0.244  14.048  0.2101  2.1045  1.0107
  882MPD2    H312939   0.099   0.089  13.951  2.2454  0.3428  1.4312
  882MPD2     N12940   4.473   0.271  14.176  0.1575 -0.0234  0.5767
  882MPD2    H512941   4.417   0.191  14.146 -1.7604  0.6976  2.2000
  882MPD2    N112942   0.204   0.460  14.177  0.4039 -0.1413  0.5487
  882MPD2    H712943   0.294   0.426  14.146  0.6609  0.5581  0.5474
  883MPD2     C12944   2.670   1.014  16.528  0.4197 -0.9210  0.6325
  883MPD2    C112945   2.711   0.986  16.402  0.3102  0.3094 -0.3690
  883MPD2    C212946   2.847   0.999  16.379 -0.0067 -0.2086 -0.1746
  883MPD2    C312947   2.936   1.014  16.485 -0.3115 -0.2764 -0.0146
  883MPD2    C412948   2.892   1.033  16.615  0.2248  0.3827 -0.4228
  883MPD2    C512949   2.756   1.046  16.636 -0.0241 -0.5489  0.5995
  883MPD2     H12950   2.884   0.991  16.277 -2.4717 -2.0330 -0.9067
  883MPD2    H112951   2.959   1.059  16.696  0.5503  1.3647 -1.0057
  883MPD2    H212952   2.567   1.023  16.560  0.2206  1.4063 -0.6591
  883MPD2    H312953   2.717   1.083  16.731 -1.8812  0.2264 -0.4586
  883MPD2     N12954   3.077   1.027  16.452 -0.0864  0.0171  0.1320
  883MPD2    H512955   3.098   1.051  16.355  0.1741 -0.1044  0.1572
  883MPD2    N112956   2.625   0.953  16.289  0.0883 -0.1313 -0.2363
  883MPD2    H712957   2.672   0.949  16.199 -1.5478 -0.4903 -1.0787
  884MPD2     C12958   3.511   1.505  15.572 -0.5922  0.5111 -0.6475
  884MPD2    C112959   3.505   1.412  15.471 -0.1758 -0.4814  0.1599
  884MPD2    C212960   3.379   1.406  15.402  0.4531  0.0244 -0.0468
  884MPD2    C312961   3.271   1.484  15.441  0.5015 -0.5942 -0.4993
  884MPD2    C412962   3.280   1.566  15.553  0.2061 -0.4136 -0.3820
  884MPD2    C512963   3.399   1.577  15.612 -0.0767 -0.1569  0.0843
  884MPD2     H12964   3.364   1.342  15.316 -0.2777  0.1803 -0.0355
  884MPD2    H112965   3.206   1.640  15.580  0.2780 -0.5352  0.1617
  884MPD2    H212966   3.605   1.529  15.620 -0.9938  1.5670 -0.3654
  884MPD2    H312967   3.417   1.648  15.693 -0.4117 -0.9678  0.8666
  884MPD2     N12968   3.146   1.470  15.374  0.0032 -0.6641 -0.3065
  884MPD2    H512969   3.146   1.391  15.310 -2.6071  0.2160 -1.4055
  884MPD2    N112970   3.619   1.346  15.437 -0.4934  0.3638  0.1305
  884MPD2    H712971   3.690   1.359  15.508  1.3704 -0.0333 -1.6598
  885MPD2     C12972   2.683   1.886  17.620  0.0267  0.1335  0.0879
  885MPD2    C112973   2.748   1.769  17.583 -0.4242  0.0285  0.1530
  885MPD2    C212974   2.753   1.736  17.444  0.6446  0.4654 -0.3524
  885MPD2    C312975   2.679   1.813  17.350  0.2592  0.0868 -0.3852
  885MPD2    C412976   2.620   1.927  17.392 -0.1014  0.1455  0.3037
  885MPD2    C512977   2.617   1.962  17.525  1.2214  0.3368  0.2046
  885MPD2     H12978   2.812   1.652  17.409 -0.4674 -0.0979 -0.8767
  885MPD2    H112979   2.559   1.989  17.327 -1.7502  0.7222  2.4034
  885MPD2    H212980   2.664   1.918   0.014 -0.5658  3.1905 -0.9874
  885MPD2    H312981   2.566   2.054  17.553 -1.4931 -1.4582  1.1540
  885MPD2     N12982   2.680   1.766  17.214 -0.1829 -0.0459 -0.2157
  885MPD2    H512983   2.767   1.723  17.185 -1.4791 -1.3878 -2.1761
  885MPD2    N112984   2.799   1.680  17.681  0.0469  0.1141 -0.5164
  885MPD2    H712985   2.841   1.594  17.647  0.0952 -0.2771  0.5389
  886MPD2     C12986   3.662   4.515  15.288 -1.3117  0.1478 -0.4786
  886MPD2    C112987   3.747   4.510  15.404 -0.1717  0.1352 -0.1159
  886MPD2    C212988   3.758   4.619  15.489 -0.4199  0.3508 -0.2769
  886MPD2    C312989   3.676   0.002  15.473  0.3967  0.0206  0.0653
  886MPD2    C412990   3.596   0.008  15.365 -1.2064 -0.4564  0.3214
  886MPD2    C512991   3.588   4.630  15.276 -0.0845 -0.1965 -0.2281
  886MPD2     H12992   3.814   4.607  15.581 -0.8116 -1.9139 -0.3291
  886MPD2    H112993   3.527   0.090  15.347 -0.8463  0.9608  5.4554
  886MPD2    H212994   3.660   4.445  15.205 -0.4108  0.3651 -0.6871
  886MPD2    H312995   3.523   4.636  15.189  0.0589 -1.4529 -0.4219
  886MPD2     N12996   3.691   0.116  15.545 -0.2288  0.5149  0.2983
  886MPD2    H512997   3.646   0.204  15.523 -0.5476  0.6964  1.6787
  886MPD2    N112998   3.844   4.407  15.427  0.2461 -0.7462 -0.2488
  886MPD2    H712999   3.897   4.414  15.514  0.4660  1.7621 -0.5921
  887MPD2     C13000   4.536   4.423  15.375 -0.4723 -0.8770 -0.1127
  887MPD2    C113001   4.440   4.463  15.461  0.3925  0.2189  0.1576
  887MPD2    C213002   4.450   4.586  15.516 -0.7134  0.4148 -0.2162
  887MPD2    C313003   4.556   4.672  15.497  0.2374  1.0014  0.5707
  887MPD2    C413004   4.643   4.633  15.396  0.0410 -0.5390 -0.4631
  887MPD2    C513005   4.641   4.507  15.349 -0.1377 -0.7790 -0.1268
  887MPD2     H13006   4.376   4.615  15.590 -1.6226 -0.7595 -0.6533
  887MPD2    H113007   0.009   4.689  15.384  0.3339 -0.6954  1.0864
  887MPD2    H213008   4.536   4.331  15.316 -0.0804 -1.1232  0.2741
  887MPD2    H313009   4.711   4.469  15.275 -0.9598  0.7769 -1.7088
  887MPD2     N13010   4.569   0.069  15.571 -0.1581 -0.1914  0.4958
  887MPD2    H513011   4.497   0.085  15.640  2.4245 -1.0453  3.4203
  887MPD2    N113012   4.327   4.385  15.501 -0.1078  0.5868 -0.1062
  887MPD2    H713013   4.251   4.432  15.550  0.4442  1.0453  0.3009
  888MPD2     C13014   1.388   4.631  14.720  0.2297 -0.3476  0.1477
  888MPD2    C113015   1.380   4.663  14.849 -0.5524 -0.1834  0.3615
  888MPD2    C213016   1.480   0.003  14.904 -0.5826 -1.1728 -0.0572
  888MPD2    C313017   1.580   0.063  14.834  0.2598 -0.4827  0.0585
  888MPD2    C413018   1.584   0.034  14.701 -1.3074  0.2027 -0.0470
  888MPD2    C513019   1.491   4.677  14.646 -0.0869  0.3119 -0.6125
  888MPD2     H13020   1.472   0.023  15.010 -1.8101 -2.4936  0.1055
  888MPD2    H113021   1.658   0.072  14.630  0.5996  0.6993  2.2220
  888MPD2    H213022   1.321   4.557  14.678  0.9235  0.5935 -2.6251
  888MPD2    H313023   1.484   4.659  14.539 -1.8252  1.1495 -0.6401
  888MPD2     N13024   1.658   0.169  14.885 -0.0364 -0.7271  0.5487
  888MPD2    H513025   1.625   0.206  14.974  1.5580  0.1104  0.8018
  888MPD2    N113026   1.290   4.605  14.939 -0.7025  0.0286 -0.2315
  888MPD2    H713027   1.311   4.628  15.035 -2.1807  2.0282 -0.3969
  889MPD2     C13028   0.282   3.982  13.060 -0.7562 -0.1521 -0.2602
  889MPD2    C113029   0.411   3.986  13.012 -0.1697 -0.2486  0.4281
  889MPD2    C213030   0.499   4.069  13.063  0.3200  0.0294 -0.4909
  889MPD2    C313031   0.461   4.175  13.146 -0.3605  0.2656  0.0037
  889MPD2    C413032   0.329   4.164  13.193 -0.0918  0.0178 -0.1977
  889MPD2    C513033   0.247   4.063  13.159  0.0714  0.1029  0.4224
  889MPD2     H13034   0.604   4.063  13.036  0.6432 -0.3227  0.8150
  889MPD2    H113035   0.283   4.249  13.242 -0.1079 -0.1163  0.0192
  889MPD2    H213036   0.208   3.904  13.043  1.2084 -1.8496 -1.0148
  889MPD2    H313037   0.148   4.050  13.200  0.5739  1.0299  1.9388
  889MPD2     N13038   0.536   4.291  13.173 -0.5347 -0.2737  0.3795
  889MPD2    H513039   0.606   4.313  13.103 -0.4683  3.2881  1.6057
  889MPD2    N113040   0.466   3.884  12.932  0.2542  0.1194 -0.2974
  889MPD2    H713041   0.565   3.885  12.912 -0.3652  2.2588 -3.2539
  890MPD2     C13042   0.395   1.417  14.874  0.3327 -0.3623 -0.1294
  890MPD2    C113043   0.416   1.429  15.006  0.0820 -0.3668  1.0846
  890MPD2    C213044   0.480   1.328  15.079 -0.4458  0.2111 -0.4886
  890MPD2    C313045   0.524   1.213  15.012  0.1375 -0.7498 -0.2759
  890MPD2    C413046   0.509   1.211  14.871 -0.3822 -0.4046  0.1308
  890MPD2    C513047   0.438   1.314  14.806 -0.3170 -0.2409  0.4805
  890MPD2     H13048   0.504   1.347  15.183  0.8014  0.1422 -0.7612
  890MPD2    H113049   0.540   1.123  14.815  0.3880 -1.0583  1.6014
  890MPD2    H213050   0.351   1.493  14.811 -1.1430 -1.0508  0.0552
  890MPD2    H313051   0.441   1.323  14.698 -1.8938  1.2331  0.5521
  890MPD2     N13052   0.602   1.114  15.073 -0.4628 -0.1525 -0.5384
  890MPD2    H513053   0.649   1.050  15.010 -1.1864 -2.0344  0.8027
  890MPD2    N113054   0.376   1.551  15.060 -0.5976  0.0826 -0.0038
  890MPD2    H713055   0.366   1.622  14.989 -0.4936 -0.3992 -0.5061
  891MPD2     C13056   2.945   4.051  16.757 -0.1778 -0.1783 -0.4673
  891MPD2    C113057   2.926   4.183  16.796  1.1272 -0.3308 -0.0322
  891MPD2    C213058   3.016   4.240  16.881 -0.0110 -0.3673  0.1363
  891MPD2    C313059   3.124   4.168  16.926 -0.2411  0.4773  0.1493
  891MPD2    C413060   3.132   4.034  16.897  0.3387 -0.1216  0.4232
  891MPD2    C513061   3.044   3.978  16.806  0.0824  0.6736 -0.4664
  891MPD2     H13062   3.022   4.347  16.901 -0.0835 -0.5746  1.2294
  891MPD2    H113063   3.216   3.975  16.933  1.4077  0.9996 -0.2421
  891MPD2    H213064   2.880   4.012  16.680 -1.8385  0.8912  0.3836
  891MPD2    H313065   3.044   3.872  16.783 -2.5714  0.4921  0.3055
  891MPD2     N13066   3.235   4.232  16.991 -0.2884 -0.3953 -0.3324
  891MPD2    H513067   3.226   4.332  17.005 -1.4267 -0.6427  0.7773
  891MPD2    N113068   2.819   4.248  16.740  0.2003 -0.2255  0.3045
  891MPD2    H713069   2.749   4.195  16.690  0.1300 -2.4546  2.7851
  892MPD2     C13070   4.155   0.500  15.051  0.2022 -0.3700  0.0799
  892MPD2    C113071   4.080   0.563  14.963  0.7665 -0.3911  1.3252
  892MPD2    C213072   4.077   0.525  14.829 -0.6402  0.4598 -0.4231
  892MPD2    C313073   4.155   0.422  14.785 -0.2224 -0.2644 -0.0833
  892MPD2    C413074   4.244   0.360  14.876 -0.0825  0.4159 -0.0344
  892MPD2    C513075   4.239   0.401  15.004 -0.5551 -0.1190  0.0247
  892MPD2     H13076   4.012   0.575  14.759 -1.4497  0.1654  0.1228
  892MPD2    H113077   4.311   0.287  14.833 -0.2304  0.7072 -0.7540
  892MPD2    H213078   4.152   0.529  15.156  3.4115 -0.6299  0.2248
  892MPD2    H313079   4.301   0.352  15.078  1.2638 -1.3383 -2.3023
  892MPD2     N13080   4.157   0.372  14.652  0.2455  0.3089  0.0030
  892MPD2    H513081   4.234   0.317  14.615 -1.1037 -2.3025  1.1726
  892MPD2    N113082   3.976   0.651  15.004 -0.1223 -0.1548  0.1451
  892MPD2    H713083   3.910   0.689  14.936  0.8668  3.4532  1.1717
  893MPD2     C13084   1.924   2.754   2.192  0.3081 -0.1670 -0.0959
  893MPD2    C113085   2.059   2.755   2.171  0.5482 -0.0421 -0.0389
  893MPD2    C213086   2.132   2.634   2.174  0.7277 -0.1567 -0.1173
  893MPD2    C313087   2.067   2.515   2.199 -0.1563 -0.6954  0.7746
  893MPD2    C413088   1.931   2.522   2.224  0.0405  0.5299  0.4527
  893MPD2    C513089   1.858   2.633   2.210 -1.2174  0.3983 -0.6142
  893MPD2     H13090   2.238   2.625   2.154  0.8160 -0.6093  0.5902
  893MPD2    H113091   1.873   2.430   2.227  0.3168  0.3651  0.6886
  893MPD2    H213092   1.869   2.847   2.181 -0.3026 -0.2520  2.3221
  893MPD2    H313093   1.751   2.620   2.221 -1.0075 -0.5758  0.2961
  893MPD2     N13094   2.122   2.385   2.209 -0.2015  0.3399  0.1907
  893MPD2    H513095   2.060   2.310   2.238 -0.5830  0.9407  0.9253
  893MPD2    N113096   2.132   2.875   2.131 -0.3496 -0.8932  0.2959
  893MPD2    H713097   2.071   2.952   2.104  1.0591  0.2069  0.2703
  894MPD2     C13098   4.429   1.656   0.324 -0.0311  0.5883  0.4486
  894MPD2    C113099   4.415   1.630   0.461 -0.2696 -0.3331 -0.0250
  894MPD2    C213100   4.327   1.704   0.540  0.2157  0.0682  0.4271
  894MPD2    C313101   4.256   1.810   0.488  0.8097  0.1437 -0.0150
  894MPD2    C413102   4.285   1.843   0.356 -0.6073  0.1189  0.2379
  894MPD2    C513103   4.359   1.763   0.276  0.7155 -0.4745 -0.4003
  894MPD2     H13104   4.314   1.682   0.646  0.5656  0.5667  0.5712
  894MPD2    H113105   4.252   1.926   0.293  2.7284  1.1091 -0.2319
  894MPD2    H213106   4.491   1.596   0.259  1.2649  0.8227  1.4601
  894MPD2    H313107   4.369   1.801   0.175 -2.6364  1.8230  0.1473
  894MPD2     N13108   4.166   1.880   0.574 -0.1688 -0.7992 -0.5696
  894MPD2    H513109   4.162   1.852   0.672  1.1481  0.9863 -0.0131
  894MPD2    N113110   4.471   1.513   0.514 -0.7651 -0.3438 -0.3376
  894MPD2    H713111   4.447   1.503   0.612 -0.4054  0.2390 -0.1851
  895MPD2     C13112   3.268   4.671  13.621 -0.0017  0.0337  0.0403
  895MPD2    C113113   3.237   4.543  13.574  0.3183 -0.6266  0.3230
  895MPD2    C213114   3.344   4.466  13.526 -1.1321 -1.0310  0.1551
  895MPD2    C313115   3.478   4.508  13.524  0.0783 -0.5145 -0.0639
  895MPD2    C413116   3.507   4.625  13.584 -0.0117 -0.3333  0.1273
  895MPD2    C513117   3.405   4.704  13.628  0.1418  0.3445 -0.2970
  895MPD2     H13118   3.330   4.359  13.527 -0.4851 -1.1171  0.0200
  895MPD2    H113119   3.604   4.670  13.568 -0.3322  0.8289  1.4446
  895MPD2    H213120   3.191   0.015  13.650 -1.0037 -0.4311 -1.4799
  895MPD2    H313121   3.425   0.069  13.682  1.7833 -1.5353  2.2514
  895MPD2     N13122   3.587   4.434  13.468 -0.3549  0.1905  0.9323
  895MPD2    H513123   3.674   4.468  13.506 -0.8480  1.6068  0.8036
  895MPD2    N113124   3.106   4.500  13.574 -0.1846  0.3778  0.5888
  895MPD2    H713125   3.090   4.414  13.523 -0.7840  0.8119  0.0396
  896MPD2     C13126   1.271   2.721   1.502 -0.1234  1.4154 -0.2888
  896MPD2    C113127   1.250   2.663   1.378 -0.5862 -0.2078  0.8874
  896MPD2    C213128   1.121   2.647   1.331 -0.3143  0.4567  0.1772
  896MPD2    C313129   1.013   2.689   1.414  0.0406 -0.0025 -0.0329
  896MPD2    C413130   1.038   2.742   1.535 -0.1980 -0.1304 -0.1311
  896MPD2    C513131   1.170   2.767   1.577  0.0567  0.4201  0.8045
  896MPD2     H13132   1.090   2.606   1.235 -1.3933 -1.1198  1.1953
  896MPD2    H113133   0.953   2.775   1.593  0.3806  0.7885  0.1937
  896MPD2    H213134   1.367   2.756   1.536  0.1680 -1.3083  1.6660
  896MPD2    H313135   1.196   2.809   1.674  1.2710 -0.0706  0.6868
  896MPD2     N13136   0.884   2.672   1.358  0.0406 -0.1870  0.5397
  896MPD2    H513137   0.878   2.641   1.262  1.7084  0.6622  0.1598
  896MPD2    N113138   1.367   2.631   1.299  0.1384 -0.3214 -0.3856
  896MPD2    H713139   1.452   2.638   1.354 -0.3836  1.6986  0.1404
  897MPD2     C13140   1.818   3.661  10.673 -0.5212  0.0886 -0.2320
  897MPD2    C113141   1.769   3.789  10.641 -0.6583  0.0262  0.4661
  897MPD2    C213142   1.671   3.840  10.722 -0.1411 -0.3732 -0.1105
  897MPD2    C313143   1.632   3.785  10.846  0.9971 -0.7747  0.3063
  897MPD2    C413144   1.692   3.670  10.886 -0.1317 -0.5019  0.0886
  897MPD2    C513145   1.781   3.606  10.798 -0.2750 -0.3591  0.4018
  897MPD2     H13146   1.628   3.936  10.694 -0.5356 -0.5401 -0.0764
  897MPD2    H113147   1.674   3.615  10.977 -2.3260 -1.1101 -0.7109
  897MPD2    H213148   1.871   3.598  10.603 -0.7729 -0.1197 -0.2360
  897MPD2    H313149   1.821   3.508  10.823  1.3691 -0.3037 -2.0578
  897MPD2     N13150   1.542   3.843  10.932  0.1328  0.5413  0.6316
  897MPD2    H513151   1.533   3.795  11.021  1.5505 -0.3715  0.2836
  897MPD2    N113152   1.807   3.863  10.529 -0.0442  0.5838 -0.3344
  897MPD2    H713153   1.771   3.957  10.516  0.5113  1.2541  2.8452
  898MPD2     C13154   4.281   4.453  17.596 -0.4129 -0.4576 -0.0518
  898MPD2    C113155   4.342   4.576  17.621 -1.4842 -0.7517 -0.6513
  898MPD2    C213156   4.301   4.690  17.556  0.1414 -0.1402  0.7875
  898MPD2    C313157   4.212   4.682  17.452  0.2569  0.6568  0.3849
  898MPD2    C413158   4.151   4.559  17.423 -0.1239  0.7798  0.1262
  898MPD2    C513159   4.183   4.452  17.494  0.5285 -0.2917  0.6101
  898MPD2     H13160   4.331   0.060  17.594  0.4730  0.2867 -0.5687
  898MPD2    H113161   4.087   4.553  17.336  0.7724  1.6602 -0.5912
  898MPD2    H213162   4.315   4.357  17.632 -0.5309 -0.8648 -1.0537
  898MPD2    H313163   4.137   4.360  17.459 -3.0195  1.7634 -0.0849
  898MPD2     N13164   4.164   0.058  17.377  0.2459 -0.2099 -0.1954
  898MPD2    H513165   4.093   0.036  17.308  0.1743 -3.5000  0.9137
  898MPD2    N113166   4.441   4.587   0.005 -0.5229 -0.0506 -0.0926
  898MPD2    H713167   4.494   4.673   0.015  0.0184 -0.4146  0.1469
  899MPD2     C13168   4.406   0.709  17.208  0.0783  0.5023  0.0434
  899MPD2    C113169   4.537   0.727  17.236  0.1324 -0.3808  0.4820
  899MPD2    C213170   4.583   0.677  17.359  0.0502 -0.1077 -0.3363
  899MPD2    C313171   4.508   0.603  17.448  0.2395 -0.0948  0.0923
  899MPD2    C413172   4.380   0.576  17.406  0.3134 -0.1148 -0.0443
  899MPD2    C513173   4.328   0.634  17.294  0.0844  0.0421  0.0185
  899MPD2     H13174   4.688   0.697  17.381 -0.6810  0.3843  2.6277
  899MPD2    H113175   4.314   0.523  17.474  1.0398 -1.6990 -0.5688
  899MPD2    H213176   4.376   0.755  17.115 -3.9821 -0.3207  0.9379
  899MPD2    H313177   4.220   0.636  17.284  0.0105  0.6344  0.9024
  899MPD2     N13178   4.566   0.551  17.570 -0.6071 -0.6007  0.4772
  899MPD2    H513179   4.497   0.496  17.622 -1.5615 -0.2093 -0.3815
  899MPD2    N113180   4.617   0.808  17.143 -0.2632  0.2398 -0.4175
  899MPD2    H713181   4.568   0.835  17.059 -1.7247 -2.4671 -0.4359
  900MPD2     C13182   4.354   2.483  12.729 -0.2769  0.6180  0.1942
  900MPD2    C113183   4.269   2.389  12.685 -0.3531 -0.6162  0.4692
  900MPD2    C213184   4.170   2.431  12.606  0.2109 -0.2174  0.1032
  900MPD2    C313185   4.139   2.562  12.583  0.2042 -0.3766 -0.1024
  900MPD2    C413186   4.211   2.657  12.644 -0.3761 -0.0693 -0.2974
  900MPD2    C513187   4.318   2.618  12.721  0.4455 -0.3277  0.1581
  900MPD2     H13188   4.099   2.359  12.567 -1.2985  0.7608  1.0668
  900MPD2    H113189   4.191   2.764  12.644  1.2485  0.2282 -0.0851
  900MPD2    H213190   4.438   2.460  12.794  0.2436  1.0195 -0.3261
  900MPD2    H313191   4.382   2.694  12.762  2.8902 -1.4563 -1.6030
  900MPD2     N13192   4.038   2.588  12.488  0.1286  0.2542 -0.5201
  900MPD2    H513193   3.994   2.507  12.447 -0.1054 -0.9431  2.0720
  900MPD2    N113194   4.309   2.249  12.708 -0.5118 -0.1228  0.2711
  900MPD2    H713195   4.385   2.228  12.771 -0.6000 -0.2705  0.3268
  901MPD2     C13196   4.059   1.173  12.623 -0.3507  0.4029  0.1053
  901MPD2    C113197   4.191   1.189  12.662 -0.5238  0.2095  0.6530
  901MPD2    C213198   4.233   1.307  12.707 -0.3140  0.5701  0.2901
  901MPD2    C313199   4.156   1.422  12.694 -0.5978  0.2229 -0.3765
  901MPD2    C413200   4.023   1.401  12.666 -0.2735  0.4032 -0.2616
  901MPD2    C513201   3.975   1.280  12.631  0.0679  0.8214  0.0558
  901MPD2     H13202   4.335   1.315  12.742 -0.0696  1.5926 -0.6685
  901MPD2    H113203   3.946   1.477  12.676  1.1499  1.7763  0.2518
  901MPD2    H213204   4.026   1.075  12.589 -2.3163  1.5703 -1.3282
  901MPD2    H313205   3.872   1.256  12.609  0.3320 -0.9972  0.7570
  901MPD2     N13206   4.215   1.556  12.725 -0.2907  0.7366 -0.0680
  901MPD2    H513207   4.313   1.563  12.751 -0.4332  0.2393  0.5966
  901MPD2    N113208   4.275   1.076  12.649 -0.1805 -0.7586  1.2522
  901MPD2    H713209   4.230   0.987  12.626 -1.8385  0.3555  0.1961
  902MPD2     C13210   3.428   0.156  12.738 -0.5534 -0.1372  0.0422
  902MPD2    C113211   3.412   0.251  12.641  0.2544  0.1416  0.0660
  902MPD2    C213212   3.436   0.219  12.507  0.1282 -0.0804 -0.3946
  902MPD2    C313213   3.471   0.089  12.478 -0.0147  0.0082  1.2858
  902MPD2    C413214   3.481   4.722  12.572 -0.8250 -0.0213  0.0552
  902MPD2    C513215   3.455   0.033  12.703 -0.1780 -0.0761 -0.2277
  902MPD2     H13216   3.433   0.291  12.426  0.9732  0.3671 -0.0313
  902MPD2    H113217   3.506   4.618  12.555  2.0596  0.4938  1.1945
  902MPD2    H213218   3.410   0.166  12.844 -0.4946  0.3129  0.0073
  902MPD2    H313219   3.478   4.681  12.775  1.5364  1.9275  1.4227
  902MPD2     N13220   3.503   0.059  12.341  0.9662 -0.3126 -0.1579
  902MPD2    H513221   3.501   0.137  12.276 -0.2481 -1.2580 -1.2573
  902MPD2    N113222   3.372   0.383  12.665 -0.3079  0.1663  0.6490
  902MPD2    H713223   3.376   0.443  12.583  0.0683  0.6742  1.0401
  903MPD2     C13224   3.393   0.367  11.696  0.2690  0.5121 -0.1542
  903MPD2    C113225   3.334   0.294  11.797 -0.4394 -0.2229  0.0878
  903MPD2    C213226   3.196   0.311  11.812 -0.3416  0.8557  0.8701
  903MPD2    C313227   3.121   0.388  11.728 -0.5469 -0.1302  0.0715
  903MPD2    C413228   3.182   0.453  11.627 -0.9181  0.1750 -0.0243
  903MPD2    C513229   3.316   0.450  11.617  0.6974  0.0897 -0.2842
  903MPD2     H13230   3.144   0.270  11.898  0.5015 -1.1649  0.4189
  903MPD2    H113231   3.122   0.509  11.556 -0.3917 -0.1047 -0.6956
  903MPD2    H213232   3.498   0.357  11.669  0.6189 -2.7961  2.5813
  903MPD2    H313233   3.357   0.499  11.529 -1.0195  0.7545 -0.7077
  903MPD2     N13234   2.982   0.419  11.765  0.4289 -0.4024  0.6830
  903MPD2    H513235   2.949   0.377  11.852 -1.1093 -0.2294  0.1733
  903MPD2    N113236   3.406   0.203  11.880  1.2280 -0.5262 -0.3169
  903MPD2    H713237   3.360   0.147  11.951 -1.0230  1.6409 -0.0498
  904MPD2     C13238   2.991   3.649  13.912 -0.2817 -0.2401  0.5683
  904MPD2    C113239   3.004   3.756  13.823  0.3295  0.1280  0.0969
  904MPD2    C213240   3.132   3.801  13.783 -0.2763 -0.0349  0.0428
  904MPD2    C313241   3.247   3.733  13.823  0.3214  0.2412 -0.3025
  904MPD2    C413242   3.232   3.618  13.897  0.9448 -0.1801 -0.3958
  904MPD2    C513243   3.107   3.581  13.952 -0.4946  0.0975 -0.6242
  904MPD2     H13244   3.142   3.897  13.734  1.7592 -0.4652 -0.3863
  904MPD2    H113245   3.319   3.561  13.928  0.5606 -1.3903 -1.5413
  904MPD2    H213246   2.896   3.616  13.952 -0.5565 -1.7937 -1.3758
  904MPD2    H313247   3.102   3.490  14.011  1.0627  0.7817  0.5543
  904MPD2     N13248   3.371   3.780  13.773  0.2368  0.0173  0.4889
  904MPD2    H513249   3.376   3.861  13.711  0.0025 -0.9244 -0.7760
  904MPD2    N113250   2.885   3.833  13.786  0.0511 -0.3751 -0.1858
  904MPD2    H713251   2.890   3.911  13.722 -0.5022 -0.4178 -0.2848
  905MPD2     C13252   2.659   4.156  13.143  0.4941  0.0307  0.5396
  905MPD2    C113253   2.744   4.145  13.258 -0.3515 -0.4255 -0.0942
  905MPD2    C213254   2.881   4.161  13.248 -0.2219 -0.5778 -0.0223
  905MPD2    C313255   2.939   4.187  13.127  0.1973 -0.5207  0.3204
  905MPD2    C413256   2.860   4.184  13.016  0.5356 -0.5885  0.5962
  905MPD2    C513257   2.719   4.175  13.019 -0.6300  0.0276 -0.0404
  905MPD2     H13258   2.948   4.158  13.333 -0.7122  1.0657  0.4224
  905MPD2    H113259   2.896   4.195  12.914  0.8304 -0.6094  0.6963
  905MPD2    H213260   2.554   4.130  13.150  0.2538  1.0289  0.6508
  905MPD2    H313261   2.660   4.174  12.928  1.1871  0.1945 -1.2339
  905MPD2     N13262   3.077   4.196  13.105  0.5757 -0.2909 -0.2305
  905MPD2    H513263   3.113   4.175  13.013  1.1388  0.1796 -0.1146
  905MPD2    N113264   2.676   4.122  13.378 -0.1797  0.4267 -0.1963
  905MPD2    H713265   2.574   4.115  13.376 -0.0130 -2.1903  0.4991
  906MPD2     C13266   0.162   4.117  11.424 -1.2964 -0.4369  0.6706
  906MPD2    C113267   0.183   4.069  11.298 -0.4327  0.1416  0.2458
  906MPD2    C213268   0.178   3.937  11.285  0.3733  0.5239  0.5704
  906MPD2    C313269   0.140   3.855  11.380  0.1410 -0.0227  0.1266
  906MPD2    C413270   0.106   3.902  11.507 -0.1011  0.1380 -0.4813
  906MPD2    C513271   0.127   4.037  11.523  0.4764 -0.8361 -0.5325
  906MPD2     H13272   0.194   3.900  11.185  3.1484  4.0966 -0.3373
  906MPD2    H113273   0.055   3.845  11.583 -0.4255  1.2935  0.1723
  906MPD2    H213274   0.152   4.223  11.445  0.2476  0.0501 -1.0758
  906MPD2    H313275   0.106   4.092  11.614  1.5646 -0.7069 -0.3536
  906MPD2     N13276   0.133   3.713  11.352 -0.0634 -0.4123  0.9936
  906MPD2    H513277   0.158   3.678  11.260 -2.4993 -3.1807  1.4247
  906MPD2    N113278   0.182   4.149  11.186  0.3791  0.3785 -0.0433
  906MPD2    H713279   0.197   4.099  11.098  1.1747  0.0159  0.3008
  907MPD2     C13280   3.693   3.351  15.254 -0.1845  0.7783 -0.1009
  907MPD2    C113281   3.819   3.312  15.230  0.4460 -0.3817 -0.7314
  907MPD2    C213282   3.916   3.340  15.319  0.0611  0.5590  0.2751
  907MPD2    C313283   3.885   3.393  15.443 -0.3307  0.1539  0.0423
  907MPD2    C413284   3.758   3.433  15.466 -0.5979  0.1202 -0.2485
  907MPD2    C513285   3.662   3.422  15.371  0.5100 -0.5954  0.0764
  907MPD2     H13286   4.017   3.305  15.304 -0.6144 -0.6154 -1.4553
  907MPD2    H113287   3.723   3.482  15.556 -0.3736 -2.0902  1.0502
  907MPD2    H213288   3.610   3.332  15.187  0.4767  1.2595 -1.0432
  907MPD2    H313289   3.558   3.444  15.393  0.4873 -1.0087  0.3769
  907MPD2     N13290   3.990   3.395  15.538  0.7320 -0.1296  0.0684
  907MPD2    H513291   4.075   3.349  15.507  1.0492  1.3803 -1.2642
  907MPD2    N113292   3.850   3.241  15.113  0.2402 -0.1762  0.5086
  907MPD2    H713293   3.946   3.208  15.120  0.4413  0.1273 -0.9168
  908MPD2     C13294   2.153   3.815   9.580 -0.0282  0.1994 -0.4039
  908MPD2    C113295   2.045   3.775   9.642  0.0655 -0.0062 -0.1134
  908MPD2    C213296   2.028   3.809   9.776  0.2890  0.8923  0.5647
  908MPD2    C313297   2.123   3.873   9.855  0.2666 -0.0699 -0.2216
  908MPD2    C413298   2.236   3.910   9.790 -0.0309 -0.1522  0.2155
  908MPD2    C513299   2.246   3.894   9.654 -0.4000 -0.3029  0.1809
  908MPD2     H13300   1.943   3.769   9.830  1.4163 -1.3053  0.6941
  908MPD2    H113301   2.320   3.957   9.839 -0.8818 -1.4159  2.8509
  908MPD2    H213302   2.180   3.771   9.485 -2.5150 -0.0537 -0.9745
  908MPD2    H313303   2.338   3.920   9.604 -0.4384  1.2129  0.8880
  908MPD2     N13304   2.095   3.881   9.992  0.1151 -0.5458 -0.1615
  908MPD2    H513305   2.011   3.838  10.029  0.5346 -0.0477  1.3725
  908MPD2    N113306   1.935   3.712   9.576 -0.3146  0.3967  0.0085
  908MPD2    H713307   1.858   3.677   9.631 -2.0742  2.4839 -1.1247
  909MPD2     C13308   2.319   1.779  11.552 -0.2660 -0.0160  0.4070
  909MPD2    C113309   2.321   1.913  11.530 -0.7167 -0.2416  0.1007
  909MPD2    C213310   2.238   1.996  11.604 -0.0653 -0.1203 -1.3919
  909MPD2    C313311   2.152   1.948  11.701  0.0420  0.1955  0.0763
  909MPD2    C413312   2.147   1.805  11.715  0.0394  0.1317  0.5931
  909MPD2    C513313   2.229   1.727  11.641  0.5073 -0.3890  0.0156
  909MPD2     H13314   2.253   2.102  11.587  1.5465 -0.1988 -0.4914
  909MPD2    H113315   2.071   1.761  11.778  1.1576 -0.3680  1.6029
  909MPD2    H213316   2.386   1.709  11.503 -0.1453  0.6271 -0.3558
  909MPD2    H313317   2.223   1.619  11.643 -1.2048 -0.3191 -1.3925
  909MPD2     N13318   2.070   2.038  11.772  0.2538  0.2950  0.5328
  909MPD2    H513319   2.078   2.137  11.750  2.1745 -0.0030 -0.0297
  909MPD2    N113320   2.413   1.982  11.445 -0.1507  0.0359 -0.2679
  909MPD2    H713321   2.405   2.083  11.450  3.0490  0.3648 -2.0291
  910MPD2     C13322   3.484   3.818  15.807  0.2281 -0.7850  0.3290
  910MPD2    C113323   3.550   3.728  15.726  0.2957  0.5108  0.2488
  910MPD2    C213324   3.521   3.734  15.592 -0.2430 -0.5817  0.1840
  910MPD2    C313325   3.440   3.830  15.537  0.1472  0.0026 -0.5936
  910MPD2    C413326   3.394   3.929  15.622  0.2443  0.2185  0.0839
  910MPD2    C513327   3.408   3.922  15.758  0.2848  0.2359 -0.3105
  910MPD2     H13328   3.555   3.651  15.530  0.9943 -0.5561  0.8333
  910MPD2    H113329   3.340   4.013  15.579  0.0526 -1.0117 -2.1175
  910MPD2    H213330   3.510   3.807  15.912  0.2723 -1.4986  0.2418
  910MPD2    H313331   3.357   3.990  15.826  0.8492  1.1403 -0.7911
  910MPD2     N13332   3.403   3.828  15.401 -0.3920  0.2904 -0.0073
  910MPD2    H513333   3.323   3.888  15.385 -0.2225  0.1614 -1.3392
  910MPD2    N113334   3.604   3.609  15.781  0.0643 -0.1532 -0.0176
  910MPD2    H713335   3.660   3.549  15.721 -0.4658  2.3048 -3.0218
  911MPD2     C13336   1.454   0.712  16.156  0.1206 -0.5245  0.2760
  911MPD2    C113337   1.479   0.579  16.160  0.4210  0.1031 -0.8220
  911MPD2    C213338   1.385   0.490  16.117 -0.7326 -0.3259 -0.0632
  911MPD2    C313339   1.268   0.540  16.060 -0.0351 -0.7624  0.0285
  911MPD2    C413340   1.242   0.675  16.058 -0.1276 -0.5772 -0.3431
  911MPD2    C513341   1.336   0.765  16.101 -0.1012 -0.2474 -0.5480
  911MPD2     H13342   1.402   0.383  16.123 -1.8576 -0.3724  2.4277
  911MPD2    H113343   1.149   0.716  16.019  1.0388  1.7849 -0.6795
  911MPD2    H213344   1.537   0.782  16.165 -0.8789  0.7299 -0.1433
  911MPD2    H313345   1.330   0.869  16.072 -0.2037 -0.9095 -2.9645
  911MPD2     N13346   1.170   0.456  16.001 -0.5943 -0.0313  0.0256
  911MPD2    H513347   1.092   0.502  15.956 -0.4335 -1.1430 -1.3948
  911MPD2    N113348   1.611   0.536  16.199  0.6694 -0.2383 -0.5643
  911MPD2    H713349   1.690   0.599  16.202  0.6031 -0.0053 -3.7059
  912MPD2     C13350   0.879   4.320  15.740  0.0329  0.2157 -0.1663
  912MPD2    C113351   0.912   4.394  15.848  0.3346 -0.2825  0.2191
  912MPD2    C213352   0.908   4.343  15.979  0.9942  0.5943  0.1436
  912MPD2    C313353   0.879   4.208  16.000 -0.2444  0.8583  0.5336
  912MPD2    C413354   0.850   4.130  15.885  0.2498 -0.9439 -0.3367
  912MPD2    C513355   0.846   4.188  15.762 -0.7641 -0.3328  0.1278
  912MPD2     H13356   0.917   4.413  16.062 -1.0257 -0.3047  1.1148
  912MPD2    H113357   0.826   4.024  15.886  0.0624 -0.8922  0.7339
  912MPD2    H213358   0.869   4.367  15.643 -3.2299 -0.7390 -0.3034
  912MPD2    H313359   0.815   4.127  15.678 -1.1246  2.1119 -1.4933
  912MPD2     N13360   0.879   4.144  16.127 -0.1481  0.0758  0.0099
  912MPD2    H513361   0.856   4.045  16.122  0.6556 -0.2193  2.3076
  912MPD2    N113362   0.963   4.526  15.814  0.1037  0.3568 -0.4419
  912MPD2    H713363   0.954   4.561  15.719  0.9851  0.0883 -0.6243
  913MPD2     C13364   1.536   0.846  10.547  0.1270  0.2855 -1.0216
  913MPD2    C113365   1.610   0.964  10.545 -0.3067 -0.4666  0.1369
  913MPD2    C213366   1.603   1.036  10.430  0.3099 -0.1203 -0.0896
  913MPD2    C313367   1.535   0.995  10.318 -0.5479 -0.4581 -0.1082
  913MPD2    C413368   1.466   0.875  10.320 -0.3020 -0.2975  0.5644
  913MPD2    C513369   1.470   0.800  10.434 -0.2599  0.4563  0.1562
  913MPD2     H13370   1.660   1.127  10.417  1.8806 -0.7427  2.4244
  913MPD2    H113371   1.419   0.834  10.231 -0.4862  1.8078 -0.3060
  913MPD2    H213372   1.539   0.773  10.626  1.3711 -0.1356 -1.4683
  913MPD2    H313373   1.438   0.696  10.431 -2.0692  1.0746 -1.7140
  913MPD2     N13374   1.524   1.083  10.202  0.1405 -0.2643 -0.2049
  913MPD2    H513375   1.453   1.049  10.138 -2.7334 -1.9233  3.8728
  913MPD2    N113376   1.701   0.985  10.654  0.4827  0.2652  0.8199
  913MPD2    H713377   1.708   0.912  10.725 -1.3037 -0.3454  0.3579
  914MPD2     C13378   4.192   0.660  11.950 -0.2386  0.1937  0.3914
  914MPD2    C113379   4.199   0.791  12.002 -0.0323  0.1123  0.9195
  914MPD2    C213380   4.253   0.812  12.129  0.3446 -0.0108 -0.7422
  914MPD2    C313381   4.284   0.710  12.212  0.0218 -1.0213 -0.8326
  914MPD2    C413382   4.268   0.580  12.165 -0.5694  0.0568 -0.1043
  914MPD2    C513383   4.224   0.556  12.037  0.3786 -0.4217 -0.3293
  914MPD2     H13384   4.270   0.916  12.153 -0.1649  0.4111 -2.1664
  914MPD2    H113385   4.279   0.495  12.231 -1.2295 -0.6091 -0.8518
  914MPD2    H213386   4.166   0.644  11.846  2.1765 -0.5246 -0.1007
  914MPD2    H313387   4.217   0.454  12.000  0.6778 -0.6746  0.3230
  914MPD2     N13388   4.318   0.742  12.350 -0.9552 -0.2668  0.0522
  914MPD2    H513389   4.329   0.843  12.360 -0.0554 -0.4313  0.6623
  914MPD2    N113390   4.154   0.886  11.913  0.0192  0.4566 -0.5238
  914MPD2    H713391   4.125   0.854  11.821 -0.4466 -0.3288 -0.1058
  915MPD2     C13392   2.793   1.456  15.670  0.0415  0.1801  0.0493
  915MPD2    C113393   2.656   1.439  15.664 -0.3591  0.6049 -0.3433
  915MPD2    C213394   2.572   1.515  15.750 -0.7731 -0.1424  0.9337
  915MPD2    C313395   2.635   1.578  15.856  0.0523 -0.1230  0.9541
  915MPD2    C413396   2.769   1.589  15.861  0.3147  0.4951 -0.5043
  915MPD2    C513397   2.851   1.531  15.766  0.1133 -0.7263 -0.0430
  915MPD2     H13398   2.463   1.510  15.749 -0.7287 -1.0852  1.7111
  915MPD2    H113399   2.812   1.649  15.940 -0.6888  1.1523 -0.4616
  915MPD2    H213400   2.856   1.401  15.601 -1.2719  1.6310 -2.2777
  915MPD2    H313401   2.958   1.522  15.772  0.2038 -1.2734 -2.5038
  915MPD2     N13402   2.558   1.629  15.960 -0.1259  0.1269  0.0494
  915MPD2    H513403   2.459   1.619  15.940 -0.2684  0.7865  0.4308
  915MPD2    N113404   2.590   1.360  15.562 -0.6359 -0.2396  0.4860
  915MPD2    H713405   2.494   1.377  15.535 -0.6451 -0.5514  0.3161
  916MPD2     C13406   0.533   4.144  15.551  0.1875  0.1689 -0.1711
  916MPD2    C113407   0.504   4.076  15.665  1.0033  0.0204  0.4378
  916MPD2    C213408   0.471   3.943  15.644 -1.0833 -0.5181  0.3653
  916MPD2    C313409   0.480   3.877  15.522 -0.4343 -0.0164  0.3884
  916MPD2    C413410   0.511   3.953  15.413 -0.0029 -0.8339 -0.5035
  916MPD2    C513411   0.529   4.086  15.427 -0.0723  0.4869 -0.3061
  916MPD2     H13412   0.431   3.886  15.727  3.1614  1.0887  3.4860
  916MPD2    H113413   0.501   3.913  15.313  1.6958 -2.2758 -0.1167
  916MPD2    H213414   0.537   4.252  15.548  2.1213  0.1200  0.9902
  916MPD2    H313415   0.541   4.144  15.336  1.6931 -0.1773 -0.4847
  916MPD2     N13416   0.458   3.734  15.514  0.5852 -0.3375  0.5491
  916MPD2    H513417   0.424   3.691  15.600 -1.4342  0.4583  0.1639
  916MPD2    N113418   0.502   4.152  15.786 -0.2345 -0.0473 -0.1992
  916MPD2    H713419   0.532   4.248  15.773 -3.9635  1.1705  0.1839
  917MPD2     C13420   0.943   1.483  11.087 -0.4257  0.0099  0.1539
  917MPD2    C113421   0.996   1.509  11.208  0.6981  0.7391  0.6682
  917MPD2    C213422   1.085   1.619  11.221 -0.3390  0.5565 -0.0023
  917MPD2    C313423   1.098   1.712  11.128 -0.1787  1.3262  0.2043
  917MPD2    C413424   1.030   1.692  11.011 -0.2383 -0.7680  0.1590
  917MPD2    C513425   0.957   1.576  10.992 -0.8646 -0.3351  0.3535
  917MPD2     H13426   1.131   1.627  11.319  1.9253  1.3078 -1.1168
  917MPD2    H113427   1.032   1.762  10.929 -2.1731 -1.5781 -0.5677
  917MPD2    H213428   0.889   1.390  11.082  2.0145 -1.4035  0.4500
  917MPD2    H313429   0.914   1.553  10.895  1.2681  2.1322 -1.1622
  917MPD2     N13430   1.175   1.829  11.145 -0.3890 -0.3693 -0.3540
  917MPD2    H513431   1.185   1.884  11.060  1.4322 -1.0914 -0.6041
  917MPD2    N113432   0.970   1.415  11.308  0.1149 -0.4274 -0.0666
  917MPD2    H713433   0.900   1.346  11.282 -1.6897  1.6392 -0.6593
  918MPD2     C13434   0.956   1.690  12.242  0.5074 -0.1552  0.1093
  918MPD2    C113435   1.065   1.631  12.178 -0.5685  0.6761  0.3568
  918MPD2    C213436   1.044   1.544  12.077  0.9515  0.6073 -0.6966
  918MPD2    C313437   0.919   1.518  12.027 -0.6359  0.4603 -0.5393
  918MPD2    C413438   0.816   1.577  12.089  0.2373 -0.4746 -0.1908
  918MPD2    C513439   0.830   1.653  12.201 -0.4403  0.0531 -0.4860
  918MPD2     H13440   1.130   1.487  12.044  0.0099 -1.5922  0.7151
  918MPD2    H113441   0.717   1.575  12.046  0.5834 -0.6490 -0.9903
  918MPD2    H213442   0.964   1.755  12.329  2.7415  0.8449 -0.8420
  918MPD2    H313443   0.738   1.688  12.246 -0.0539 -1.4037  1.4569
  918MPD2     N13444   0.907   1.439  11.906 -0.3065  0.1150  0.4010
  918MPD2    H513445   0.992   1.407  11.860 -0.3401  1.0081 -0.2937
  918MPD2    N113446   1.197   1.656  12.217  0.3837  0.0131  1.1056
  918MPD2    H713447   1.274   1.621  12.162  1.1477  1.0677  1.5040
  919MPD2     C13448   1.681   0.569  12.138 -0.1102  0.2155  0.2198
  919MPD2    C113449   1.630   0.471  12.048  0.5276  0.1509  0.4860
  919MPD2    C213450   1.645   0.507  11.908  0.5091 -0.0649 -0.7329
  919MPD2    C313451   1.718   0.613  11.861  1.0269  0.2906  0.0892
  919MPD2    C413452   1.761   0.708  11.954  0.3404 -0.1114  0.4517
  919MPD2    C513453   1.729   0.688  12.087  0.2156 -0.4427 -0.0501
  919MPD2     H13454   1.610   0.427  11.844 -0.7502 -0.8014  0.8718
  919MPD2    H113455   1.801   0.804  11.926  0.8968 -0.2021  0.9521
  919MPD2    H213456   1.683   0.558  12.246 -2.4272 -0.2834  0.2125
  919MPD2    H313457   1.776   0.757  12.156 -3.6361  0.3011  1.8247
  919MPD2     N13458   1.743   0.635  11.723  0.0225  0.5046  0.3395
  919MPD2    H513459   1.793   0.716  11.689 -0.9855  1.1974  0.4904
  919MPD2    N113460   1.593   0.341  12.085  0.7268 -0.5304 -0.2215
  919MPD2    H713461   1.585   0.273  12.011  0.8591  2.1004 -2.6250
  920MPD2     C13462   1.476   1.199  10.898 -0.0814 -0.3956 -0.7244
  920MPD2    C113463   1.427   1.076  10.872 -0.0640  0.2425 -0.4902
  920MPD2    C213464   1.440   0.974  10.963 -0.0388 -0.0552  0.0971
  920MPD2    C313465   1.513   0.992  11.080  0.4667 -0.5693  0.4691
  920MPD2    C413466   1.569   1.116  11.102  0.3705  0.4429 -0.1425
  920MPD2    C513467   1.553   1.218  11.014 -0.0008 -0.0538 -0.1014
  920MPD2     H13468   1.387   0.880  10.952  0.9769 -0.6042 -0.1096
  920MPD2    H113469   1.631   1.135  11.189  2.6923 -0.1039 -1.7053
  920MPD2    H213470   1.461   1.282  10.830  2.6564  1.2198  0.6569
  920MPD2    H313471   1.592   1.316  11.041 -0.9363  0.2866  0.0088
  920MPD2     N13472   1.535   0.881  11.170  0.1566 -0.0608  0.1481
  920MPD2    H513473   1.502   0.793  11.133  1.1222 -2.2522  4.4305
  920MPD2    N113474   1.344   1.051  10.759  0.4520  0.2700  0.4192
  920MPD2    H713475   1.310   0.957  10.747  0.2524  0.7007 -2.4090
  921MPD2     C13476   2.413   0.243  16.779 -0.0600  0.2115  0.7930
  921MPD2    C113477   2.341   0.133  16.736  0.9147 -0.4834 -0.5496
  921MPD2    C213478   2.236   0.150  16.648 -0.4508  0.3502  0.6172
  921MPD2    C313479   2.206   0.274  16.601  0.1397  0.8686  0.2335
  921MPD2    C413480   2.265   0.382  16.656  0.1907  0.3371 -0.7972
  921MPD2    C513481   2.362   0.368  16.747  0.5464  0.4056  0.2733
  921MPD2     H13482   2.196   0.061  16.601  1.7382  0.3861 -1.3109
  921MPD2    H113483   2.236   0.485  16.636 -2.8533 -0.6599 -1.5198
  921MPD2    H213484   2.495   0.222  16.847 -0.9023  1.4770  2.2116
  921MPD2    H313485   2.418   0.458  16.769  1.4506  0.3347 -1.6694
  921MPD2     N13486   2.099   0.277  16.507  0.5063 -0.0846  0.0251
  921MPD2    H513487   2.063   0.190  16.468 -0.9240  0.0112  1.1346
  921MPD2    N113488   2.401   0.008  16.755  0.1558 -0.0611  0.7106
  921MPD2    H713489   2.496   0.014  16.789  0.2103 -0.6276  0.6484
  922MPD2     C13490   3.626   1.994  17.066  0.3737 -0.3401  0.1890
  922MPD2    C113491   3.572   2.122  17.088 -0.3328  0.1250  0.4000
  922MPD2    C213492   3.459   2.127  17.163  0.3134 -0.2651  0.2364
  922MPD2    C313493   3.403   2.015  17.229  0.2631  0.1442 -0.3859
  922MPD2    C413494   3.468   1.891  17.218 -0.0666  0.9222 -0.0895
  922MPD2    C513495   3.582   1.887  17.144 -0.1745 -0.3308  0.1690
  922MPD2     H13496   3.404   2.220  17.163 -0.6937 -0.8561  0.1473
  922MPD2    H113497   3.439   1.800  17.270  0.8915  0.0879 -1.0265
  922MPD2    H213498   3.718   1.979  17.010  0.3369  0.1884 -0.0135
  922MPD2    H313499   3.641   1.796  17.136  1.3516  0.5861  0.8112
  922MPD2     N13500   3.276   2.029  17.291  0.1013  0.1752  0.2392
  922MPD2    H513501   3.246   2.126  17.299 -0.3503  0.1612 -1.2904
  922MPD2    N113502   3.623   2.235  17.025  0.1859 -0.1846 -0.1185
  922MPD2    H713503   3.568   2.320  17.032  1.9116  1.0073 -1.1908
  923MPD2     C13504   4.514   4.263   8.907  0.8447  0.1036  0.1894
  923MPD2    C113505   4.541   4.347   9.014  0.2301 -0.2341 -0.7398
  923MPD2    C213506   4.631   4.305   9.110 -0.2590  0.2365  0.1498
  923MPD2    C313507   4.703   4.189   9.094  0.2489 -0.3305  0.1762
  923MPD2    C413508   4.678   4.097   8.991  0.1663  0.5488  0.2803
  923MPD2    C513509   4.579   4.140   8.905 -0.2387  0.2863  0.1987
  923MPD2     H13510   4.651   4.363   9.199  0.8005  1.0165 -0.6024
  923MPD2    H113511   0.002   4.002   8.977  1.2922  1.5403 -2.2681
  923MPD2    H213512   4.443   4.279   8.827 -0.5361  0.2539  1.4547
  923MPD2    H313513   4.562   4.062   8.831  0.1507  1.1843 -0.8310
  923MPD2     N13514   0.073   4.155   9.196 -0.3535  0.8860 -0.7227
  923MPD2    H513515   0.066   4.200   9.287  1.3573  1.2361 -0.7603
  923MPD2    N113516   4.479   4.470   9.015  0.6465 -0.5033  0.1678
  923MPD2    H713517   4.415   4.479   8.937 -0.9018  2.7966  1.8084
  924MPD2     C13518   0.143   3.253  15.755 -0.1348  0.0016 -0.3633
  924MPD2    C113519   0.038   3.212  15.676  0.4343 -0.1073 -0.2211
  924MPD2    C213520   4.667   3.303  15.642 -0.0884 -0.4144 -0.5515
  924MPD2    C313521   4.670   3.436  15.684 -0.4675  0.9785 -0.2194
  924MPD2    C413522   0.037   3.474  15.772 -0.3331 -0.9112  0.0786
  924MPD2    C513523   0.133   3.381  15.809  0.9362  0.4088 -0.5258
  924MPD2     H13524   4.576   3.275  15.589 -0.2164 -0.3056 -0.3906
  924MPD2    H113525   0.058   3.575  15.805 -1.0210 -0.1635 -1.8105
  924MPD2    H213526   0.229   3.194  15.783  0.3647  2.4005  3.0729
  924MPD2    H313527   0.215   3.424  15.865 -0.3118  1.2882  0.6277
  924MPD2     N13528   4.560   3.528  15.675 -0.1841  0.5085 -0.1516
  924MPD2    H513529   4.567   3.615  15.726  0.3837  0.8757 -0.8545
  924MPD2    N113530   0.040   3.082  15.625 -0.2629  0.2637 -0.4988
  924MPD2    H713531   0.116   3.020  15.652 -0.4450  0.3843  0.3168
  925MPD2     C13532   3.288   0.146  14.846 -0.2463 -0.1807 -0.6704
  925MPD2    C113533   3.183   0.214  14.788 -0.2425  0.2166 -0.6882
  925MPD2    C213534   3.087   0.267  14.871  0.2443  0.2749  1.0486
  925MPD2    C313535   3.097   0.258  15.008  0.4015  0.2202  0.3016
  925MPD2    C413536   3.205   0.191  15.064  0.0625  0.1016 -0.6436
  925MPD2    C513537   3.299   0.136  14.978 -0.1711  1.3292 -0.0031
  925MPD2     H13538   3.009   0.326  14.825 -0.2271 -0.5026  0.8572
  925MPD2    H113539   3.222   0.184  15.171  1.3689  0.1249 -0.8519
  925MPD2    H213540   3.380   0.121  14.794  0.7461  0.1537  0.9367
  925MPD2    H313541   3.381   0.081  15.023 -1.5540 -0.5071  0.2416
  925MPD2     N13542   2.999   0.299  15.096 -0.5311 -0.3871  0.2453
  925MPD2    H513543   3.010   0.281  15.195 -0.7849 -0.8818  0.1820
  925MPD2    N113544   3.163   0.225  14.648  0.0103 -0.0854  0.4172
  925MPD2    H713545   3.076   0.264  14.614  2.1695  2.7426 -1.7445
  926MPD2     C13546   1.500   3.247  13.488  0.5506 -0.0603  0.3649
  926MPD2    C113547   1.444   3.360  13.432  0.2471 -0.3034  0.4556
  926MPD2    C213548   1.509   3.429  13.334  0.1609  0.0756  0.0461
  926MPD2    C313549   1.610   3.367  13.261 -0.0101  0.5238 -0.7235
  926MPD2    C413550   1.683   3.268  13.330  0.2561 -0.4562  0.0342
  926MPD2    C513551   1.619   3.197  13.430  0.4196  1.0669  0.6303
  926MPD2     H13552   1.457   3.516  13.296  0.6223  0.4022  0.1552
  926MPD2    H113553   1.770   3.228  13.280  0.9281  1.7802 -0.5815
  926MPD2    H213554   1.451   3.203  13.573  0.1710 -0.3948 -0.0295
  926MPD2    H313555   1.667   3.113  13.480  0.5651  1.5955  1.3819
  926MPD2     N13556   1.669   3.428  13.151  0.1288 -0.0997 -0.3906
  926MPD2    H513557   1.763   3.393  13.132 -0.0986 -0.9808  0.0866
  926MPD2    N113558   1.321   3.416  13.468 -0.1245 -0.2054  0.3022
  926MPD2    H713559   1.297   3.505  13.426  2.3671 -0.5681 -1.9366
  927MPD2     C13560   2.597   1.083  17.500  0.6620 -1.0219  0.1232
  927MPD2    C113561   2.478   1.068  17.572 -0.2210  0.3198  0.4192
  927MPD2    C213562   2.369   1.033  17.498  0.2896 -0.4778  0.4180
  927MPD2    C313563   2.368   1.020  17.363  0.5504  0.4449 -1.0065
  927MPD2    C413564   2.489   1.026  17.297 -0.2925 -0.1120 -0.5901
  927MPD2    C513565   2.603   1.049  17.367  0.0352  0.3390  0.2191
  927MPD2     H13566   2.274   1.020  17.549  0.1640  1.5569  0.7117
  927MPD2    H113567   2.492   1.009  17.190  2.1123  0.0455 -0.5562
  927MPD2    H213568   2.680   1.128  17.553  0.5674 -0.0801 -0.5237
  927MPD2    H313569   2.694   1.048  17.309 -0.7751 -0.3961 -1.0434
  927MPD2     N13570   2.237   0.999  17.307  0.8712 -0.1714  0.5293
  927MPD2    H513571   2.165   0.976  17.375  0.3512 -0.2760 -0.0438
  927MPD2    N113572   2.474   1.106   0.001  0.1984  0.1508 -0.1499
  927MPD2    H713573   2.559   1.150   0.034 -0.4009  1.2039 -0.0035
  928MPD2     C13574   4.099   4.230   0.565  0.3757  0.1226  0.2409
  928MPD2    C113575   4.214   4.175   0.618  0.0115  0.0624  0.1776
  928MPD2    C213576   4.316   4.153   0.531 -0.8151 -0.3831 -0.3046
  928MPD2    C313577   4.299   4.176   0.394 -1.1694  0.3349  0.3937
  928MPD2    C413578   4.183   4.215   0.341  0.0282  0.3773  0.2072
  928MPD2    C513579   4.084   4.251   0.428  0.1002  0.3144  0.3518
  928MPD2     H13580   4.410   4.117   0.572 -0.4572  2.5818  1.4592
  928MPD2    H113581   4.166   4.256   0.242 -0.1044  4.1452  1.7726
  928MPD2    H213582   4.018   4.247   0.636  0.1016  0.2537 -0.1074
  928MPD2    H313583   3.988   4.284   0.390  1.3432  1.7818 -1.5381
  928MPD2     N13584   4.401   4.158   0.293 -0.2341  0.4773  0.2254
  928MPD2    H513585   4.392   4.201   0.202 -2.2705 -0.7976 -0.1801
  928MPD2    N113586   4.222   4.142   0.756  0.4715  0.2626 -0.4164
  928MPD2    H713587   4.135   4.135   0.808  1.1864  0.5050  0.8200
  929MPD2     C13588   3.902   4.297  10.057  0.1435  0.3288  1.0882
  929MPD2    C113589   3.907   4.165  10.090  0.2548  0.6352 -0.2821
  929MPD2    C213590   3.790   4.094  10.108 -0.2293 -0.6659 -0.2692
  929MPD2    C313591   3.676   4.164  10.132 -1.1567 -0.1697  0.1542
  929MPD2    C413592   3.674   4.301  10.108 -0.3987  0.0409  0.5564
  929MPD2    C513593   3.790   4.370  10.069 -0.3106 -0.3259 -0.1919
  929MPD2     H13594   3.793   3.986  10.122  0.6366 -0.6733 -0.5169
  929MPD2    H113595   3.586   4.365  10.114 -1.0643 -0.8726  0.4731
  929MPD2    H213596   3.988   4.358  10.032  1.9547 -3.1853 -1.3071
  929MPD2    H313597   3.794   4.478  10.061  0.4690 -0.5425 -2.7661
  929MPD2     N13598   3.561   4.101  10.181  0.2690  0.8774  0.3985
  929MPD2    H513599   3.480   4.161  10.176  0.0081  0.3667 -1.5328
  929MPD2    N113600   4.034   4.103  10.082  0.1588 -0.1372 -0.4136
  929MPD2    H713601   4.114   4.165  10.072  0.0533 -0.0070 -0.4565
  930MPD2     C13602   1.150   1.834  14.735  1.1370  0.3733  0.2267
  930MPD2    C113603   1.256   1.784  14.664 -0.2171 -0.2566  0.1292
  930MPD2    C213604   1.274   1.650  14.638  0.4674  0.4838 -0.1697
  930MPD2    C313605   1.171   1.562  14.660  0.0649 -0.7744 -0.1820
  930MPD2    C413606   1.062   1.614  14.720 -0.1859 -0.8828 -0.0114
  930MPD2    C513607   1.055   1.742  14.768  0.5943 -0.8775 -0.0384
  930MPD2     H13608   1.367   1.621  14.590 -1.1454 -1.2358 -2.2207
  930MPD2    H113609   0.977   1.552  14.744 -0.2439 -0.6219  0.4465
  930MPD2    H213610   1.144   1.938  14.767  0.4874 -1.1618  5.0372
  930MPD2    H313611   0.963   1.768  14.819  0.6042 -1.3172  0.2062
  930MPD2     N13612   1.162   1.433  14.618  0.3392 -0.0852 -0.2811
  930MPD2    H513613   1.066   1.404  14.601 -0.0739  2.9237 -3.1199
  930MPD2    N113614   1.336   1.876  14.590  0.0425  0.6212 -0.1223
  930MPD2    H713615   1.301   1.972  14.591 -2.1079 -0.1520 -0.1633
  931MPD2     C13616   2.629   1.099   0.854  0.0580 -0.0461  0.4619
  931MPD2    C113617   2.533   1.056   0.764 -0.5894  0.5226 -0.0286
  931MPD2    C213618   2.447   0.955   0.802 -0.2791 -0.0693  0.4983
  931MPD2    C313619   2.460   0.896   0.927 -0.0219 -0.3183 -0.2861
  931MPD2    C413620   2.554   0.942   1.016  0.5236  0.6738  0.9542
  931MPD2    C513621   2.635   1.045   0.977 -1.1919  0.0655  0.1366
  931MPD2     H13622   2.376   0.915   0.731 -0.9048 -0.2440  1.2266
  931MPD2    H113623   2.564   0.896   1.114  0.9157 -0.1017  0.5578
  931MPD2    H213624   2.695   1.178   0.820 -1.7792  1.4317  0.3560
  931MPD2    H313625   2.704   1.078   1.055 -1.6370 -0.1920  0.6396
  931MPD2     N13626   2.376   0.787   0.973 -0.0808  0.4577 -0.1554
  931MPD2    H513627   2.404   0.746   1.061 -1.5477  0.8324  0.4862
  931MPD2    N113628   2.520   1.124   0.638 -0.2189 -0.4551  0.3087
  931MPD2    H713629   2.598   1.185   0.617 -0.0135 -0.1605  1.9862
  932MPD2     C13630   3.335   0.286  11.285 -0.8122 -0.2084 -0.7780
  932MPD2    C113631   3.386   0.298  11.159 -1.1557  0.3940  0.0087
  932MPD2    C213632   3.462   0.200  11.102 -0.0504  0.3781 -0.1715
  932MPD2    C313633   3.503   0.093  11.180  0.3812  0.5898  0.6338
  932MPD2    C413634   3.453   0.074  11.305  0.7670 -0.1230  0.0210
  932MPD2    C513635   3.377   0.176  11.359 -0.1632 -0.6539  0.0874
  932MPD2     H13636   3.498   0.211  11.001  1.0176 -1.0433  0.0594
  932MPD2    H113637   3.469   4.710  11.363 -0.3795 -0.7078 -0.5593
  932MPD2    H213638   3.268   0.359  11.328  0.3375  1.0997 -1.1879
  932MPD2    H313639   3.333   0.166  11.458 -1.8629  0.0846 -0.5852
  932MPD2     N13640   3.592   4.724  11.128 -0.3515 -0.1399  0.3719
  932MPD2    H513641   3.637   4.661  11.193 -4.0335 -2.5088  0.6278
  932MPD2    N113642   3.345   0.408  11.074  0.4259 -0.6159  0.5716
  932MPD2    H713643   3.398   0.412  10.988 -1.0413  2.3074 -0.2047
  933MPD2     C13644   3.696   4.046   1.274 -0.4608 -0.4664 -0.7381
  933MPD2    C113645   3.786   4.143   1.245  0.1400 -0.4029  0.2364
  933MPD2    C213646   3.746   4.275   1.266  0.6430 -0.5781 -0.4699
  933MPD2    C313647   3.618   4.306   1.304 -0.2938  0.3354 -0.1018
  933MPD2    C413648   3.522   4.208   1.322 -0.6504  0.1344  0.1659
  933MPD2    C513649   3.570   4.078   1.315  0.0467  0.3622  0.0089
  933MPD2     H13650   3.804   4.365   1.254  0.5697 -0.2337  1.7302
  933MPD2    H113651   3.420   4.234   1.350 -0.3100 -0.8318  2.3150
  933MPD2    H213652   3.739   3.946   1.281 -0.6935 -0.5249 -0.1330
  933MPD2    H313653   3.504   3.998   1.346  0.3440 -1.5428 -4.3200
  933MPD2     N13654   3.593   4.446   1.322  0.1232 -0.2955 -0.6480
  933MPD2    H513655   3.677   4.501   1.319  1.0982 -1.7743 -0.4585
  933MPD2    N113656   3.920   4.109   1.216  0.3600  0.2894  0.2379
  933MPD2    H713657   3.950   4.012   1.224 -0.5039 -0.0463 -0.5467
  934MPD2     C13658   0.622   2.452   1.583  0.3252 -0.1336  0.1125
  934MPD2    C113659   0.693   2.360   1.501  0.0672 -0.5919 -0.1909
  934MPD2    C213660   0.615   2.294   1.408 -0.0335  0.0213  0.4923
  934MPD2    C313661   0.477   2.308   1.400  0.2749  0.3658 -0.2230
  934MPD2    C413662   0.417   2.399   1.491  0.6861 -0.1945  0.1726
  934MPD2    C513663   0.490   2.464   1.590  0.3386 -0.1301  0.3555
  934MPD2     H13664   0.673   2.226   1.346 -0.3314 -1.4698  1.8489
  934MPD2    H113665   0.310   2.417   1.489  0.3126 -2.5150 -0.9360
  934MPD2    H213666   0.668   2.509   1.663 -0.8264  3.1606 -1.5890
  934MPD2    H313667   0.439   2.525   1.664 -0.4273 -0.7020  0.3063
  934MPD2     N13668   0.399   2.225   1.319 -0.2042  0.1312  0.6387
  934MPD2    H513669   0.300   2.229   1.342 -0.3148 -1.0262  0.3449
  934MPD2    N113670   0.828   2.332   1.518  0.2529  0.5839  0.1515
  934MPD2    H713671   0.861   2.266   1.448  0.6656 -0.1733  1.0656
  935MPD2     C13672   0.212   1.272   1.382  0.3061  0.1085 -0.0807
  935MPD2    C113673   0.271   1.297   1.263 -0.0850 -0.7614 -0.4838
  935MPD2    C213674   0.268   1.430   1.212 -0.3368  0.2882 -0.3920
  935MPD2    C313675   0.219   1.533   1.290 -0.3555  0.6151  0.2799
  935MPD2    C413676   0.146   1.499   1.405 -0.0752 -0.1881  0.0664
  935MPD2    C513677   0.152   1.369   1.450 -0.2671  0.2836 -0.8112
  935MPD2     H13678   0.308   1.451   1.113  2.0871 -0.5926  0.3852
  935MPD2    H113679   0.095   1.576   1.463 -1.5330 -0.0431 -1.4112
  935MPD2    H213680   0.231   1.179   1.436  0.9947  0.5647  0.4643
  935MPD2    H313681   0.095   1.352   1.541 -1.2163  1.1437 -1.2489
  935MPD2     N13682   0.222   1.672   1.253 -0.0051 -0.0687  0.0300
  935MPD2    H513683   0.194   1.746   1.317  0.2439 -0.9204  1.1420
  935MPD2    N113684   0.345   1.196   1.207 -0.3699 -0.0220  0.2344
  935MPD2    H713685   0.411   1.216   1.133 -1.9948  1.5359 -0.8205
  936MPD2     C13686   3.614   3.840  12.688  0.5118 -0.1604  0.3196
  936MPD2    C113687   3.633   3.741  12.781 -0.1839  0.8153 -0.0043
  936MPD2    C213688   3.749   3.747  12.855  0.3078  0.3185  0.2705
  936MPD2    C313689   3.843   3.845  12.831  0.1447 -0.3085 -0.7425
  936MPD2    C413690   3.817   3.948  12.743  0.0536  0.4927 -0.2457
  936MPD2    C513691   3.714   3.932  12.660 -0.0973 -0.3332  0.4423
  936MPD2     H13692   3.771   3.669  12.926  2.3051  1.8555  1.3413
  936MPD2    H113693   3.884   4.031  12.724 -0.1552  0.7003 -0.0802
  936MPD2    H213694   3.526   3.851  12.625  0.4132 -1.5180  0.2234
  936MPD2    H313695   3.688   4.016  12.596 -1.0881 -0.5831  0.5138
  936MPD2     N13696   3.959   3.835  12.912  0.0506 -0.7475 -0.2721
  936MPD2    H513697   3.962   3.746  12.961  2.0000 -0.2226  0.5658
  936MPD2    N113698   3.544   3.636  12.810 -0.8870 -0.1428 -0.1518
  936MPD2    H713699   3.575   3.581  12.889 -3.0336  1.9114  2.1240
  937MPD2     C13700   1.523   4.449  11.767 -0.1188  0.1248  0.0124
  937MPD2    C113701   1.586   4.565  11.795 -0.0512 -0.7681 -0.5646
  937MPD2    C213702   1.668   4.631  11.703  0.0100 -0.5198 -0.4328
  937MPD2    C313703   1.703   4.560  11.590 -0.2615 -0.5009  0.2779
  937MPD2    C413704   1.646   4.435  11.569 -0.1292  0.2877 -0.2232
  937MPD2    C513705   1.546   4.382  11.651  0.0815  0.8566 -0.8741
  937MPD2     H13706   1.708   0.002  11.727  1.6232 -1.1989 -0.3831
  937MPD2    H113707   1.672   4.376  11.482 -0.8233  0.2556 -0.4119
  937MPD2    H213708   1.447   4.410  11.834  0.2596  1.0768  0.9801
  937MPD2    H313709   1.491   4.293  11.624  0.2422  0.0853  1.3324
  937MPD2     N13710   1.792   4.623  11.497 -0.2577 -0.5235  0.7978
  937MPD2    H513711   1.837   4.710  11.523  1.0249 -0.8136 -0.4153
  937MPD2    N113712   1.551   4.647  11.904 -0.9769  0.5950 -0.0582
  937MPD2    H713713   1.593   0.012  11.902 -0.1780  0.2358  0.1435
  938MPD2     C13714   0.196   1.316   0.868  0.0847  0.2031 -0.2412
  938MPD2    C113715   0.079   1.376   0.907 -0.8255 -0.3360  0.5993
  938MPD2    C213716   4.709   1.295   0.955  1.1536  0.8899 -0.4326
  938MPD2    C313717   4.726   1.157   0.970 -0.0551  0.6596  0.3942
  938MPD2    C413718   0.118   1.097   0.920 -0.3934 -0.6514  0.4330
  938MPD2    C513719   0.211   1.180   0.878  0.4073  0.4145  0.5406
  938MPD2     H13720   4.621   1.347   0.992 -0.4476 -1.1910 -1.3445
  938MPD2    H113721   0.141   0.992   0.937 -0.2059 -0.9197 -1.5044
  938MPD2    H213722   0.283   1.373   0.838 -0.7191  0.5241 -1.9593
  938MPD2    H313723   0.309   1.141   0.851  0.7821  0.4595  1.8352
  938MPD2     N13724   4.646   1.063   1.034 -0.2030 -0.5154  0.2800
  938MPD2    H513725   4.669   0.964   1.030 -0.1562 -0.4744 -0.4513
  938MPD2    N113726   0.047   1.516   0.890 -0.1316 -0.4270  0.1180
  938MPD2    H713727   4.688   1.554   0.929 -0.0831 -0.1802 -0.0132
  939MPD2     C13728   1.148   2.775   0.714  0.5323  0.2533  0.3368
  939MPD2    C113729   1.220   2.850   0.798 -0.4921 -0.2586  0.0013
  939MPD2    C213730   1.342   2.905   0.759  0.2228 -0.3860 -0.5906
  939MPD2    C313731   1.391   2.881   0.625  0.3427  1.1410 -0.2278
  939MPD2    C413732   1.319   2.799   0.542  0.2630  0.6167 -0.1527
  939MPD2    C513733   1.197   2.749   0.583  0.0941  0.1546 -0.1878
  939MPD2     H13734   1.399   2.960   0.833  0.3576  0.7688 -1.5481
  939MPD2    H113735   1.338   2.790   0.436  0.3108  0.1133 -0.1014
  939MPD2    H213736   1.056   2.724   0.742  0.5695  1.3692  2.5290
  939MPD2    H313737   1.137   2.693   0.512 -1.1056  1.2732 -0.0635
  939MPD2     N13738   1.515   2.932   0.594  0.0101  0.6614  0.1183
  939MPD2    H513739   1.562   2.981   0.670  0.9575  0.1509 -0.1457
  939MPD2    N113740   1.160   2.874   0.920 -0.7020  0.5282 -0.3350
  939MPD2    H713741   1.073   2.824   0.938 -1.0977  2.3511  2.9075
  940MPD2     C13742   0.020   3.175  12.820 -0.1004 -0.0851 -0.0180
  940MPD2    C113743   4.680   3.067  12.873  1.1683  0.0748 -0.6013
  940MPD2    C213744   4.655   2.954  12.794 -0.4435  0.5746  0.4881
  940MPD2    C313745   4.672   2.961  12.655 -0.9964 -0.3422  0.8156
  940MPD2    C413746   4.717   3.080  12.602 -0.0253 -0.4477 -0.2954
  940MPD2    C513747   0.026   3.183  12.680  0.6182  0.0441  0.3544
  940MPD2     H13748   4.601   2.870  12.837 -0.8022  1.4604  1.7822
  940MPD2    H113749   0.006   3.071  12.495  0.3569 -0.2822 -0.2567
  940MPD2    H213750   0.051   3.262  12.878 -0.5950 -0.2837  0.5450
  940MPD2    H313751   0.061   3.271  12.627  0.3816 -0.1845 -0.1773
  940MPD2     N13752   4.644   2.864  12.571 -0.2878 -0.5323 -0.1580
  940MPD2    H513753   4.640   2.878  12.471 -0.3785  1.6373  0.1509
  940MPD2    N113754   4.656   3.061  13.012 -0.8281 -0.5426 -0.8405
  940MPD2    H713755   4.697   3.138  13.064 -0.6257 -0.3306 -1.3129
  941MPD2     C13756   3.563   2.611   9.371  0.1769  0.3147  0.3936
  941MPD2    C113757   3.630   2.579   9.495  0.1665  0.0769 -0.7792
  941MPD2    C213758   3.571   2.487   9.578 -0.9191  0.6177 -0.3495
  941MPD2    C313759   3.448   2.428   9.549 -0.1444  0.4308 -0.3126
  941MPD2    C413760   3.393   2.460   9.429 -0.4016 -0.1913 -0.8466
  941MPD2    C513761   3.448   2.545   9.341  0.9706 -0.0441 -0.2533
  941MPD2     H13762   3.624   2.471   9.671 -1.4657 -1.0519 -0.3264
  941MPD2    H113763   3.291   2.426   9.413  0.7852 -3.2710 -1.8586
  941MPD2    H213764   3.597   2.691   9.305 -1.3136  0.0051 -0.7320
  941MPD2    H313765   3.385   2.573   9.257  2.3006 -0.0471 -1.2513
  941MPD2     N13766   3.381   2.336   9.627  0.5383  0.2952  0.0057
  941MPD2    H513767   3.301   2.297   9.578  0.8646 -0.4780  0.0977
  941MPD2    N113768   3.742   2.648   9.551 -0.4139  0.5966 -0.0440
  941MPD2    H713769   3.783   2.609   9.636 -0.9314  2.0784  0.8682
  942MPD2     C13770   3.200   4.148   8.530  0.1782  0.1943 -0.1693
  942MPD2    C113771   3.199   4.204   8.653  0.5264 -0.5520  0.1307
  942MPD2    C213772   3.317   4.251   8.712  0.2297  0.2198 -0.6183
  942MPD2    C313773   3.438   4.241   8.646 -0.3428 -0.5157 -0.0826
  942MPD2    C413774   3.437   4.182   8.519 -0.0591 -0.3016 -0.0839
  942MPD2    C513775   3.318   4.139   8.463  0.4452 -0.4918  0.0086
  942MPD2     H13776   3.315   4.297   8.810  2.0565 -1.7560  0.3626
  942MPD2    H113777   3.523   4.179   8.453  0.8396  0.8106  1.0629
  942MPD2    H213778   3.117   4.106   8.475  0.0852  0.0998  0.0439
  942MPD2    H313779   3.326   4.089   8.367 -0.8726 -0.2755 -0.2257
  942MPD2     N13780   3.558   4.282   8.693  0.1131  0.0363 -0.3479
  942MPD2    H513781   3.641   4.269   8.636 -0.2396 -2.6227 -0.2487
  942MPD2    N113782   3.079   4.207   8.732 -0.3993  0.6067  0.6315
  942MPD2    H713783   3.089   4.227   8.831 -3.2383  1.3111  0.7610
  943MPD2     C13784   1.871   2.736   9.239  0.1623 -0.0541  0.3561
  943MPD2    C113785   1.886   2.676   9.360 -0.2658 -0.7216  0.1568
  943MPD2    C213786   1.980   2.736   9.442 -0.3450  0.9593 -0.2473
  943MPD2    C313787   2.064   2.836   9.397 -0.2916  0.1418  0.0121
  943MPD2    C413788   2.042   2.893   9.268  0.1470 -0.1310  0.0812
  943MPD2    C513789   1.936   2.846   9.199 -0.4317 -0.1815 -0.5969
  943MPD2     H13790   1.991   2.718   9.548 -1.6112  0.2730 -0.2279
  943MPD2    H113791   2.096   2.980   9.232  0.1906 -0.2896 -0.2456
  943MPD2    H213792   1.785   2.713   9.176 -0.0463 -1.7608  1.2894
  943MPD2    H313793   1.910   2.894   9.106  0.2379 -1.4764 -1.4535
  943MPD2     N13794   2.175   2.881   9.473  0.0694 -0.4094  0.0863
  943MPD2    H513795   2.216   2.969   9.444 -2.1027  0.1880 -1.1874
  943MPD2    N113796   1.804   2.567   9.392  0.3716  0.4149  0.3617
  943MPD2    H713797   1.737   2.543   9.320  0.8030  1.2577 -0.3224
  944MPD2     C13798   1.819   1.526  10.650  0.3318 -0.9720 -0.1230
  944MPD2    C113799   1.897   1.641  10.645 -0.2124 -0.3251 -0.0540
  944MPD2    C213800   1.937   1.695  10.767 -0.0094  0.7534  0.2005
  944MPD2    C313801   1.895   1.646  10.888 -0.4054  0.1987 -0.2689
  944MPD2    C413802   1.827   1.521  10.892 -0.1576  0.7462 -0.4644
  944MPD2    C513803   1.792   1.462  10.770  0.1646  0.3253 -0.5094
  944MPD2     H13804   1.997   1.784  10.781  2.1128 -0.6770  0.1723
  944MPD2    H113805   1.794   1.478  10.986  1.1114 -0.1570 -0.4302
  944MPD2    H213806   1.790   1.479  10.557 -0.0209  2.6726 -1.8645
  944MPD2    H313807   1.732   1.371  10.768  1.9304 -0.9298  2.2348
  944MPD2     N13808   1.945   1.706  11.007 -0.7863  0.0877  0.7081
  944MPD2    H513809   2.004   1.787  10.993 -2.0300  0.5330 -1.9416
  944MPD2    N113810   1.930   1.699  10.517 -0.0813 -0.0549  0.1263
  944MPD2    H713811   1.910   1.656  10.427  1.3955  1.7839 -1.1080
    1TCq1    O113812   0.320   2.047  14.085  0.1585 -0.5238 -0.8518
    1TCq1    C113813   0.188   2.005  14.110 -0.3028 -0.0046  0.1647
    1TCq1    O213814   0.118   1.948  14.028  0.2728  0.1274 -0.1714
    1TCq1    C213815   0.135   2.096  14.206  0.5481  0.2064  0.1661
    1TCq1    C313816   0.009   2.137  14.170 -0.3172 -0.1378  0.2885
    1TCq1    C413817   4.694   2.250  14.237 -0.5221 -0.1801 -0.4574
    1TCq1    C513818   0.036   2.299  14.340 -0.0241  0.3867 -0.5785
    1TCq1    C613819   0.147   2.232  14.390  0.5027 -0.7534 -0.1079
    1TCq1    C713820   0.199   2.127  14.321 -0.2791  0.0842 -0.0779
    1TCq1    C813821   0.242   2.307  14.473  1.1104  0.4369  0.0617
    1TCq1    O413822   0.330   2.251  14.541  0.3753  0.2518  0.7489
    1TCq1    C913823   4.568   2.314  14.197  0.3772  0.4340 -0.0015
    1TCq1    O513824   4.492   2.240  14.123  0.0414 -0.3477 -0.4177
    1TCq1    O613825   4.537   2.425  14.244  0.1965 -0.4216 -0.8406
    1TCq1    H113826   0.356   2.109  14.152  0.2850  0.5952 -1.9587
    1TCq1    H213827   4.694   2.119  14.072 -2.2649 -2.3473  1.5383
    1TCq1    H313828   4.725   2.384  14.395  0.7195  0.9538 -0.9508
    1TCq1    H413829   0.296   2.082  14.339 -0.2709  0.4899  0.8941
    2MPD2     C13830   0.332   2.740  14.716 -0.4541 -0.2559 -0.1046
    2MPD2    C113831   0.255   2.781  14.609 -0.0696 -0.3799 -0.9479
    2MPD2    C213832   0.227   2.675  14.523 -0.3111  0.1332  0.4022
    2MPD2    C313833   0.283   2.548  14.534  0.4836  0.0430 -0.1710
    2MPD2    C413834   0.364   2.521  14.639  0.0728  0.1554 -0.0269
    2MPD2    C513835   0.385   2.615  14.735 -0.6565 -0.0358 -0.5981
    2MPD2     H13836   0.170   2.688  14.432 -0.3235 -0.0343  0.3855
    2MPD2    H113837   0.400   2.419  14.653  1.4834  0.4740 -1.2595
    2MPD2    H213838   0.347   2.818  14.789 -0.4314 -1.0604  0.7400
    2MPD2    H313839   0.450   2.604  14.821 -0.0851  1.4831 -0.8245
    2MPD2     N13840   0.234   2.444  14.453  0.5001  0.0176 -0.6756
    2MPD2    H513841   0.166   2.462  14.379  2.2351 -0.5783 -2.4112
    2MPD2    N113842   0.221   2.923  14.606 -0.4889  0.4747 -0.2246
    2MPD2    H713843   0.259   2.987  14.675 -2.5958  0.5016  0.9199
    3TMC2    C113844   0.111   3.121  14.545  0.3592 -0.4066 -0.0254
    3TMC2    C213845   0.133   3.175  14.667  0.7587  0.7160  0.5901
    3TMC2    C313846   0.130   3.314  14.673 -0.3283 -0.5758  0.6700
    3TMC2    C413847   0.092   3.193  14.432  0.7360 -0.1183 -0.7176
    3TMC2    C513848   0.103   3.329  14.441 -0.4306  0.5144 -0.1445
    3TMC2    C613849   0.129   3.392  14.558 -0.4567  0.0501  0.6388
    3TMC2     C13850   0.129   2.980  14.517 -0.2954 -0.4810  0.2521
    3TMC2     O13851   0.086   2.926  14.420 -0.1790  0.2803 -0.5102
    3TMC2     H13852   0.115   3.116  14.756  0.0181 -0.2510 -0.2066
    3TMC2    H113853   0.101   3.142  14.337 -0.2448  0.9117 -1.3660
    3TMC2    H213854   0.158   3.496  14.553  0.8382 -0.3691 -0.8301
    3TMC2    C713855   0.110   3.403  14.315  0.2484  0.1996 -0.5204
    3TMC2    C813856   0.153   3.371  14.805  0.5593 -0.0071  0.3602
    3TMC2    O113857   0.178   3.503  14.300  0.1678 -0.1189 -0.2637
    3TMC2    O213858   0.190   3.305  14.901 -0.6480  0.0203 -0.3023
    3TMC2    O513859   0.114   3.496  14.811  0.0864 -0.1137  0.5672
    3TMC2    H513860   0.080   3.534  14.727  2.1441  1.8879  0.6336
    4MPD2     C13861   3.588   3.630  13.386  0.3560  0.3451 -0.2368
    4MPD2    C113862   3.701   3.690  13.334 -0.2437  0.2608  0.1910
    4MPD2    C213863   3.819   3.626  13.365 -0.4479 -0.1773 -0.0226
    4MPD2    C313864   3.831   3.523  13.465 -0.2826 -0.5911  0.6597
    4MPD2    C413865   3.718   3.489  13.531 -0.1939  0.9354 -0.4382
    4MPD2    C513866   3.597   3.532  13.483  0.2858  0.4664 -0.6023
    4MPD2     H13867   3.908   3.662  13.315  0.2177  0.2155  1.4448
    4MPD2    H113868   3.727   3.401  13.594 -0.8723  0.9613 -0.3060
    4MPD2    H213869   3.490   3.676  13.382 -0.8426 -2.2885 -0.9584
    4MPD2    H313870   3.504   3.494  13.525  0.3893 -1.5770 -2.2388
    4MPD2     N13871   3.958   3.464  13.485 -0.6074 -0.1816  0.0492
    4MPD2    H513872   4.029   3.501  13.421  0.5688 -0.8705  0.9485
    4MPD2    N113873   3.692   3.805  13.254 -0.3144 -0.9453 -0.6354
    4MPD2    H713874   3.603   3.837  13.218 -1.7181 -2.7949  1.2305
    5TCq2    C113875   3.996   3.390  13.594  0.5666  0.0041 -0.0082
    5TCq2    O213876   3.943   3.378  13.705  0.9222 -0.2391 -0.5611
    5TCq2    C213877   4.138   3.363  13.582  0.1047 -0.1171 -0.0530
    5TCq2    C313878   4.195   3.358  13.458 -0.2754  0.7931 -0.6838
    5TCq2    C413879   4.328   3.375  13.448 -0.8189 -0.5364 -0.2472
    5TCq2    C513880   4.403   3.378  13.563 -0.6484 -0.1838 -0.1618
    5TCq2    C613881   4.350   3.386  13.690 -0.1064 -0.6135  0.4931
    5TCq2    C713882   4.213   3.383  13.692  0.1267  0.6740 -0.0583
    5TCq2    C813883   4.433   3.352  13.811 -0.0213 -0.4192 -0.2909
    5TCq2    O413884   4.376   3.311  13.912 -0.0726  0.4121  0.1429
    5TCq2    C913885   4.402   3.374  13.320  0.0920  0.7277  0.2167
    5TCq2    O513886   4.340   3.343  13.214 -0.3246 -0.5842 -0.2436
    5TCq2    O613887   4.522   3.413  13.323  0.0225 -0.4305  0.3163
    5TCq2    H213888   4.139   3.351  13.365 -0.0195  0.5478 -0.8203
    5TCq2    H313889   4.511   3.376  13.550 -0.7245  1.6588 -1.0490
    5TCq2    H413890   4.175   3.384  13.794  2.5491 -2.5049  0.8627
    6MPD1     C13891   3.210   0.948  13.064  0.9008  0.1031 -0.2529
    6MPD1    C113892   3.303   0.940  13.161  0.3272  0.0870  0.2613
    6MPD1    C213893   3.342   0.811  13.201 -1.2617 -0.1512 -0.3485
    6MPD1    C313894   3.286   0.700  13.145  0.5294  0.2706 -0.3460
    6MPD1    C413895   3.187   0.712  13.054 -0.0344 -0.1724 -0.5481
    6MPD1    C513896   3.147   0.831  13.017 -0.4994  0.9143  0.1149
    6MPD1     H13897   3.421   0.806  13.276 -0.8981  2.1319 -0.5805
    6MPD1    H113898   3.140   0.630  13.001 -1.5324  1.6183 -1.9625
    6MPD1    H213899   3.174   1.040  13.021  2.6360  1.6095  1.5339
    6MPD1    H313900   3.065   0.828  12.946  1.1588 -1.9157 -1.6642
    6MPD1     N13901   3.337   0.570  13.164  0.6147 -0.7611 -0.1155
    6MPD1    H513902   3.292   0.495  13.113 -0.8166 -0.3671  0.5582
    6MPD1    N113903   3.347   1.058  13.225  0.3013  0.0180  0.6442
    6MPD1    H613904   3.344   1.142  13.168 -0.4007 -0.1857  0.3766
    6MPD1    H713905   3.440   1.040  13.264  2.0929  1.0837 -3.1442
    7MPD2     C13906   3.231   4.565  12.960  0.2524  0.6395 -0.6610
    7MPD2    C113907   3.351   4.596  13.010 -0.1870  0.0460  0.1194
    7MPD2    C213908   3.453   4.506  12.997  0.2395 -0.5569 -0.5062
    7MPD2    C313909   3.436   4.381  12.935  0.0819 -0.6894  0.0746
    7MPD2    C413910   3.314   4.352  12.885  0.8899 -0.4346 -0.1522
    7MPD2    C513911   3.210   4.444  12.899  0.4804 -0.5488  0.2697
    7MPD2     H13912   3.554   4.531  13.029  0.9113 -2.7461 -0.8710
    7MPD2    H113913   3.301   4.266  12.821  2.1867 -0.1199 -0.8302
    7MPD2    H213914   3.148   4.635  12.970 -1.4359 -1.4891  0.2955
    7MPD2    H313915   3.112   4.410  12.867  0.9653 -2.8113  1.1448
    7MPD2     N13916   3.549   4.300  12.932 -0.5018  0.1928  0.6418
    7MPD2    H513917   3.634   4.352  12.952 -1.2585  1.3628  0.8051
    7MPD2    N113918   3.378   4.713  13.086 -1.1383  0.2061 -0.7519
    7MPD2    H713919   3.476   4.724  13.111 -1.5283  0.8589  0.4842
    8TMC3    C113920   3.672   4.109  12.975 -0.3577  0.4301  0.3900
    8TMC3    C213921   3.668   4.014  13.076  0.1101 -0.7923  0.1567
    8TMC3    C313922   3.777   4.005  13.158 -0.5264  0.6373 -0.0688
    8TMC3    C413923   3.778   4.193  12.955  0.1450 -0.0765 -0.3088
    8TMC3    C513924   3.872   4.196  13.050  0.3379 -0.5136  0.2537
    8TMC3    C613925   3.874   4.101  13.150 -0.4637  1.1730  0.1055
    8TMC3     C13926   3.548   4.163  12.932  0.9597  0.8047  0.1733
    8TMC3     O13927   3.459   4.082  12.925  0.1102  0.4858  0.1615
    8TMC3     H13928   3.601   3.929  13.071  0.8283 -1.2411 -1.9205
    8TMC3    H113929   3.784   4.263  12.873 -0.2814  0.6933  0.3093
    8TMC3    H213930   3.947   4.103  13.230 -1.8408 -0.7497  1.3777
    8TMC3    C713931   3.878   4.341  13.091 -0.0806  0.3695 -0.1420
    8TMC3    C813932   3.796   3.895  13.249  0.1672 -0.0780  0.1017
    8TMC3    O113933   3.819   4.421  13.018  0.6021  0.1131  0.5098
    8TMC3    O213934   3.905   3.891  13.303 -0.4277 -0.2490 -0.5147
    9TMC3    C113935   3.450   0.390  13.259  0.1617  0.6204 -0.4061
    9TMC3    C213936   3.564   0.350  13.320 -0.8758  0.7434  0.5771
    9TMC3    C313937   3.585   0.216  13.328 -1.1621 -0.3729 -0.2311
    9TMC3    C413938   3.352   0.300  13.211  0.5764  0.5793  0.0429
    9TMC3    C513939   3.374   0.164  13.228  0.2145 -0.0471 -0.2118
    9TMC3    C613940   3.490   0.123  13.286  0.1792 -0.5267  0.1217
    9TMC3     C13941   3.435   0.531  13.249  0.4646  0.5496  0.4226
    9TMC3     O13942   3.512   0.600  13.314  1.0979  0.1862 -0.1135
    9TMC3     H13943   3.644   0.421  13.338 -1.4963  1.7549 -0.6373
    9TMC3    H113944   3.259   0.338  13.172  0.8955  0.4479 -0.8278
    9TMC3    H213945   3.504   0.020  13.316 -3.0964 -1.2425 -0.8518
    9TMC3    C713946   3.296   0.078  13.140 -0.3252  0.6368  0.8654
    9TMC3    C813947   3.712   0.165  13.380 -0.0675  0.6584  0.3294
    9TMC3    O113948   3.181   0.110  13.115  0.4682  0.1691  0.3448
    9TMC3    O213949   3.758   0.218  13.479 -0.1013  0.2495  0.2775
   10MPD2     C13950   4.013   4.466  13.413  0.1838 -0.2144 -0.3434
   10MPD2    C113951   3.932   4.464  13.301  0.0717  0.3121 -0.0149
   10MPD2    C213952   3.837   4.556  13.277 -1.0889 -1.2550  0.3588
   10MPD2    C313953   3.835   4.666  13.359 -0.6283  0.5617 -0.2663
   10MPD2    C413954   3.915   4.677  13.469  0.4065 -0.9014  0.9025
   10MPD2    C513955   3.999   4.567  13.498 -0.5615  0.0592  0.0032
   10MPD2     H13956   3.766   4.547  13.196  0.2660 -2.7805 -0.6657
   10MPD2    H113957   3.921   0.042  13.526 -1.5389 -0.2411  0.0402
   10MPD2    H213958   4.082   4.386  13.438  0.4734  0.1452  0.0203
   10MPD2    H313959   4.053   4.567  13.592  0.9842 -0.9186 -0.8786
   10MPD2     N13960   3.745   0.039  13.318 -0.8905  0.3045 -0.0556
   10MPD2    H513961   3.701   0.018  13.229  0.0437 -1.3286 -0.1379
   10MPD2    N113962   3.938   4.356  13.217  0.0894 -0.3103  0.3670
   10MPD2    H713963   4.007   4.285  13.238  0.1742  0.1550  1.6688
   11MPD2     C13964   0.164   3.403  14.030  0.2530 -0.3948  0.0190
   11MPD2    C113965   0.042   3.372  14.083  0.2040 -0.0429  0.3144
   11MPD2    C213966   4.654   3.349  14.000  0.3529  0.3922  0.2631
   11MPD2    C313967   4.674   3.368  13.861  0.7291  0.1147 -0.1498
   11MPD2    C413968   0.073   3.393  13.808 -0.2706  0.3773  0.0227
   11MPD2    C513969   0.177   3.402  13.894  0.0827  0.2823 -1.4737
   11MPD2     H13970   4.562   3.305  14.037 -0.1393  1.1588 -0.0723
   11MPD2    H113971   0.090   3.399  13.701 -0.4946 -0.9158 -0.0951
   11MPD2    H213972   0.255   3.407  14.089 -1.0592 -0.4731  2.0353
   11MPD2    H313973   0.277   3.422  13.857  1.3126  0.8341  2.0981
   11MPD2     N13974   4.566   3.363  13.776  0.4305  0.3200 -0.0859
   11MPD2    H513975   4.595   3.377  13.680 -1.3142  2.7802 -0.2768
   11MPD2    N113976   0.035   3.340  14.219  0.1638 -0.1222  0.2588
   11MPD2    H713977   4.692   3.272  14.248  0.2684  0.1599  1.1530
    1MPD1     C13978   2.380   0.524  15.998  0.0805  0.2430 -0.2674
    1MPD1    C113979   2.353   0.545  16.134 -0.3465  0.3714 -0.1210
    1MPD1    C213980   2.462   0.576  16.215  0.1290  0.5541 -0.0279
    1MPD1    C313981   2.586   0.596  16.153  0.2893  0.0006  0.1965
    1MPD1    C413982   2.606   0.580  16.018  0.4291 -0.4353  0.2670
    1MPD1    C513983   2.503   0.541  15.944  0.3363  0.1974  0.0513
    1MPD1     H13984   2.447   0.596  16.321  0.2773  0.5235 -0.0007
    1MPD1    H113985   2.698   0.589  15.962  2.0892  0.6022  3.1333
    1MPD1    H213986   2.311   0.478  15.929  0.1756  0.9412 -0.8345
    1MPD1    H313987   2.512   0.515  15.839 -1.8443  0.5880 -0.2313
    1MPD1     N13988   2.693   0.629  16.231 -0.0107  0.1153 -0.2709
    1MPD1    H513989   2.779   0.640  16.177  1.1542  1.7908  1.9313
    1MPD1    N113990   2.225   0.519  16.189  0.2732 -0.1638  0.2554
    1MPD1    H613991   2.149   0.533  16.124  1.0110  1.1539 -0.3180
    1MPD1    H713992   2.210   0.578  16.270 -1.5939 -1.2159  0.6629
    2MPD1     C13993   3.340   0.673  17.134  0.1846 -0.2294  0.0137
    2MPD1    C113994   3.366   0.771  17.039  0.1316  0.2513 -0.1816
    2MPD1    C213995   3.293   0.774  16.914 -0.0516  0.1848  0.4089
    2MPD1    C313996   3.185   0.690  16.891 -0.5258  0.1873 -0.2770
    2MPD1    C413997   3.157   0.593  16.988 -0.4793  0.2156  0.7106
    2MPD1    C513998   3.241   0.590  17.096 -0.2592 -1.0930 -0.2985
    2MPD1     H13999   3.333   0.834  16.833 -1.3737 -0.5015 -0.7346
    2MPD1    H114000   3.078   0.521  16.973  0.4217 -0.6298  0.0418
    2MPD1    H214001   3.397   0.664  17.226  0.2541 -0.3717 -0.0445
    2MPD1    H314002   3.213   0.514  17.168 -1.5761  1.7777  2.1971
    2MPD1     N14003   3.115   0.714  16.770  0.7274 -0.0701  0.0131
    2MPD1    H514004   3.137   0.797  16.716 -2.3891  0.3569 -0.5957
    2MPD1    N114005   3.491   0.821  17.049 -0.0355 -0.8635  0.1739
    2MPD1    H614006   3.530   0.837  17.141 -3.9712 -1.4321  1.9388
    2MPD1    H714007   3.499   0.914  17.009  3.0142 -1.8929 -1.6570
    3TMC3    C114008   2.982   0.686  16.591 -0.7065 -0.5559  0.2480
    3TMC3    C214009   3.092   0.698  16.506 -0.4287 -0.2942 -0.4912
    3TMC3    C314010   3.066   0.692  16.375 -0.0854 -0.8934  0.0174
    3TMC3    C414011   2.864   0.648  16.540 -0.0027 -0.1111  0.1133
    3TMC3    C514012   2.848   0.626  16.406  0.0501  0.0276 -0.6943
    3TMC3    C614013   2.946   0.660  16.320  0.0157  0.3531  0.0363
    3TMC3     C14014   3.014   0.635  16.722 -0.5497  0.2207 -0.4558
    3TMC3     O14015   2.960   0.535  16.770 -0.5315 -0.3573  0.0428
    3TMC3     H14016   3.189   0.729  16.543 -1.7707  1.1416  1.8195
    3TMC3    H114017   2.789   0.623  16.614 -1.2369  2.2711 -0.3460
    3TMC3    H214018   2.941   0.653  16.212 -0.5106  1.7037 -0.0312
    3TMC3    C714019   2.709   0.606  16.367 -0.2027 -0.2004  0.6277
    3TMC3    C814020   3.173   0.724  16.281  0.5757 -0.1289 -1.2809
    3TMC3    O114021   2.628   0.571  16.452  0.1606 -0.1850 -0.5781
    3TMC3    O214022   3.139   0.746  16.163  0.7814 -0.0250 -0.1855
    4MPD1     C14023   3.657   0.799  16.129  0.7071 -0.6069 -0.1555
    4MPD1    C114024   3.666   0.722  16.245 -0.1130 -0.1863 -0.2071
    4MPD1    C214025   3.546   0.700  16.312 -0.0408  0.0697  0.6566
    4MPD1    C314026   3.417   0.742  16.274 -0.0712 -0.2110  0.1775
    4MPD1    C414027   3.417   0.832  16.162  0.3327  0.0813  0.7537
    4MPD1    C514028   3.534   0.852  16.098 -0.3815  0.5837 -0.1659
    4MPD1     H14029   3.542   0.650  16.408  0.8555  1.6920  1.5343
    4MPD1    H114030   3.330   0.880  16.117  0.0393 -1.4973 -0.3684
    4MPD1    H214031   3.731   0.820  16.053  0.6225  0.6545  0.1030
    4MPD1    H314032   3.532   0.926  16.020  2.1177 -1.0156 -1.7440
    4MPD1     N14033   3.296   0.703  16.333 -0.1898  0.0736  0.0515
    4MPD1    H514034   3.306   0.651  16.420  0.9847 -2.3381 -1.5321
    4MPD1    N114035   3.778   0.647  16.283  0.2059 -0.5169  0.0300
    4MPD1    H614036   3.866   0.672  16.239  0.6561 -0.0554  1.2029
    4MPD1    H714037   3.791   0.625  16.381  1.6015 -0.4707 -0.1395
    1TCq1    O114038   3.489   0.350  12.169 -0.0897  0.0450 -0.1590
    1TCq1    C114039   3.534   0.476  12.173  0.0104 -0.3543 -0.3280
    1TCq1    O214040   3.648   0.513  12.169  0.1971  0.1502  0.4630
    1TCq1    C214041   3.440   0.534  12.079  1.0974 -0.3888  0.7150
    1TCq1    C314042   3.307   0.520  12.102  0.1330 -0.9197  0.1727
    1TCq1    C414043   3.227   0.605  12.029 -0.4580 -0.1768 -0.9173
    1TCq1    C514044   3.277   0.661  11.914 -0.4689  0.2716 -0.3197
    1TCq1    C614045   3.416   0.664  11.885 -0.1563  0.7246 -0.6198
    1TCq1    C714046   3.501   0.605  11.977 -0.0848 -0.5138  0.1840
    1TCq1    C814047   3.450   0.728  11.763 -0.6749  0.1542 -1.1046
    1TCq1    O414048   3.361   0.791  11.702  0.3185 -0.2895 -0.0356
    1TCq1    C914049   3.085   0.586  12.042 -0.5092 -0.2075  0.4832
    1TCq1    O514050   3.038   0.514  12.133  0.4826  0.2792 -0.0551
    1TCq1    O614051   3.014   0.657  11.974  0.5057  0.2518  0.3616
    1TCq1    H114052   3.392   0.335  12.168 -0.1577  0.4995 -0.2898
    1TCq1    H214053   3.277   0.459  12.187 -3.4267  0.7759  0.1063
    1TCq1    H314054   3.215   0.708  11.839  0.0334  0.2217 -0.7710
    1TCq1    H414055   3.609   0.613  11.974  0.0991 -2.2895  1.7827
    2MPD1     C14056   3.863   0.915  11.521  0.0987 -0.1577  0.2828
    2MPD1    C114057   3.890   0.796  11.586  0.0639 -0.4685  0.7169
    2MPD1    C214058   3.788   0.722  11.637  0.3862  0.4534  0.5336
    2MPD1    C314059   3.656   0.774  11.639 -0.2629  0.8775  0.7689
    2MPD1    C414060   3.628   0.899  11.581 -0.5277  0.1636  0.1978
    2MPD1    C514061   3.733   0.969  11.519 -0.2377 -0.0547 -0.1876
    2MPD1     H14062   3.805   0.629  11.691  0.4988 -0.8417 -1.7546
    2MPD1    H114063   3.528   0.941  11.581 -0.6034 -0.0156 -0.2723
    2MPD1    H214064   3.944   0.959  11.465 -0.1031 -0.1805 -0.0258
    2MPD1    H314065   3.701   1.057  11.463  1.1395 -0.8359 -2.2067
    2MPD1     N14066   3.576   0.694  11.723  0.8009  0.3152 -0.0221
    2MPD1    H514067   3.616   0.612  11.767  0.9108  0.5243  0.2673
    2MPD1    N114068   4.021   0.761  11.624  0.7907  0.2827  0.4779
    2MPD1    H614069   4.092   0.795  11.560  3.0294 -1.4563  2.0488
    2MPD1    H714070   4.036   0.664  11.652  1.9283  0.5270  0.7241
    1TCq1    O114071   3.058   3.809   9.314  0.0500 -0.3673  0.1618
    1TCq1    C114072   3.083   3.689   9.345 -0.0477 -0.0182 -0.5664
    1TCq1    O214073   3.202   3.650   9.350  0.2686 -0.5744 -0.0554
    1TCq1    C214074   3.004   3.636   9.234 -0.3188  0.1783 -0.7230
    1TCq1    C314075   2.877   3.586   9.249  0.3261 -0.0272  0.0372
    1TCq1    C414076   2.825   3.505   9.149  0.6307 -0.2680 -0.2164
    1TCq1    C514077   2.900   3.470   9.038  0.5044  0.3165 -0.7248
    1TCq1    C614078   3.024   3.515   9.027 -0.1733 -0.7120  0.4851
    1TCq1    C714079   3.073   3.599   9.123  0.4875  0.3401  0.4781
    1TCq1    C814080   3.094   3.499   8.901  0.4049  0.2751 -0.3738
    1TCq1    O414081   3.035   3.447   8.807  0.7593  0.2562 -0.6770
    1TCq1    C914082   2.715   3.414   9.177 -0.2595 -0.5435 -0.2613
    1TCq1    O514083   2.703   3.310   9.106 -0.1217  0.4362  0.1902
    1TCq1    O614084   2.641   3.436   9.278  0.2382 -0.5622  0.6098
    1TCq1    H114085   2.963   3.826   9.329 -0.2157 -1.0635 -0.7410
    1TCq1    H214086   2.826   3.580   9.345 -0.2493 -0.9364 -0.3363
    1TCq1    H314087   2.859   3.399   8.967  0.8830 -0.6138 -0.0054
    1TCq1    H414088   3.170   3.643   9.102 -1.4590  3.9019 -1.2062
    2MPD1     C14089   3.529   3.509   8.634 -0.5580  0.0904 -0.3758
    2MPD1    C114090   3.560   3.529   8.764 -0.8168  0.0160  1.3610
    2MPD1    C214091   3.459   3.526   8.857  0.1379  0.2338 -0.0116
    2MPD1    C314092   3.326   3.505   8.820 -0.5052 -0.7294 -0.0322
    2MPD1    C414093   3.293   3.488   8.686 -0.4198  0.7340 -0.3736
    2MPD1    C514094   3.395   3.489   8.597  0.2062 -0.2103  0.4276
    2MPD1     H14095   3.490   3.517   8.961 -0.9985  0.2200  0.3324
    2MPD1    H114096   3.197   3.466   8.641  0.3805  1.1993 -2.3072
    2MPD1    H214097   3.605   3.503   8.556 -1.7795 -1.0995 -1.4592
    2MPD1    H314098   3.370   3.479   8.492  0.5387  0.9188  0.2310
    2MPD1     N14099   3.229   3.508   8.918  0.0921 -0.3992  0.1894
    2MPD1    H514100   3.257   3.522   9.014  0.1104  1.3740 -0.0857
    2MPD1    N114101   3.696   3.539   8.813 -0.3794  0.0646  0.2588
    2MPD1    H614102   3.710   3.579   8.905  1.2573  0.1831 -0.0443
    2MPD1    H714103   3.760   3.582   8.747 -0.3751 -0.6973 -0.2333
    1MPD1     C14104   0.916   0.202  11.371 -0.2211 -0.3122 -0.9886
    1MPD1    C114105   1.012   0.302  11.389  0.8830  0.2818  0.4796
    1MPD1    C214106   0.996   0.376  11.512  0.2496  0.2371  0.7053
    1MPD1    C314107   0.904   0.346  11.609 -0.2692  0.3926  0.1114
    1MPD1    C414108   0.810   0.254  11.584 -0.2449 -0.5480 -0.2370
    1MPD1    C514109   0.814   0.185  11.463 -0.1100  0.7310 -0.2347
    1MPD1     H14110   1.065   0.458  11.526  0.9064 -0.3134  0.7231
    1MPD1    H114111   0.735   0.226  11.657 -0.5959 -0.4593 -0.5638
    1MPD1    H214112   0.908   0.133  11.288 -0.6393  0.7495 -1.8319
    1MPD1    H314113   0.739   0.113  11.434  0.0666  0.0952  0.8884
    1MPD1     N14114   0.927   0.407  11.737  0.3248 -0.2166  0.2590
    1MPD1    H514115   1.003   0.473  11.748 -0.7773  1.1620 -0.4335
    1MPD1    N114116   1.100   0.344  11.286  0.1054 -0.2473 -0.9140
    1MPD1    H614117   1.118   0.268  11.221  0.2812 -0.8104 -0.2071
    1MPD1    H714118   1.187   0.386  11.317  1.1305 -1.9073 -1.5914
    2MPD1     C14119   4.658   4.657  11.485  0.3884  0.3267 -0.4920
    2MPD1    C114120   0.031   4.578  11.435  0.2794 -0.5024 -0.1493
    2MPD1    C214121   0.127   4.636  11.359 -0.0175  0.3438 -0.3825
    2MPD1    C314122   0.106   0.030  11.294  0.0155  0.0728  0.0967
    2MPD1    C414123   0.007   0.110  11.330 -0.0650 -0.1253  0.3989
    2MPD1    C514124   4.652   0.063  11.430  0.4985 -0.3934 -0.0945
    2MPD1     H14125   0.211   4.577  11.324 -0.4266 -0.5942  0.2230
    2MPD1    H114126   4.723   0.213  11.297 -0.6303 -1.2569 -3.0157
    2MPD1    H214127   4.591   4.628  11.566  0.0227 -1.6610 -1.4953
    2MPD1    H314128   4.582   0.131  11.478 -0.2045  0.3239 -2.1543
    2MPD1     N14129   0.197   0.077  11.194  0.1195 -0.1978 -0.0507
    2MPD1    H514130   0.159   0.157  11.145 -0.1857  0.4793  1.2842
    2MPD1    N114131   0.077   4.460  11.502 -0.1600 -1.0113  0.2289
    2MPD1    H614132   4.722   4.406  11.531 -0.8448  0.8478  1.7764
    2MPD1    H714133   0.136   4.401  11.445  0.1579 -1.2076  0.7581
    3MPD1     C14134   0.121   4.612  10.239  0.8542 -0.2326 -0.3365
    3MPD1    C114135   0.192   4.726  10.236 -0.1714  0.0228  0.1703
    3MPD1    C214136   0.261   0.034  10.348  0.5702  0.6552  0.2528
    3MPD1    C314137   0.245   4.692  10.465 -0.4458  0.4484  0.1145
    3MPD1    C414138   0.177   4.575  10.473  0.1881 -0.0760 -0.0138
    3MPD1    C514139   0.101   4.544  10.358 -0.7026  0.7307 -0.2746
    3MPD1     H14140   0.319   0.126  10.348  0.4761  0.7151  0.0803
    3MPD1    H114141   0.156   4.516  10.562 -1.8848  0.1672 -0.3219
    3MPD1    H214142   0.069   4.584  10.148  2.6677 -0.0385 -1.4304
    3MPD1    H314143   0.060   4.444  10.353 -1.8270  1.2370 -0.9327
    3MPD1     N14144   0.315   0.015  10.576 -0.1136 -0.1437 -0.0592
    3MPD1    H514145   0.349   0.109  10.555  2.4180 -0.9474  0.4114
    3MPD1    N114146   0.223   0.057  10.118  0.2654  0.0583  0.5687
    3MPD1    H614147   0.251   0.153  10.135 -0.7031  0.5169 -0.4322
    3MPD1    H714148   0.151   0.057  10.046  0.1231 -0.3869  0.7101
    4MPD2     C14149   1.249   0.674  11.571 -0.3343 -0.2558 -0.3027
    4MPD2    C114150   1.293   0.569  11.650 -0.4017 -0.1942  0.2072
    4MPD2    C214151   1.361   0.468  11.584  0.0396 -0.3203  0.9437
    4MPD2    C314152   1.366   0.464  11.446  0.0798 -0.3889  0.6083
    4MPD2    C414153   1.325   0.569  11.365 -0.0584  0.0252 -0.4927
    4MPD2    C514154   1.257   0.666  11.435 -0.0499 -0.1916  0.7947
    4MPD2     H14155   1.400   0.388  11.645 -0.3816 -1.5739 -0.4200
    4MPD2    H114156   1.341   0.576  11.258  0.2563  1.1504 -0.3709
    4MPD2    H214157   1.201   0.762  11.612  0.1598  0.7768 -1.9482
    4MPD2    H314158   1.198   0.740  11.384 -0.8090  0.1444  2.1560
    4MPD2     N14159   1.431   0.350  11.390  0.7402 -0.4552 -0.5446
    4MPD2    H514160   1.463   0.275  11.450 -0.4721  0.8472  1.6895
    4MPD2    N114161   1.252   0.562  11.788 -0.1604  0.0538  0.0104
    4MPD2    H714162   1.279   0.482  11.844 -2.1640 -2.2965 -2.3992
    5TMC3    C114163   1.104   0.585  11.963 -0.4526  0.3953  0.5273
    5TMC3    C214164   0.970   0.574  11.934  0.5009  0.3356  0.5033
    5TMC3    C314165   0.895   0.461  11.963  0.4475 -0.6373 -0.5227
    5TMC3    C414166   1.173   0.484  12.024  0.1533  0.1688  0.2409
    5TMC3    C514167   1.100   0.377  12.054  0.3862 -0.1742 -0.4386
    5TMC3    C614168   0.967   0.377  12.046  0.0727 -0.5915 -0.8814
    5TMC3     C14169   1.169   0.650  11.855 -0.3998 -0.1082  0.7756
    5TMC3     O14170   1.101   0.742  11.811  0.2950  0.3524  0.1789
    5TMC3     H14171   0.919   0.656  11.884  1.8562  1.5645  1.1250
    5TMC3    H114172   1.279   0.497  12.044  0.3524 -0.8671 -0.1297
    5TMC3    H214173   0.912   0.291  12.082 -0.1849  0.7908  1.9866
    5TMC3    C714174   1.166   0.261  11.993 -0.3937  0.4452  0.4651
    5TMC3    C814175   0.848   0.386  11.850 -0.9632 -0.5738 -0.0544
    5TMC3    O114176   1.272   0.285  11.935 -0.0461  0.4131  0.0210
    5TMC3    O214177   0.768   0.298  11.874 -0.0113 -0.2397  0.3604
    6TMC3    C114178   0.374   0.080  11.040  0.1909 -0.0140 -0.4497
    6TMC3    C214179   0.302   0.049  10.927 -0.0554  0.4288 -0.0182
    6TMC3    C314180   0.366   0.043  10.804  0.4913 -0.1798  0.7609
    6TMC3    C414181   0.508   0.084  11.029  0.4943  0.3459 -0.4469
    6TMC3    C514182   0.567   0.090  10.908 -0.1228 -0.4066 -0.7112
    6TMC3    C614183   0.498   0.074  10.788  0.2187 -0.1086  0.0769
    6TMC3     C14184   0.323   0.026  11.165  0.4087 -0.3939  0.6919
    6TMC3     O14185   0.404   4.702  11.242 -0.2126  0.0397 -0.0756
    6TMC3     H14186   0.194   0.045  10.936  0.2403 -1.6477  2.7157
    6TMC3    H114187   0.567   0.088  11.120  1.6860 -0.5028 -1.1902
    6TMC3    H214188   0.554   0.076  10.696  0.3389 -1.6813  0.1290
    6TMC3    C714189   0.710   0.081  10.900  0.1947 -0.1929 -0.4257
    6TMC3    C814190   0.293   4.703  10.703  0.2520 -0.2257  0.1226
    6TMC3    O114191   0.778   0.137  10.981 -0.2536  0.2064  0.1828
    6TMC3    O214192   0.195   4.640  10.740 -0.1791  0.0681  0.7060
    7MPD2     C14193   1.084   4.609  11.651 -0.3338 -0.5557 -0.1629
    7MPD2    C114194   1.183   4.701  11.659 -0.1817 -0.1811 -0.4404
    7MPD2    C214195   1.189   0.068  11.763 -0.7900  0.3732  0.0351
    7MPD2    C314196   1.093   0.063  11.861  0.9129 -0.6959 -0.0773
    7MPD2    C414197   0.990   4.693  11.858  0.7168  0.1945 -0.7343
    7MPD2    C514198   0.988   4.614  11.747  0.6025  0.0241 -0.0916
    7MPD2     H14199   1.257   0.151  11.750  0.4388 -0.4790  0.9802
    7MPD2    H114200   0.913   4.686  11.934 -0.9732 -1.5898 -2.6020
    7MPD2    H214201   1.089   4.539  11.568  0.1217 -2.0821  1.1412
    7MPD2    H314202   0.918   4.533  11.732  1.5766 -0.9038  0.3348
    7MPD2     N14203   1.084   0.153  11.970  0.0395  0.0815  0.0876
    7MPD2    H514204   0.999   0.153  12.026  0.9252  0.2857  1.4468
    7MPD2    N114205   1.268   4.690  11.548 -0.2001  0.0541 -0.2453
    7MPD2    H714206   1.257   4.612  11.483  2.3185 -1.6831  1.3953
    8TMC3    C114207   1.422   0.019  11.390  0.0292  1.0148  0.7426
    8TMC3    C214208   1.336   4.693  11.298  0.2946 -0.2150  0.6409
    8TMC3    C314209   1.326   0.023  11.175  0.1267  0.3842 -0.3140
    8TMC3    C414210   1.503   0.121  11.354 -0.8956  0.2742  0.2643
    8TMC3    C514211   1.480   0.190  11.231 -0.3191 -0.2498 -0.1185
    8TMC3    C614212   1.398   0.129  11.137  0.5669  0.5173  0.0801
    8TMC3     C14213   1.381   0.042  11.525 -0.0732  0.9534 -0.1433
    8TMC3     O14214   1.429   0.146  11.579 -0.0627 -0.3935  0.6725
    8TMC3     H14215   1.265   4.613  11.318 -1.3040  0.3525 -2.7256
    8TMC3    H114216   1.582   0.157  11.418 -0.4470  0.3105 -0.3038
    8TMC3    H214217   1.374   0.191  11.051  3.0758  0.7339 -0.4863
    8TMC3    C714218   1.446   0.326  11.250  0.2338 -0.6611 -0.2691
    8TMC3    C814219   1.196   0.012  11.101  0.2106  0.1553 -0.0882
    8TMC3    O114220   1.412   0.394  11.157  0.4371  0.2450 -0.0417
    8TMC3    O214221   1.137   0.118  11.096 -0.1001 -0.0486  0.0429
    9MPD2     C14222   1.107   4.483  10.846 -0.1286  0.0752  0.3572
    9MPD2    C114223   1.087   4.587  10.932  0.0048 -0.8089 -0.2548
    9MPD2    C214224   0.965   4.661  10.928  0.2531  0.4955  0.1298
    9MPD2    C314225   0.877   4.640  10.823 -0.3861  1.0047  0.2154
    9MPD2    C414226   0.907   4.548  10.730  0.0699  0.5383  0.9127
    9MPD2    C514227   1.008   4.464  10.753 -0.2343 -0.2860 -0.7067
    9MPD2     H14228   0.941   0.007  11.005  0.2180  0.8648 -0.2372
    9MPD2    H114229   0.843   4.519  10.648  1.2226 -1.6730  0.8063
    9MPD2    H214230   1.192   4.417  10.860  0.9309  1.7440  1.9000
    9MPD2    H314231   1.025   4.379  10.687 -0.4194  1.2414 -2.7155
    9MPD2     N14232   0.752   4.707  10.819  0.4134  0.2530  0.4172
    9MPD2    H514233   0.693   4.652  10.757  1.6512  1.1083 -1.5288
    9MPD2    N114234   1.190   4.622  11.026  0.0250 -0.6965  0.6333
    9MPD2    H714235   1.266   4.555  11.033  0.0038 -0.6960  0.8490
    1MPD1     C14236   3.468   3.436  17.502 -0.0295 -0.2133  0.0376
    1MPD1    C114237   3.491   3.381  17.377 -0.0662  0.0702  0.4243
    1MPD1    C214238   3.589   3.433  17.302 -0.0914  0.6300 -0.3856
    1MPD1    C314239   3.672   3.532  17.352 -0.0346  0.4942  0.5144
    1MPD1    C414240   3.640   3.596  17.467 -0.6931 -0.5295 -0.3338
    1MPD1    C514241   3.540   3.540  17.542  0.1993 -0.1707  0.1278
    1MPD1     H14242   3.591   3.387  17.204 -1.2678  1.0870 -0.6296
    1MPD1    H114243   3.706   3.669  17.511 -2.1267  1.1511 -0.9718
    1MPD1    H214244   3.396   3.399  17.575  0.1991  2.1325  1.4524
    1MPD1    H314245   3.510   3.586  17.636  0.9638  1.2647 -0.3417
    1MPD1     N14246   3.783   3.588  17.285 -0.7697  0.3169 -0.1987
    1MPD1    H514247   3.833   3.665  17.329 -0.5315  1.1186 -1.8504
    1MPD1    N114248   3.426   3.262  17.331  0.6548  0.4391 -0.2331
    1MPD1    H614249   3.326   3.268  17.345  0.9641  0.4512  1.9773
    1MPD1    H714250   3.435   3.261  17.229 -2.7221  2.0865 -0.5389
    2MPD1     C14251   4.470   3.606  16.425  0.0304  0.5071 -0.0296
    2MPD1    C114252   4.527   3.664  16.534 -0.3851 -0.1969 -0.3335
    2MPD1    C214253   4.446   3.691  16.642  0.0645  0.3512 -0.6141
    2MPD1    C314254   4.318   3.644  16.647  0.3446 -0.1832 -0.9084
    2MPD1    C414255   4.265   3.573  16.539 -0.2334 -0.5582 -0.5156
    2MPD1    C514256   4.346   3.556  16.428  0.6765 -0.5649 -0.1282
    2MPD1     H14257   4.486   3.738  16.731  1.1745 -0.0286 -0.8985
    2MPD1    H114258   4.166   3.530  16.539 -0.6136  0.3224 -0.3680
    2MPD1    H214259   4.530   3.590  16.335 -0.5941 -0.6016 -0.2546
    2MPD1    H314260   4.324   3.485  16.348 -0.3118  1.3040 -1.5391
    2MPD1     N14261   4.247   3.673  16.770 -0.4976 -0.6739 -0.2101
    2MPD1    H514262   4.300   3.720  16.842 -0.5759 -0.0792 -0.5406
    2MPD1    N114263   4.662   3.710  16.534  0.9428  0.6811  0.2768
    2MPD1    H614264   0.005   3.638  16.517 -1.3021 -1.2804 -0.6510
    2MPD1    H714265   4.680   3.733  16.632  2.0100 -3.6722  1.1335
    3TCq2    C114266   4.121   3.630  16.808 -0.8749  0.8438  0.4113
    3TCq2    O214267   4.061   3.547  16.740 -0.0677  0.0074  0.1600
    3TCq2    C214268   4.081   3.678  16.935 -0.5976  0.0399 -0.6302
    3TCq2    C314269   4.165   3.748  17.012 -0.7104 -0.4740  0.2131
    3TCq2    C414270   4.134   3.745  17.145 -0.0635  0.0366 -0.1932
    3TCq2    C514271   4.025   3.678  17.193 -0.2934 -0.1595  0.4715
    3TCq2    C614272   3.937   3.616  17.104 -0.2835 -0.3574 -0.9538
    3TCq2    C714273   3.976   3.597  16.984 -0.8997 -0.1910  0.2653
    3TCq2    C814274   3.823   3.537  17.161  0.6070  0.3019  0.5822
    3TCq2    O414275   3.779   3.444  17.094  0.4486 -0.3507 -0.5113
    3TCq2    C914276   4.214   3.799  17.254  0.2350 -0.1617  0.0521
    3TCq2    O514277   4.330   3.831  17.215  0.2868  0.2167 -0.4053
    3TCq2    O614278   4.163   3.835  17.363 -0.0564  0.1194  0.4418
    3TCq2    H214279   4.244   3.815  16.978 -1.2380 -0.8736 -1.7994
    3TCq2    H314280   4.009   3.669  17.299 -0.5171 -0.7530  0.3868
    3TCq2    H414281   3.915   3.531  16.925  2.0086 -2.7664  0.1456
    1TCq1    O114282   2.252   2.225  12.918 -0.5836  0.3800 -0.0064
    1TCq1    C114283   2.181   2.339  12.893 -0.1896 -0.0354 -0.7814
    1TCq1    O214284   2.062   2.356  12.924  0.0292 -0.1727  0.1333
    1TCq1    C214285   2.273   2.445  12.880  0.5292 -0.3098  0.0602
    1TCq1    C314286   2.240   2.574  12.917 -0.3156 -0.2217 -0.1635
    1TCq1    C414287   2.335   2.665  12.926  1.2688 -0.6349  0.0962
    1TCq1    C514288   2.464   2.639  12.883  0.9108  0.0849  0.1237
    1TCq1    C614289   2.499   2.513  12.847  0.4621  0.2606 -0.1109
    1TCq1    C714290   2.400   2.412  12.841 -0.4777 -0.0302 -0.0544
    1TCq1    C814291   2.628   2.486  12.787 -0.3339 -0.0806  0.6776
    1TCq1    O414292   2.631   2.383  12.725  0.2835  0.1605  0.3095
    1TCq1    C914293   2.302   2.803  12.951 -0.5084  0.6260 -0.2014
    1TCq1    O514294   2.176   2.835  12.952 -0.3591  0.2027  0.3594
    1TCq1    O614295   2.394   2.886  12.946  0.0152  0.4370  0.1925
    1TCq1    H114296   2.200   2.146  12.943  0.2846 -0.7669 -1.8545
    1TCq1    H214297   2.140   2.602  12.951  0.4100 -0.5018  2.2120
    1TCq1    H314298   2.537   2.717  12.896 -3.2148  3.3383  3.8928
    1TCq1    H414299   2.428   2.316  12.799 -0.1237  1.5759 -3.4175
    2MPD2     C14300   2.915   2.512  12.701 -0.2569  0.6294 -0.3765
    2MPD2    C114301   2.867   2.566  12.814  1.0274 -0.2294 -0.3360
    2MPD2    C214302   2.960   2.623  12.898 -0.9113 -0.2491  0.2883
    2MPD2    C314303   3.098   2.609  12.880 -0.1887  0.5567  0.7035
    2MPD2    C414304   3.143   2.560  12.761  0.6621 -0.8173  0.0331
    2MPD2    C514305   3.051   2.515  12.671  0.3231 -0.0542  0.4791
    2MPD2     H14306   2.926   2.660  12.993 -1.1151  1.2545 -0.3732
    2MPD2    H114307   3.249   2.542  12.745  1.2165  0.9072  1.7357
    2MPD2    H214308   2.854   2.470  12.622 -1.1012  2.4187 -0.6896
    2MPD2    H314309   3.078   2.471  12.575  0.6202  0.3063  0.4003
    2MPD2     N14310   3.179   2.668  12.986 -0.8965 -0.1823  0.4148
    2MPD2    H514311   3.133   2.683  13.075 -0.0365  0.2643  0.7784
    2MPD2    N114312   2.726   2.574  12.841  0.0909  0.0496 -0.4978
    2MPD2    H714313   2.702   2.621  12.928 -0.7178  1.6072 -1.5763
    3TCq1    O114314   3.270   2.718  13.544 -0.0459  0.5314  0.1511
    3TCq1    C114315   3.267   2.813  13.449 -0.2796 -0.4598  0.1134
    3TCq1    O214316   3.178   2.895  13.437  0.2226 -0.1639 -0.1090
    3TCq1    C214317   3.343   2.753  13.342  0.1495 -0.3950  0.2768
    3TCq1    C314318   3.470   2.702  13.369  0.0064  0.2596  0.4981
    3TCq1    C414319   3.541   2.661  13.262  0.2847  0.5271  0.1857
    3TCq1    C514320   3.491   2.669  13.134  0.3427  0.1980 -0.0245
    3TCq1    C614321   3.366   2.719  13.113  0.3923 -0.2411 -0.3542
    3TCq1    C714322   3.288   2.757  13.218  0.0161 -0.1755  0.1990
    3TCq1    C814323   3.316   2.691  12.982  0.0027  0.0653 -0.0391
    3TCq1    O414324   3.397   2.719  12.892  0.5574 -0.4114 -0.2230
    3TCq1    C914325   3.681   2.615  13.286 -0.1818  0.1452 -0.3213
    3TCq1    O514326   3.772   2.637  13.203  0.0516  0.0279  0.2999
    3TCq1    O614327   3.721   2.591  13.402  0.4817 -0.3504  0.2561
    3TCq1    H114328   3.325   2.646  13.505  0.4513  0.5667  0.7867
    3TCq1    H214329   3.510   2.696  13.469 -1.2923 -2.2422  0.8757
    3TCq1    H314330   3.549   2.629  13.051  1.2450 -0.4228  0.9085
    3TCq1    H414331   3.190   2.804  13.206  1.1042  2.2638  0.8822
    1MPD2     C14332   2.276   3.591  14.354  0.7094 -0.5654 -0.3398
    1MPD2    C114333   2.269   3.610  14.492  0.2632  0.4254 -0.0423
    1MPD2    C214334   2.144   3.598  14.555 -0.4992  0.3090 -0.4322
    1MPD2    C314335   2.032   3.551  14.483  0.4577 -0.0759  0.2955
    1MPD2    C414336   2.043   3.529  14.347  0.5071 -0.5938  0.5039
    1MPD2    C514337   2.161   3.553  14.289 -0.4689  0.3164 -1.0343
    1MPD2     H14338   2.130   3.629  14.658  1.4368  3.5748 -1.1435
    1MPD2    H114339   1.958   3.513  14.282  0.7590 -1.8476  0.4826
    1MPD2    H214340   2.363   3.608  14.292  1.1764  0.1416  0.5335
    1MPD2    H314341   2.182   3.547  14.183  0.2098 -0.2043 -0.8688
    1MPD2     N14342   1.912   3.529  14.554 -0.1857 -0.0965  0.6132
    1MPD2    H514343   1.833   3.509  14.492  0.8986 -1.4636 -0.3256
    1MPD2    N114344   2.374   3.666  14.563  0.0898 -0.1113 -0.5329
    1MPD2    H714345   2.453   3.696  14.507 -0.4636 -1.1426 -1.8618
    2TMC3    C114346   2.474   3.794  14.733 -0.8574  0.1497 -0.3216
    2TMC3    C214347   2.498   3.800  14.868 -0.6436 -0.2760 -0.3751
    2TMC3    C314348   2.522   3.920  14.919 -0.4233 -0.2183  0.1322
    2TMC3    C414349   2.485   3.904  14.652 -0.5677  0.0605 -0.3931
    2TMC3    C514350   2.525   4.024  14.709 -0.9619 -0.3510  0.6455
    2TMC3    C614351   2.544   4.035  14.844 -0.6136  0.5217 -0.3676
    2TMC3     C14352   2.379   3.690  14.699  0.3418 -0.3301  0.4898
    2TMC3     O14353   2.304   3.671  14.795 -0.0125  0.0915 -0.2565
    2TMC3     H14354   2.480   3.715  14.933 -0.7551  0.8483  1.0741
    2TMC3    H114355   2.468   3.896  14.546  0.8508  2.8616 -0.8373
    2TMC3    H214356   2.554   4.134  14.885 -1.4174  1.3888 -2.2729
    2TMC3    C714357   2.583   4.123  14.623 -0.3296 -0.7755  0.1883
    2TMC3    C814358   2.437   3.955  15.028  0.5533  0.2623  0.3789
    2TMC3    O114359   2.545   4.127  14.506 -0.4409 -0.1600  0.1033
    2TMC3    O214360   2.459   4.053  15.099 -0.9030 -0.0585 -0.0596
    3TCq1    O114361   3.667   4.706  14.617 -0.4751  0.6193  0.4644
    3TCq1    C114362   3.628   4.703  14.748 -0.4503  0.5030  0.1287
    3TCq1    O214363   3.709   4.724  14.838 -0.6031 -0.0265 -0.6397
    3TCq1    C214364   3.541   4.587  14.760 -0.6234  0.8324  0.3009
    3TCq1    C314365   3.568   4.486  14.848 -0.0751  1.0849  0.2504
    3TCq1    C414366   3.468   4.414  14.899 -0.3092  0.4827 -0.5564
    3TCq1    C514367   3.339   4.442  14.847  0.2891  0.5097 -0.5975
    3TCq1    C614368   3.324   4.532  14.740 -0.1233  0.0306 -0.2173
    3TCq1    C714369   3.426   4.607  14.695 -0.2356  0.2866 -0.2233
    3TCq1    C814370   3.203   4.529  14.652 -0.0463  0.2989 -0.3342
    3TCq1    O414371   3.194   4.607  14.562  0.8158 -0.2313 -0.1537
    3TCq1    C914372   3.482   4.320  15.002 -1.0355  0.4265  0.0937
    3TCq1    O514373   3.588   4.283  15.045 -0.0241 -0.1319 -0.1764
    3TCq1    O614374   3.378   4.261  15.039 -0.3367  0.3017  0.2325
    3TCq1    H114375   3.610   4.655  14.556  0.5319  0.6702 -0.5384
    3TCq1    H214376   3.660   4.485  14.905 -0.8753  1.1474  1.5624
    3TCq1    H314377   3.260   4.382  14.891  1.5893 -0.9402 -0.2158
    3TCq1    H414378   3.413   4.685  14.620 -2.0199 -1.0455 -1.3121
    4MPD2     C14379   2.939   4.487  14.520  0.3301  0.3237 -0.6793
    4MPD2    C114380   2.984   4.411  14.627 -0.5785 -0.1372  0.1957
    4MPD2    C214381   2.907   4.306  14.677  0.0413 -0.1447 -0.5530
    4MPD2    C314382   2.776   4.282  14.625  0.0648  0.2713  0.3922
    4MPD2    C414383   2.734   4.367  14.523 -0.4330  0.0476 -1.3695
    4MPD2    C514384   2.816   4.461  14.473 -0.2120  0.1485 -0.3910
    4MPD2     H14385   2.946   4.235  14.749  2.5700  0.4313 -1.3585
    4MPD2    H114386   2.644   4.348  14.465  0.8697 -0.3973 -3.2303
    4MPD2    H214387   2.984   4.568  14.463  0.0831 -0.4484 -1.9555
    4MPD2    H314388   2.777   4.517  14.390 -1.0141 -2.3899 -1.7079
    4MPD2     N14389   2.705   4.170  14.674 -0.5338  0.2658  0.4085
    4MPD2    H514390   2.724   4.133  14.766  1.2734 -0.0903 -0.0975
    4MPD2    N114391   3.112   4.424  14.688 -0.3988 -0.6709  0.8834
    4MPD2    H714392   3.141   4.361  14.761 -0.7040 -1.6019  0.2075
    5TMC2    C114393   1.674   3.687  14.906 -0.6801 -0.4042  0.4066
    5TMC2    C214394   1.587   3.754  14.830 -0.5507  0.4592  0.6003
    5TMC2    C314395   1.589   3.720  14.693  0.1282 -0.4823  0.4918
    5TMC2    C414396   1.748   3.573  14.866  0.6002 -0.1817  0.5729
    5TMC2    C514397   1.751   3.556  14.729 -0.7416  0.5507 -0.1014
    5TMC2    C614398   1.667   3.620  14.643  0.3602 -0.1510 -0.4152
    5TMC2     C14399   1.727   3.769  15.012  0.2783 -0.0840 -0.3895
    5TMC2     O14400   1.656   3.848  15.075  0.4206 -0.6391  0.3692
    5TMC2     H14401   1.521   3.832  14.866 -0.0488  1.0651  0.2037
    5TMC2    H114402   1.819   3.531  14.936 -0.7524 -0.5477  1.7169
    5TMC2    H214403   1.643   3.589  14.542 -1.6248  0.5101 -0.1386
    5TMC2    C714404   1.892   3.549  14.693  0.2199 -0.7357  0.3009
    5TMC2    C814405   1.466   3.772  14.628 -0.4809  0.1857 -0.5041
    5TMC2    O114406   1.973   3.567  14.782  0.1766  0.0724  0.6698
    5TMC2    O214407   1.365   3.780  14.698  0.6791 -0.6864  0.6086
    5TMC2    O514408   1.463   3.747  14.497 -0.4637 -0.1745 -0.2347
    5TMC2    H514409   1.553   3.766  14.463  0.8956 -2.4267  2.1325
    6MPD2     C14410   2.177   3.998  15.165 -0.2440  0.3820  0.0728
    6MPD2    C114411   2.204   3.894  15.078  0.1748  0.1149 -0.4337
    6MPD2    C214412   2.102   3.813  15.033 -0.1620  0.3422  0.1175
    6MPD2    C314413   1.967   3.836  15.061  0.4149  0.1146  0.3040
    6MPD2    C414414   1.937   3.946  15.140 -0.1213 -0.3568 -0.2180
    6MPD2    C514415   2.042   4.015  15.201 -0.9951  0.1260 -0.1674
    6MPD2     H14416   2.125   3.737  14.960 -0.6652  0.2534  0.0517
    6MPD2    H114417   1.838   3.965  15.179  0.3300  0.2139  0.6559
    6MPD2    H214418   2.243   4.081  15.190  2.0205 -1.0741 -1.0255
    6MPD2    H314419   2.022   4.107  15.255 -0.6559 -1.0717  2.0326
    6MPD2     N14420   1.864   3.758  14.994 -0.7380 -0.3575  0.6091
    6MPD2    H514421   1.897   3.682  14.935 -1.0254  1.2405 -1.5725
    6MPD2    N114422   2.327   3.874  15.020 -0.1822  0.0222  0.0092
    6MPD2    H714423   2.326   3.804  14.946  0.1296  0.1776 -0.1399
  945NH3     N114424   3.837   4.122  12.113  0.3439 -0.2189  0.6418
  945NH3     H214425   3.814   4.189  12.040  0.7576  0.8498  1.4994
  945NH3     H314426   3.855   4.031  12.070  0.4608 -0.8258  1.9745
  945NH3     H414427   3.920   4.160  12.156 -1.5948  1.8693  2.5288
  946SOD     NA14428   1.293   1.733  12.917 -0.6332 -0.2206 -0.2621
  947SOD     NA14429   0.071   3.628  15.237  0.4658  0.0784 -0.0580
  948SOD     NA14430   3.722   0.499  16.845 -0.5826  0.0909 -0.3332
  949SOD     NA14431   3.780   2.398  11.343  0.6357 -0.1057  0.6515
  950SOD     NA14432   1.908   1.544   5.904  0.3880 -0.0792  0.0711
  951SOD     NA14433   4.710   1.511  16.935 -0.1606 -0.0479  0.2446
  952SOD     NA14434   3.755   3.217  10.945  0.0207 -0.3319 -0.0666
  953SOD     NA14435   1.061   2.815   6.170 -0.5139  0.1958 -0.0882
  954SOD     NA14436   1.744   2.864  10.941  0.1409 -0.4170 -0.2554
  955SOD     NA14437   4.443   2.539  14.384  0.3377  0.1539  0.9265
  956SOD     NA14438   2.394   2.169  10.719 -0.0650 -0.1229 -0.0286
  957SOD     NA14439   0.578   1.419   8.477  0.1495  0.1119 -0.0727
  958SOD     NA14440   4.425   3.228  15.414 -0.3343  0.1483 -0.1233
  959SOD     NA14441   4.718   0.460  14.767 -0.0875 -0.2657 -0.7068
  960SOD     NA14442   2.611   2.026  10.501  0.7596 -0.2816 -0.1247
  961SOD     NA14443   2.456   3.468   9.836  0.0320  0.8101 -0.1179
  962SOD     NA14444   4.391   4.689  11.131  0.0416  0.4864  0.3331
  963SOD     NA14445   4.026   0.134   2.100 -0.0036  0.3763 -0.6342
  964SOD     NA14446   1.322   0.250   1.456 -0.3605  0.2304 -0.1614
  965SOD     NA14447   2.113   0.995   0.699 -0.2021  0.2277 -0.2277
  966SOD     NA14448   2.616   2.379  14.643 -0.3466 -0.4173  0.1203
  967SOD     NA14449   1.123   1.394   0.737  0.5445 -0.7041 -0.3402
  968SOD     NA14450   0.547   2.301   5.589 -0.0378  0.4853  0.0030
  969SOD     NA14451   3.203   2.647   9.958 -0.0011 -0.1994 -0.4345
  970SOD     NA14452   3.686   3.750   1.769 -0.2204  0.0743  0.6904
  971SOD     NA14453   3.558   0.372  14.270 -0.0866  0.0367 -0.3074
  972SOD     NA14454   4.454   2.489  11.014 -0.1119 -0.0763 -0.0311
  973SOD     NA14455   2.596   3.426   9.493  0.0528 -0.3138  0.1320
  974SOD     NA14456   1.935   1.969  12.832 -0.2006  0.3252  0.1121
  975SOD     NA14457   4.011   3.233  12.630 -0.8006  0.7161 -0.0445
  976SOD     NA14458   4.412   2.845  14.319  0.2722 -0.6599 -0.2048
  977SOD     NA14459   3.887   1.751  12.513 -0.0761  0.0986  0.3844
  978SOD     NA14460   1.471   3.106   1.157 -0.3687  0.1665 -0.1909
  979SOD     NA14461   3.682   2.811  11.779  0.2045  0.1752 -0.0594
  980SOD     NA14462   0.723   0.430   3.238 -0.0988 -0.1786 -0.1904
  981SOD     NA14463   1.337   0.324   3.683 -0.5168  0.7310 -0.3682
  982SOD     NA14464   2.892   1.689  16.308  0.1873  0.1622 -0.2219
  983SOD     NA14465   0.804   2.515  17.067  0.2594 -0.0029 -0.5681
  984SOD     NA14466   1.375   3.325  10.136 -0.0346  0.1159  0.2129
  985SOD     NA14467   1.266   1.964   9.717  0.2651 -0.2606  0.5482
  986SOD     NA14468   1.234   3.308   1.593  0.1542 -0.1817  0.2169
  987SOD     NA14469   4.023   0.050  16.155  0.0002 -0.3717  0.7560
  988SOD     NA14470   2.941   2.464   9.920 -0.6847 -0.3530 -0.1613
  989SOD     NA14471   1.406   3.911   6.069  0.2174  0.1058  0.0048
  990SOD     NA14472   3.684   2.800   5.397 -0.3073  0.5826  0.3478
  991SOD     NA14473   0.323   3.135  14.997  0.2749  0.3567 -0.2034
  992SOD     NA14474   3.933   2.653  13.353 -0.1940  0.4637 -0.4557
  993SOD     NA14475   2.664   0.085   0.684  0.5367 -0.2151 -0.3016
  994SOD     NA14476   2.773   2.318  15.407  0.5959 -0.9205  0.1618
  995SOD     NA14477   4.392   2.730  14.011  0.1371  0.2686  0.4104
  996SOD     NA14478   2.758   3.924   1.618  0.2958 -0.1230  0.3257
  997SOD     NA14479   3.307   1.616   1.833 -0.2822  0.0742 -0.3094
  998SOD     NA14480   2.929   2.983  10.125 -0.0724  0.1619  0.1762
  999SOD     NA14481   0.225   1.681   9.617  0.3261 -0.0497  0.2522
 1000SOD     NA14482   0.781   1.839   0.247  0.0393 -0.1180 -0.5306
 1001SOD     NA14483   2.429   3.128  11.320  0.0452 -0.2648  0.0188
 1002SOD     NA14484   0.784   3.032  12.673  0.2231 -0.1046 -0.1788
 1003SOD     NA14485   3.569   3.063  11.939  0.1357  0.2347 -0.0039
 1004SOD     NA14486   0.791   2.339  11.003 -0.1657 -0.1815  0.2191
 1005SOD     NA14487   3.618   4.131  15.196  0.0038  0.1083 -0.2298
 1006SOD     NA14488   2.511   2.124  10.039 -0.6905  0.0686 -0.2174
 1007SOD     NA14489   0.712   0.823   8.324 -0.6075 -0.2679 -0.3021
 1008SOD     NA14490   2.623   3.598  14.090 -0.2526 -0.0642  0.1865
 1009SOD     NA14491   0.048   2.137   8.138  0.1186  0.9061 -0.4599
 1010SOD     NA14492   3.188   3.874  14.576  0.2038  0.1010 -0.1819
 1011SOD     NA14493   2.037   1.721   1.513 -0.0180  0.1373  0.4391
 1012SOL     OW14494   1.281   2.864   2.533  0.0987 -0.3409  0.0054
 1012SOL    HW114495   1.359   2.913   2.556  0.1888 -0.4378 -0.0916
 1012SOL    HW214496   1.264   2.903   2.447 -1.3852  0.8054  0.8235
 1013SOL     OW14497   1.828   1.301   7.305 -0.4587 -0.6996  0.4321
 1013SOL    HW114498   1.859   1.217   7.273 -0.0546 -0.1968 -0.4738
 1013SOL    HW214499   1.871   1.309   7.391 -2.2928  0.5005  1.2501
 1014SOL     OW14500   1.872   0.754  17.374 -0.3146  0.1611 -0.6490
 1014SOL    HW114501   1.887   0.659  17.372  0.0800  0.2308 -1.2184
 1014SOL    HW214502   1.808   0.773  17.305 -0.0872  2.6790 -0.1585
 1015SOL     OW14503   2.677   1.679  15.461 -0.2467 -0.2773  0.4303
 1015SOL    HW114504   2.600   1.682  15.404  1.8384  0.8108 -2.3321
 1015SOL    HW214505   2.658   1.609  15.523 -0.6036  0.1445  0.7980
 1016SOL     OW14506   1.184   1.704   0.368  0.2254  0.7533 -0.1248
 1016SOL    HW114507   1.110   1.760   0.390 -0.9764 -0.3266 -1.4622
 1016SOL    HW214508   1.148   1.616   0.378 -0.5262  1.1594  0.7778
 1017SOL     OW14509   4.642   1.821   6.238  0.3865 -0.5013 -0.0785
 1017SOL    HW114510   4.570   1.870   6.277  1.4716  1.8513 -1.0768
 1017SOL    HW214511   4.710   1.887   6.226  1.8926 -1.9845  0.2296
 1018SOL     OW14512   2.423   4.512   2.317 -0.2415 -0.2695  0.1994
 1018SOL    HW114513   2.449   4.423   2.294 -2.7593 -0.4823 -1.8219
 1018SOL    HW214514   2.362   4.497   2.389  0.0117 -2.0647  0.0279
 1019SOL     OW14515   0.360   2.992   3.961 -0.2674 -0.4272  0.0003
 1019SOL    HW114516   0.389   2.901   3.964 -0.7730 -0.6160 -0.8803
 1019SOL    HW214517   0.414   3.024   3.888 -0.6228 -0.5449 -0.3176
 1020SOL     OW14518   2.673   4.122  17.365  0.7712 -0.1397  0.2210
 1020SOL    HW114519   2.693   4.154  17.277 -2.0053 -0.5746 -0.5692
 1020SOL    HW214520   2.747   4.142  17.422  1.1578  0.4492 -0.4788
 1021SOL     OW14521   3.077   1.891   4.670  0.3169 -0.8071  0.2277
 1021SOL    HW114522   3.052   1.984   4.676  0.3124 -0.6908 -1.6112
 1021SOL    HW214523   2.990   1.855   4.686  0.1585 -0.9163 -0.8986
 1022SOL     OW14524   3.765   1.132   2.869 -0.1046  1.1228 -0.7353
 1022SOL    HW114525   3.765   1.036   2.871  0.5942  1.2129  2.3818
 1022SOL    HW214526   3.819   1.148   2.946 -0.8403  0.4256 -0.0697
 1023SOL     OW14527   2.293   3.277   6.350  0.9801 -0.0192  0.1471
 1023SOL    HW114528   2.214   3.231   6.379  0.7291  1.6137  2.0461
 1023SOL    HW214529   2.349   3.205   6.322 -0.6442 -0.6795 -1.4024
 1024SOL     OW14530   2.738   4.423  10.685 -0.0989  0.2164  0.7571
 1024SOL    HW114531   2.708   4.505  10.725  0.2922  0.1183  1.2547
 1024SOL    HW214532   2.751   4.369  10.763 -0.5935  0.2069  0.8325
 1025SOL     OW14533   3.935   3.574   4.592  0.4704 -0.4490  0.2878
 1025SOL    HW114534   3.873   3.507   4.619  2.0319 -2.1513 -0.3325
 1025SOL    HW214535   4.008   3.520   4.562 -0.2518 -0.5760 -1.2557
 1026SOL     OW14536   4.594   3.548  15.330 -0.3487 -0.1683  0.2897
 1026SOL    HW114537   4.602   3.513  15.418  1.5746  1.8308  0.9178
 1026SOL    HW214538   4.530   3.488  15.291  0.4482 -0.8049 -0.0344
 1027SOL     OW14539   4.389   2.900  10.838  0.4342 -0.0362 -0.1983
 1027SOL    HW114540   4.343   2.866  10.915  1.3433  0.8456  0.7453
 1027SOL    HW214541   4.331   2.968  10.803  0.8171  0.3699 -0.0468
 1028SOL     OW14542   3.177   1.470   1.337 -0.3716 -0.1212 -0.1368
 1028SOL    HW114543   3.149   1.560   1.351 -1.3549 -0.1415 -2.1018
 1028SOL    HW214544   3.098   1.417   1.325 -1.1554  1.0264  0.0500
 1029SOL     OW14545   2.017   1.620   0.735  0.4036  0.0196 -0.7080
 1029SOL    HW114546   2.008   1.526   0.749 -0.5496  0.0161 -1.2985
 1029SOL    HW214547   2.106   1.630   0.769 -1.1554  1.9117  2.7002
 1030SOL     OW14548   1.413   3.454   7.561  0.1622  0.6072 -0.0686
 1030SOL    HW114549   1.342   3.390   7.568 -0.3628  1.1879 -0.0991
 1030SOL    HW214550   1.412   3.486   7.471  0.1708  2.6622  0.6485
 1031SOL     OW14551   3.471   1.422   1.404  0.1090  0.2263  0.5167
 1031SOL    HW114552   3.492   1.513   1.384  0.0398  0.3723  1.1137
 1031SOL    HW214553   3.376   1.430   1.409 -0.3080 -3.5743 -0.9392
 1032SOL     OW14554   1.933   3.234   4.588 -0.2458 -0.2064  0.0040
 1032SOL    HW114555   1.967   3.150   4.618  2.6406  0.2613 -1.9664
 1032SOL    HW214556   1.945   3.220   4.494  2.5361  0.0206  0.3422
 1033SOL     OW14557   2.189   2.844   3.944 -0.0246 -0.1181 -0.0665
 1033SOL    HW114558   2.165   2.751   3.934  2.8833 -0.9572  0.7934
 1033SOL    HW214559   2.197   2.861   4.038  0.2284 -0.1449 -0.0839
 1034SOL     OW14560   4.103   3.206  16.547  0.3898  0.2202 -0.0426
 1034SOL    HW114561   4.114   3.125  16.595  0.0804  0.4792  0.4668
 1034SOL    HW214562   4.030   3.250  16.591  0.8683  0.2031  0.7542
 1035SOL     OW14563   1.917   0.625   8.353  0.7228  0.3150  0.1099
 1035SOL    HW114564   1.981   0.607   8.284 -1.5349 -0.8981 -1.6372
 1035SOL    HW214565   1.966   0.632   8.435 -0.1563 -1.6714  0.8158
 1036SOL     OW14566   2.665   1.062  11.561  0.0760 -0.4637  0.0961
 1036SOL    HW114567   2.636   1.114  11.486 -3.7887 -2.5637  0.1379
 1036SOL    HW214568   2.628   0.978  11.534 -2.3715  0.2391  1.3011
 1037SOL     OW14569   0.411   2.889   5.523 -0.4017  0.1185  0.2497
 1037SOL    HW114570   0.493   2.872   5.476 -0.3828  0.5361  0.1304
 1037SOL    HW214571   0.426   2.963   5.582  1.9807  0.7228 -1.0958
 1038SOL     OW14572   0.200   2.886   3.142 -0.1896  0.3673 -0.5152
 1038SOL    HW114573   0.191   2.973   3.180 -2.9676  0.7750 -2.1076
 1038SOL    HW214574   0.137   2.893   3.070  0.4804  3.2652 -0.8119
 1039SOL     OW14575   1.688   0.629  14.219  0.8918  0.1426 -0.1216
 1039SOL    HW114576   1.625   0.662  14.155  0.3611  1.7971  1.2568
 1039SOL    HW214577   1.767   0.644  14.167  0.6933 -2.4659 -1.1797
 1040SOL     OW14578   4.709   3.967   1.793 -0.3784  0.3190 -0.4772
 1040SOL    HW114579   4.664   3.882   1.791 -1.5372  0.9097  0.0167
 1040SOL    HW214580   0.067   3.948   1.753 -0.1565  0.9424 -0.3059
 1041SOL     OW14581   3.886   0.707   5.951  0.0703  0.0654 -0.2972
 1041SOL    HW114582   3.843   0.789   5.975  0.7828  0.6040 -0.8504
 1041SOL    HW214583   3.897   0.671   6.039  1.4353  0.3928 -0.3329
 1042SOL     OW14584   3.679   0.488  14.416  0.0933 -0.0607 -0.0885
 1042SOL    HW114585   3.644   0.454  14.498 -0.7216  2.8485  0.7430
 1042SOL    HW214586   3.703   0.577  14.440  0.5085 -0.6344  1.5997
 1043SOL     OW14587   0.073   3.242   7.869 -0.1593  0.1493  0.2563
 1043SOL    HW114588   0.074   3.192   7.951  0.2706 -1.8258 -0.9512
 1043SOL    HW214589   0.070   3.333   7.898 -0.3271  0.4129 -0.5999
 1044SOL     OW14590   4.001   0.298   5.389 -0.0521 -0.3586  0.1061
 1044SOL    HW114591   4.046   0.308   5.473 -2.4971  1.7229  1.1975
 1044SOL    HW214592   3.913   0.280   5.423  0.5831 -1.3866  1.1955
 1045SOL     OW14593   4.614   0.545   5.783  0.5420  0.2928  0.0931
 1045SOL    HW114594   4.709   0.556   5.790  0.6041 -0.5098  0.5255
 1045SOL    HW214595   4.604   0.480   5.713 -1.1642  0.1081  0.5114
 1046SOL     OW14596   0.437   2.157   6.290  0.1604 -0.2786 -0.4413
 1046SOL    HW114597   0.400   2.163   6.202 -1.0597  2.4738  0.2847
 1046SOL    HW214598   0.517   2.207   6.275  1.2460 -1.6481  0.7658
 1047SOL     OW14599   2.378   2.505   9.602  0.0697  0.0172  0.2283
 1047SOL    HW114600   2.326   2.467   9.673  0.4144  0.9157  0.9581
 1047SOL    HW214601   2.308   2.560   9.568  0.4124 -2.0470 -3.8597
 1048SOL     OW14602   3.738   0.448   8.520  0.0907 -0.1588  0.7718
 1048SOL    HW114603   3.675   0.521   8.527 -1.8363 -1.7849  0.4954
 1048SOL    HW214604   3.818   0.472   8.566  2.0133 -0.4290 -2.5059
 1049SOL     OW14605   0.943   3.456   0.422 -0.5750  0.2803  0.0451
 1049SOL    HW114606   0.866   3.484   0.372 -0.3081  0.5886 -0.1939
 1049SOL    HW214607   1.009   3.499   0.367  1.5683 -1.6543  1.0994
 1050SOL     OW14608   2.783   0.307   8.176  0.6711 -0.5953  0.0610
 1050SOL    HW114609   2.766   0.362   8.099  0.4440 -1.1628 -0.2949
 1050SOL    HW214610   2.792   0.374   8.244  1.6179  0.8509 -1.4933
 1051SOL     OW14611   3.448   3.628   4.517 -0.2371 -0.1603  0.4055
 1051SOL    HW114612   3.500   3.581   4.451  1.7911  0.3901  1.6256
 1051SOL    HW214613   3.485   3.716   4.516  0.4863 -0.4621  0.8779
 1052SOL     OW14614   0.065   1.404   8.271 -0.0923 -0.0305 -0.0251
 1052SOL    HW114615   4.722   1.456   8.312 -0.0249  1.8202 -2.2517
 1052SOL    HW214616   0.126   1.398   8.344  1.2249  1.4060 -1.0069
 1053SOL     OW14617   1.712   2.818   6.201 -0.4801  0.4065 -0.2488
 1053SOL    HW114618   1.761   2.792   6.123 -0.6358 -0.1378 -0.1721
 1053SOL    HW214619   1.728   2.910   6.219 -0.6689  0.1503  1.2165
 1054SOL     OW14620   0.888   1.234   5.178  0.4218  0.7571  0.3439
 1054SOL    HW114621   0.964   1.283   5.209  0.4013  1.5268 -0.7944
 1054SOL    HW214622   0.891   1.162   5.240  0.6145  0.6638  0.2243
 1055SOL     OW14623   1.736   3.639   2.459  0.4085 -0.1502  0.0468
 1055SOL    HW114624   1.711   3.551   2.431  0.9220 -0.5852  0.9739
 1055SOL    HW214625   1.831   3.638   2.449  0.2336 -1.3863 -1.5112
 1056SOL     OW14626   2.631   2.794   2.970 -0.1116  0.3947 -0.4909
 1056SOL    HW114627   2.606   2.886   2.969 -0.2182  0.3583 -1.0601
 1056SOL    HW214628   2.552   2.744   2.951 -0.0946  0.8095 -1.6154
 1057SOL     OW14629   0.890   1.115   5.960 -0.3886  0.4133  0.3406
 1057SOL    HW114630   0.976   1.157   5.955  0.2047 -0.7414  0.8800
 1057SOL    HW214631   0.831   1.188   5.975  0.2147  0.8654  0.5457
 1058SOL     OW14632   1.941   3.157   2.984 -0.5443 -0.3971 -0.0687
 1058SOL    HW114633   1.918   3.139   3.075 -0.0600  0.6177  0.2618
 1058SOL    HW214634   2.035   3.154   3.003 -0.2540 -0.4027 -1.5323
 1059SOL     OW14635   0.650   0.176   1.986 -0.1745 -0.4513 -0.4612
 1059SOL    HW114636   0.633   0.095   1.937  1.0236 -1.3647  0.6374
 1059SOL    HW214637   0.698   0.224   1.918 -0.4971 -1.3695 -1.3510
 1060SOL     OW14638   1.566   2.737   6.441  0.1739 -0.8329  0.0565
 1060SOL    HW114639   1.587   2.644   6.446 -0.1465 -0.9635 -0.9566
 1060SOL    HW214640   1.598   2.755   6.352 -1.2082 -1.3935 -0.5542
 1061SOL     OW14641   3.788   2.300   8.832 -0.2143  0.2596 -0.3305
 1061SOL    HW114642   3.783   2.316   8.737  2.2428  1.8258 -0.2052
 1061SOL    HW214643   3.702   2.334   8.856  0.0603  0.0409  0.9176
 1062SOL     OW14644   1.814   0.333   2.742  0.1472 -0.0943 -0.2851
 1062SOL    HW114645   1.728   0.294   2.731 -0.2465  0.5256  0.5998
 1062SOL    HW214646   1.860   0.254   2.715 -1.2295 -1.0728  0.2601
 1063SOL     OW14647   3.326   0.708   2.309 -0.4766  0.1747  0.0004
 1063SOL    HW114648   3.385   0.704   2.234  1.3247 -0.4603  1.4708
 1063SOL    HW214649   3.252   0.670   2.261 -0.8433  0.3749  0.4027
 1064SOL     OW14650   2.393   3.967   2.353 -0.1756 -1.0464  0.1104
 1064SOL    HW114651   2.480   3.954   2.317 -0.2499  0.7851 -0.7465
 1064SOL    HW214652   2.413   3.981   2.446  0.3258  2.1425 -0.4863
 1065SOL     OW14653   0.338   3.720  16.487  0.1412 -0.2717 -0.6151
 1065SOL    HW114654   0.301   3.703  16.574 -1.5134  1.8072 -0.8988
 1065SOL    HW214655   0.417   3.772  16.505 -0.3851  1.6807 -4.0073
 1066SOL     OW14656   4.563   1.594   1.791  0.2502 -0.6009  0.4408
 1066SOL    HW114657   4.544   1.501   1.779  2.4640 -0.7571 -1.7077
 1066SOL    HW214658   4.480   1.641   1.782 -0.0768 -0.6657  2.9397
 1067SOL     OW14659   3.127   2.019   6.868 -0.3733 -0.0084  0.5944
 1067SOL    HW114660   3.043   2.055   6.898 -0.9986 -1.9325  1.1199
 1067SOL    HW214661   3.177   2.012   6.949  3.1751 -2.0949 -1.8133
 1068SOL     OW14662   1.862   4.687   7.452 -0.4386 -1.1633 -0.2480
 1068SOL    HW114663   1.932   0.023   7.472 -1.2206 -0.9399  1.7587
 1068SOL    HW214664   1.794   0.013   7.494 -0.9867 -2.1589  0.1235
 1069SOL     OW14665   0.330   2.081   3.910 -0.2928 -1.4832  0.2332
 1069SOL    HW114666   0.267   2.058   3.842  0.6579 -0.3212 -1.0404
 1069SOL    HW214667   0.307   2.168   3.940 -0.5940 -2.2666  2.2699
 1070SOL     OW14668   1.743   0.623   7.731  0.3850 -0.2790 -0.3763
 1070SOL    HW114669   1.681   0.605   7.801 -1.1450  0.4147 -1.5676
 1070SOL    HW214670   1.734   0.716   7.712 -3.1550 -0.2285  1.5416
 1071SOL     OW14671   0.216   0.010   5.933  0.1104  0.0398  0.1247
 1071SOL    HW114672   0.276   4.722   5.860  0.9089 -1.2335  1.0504
 1071SOL    HW214673   0.263   4.702   6.009  0.3249 -2.1203 -1.0229
 1072SOL     OW14674   2.495   4.702  15.271  0.3452 -0.4976  0.1561
 1072SOL    HW114675   2.413   4.652  15.273 -0.3102  0.6352  1.4984
 1072SOL    HW214676   2.557   4.629  15.266  0.3234 -0.5485  0.6946
 1073SOL     OW14677   3.546   3.212   5.937 -0.1896 -0.8846  0.3680
 1073SOL    HW114678   3.567   3.125   5.903 -0.2848 -0.7507 -0.0311
 1073SOL    HW214679   3.616   3.264   5.898 -0.9852 -0.0565  0.0663
 1074SOL     OW14680   4.711   3.533   3.697  0.0364 -0.2992 -0.1204
 1074SOL    HW114681   4.719   3.455   3.751  0.6044 -0.5547 -0.5691
 1074SOL    HW214682   4.621   3.556   3.720 -1.1313 -2.0723 -2.8830
 1075SOL     OW14683   2.343   1.169   5.307 -0.4418 -0.1546  0.9840
 1075SOL    HW114684   2.275   1.212   5.255  0.4500  0.2551  0.1587
 1075SOL    HW214685   2.369   1.238   5.368 -1.2916  0.4630  0.6441
 1076SOL     OW14686   2.176   2.729   3.071 -0.0140  0.4826 -0.6815
 1076SOL    HW114687   2.210   2.717   3.160 -0.7109  1.2757 -0.3057
 1076SOL    HW214688   2.252   2.710   3.017  0.1546 -1.4737  0.2248
 1077SOL     OW14689   1.960   2.234   0.399  0.3503 -0.0006 -0.5915
 1077SOL    HW114690   1.870   2.259   0.420  0.5424 -0.9589  1.3049
 1077SOL    HW214691   1.950   2.140   0.385 -2.7099  0.4007 -1.0431
 1078SOL     OW14692   0.988   0.008   7.882  0.7093  0.3509  0.4527
 1078SOL    HW114693   0.965   4.690   7.800 -1.6661 -1.6059  2.2049
 1078SOL    HW214694   1.033   0.088   7.855  0.7319 -0.3063 -1.4687
 1079SOL     OW14695   1.963   2.163   3.218 -0.1271 -0.3999 -0.0049
 1079SOL    HW114696   1.961   2.256   3.194 -1.6857 -0.1287  1.2392
 1079SOL    HW214697   1.875   2.133   3.194  0.1621  0.3167 -2.0172
 1080SOL     OW14698   1.111   2.498   2.999  0.0851  0.3188  0.3668
 1080SOL    HW114699   1.099   2.412   2.959 -1.2783  0.2370  0.9420
 1080SOL    HW214700   1.204   2.516   2.981  0.6316 -1.5321  1.3140
 1081SOL     OW14701   0.550   1.241   4.308 -0.3148 -0.3523 -0.5159
 1081SOL    HW114702   0.475   1.207   4.259  1.6078 -1.7559 -2.4672
 1081SOL    HW214703   0.621   1.258   4.245  1.0870 -1.2912  0.8292
 1082SOL     OW14704   4.662   0.979   9.861 -0.0262 -0.7817  0.1080
 1082SOL    HW114705   4.598   0.926   9.909  0.0247  0.6425  1.7553
 1082SOL    HW214706   4.652   0.944   9.773 -3.5606  2.0025 -0.6109
 1083SOL     OW14707   1.821   4.050  12.662  0.1027 -0.3739  0.5046
 1083SOL    HW114708   1.830   4.076  12.570  3.8191 -0.5801  0.8152
 1083SOL    HW214709   1.834   4.141  12.688  1.3118 -0.3924 -0.0345
 1084SOL     OW14710   0.894   4.109   5.162  0.4762  0.0790 -0.6472
 1084SOL    HW114711   0.898   4.014   5.154  1.7061  0.0006  1.1747
 1084SOL    HW214712   0.984   4.139   5.168  0.1485  0.3189  2.7537
 1085SOL     OW14713   1.482   1.221   0.382  1.0211 -0.1161  0.4539
 1085SOL    HW114714   1.478   1.316   0.393  1.0768  0.1298 -1.6932
 1085SOL    HW214715   1.523   1.186   0.461  0.3752 -0.5103  0.6116
 1086SOL     OW14716   2.387   0.944   8.113  0.6054  0.2918  0.5632
 1086SOL    HW114717   2.335   0.877   8.158  0.5270  1.0200  1.5601
 1086SOL    HW214718   2.419   0.907   8.031 -1.2836  2.2913 -1.0478
 1087SOL     OW14719   2.231   1.938   3.895  0.3203  0.4356 -0.2562
 1087SOL    HW114720   2.146   1.945   3.938 -0.5385 -2.2623 -1.5006
 1087SOL    HW214721   2.279   1.870   3.943  0.8532  1.3222  0.4690
 1088SOL     OW14722   1.702   0.537   2.415  0.2015 -0.3114  0.0933
 1088SOL    HW114723   1.741   0.487   2.487  0.1583 -2.3246 -1.2761
 1088SOL    HW214724   1.608   0.534   2.431  0.0239 -1.2053 -1.1271
 1089SOL     OW14725   2.670   3.552   4.814 -0.1334 -0.5924 -0.1994
 1089SOL    HW114726   2.658   3.527   4.905 -0.1474  0.7730  0.1674
 1089SOL    HW214727   2.718   3.634   4.828  0.2858 -0.7652 -0.6356
 1090SOL     OW14728   3.678   2.861   1.206 -0.3287  1.1651  0.1387
 1090SOL    HW114729   3.739   2.926   1.173  1.0742 -1.4140 -2.3239
 1090SOL    HW214730   3.649   2.824   1.122  0.4227  2.6169 -0.7465
 1091SOL     OW14731   1.124   3.199   8.612 -0.0361  0.1136 -0.2671
 1091SOL    HW114732   1.160   3.197   8.523  1.8188  1.4863  0.4346
 1091SOL    HW214733   1.179   3.130   8.650 -1.1093 -1.5346 -1.6956
 1092SOL     OW14734   2.072   2.670   8.824 -0.3002  0.0646 -0.3916
 1092SOL    HW114735   2.086   2.620   8.904 -0.3272  0.9855  0.1827
 1092SOL    HW214736   1.988   2.705   8.852  0.1855  0.2258  0.8626
 1093SOL     OW14737   1.609   4.541   2.606  0.4306 -0.2759  0.0498
 1093SOL    HW114738   1.699   4.525   2.633  0.0470 -1.0266  0.8774
 1093SOL    HW214739   1.581   4.597   2.678  1.8278 -2.2592  2.1338
 1094SOL     OW14740   2.180   1.444   1.776 -0.2753 -0.0321 -0.2578
 1094SOL    HW114741   2.272   1.466   1.793 -1.1455  1.5526  2.2567
 1094SOL    HW214742   2.141   1.530   1.763  1.1528  0.5662 -0.6232
 1095SOL     OW14743   2.439   1.234   4.036  0.2298  0.2187 -0.4015
 1095SOL    HW114744   2.368   1.172   4.018 -0.5741  0.9094  0.3339
 1095SOL    HW214745   2.385   1.311   4.055  2.2763  1.7175 -0.6685
 1096SOL     OW14746   3.927   2.531   3.958  0.5319 -0.3313  0.3708
 1096SOL    HW114747   4.014   2.534   3.919 -0.4871 -2.0981 -2.0633
 1096SOL    HW214748   3.871   2.567   3.889  0.0354  1.2017  1.5912
 1097SOL     OW14749   2.579   3.878   6.918 -0.0859 -0.2666 -0.4295
 1097SOL    HW114750   2.645   3.925   6.968 -0.8720  0.3268  0.0597
 1097SOL    HW214751   2.504   3.938   6.924  2.1140  2.4760 -0.4265
 1098SOL     OW14752   4.319   0.968   5.309  0.5178  0.2586  0.3986
 1098SOL    HW114753   4.380   0.900   5.338  1.9730  0.2986 -2.5588
 1098SOL    HW214754   4.260   0.922   5.249  2.4362 -0.7565 -0.7027
 1099SOL     OW14755   1.101   1.483   1.465 -0.0544  0.3387  0.2266
 1099SOL    HW114756   1.029   1.449   1.517  0.8150 -0.2081  1.0740
 1099SOL    HW214757   1.135   1.397   1.440  2.2912  0.7395  1.9623
 1100SOL     OW14758   0.093   1.339   0.202  0.0343  0.3457 -0.0708
 1100SOL    HW114759   0.124   1.420   0.162  2.3854 -0.2273  0.6073
 1100SOL    HW214760   0.022   1.374   0.256 -1.5199 -2.4343 -0.2763
 1101SOL     OW14761   2.429   1.449   6.873  0.8090  0.9341  0.1072
 1101SOL    HW114762   2.473   1.510   6.814  1.3964  0.9508  0.5521
 1101SOL    HW214763   2.407   1.503   6.949 -2.0245 -0.9247  0.5656
 1102SOL     OW14764   4.562   4.587   7.836  0.6596 -0.9046  0.2332
 1102SOL    HW114765   4.493   4.546   7.888 -0.0335 -0.3371 -0.2455
 1102SOL    HW214766   4.509   4.660   7.805  0.3964 -1.6644 -1.1621
 1103SOL     OW14767   2.108   0.724   2.302 -0.0374 -0.4945 -0.2356
 1103SOL    HW114768   2.012   0.729   2.306  0.1182  0.6999  1.5663
 1103SOL    HW214769   2.129   0.651   2.360 -2.0050 -1.2774 -0.4700
 1104SOL     OW14770   2.570   3.749  14.368 -0.0217 -0.0803  0.5016
 1104SOL    HW114771   2.627   3.765  14.443 -0.2860 -1.1172  0.9266
 1104SOL    HW214772   2.627   3.704  14.306 -1.6713  2.2806 -2.7137
 1105SOL     OW14773   3.199   2.463   4.330 -0.1694  0.4550  0.6828
 1105SOL    HW114774   3.133   2.529   4.348 -0.9361 -0.2383  0.4155
 1105SOL    HW214775   3.264   2.504   4.273  0.9536  1.2846  2.5811
 1106SOL     OW14776   0.335   4.042   5.174  0.1558  0.1203 -0.3741
 1106SOL    HW114777   0.388   4.078   5.245 -1.6105  1.0321  0.4918
 1106SOL    HW214778   0.246   4.040   5.211 -0.0741  0.8014 -0.8885
 1107SOL     OW14779   3.058   2.955  11.300 -0.3485 -0.0789  0.0838
 1107SOL    HW114780   3.075   2.871  11.259 -1.3961 -1.9898  3.5846
 1107SOL    HW214781   3.115   2.963  11.377  1.7813  1.4519 -1.6547
 1108SOL     OW14782   3.850   3.201  12.477  0.2756 -0.3579  0.1649
 1108SOL    HW114783   3.876   3.193  12.385 -0.9244  0.5955 -0.2509
 1108SOL    HW214784   3.764   3.160  12.468 -0.2237  0.5587  0.7461
 1109SOL     OW14785   0.944   2.781   7.289 -0.1115  0.1459 -0.3561
 1109SOL    HW114786   0.887   2.764   7.364  0.7225  1.4813  0.5736
 1109SOL    HW214787   0.911   2.868   7.263  0.2849  0.3439 -0.1945
 1110SOL     OW14788   2.305   1.374   6.028 -0.1892 -0.1675 -0.1766
 1110SOL    HW114789   2.361   1.400   5.955  0.7834 -3.6590 -0.7190
 1110SOL    HW214790   2.364   1.389   6.103  2.7252 -2.4540 -2.0227
 1111SOL     OW14791   3.467   0.305   4.821 -0.2946  0.3912  0.2936
 1111SOL    HW114792   3.441   0.397   4.811 -0.8164  0.2146  0.0192
 1111SOL    HW214793   3.382   0.262   4.829 -0.4599  0.9085  1.4209
 1112SOL     OW14794   0.057   4.596   5.134  0.1977  0.1761 -0.4100
 1112SOL    HW114795   0.029   4.515   5.090  0.8612 -0.9129  1.1631
 1112SOL    HW214796   4.703   4.640   5.160 -1.7412 -1.7297 -3.1808
 1113SOL     OW14797   0.896   2.252   8.870  0.4881 -0.0437 -0.5486
 1113SOL    HW114798   0.906   2.182   8.935 -1.5811 -0.7790 -1.0248
 1113SOL    HW214799   0.807   2.274   8.899 -0.9231 -3.4019 -2.3574
 1114SOL     OW14800   2.393   4.120   6.912 -0.2053  0.0789 -0.7234
 1114SOL    HW114801   2.304   4.114   6.877 -1.4316 -0.0981  2.3441
 1114SOL    HW214802   2.447   4.160   6.845  1.7910 -0.6564  0.4467
 1115SOL     OW14803   0.956   1.522   0.675  0.2163 -0.7379  0.5099
 1115SOL    HW114804   0.861   1.513   0.673  0.0091  1.4841 -0.1626
 1115SOL    HW214805   0.965   1.614   0.700  0.2090  0.0426 -2.3149
 1116SOL     OW14806   2.724   2.005  14.630 -0.1411 -0.3918  0.2524
 1116SOL    HW114807   2.788   2.069  14.598 -1.9847  1.8415  0.9980
 1116SOL    HW214808   2.653   2.068  14.645 -1.1365 -1.7321  1.1574
 1117SOL     OW14809   4.115   2.310  11.082 -0.5755  0.6082 -0.1899
 1117SOL    HW114810   4.040   2.356  11.043 -0.8625  0.8223  0.6154
 1117SOL    HW214811   4.130   2.366  11.158 -0.2083 -1.4025  1.2296
 1118SOL     OW14812   1.088   1.739   6.791 -0.0757  0.3043  0.5951
 1118SOL    HW114813   1.181   1.760   6.789  0.2268 -0.9568  1.6249
 1118SOL    HW214814   1.057   1.762   6.878 -1.5016 -0.1085  0.2003
 1119SOL     OW14815   0.107   0.645   5.035  0.4748 -0.4634  0.1615
 1119SOL    HW114816   0.043   0.707   5.069 -0.5381 -0.8423 -1.0759
 1119SOL    HW214817   0.152   0.604   5.109 -0.5717 -0.6571  0.6855
 1120SOL     OW14818   4.715   3.014   0.882  0.5072  0.2196  0.2990
 1120SOL    HW114819   4.718   2.921   0.860 -1.8351  0.0946  0.5160
 1120SOL    HW214820   4.680   3.059   0.805  0.2807  1.2007  0.9755
 1121SOL     OW14821   2.411   1.085   2.072 -0.3637 -0.7557  0.2273
 1121SOL    HW114822   2.417   1.013   2.008 -1.1341  0.8187 -1.6306
 1121SOL    HW214823   2.343   1.048   2.128 -1.9225  1.6617 -0.0842
 1122SOL     OW14824   4.056   0.952   6.311 -0.0369  0.2851  0.1072
 1122SOL    HW114825   4.016   0.969   6.226  1.5673 -0.2292 -0.7491
 1122SOL    HW214826   4.045   1.033   6.362  1.4746  0.4397  0.2033
 1123SOL     OW14827   4.321   3.036  15.269 -0.4369  0.2358  0.1467
 1123SOL    HW114828   4.393   3.054  15.207 -3.6514  3.7999 -2.5600
 1123SOL    HW214829   4.318   2.944  15.295 -0.9882  0.3488  0.4596
 1124SOL     OW14830   0.407   2.552  13.598  0.0227  0.5654 -0.3741
 1124SOL    HW114831   0.314   2.534  13.615 -0.3722  1.2636 -1.7859
 1124SOL    HW214832   0.412   2.638  13.641 -0.3436  0.5623 -0.3256
 1125SOL     OW14833   4.040   3.778   2.953 -0.3268 -0.2636  0.2451
 1125SOL    HW114834   4.133   3.792   2.968 -0.4402  1.7588 -1.0253
 1125SOL    HW214835   4.029   3.831   2.875  0.3176  1.2706  1.1911
 1126SOL     OW14836   1.066   0.975  12.853 -0.0714  0.4438  0.1454
 1126SOL    HW114837   1.150   0.978  12.807 -0.0537  0.5857  0.1881
 1126SOL    HW214838   1.065   0.888  12.893  0.0201 -0.2244 -1.2949
 1127SOL     OW14839   4.517   2.987   6.713  0.0945  0.4132  0.1425
 1127SOL    HW114840   4.597   3.039   6.702 -1.0228  2.2753  0.6847
 1127SOL    HW214841   4.499   3.002   6.806 -0.9508  0.2150 -0.0334
 1128SOL     OW14842   0.860   0.932  12.708 -0.4441  0.7788 -0.0160
 1128SOL    HW114843   0.934   0.932  12.769 -2.2746  0.3081  2.2238
 1128SOL    HW214844   0.871   1.010  12.653  1.0363 -1.1188 -2.3916
 1129SOL     OW14845   1.467   0.883  17.251  0.3469 -0.2340  0.0203
 1129SOL    HW114846   1.513   0.952  17.298  0.6301  1.1494 -2.2987
 1129SOL    HW214847   1.539   0.837  17.209  1.6335  1.7398  0.0693
 1130SOL     OW14848   3.021   1.093   2.008  0.7217 -0.5068  0.3596
 1130SOL    HW114849   3.055   1.106   2.097 -0.0762  0.0508  0.5850
 1130SOL    HW214850   3.045   1.005   1.979 -1.2300 -0.3510 -1.7363
 1131SOL     OW14851   3.610   3.894   2.746  0.1985 -0.0032  0.4778
 1131SOL    HW114852   3.519   3.876   2.721  0.1524  0.8672  0.0345
 1131SOL    HW214853   3.609   3.846   2.828 -1.0313  0.1099  0.5388
 1132SOL     OW14854   4.128   1.132  12.970  0.0913 -0.6135  0.3016
 1132SOL    HW114855   4.206   1.164  12.925 -0.2324 -0.6443 -0.2827
 1132SOL    HW214856   4.164   1.090  13.048  0.7308  2.0591  1.4148
 1133SOL     OW14857   2.860   0.136  11.593 -0.2306  0.5376 -0.1201
 1133SOL    HW114858   2.873   0.171  11.681  0.4611  0.3086 -0.1357
 1133SOL    HW214859   2.894   0.199  11.529 -0.8024  0.6061 -0.3546
 1134SOL     OW14860   2.260   2.589   7.814  0.6099 -0.3187  0.3256
 1134SOL    HW114861   2.291   2.631   7.734 -0.8718 -0.1280 -0.1495
 1134SOL    HW214862   2.267   2.664   7.873 -3.2254  1.6512 -1.7146
 1135SOL     OW14863   1.856   1.463   4.670  0.0581  0.1174  0.0846
 1135SOL    HW114864   1.769   1.426   4.654 -0.0165 -0.2287  1.3156
 1135SOL    HW214865   1.906   1.428   4.596  1.3662  2.7759 -0.2642
 1136SOL     OW14866   3.083   0.242   4.833  0.0505  0.1438 -0.1397
 1136SOL    HW114867   3.018   0.237   4.903  0.4028  1.5355  0.2909
 1136SOL    HW214868   3.061   0.170   4.774  1.7964  0.6692 -1.4177
 1137SOL     OW14869   1.069   3.617   7.423 -0.1912 -0.8676  0.2372
 1137SOL    HW114870   1.020   3.699   7.425 -1.2828 -1.5171 -0.1463
 1137SOL    HW214871   1.105   3.614   7.512 -1.2863  0.7030  0.7267
 1138SOL     OW14872   4.681   4.121   0.911  0.0116  0.4450  0.2772
 1138SOL    HW114873   4.688   4.216   0.896  0.2098  0.5981  1.3055
 1138SOL    HW214874   4.587   4.113   0.892  0.0634 -0.3669  0.3954
 1139SOL     OW14875   1.165   1.257   4.931 -0.0260 -0.7998 -0.3488
 1139SOL    HW114876   1.133   1.211   5.009  0.0842  1.0165  0.7576
 1139SOL    HW214877   1.138   1.206   4.855 -3.0981  0.7569 -0.3000
 1140SOL     OW14878   2.697   0.903   3.370  0.2202 -0.0994 -0.3176
 1140SOL    HW114879   2.656   0.885   3.285 -0.2703 -2.2561  0.3703
 1140SOL    HW214880   2.622   0.940   3.416  2.4296  0.8071  2.5065
 1141SOL     OW14881   3.502   0.565   5.283 -0.4088 -0.3197  0.4653
 1141SOL    HW114882   3.519   0.592   5.374  0.7546 -0.7679  0.3777
 1141SOL    HW214883   3.545   0.639   5.241 -1.0121 -1.0829 -1.4782
 1142SOL     OW14884   3.673   0.112   3.453 -0.2133 -0.0796 -0.0830
 1142SOL    HW114885   3.766   0.106   3.475  0.1786  0.1241 -1.6875
 1142SOL    HW214886   3.669   0.133   3.360 -0.3720  2.3592  0.4746
 1143SOL     OW14887   3.884   0.913   3.822  0.0098 -0.3128 -0.5153
 1143SOL    HW114888   3.956   0.858   3.789 -1.2255 -1.3816 -1.4203
 1143SOL    HW214889   3.911   1.003   3.807  0.2218 -0.5067 -1.3220
 1144SOL     OW14890   0.793   1.557  14.201 -1.2329 -0.1124 -0.2420
 1144SOL    HW114891   0.770   1.623  14.135  1.8242  0.8853 -0.2815
 1144SOL    HW214892   0.827   1.482  14.153 -1.0141  0.2971 -0.7282
 1145SOL     OW14893   1.537   2.662   7.190  0.2601 -0.0975 -0.6362
 1145SOL    HW114894   1.628   2.692   7.187 -0.1062  0.6735 -5.2769
 1145SOL    HW214895   1.500   2.703   7.111 -3.1365 -0.0599  0.9915
 1146SOL     OW14896   1.446   0.247   9.761 -0.1145 -0.1074  0.1543
 1146SOL    HW114897   1.424   0.158   9.788  0.7845 -0.3293  0.1636
 1146SOL    HW214898   1.363   0.294   9.766 -0.4958 -0.7396 -0.2208
 1147SOL     OW14899   2.708   0.915   2.613 -0.2706 -0.0664 -0.3488
 1147SOL    HW114900   2.740   0.858   2.683 -0.8030  0.5785  0.4195
 1147SOL    HW214901   2.754   0.997   2.634 -2.3561  1.1682 -0.6281
 1148SOL     OW14902   2.717   0.344  16.546 -0.2453  0.8408  0.0885
 1148SOL    HW114903   2.769   0.317  16.470 -1.1100 -0.8379  0.1195
 1148SOL    HW214904   2.668   0.422  16.517 -0.8064  1.1548  1.9237
 1149SOL     OW14905   0.537   3.464  11.552  0.0901  0.6718 -0.6649
 1149SOL    HW114906   0.485   3.544  11.561  0.9726  1.4341 -2.4380
 1149SOL    HW214907   0.607   3.495  11.495  0.5600  0.2967 -0.2988
 1150SOL     OW14908   0.752   0.944   9.364 -0.0119  0.4131 -0.0159
 1150SOL    HW114909   0.711   0.989   9.290  0.4390  0.7233 -0.0790
 1150SOL    HW214910   0.839   0.985   9.366  0.5154 -0.7004  0.0186
 1151SOL     OW14911   1.908   4.604  16.671  0.1132 -0.3028  0.5176
 1151SOL    HW114912   1.882   4.514  16.655 -0.2642  0.0113 -0.6243
 1151SOL    HW214913   1.924   4.597  16.765  0.9285  2.1466  0.5771
 1152SOL     OW14914   0.751   3.055   1.607  0.1995  0.2176 -0.5526
 1152SOL    HW114915   0.753   2.967   1.570  0.4611 -0.4584  1.0571
 1152SOL    HW214916   0.841   3.080   1.585  0.1777 -0.1066 -1.0064
 1153SOL     OW14917   1.640   0.370  15.591  0.0591 -0.7641 -0.3781
 1153SOL    HW114918   1.545   0.381  15.589  0.3274  1.3168 -1.5783
 1153SOL    HW214919   1.672   0.415  15.513  0.3270  0.0363  0.1912
 1154SOL     OW14920   0.209   2.498  16.973 -0.1155  0.2481 -0.6171
 1154SOL    HW114921   0.185   2.537  17.058 -0.4951  0.6833 -0.9245
 1154SOL    HW214922   0.190   2.578  16.923 -0.6864 -1.2953 -2.8348
 1155SOL     OW14923   2.713   1.435   2.527 -0.1834  0.2002 -0.2450
 1155SOL    HW114924   2.651   1.505   2.507 -2.2097 -1.0605  1.6964
 1155SOL    HW214925   2.783   1.459   2.466  0.1535 -2.1702 -0.8027
 1156SOL     OW14926   0.813   2.350   7.447  0.6797 -0.2009  0.4159
 1156SOL    HW114927   0.774   2.392   7.524 -0.4280 -1.3000  0.4394
 1156SOL    HW214928   0.894   2.310   7.479  2.9829  2.6252 -1.7970
 1157SOL     OW14929   1.928   3.171   4.300  0.0309 -0.3813 -0.4912
 1157SOL    HW114930   1.907   3.078   4.296  0.0917 -0.6083  4.3347
 1157SOL    HW214931   1.866   3.201   4.233  0.0185  0.5538 -0.0590
 1158SOL     OW14932   4.370   3.970   2.029 -0.1738 -0.2392  0.2299
 1158SOL    HW114933   4.341   4.036   1.965  0.2720 -1.8329 -1.6144
 1158SOL    HW214934   4.463   3.988   2.040 -0.4173  1.7627 -0.8002
 1159SOL     OW14935   2.744   3.995  14.368  0.1074  0.1992  0.3057
 1159SOL    HW114936   2.740   4.073  14.423 -5.1655  2.8535 -3.8220
 1159SOL    HW214937   2.730   3.930  14.437 -0.0191 -0.3159 -0.1944
 1160SOL     OW14938   4.514   1.467  12.208 -0.3951 -0.0025  0.6255
 1160SOL    HW114939   4.562   1.491  12.287 -1.0147 -0.8708  1.2581
 1160SOL    HW214940   4.425   1.490  12.236 -0.3892  0.1665  0.5029
 1161SOL     OW14941   4.603   3.885   5.421 -0.1154 -0.1283 -0.6459
 1161SOL    HW114942   4.519   3.894   5.375  1.0393 -2.4289 -3.1644
 1161SOL    HW214943   4.590   3.829   5.497  0.3155 -1.2594 -1.4192
 1162SOL     OW14944   2.616   3.327   7.990 -0.0062  0.5278  0.2452
 1162SOL    HW114945   2.536   3.376   8.012  0.1182  0.6704  0.3903
 1162SOL    HW214946   2.659   3.324   8.076 -0.1622  0.4602  0.3204
 1163SOL     OW14947   0.609   1.561  16.322  0.0777 -0.0891  0.1648
 1163SOL    HW114948   0.675   1.505  16.363  1.6267  1.6683  0.0643
 1163SOL    HW214949   0.648   1.581  16.238 -1.5403 -1.3067 -0.8738
 1164SOL     OW14950   0.793   0.434   9.207  0.2886  0.4237  0.5506
 1164SOL    HW114951   0.886   0.424   9.226  1.0599  0.1009 -3.4579
 1164SOL    HW214952   0.769   0.510   9.260  0.5531 -0.0186  1.2954
 1165SOL     OW14953   1.604   3.372   6.748 -0.0626 -0.0825  0.4109
 1165SOL    HW114954   1.590   3.312   6.675  1.6931  1.0196 -0.8311
 1165SOL    HW214955   1.565   3.327   6.823 -1.9420  0.7705 -0.0440
 1166SOL     OW14956   0.737   0.102   8.988  0.0519  0.0898 -0.2860
 1166SOL    HW114957   0.741   0.009   8.968 -1.9808 -0.1391  0.4354
 1166SOL    HW214958   0.707   0.099   9.079 -3.4126 -1.2638 -1.4551
 1167SOL     OW14959   2.549   2.585   7.995 -0.2289  0.0075  0.2935
 1167SOL    HW114960   2.550   2.584   8.091  2.8997 -2.2399  0.2518
 1167SOL    HW214961   2.512   2.501   7.971  1.2735 -0.0737 -1.7231
 1168SOL     OW14962   1.729   1.483   6.499  0.1149  0.0538 -0.2372
 1168SOL    HW114963   1.800   1.518   6.553 -0.3061  2.6640 -1.3350
 1168SOL    HW214964   1.764   1.399   6.471 -0.3836 -0.3412  0.3439
 1169SOL     OW14965   1.043   4.565   9.327  0.1668 -0.1727 -0.1887
 1169SOL    HW114966   1.103   4.534   9.395  2.8776  1.8873 -1.5860
 1169SOL    HW214967   1.040   4.488   9.270 -0.7178 -1.4767  1.6458
 1170SOL     OW14968   3.933   2.567   8.863 -0.3030 -0.4111  0.2704
 1170SOL    HW114969   3.958   2.546   8.953  0.0677 -0.3949  0.1695
 1170SOL    HW214970   3.904   2.478   8.841 -0.0879 -0.4413  0.1154
 1171SOL     OW14971   3.789   2.647   4.399  0.1930 -0.0977  0.2218
 1171SOL    HW114972   3.854   2.717   4.400 -0.5924  0.6590 -1.0379
 1171SOL    HW214973   3.851   2.581   4.430 -0.3257 -0.5563  0.2959
 1172SOL     OW14974   0.723   4.012   4.178 -0.2413  0.3072 -0.5006
 1172SOL    HW114975   0.699   3.941   4.238  3.2569  0.8011  1.4490
 1172SOL    HW214976   0.732   3.957   4.100 -2.3991 -1.7760  0.7093
 1173SOL     OW14977   2.610   3.757   5.751 -0.1479  1.2697  0.0549
 1173SOL    HW114978   2.688   3.706   5.730 -0.2000  0.9590  0.6320
 1173SOL    HW214979   2.592   3.748   5.844 -5.2319 -1.0027 -1.1738
 1174SOL     OW14980   2.799   2.913  15.437 -0.0450 -0.2045 -0.6359
 1174SOL    HW114981   2.848   2.848  15.387 -0.6471 -1.1869  0.0608
 1174SOL    HW214982   2.843   2.900  15.522 -1.7721 -0.8350  0.1578
 1175SOL     OW14983   0.195   1.723  16.009  0.7835 -0.8526 -0.1660
 1175SOL    HW114984   0.212   1.812  15.979  1.0486 -0.8118  0.1106
 1175SOL    HW214985   0.159   1.693  15.926  1.4866  3.5288 -2.0381
 1176SOL     OW14986   3.906   2.803  14.291  0.2151 -0.3934 -0.2699
 1176SOL    HW114987   3.852   2.853  14.353 -1.6978 -0.6772 -1.7084
 1176SOL    HW214988   3.950   2.739  14.347 -1.4846 -0.6175  0.7920
 1177SOL     OW14989   0.293   3.277   2.924  0.1083 -0.0007 -0.1574
 1177SOL    HW114990   0.291   3.336   2.848  1.7143  0.3049  0.0466
 1177SOL    HW214991   0.213   3.224   2.916  0.5620 -0.6270 -0.5508
 1178SOL     OW14992   4.132   0.267   6.757  0.1365 -0.4154 -0.0999
 1178SOL    HW114993   4.105   0.332   6.821  0.1045 -2.2083  1.7012
 1178SOL    HW214994   4.062   0.202   6.752  1.1400 -1.3519 -2.0258
 1179SOL     OW14995   0.721   1.324   7.171 -0.7646  0.0805 -0.3481
 1179SOL    HW114996   0.803   1.372   7.160  0.4591 -2.2426 -1.4319
 1179SOL    HW214997   0.755   1.239   7.201 -0.0672  0.7854  0.8462
 1180SOL     OW14998   0.506   3.385   7.806  0.0051 -0.4901 -1.0792
 1180SOL    HW114999   0.491   3.357   7.897  1.4713 -0.1574 -0.7361
 1180SOL    HW215000   0.431   3.440   7.782 -1.7086 -3.1070 -1.6613
 1181SOL     OW15001   0.863   0.578   3.343 -1.0310 -0.3031 -0.3156
 1181SOL    HW115002   0.905   0.657   3.309 -1.5809 -0.4208 -1.2581
 1181SOL    HW215003   0.837   0.607   3.431  1.5964  0.4086  0.2236
 1182SOL     OW15004   2.373   2.465  15.582  0.7691  0.3113 -0.1641
 1182SOL    HW115005   2.412   2.549  15.608  0.2816  0.0083  1.5724
 1182SOL    HW215006   2.282   2.493  15.583  0.8635  0.6129  0.3611
 1183SOL     OW15007   1.189   0.077  13.348 -0.0405  0.1635  0.0687
 1183SOL    HW115008   1.278   0.112  13.352  0.3519 -0.7227 -0.7215
 1183SOL    HW215009   1.187   4.716  13.309  3.3956  0.0949  0.0170
 1184SOL     OW15010   0.754   2.267  11.413  0.1476 -0.8737 -0.2586
 1184SOL    HW115011   0.799   2.303  11.490  0.5231  0.3852 -1.0725
 1184SOL    HW215012   0.760   2.172  11.422  0.5182 -0.8223  0.0304
 1185SOL     OW15013   3.497   0.790  12.327 -0.4514  0.4933 -0.7541
 1185SOL    HW115014   3.456   0.857  12.272 -2.7546 -0.0906  0.2338
 1185SOL    HW215015   3.587   0.821  12.328 -0.3773  0.2986 -1.2780
 1186SOL     OW15016   0.602   1.539  14.505  0.2451 -0.0039  0.1209
 1186SOL    HW115017   0.601   1.599  14.580 -0.8955  0.6685 -0.4215
 1186SOL    HW215018   0.689   1.554  14.469 -0.1575  1.5106 -0.2150
 1187SOL     OW15019   3.086   2.410   7.621  0.3930  0.1815 -0.4809
 1187SOL    HW115020   2.996   2.386   7.602  0.0091 -0.4212  2.1526
 1187SOL    HW215021   3.065   2.494   7.663  1.5830  1.1022 -1.7095
 1188SOL     OW15022   0.620   4.466  17.471 -0.0444 -0.1279  0.5102
 1188SOL    HW115023   0.606   4.386  17.522  0.6097 -2.2192 -2.6102
 1188SOL    HW215024   0.578   4.445  17.388 -2.2085  1.6453  1.1729
 1189SOL     OW15025   3.370   2.531   4.130 -0.3997  0.1345  0.3130
 1189SOL    HW115026   3.461   2.542   4.157 -0.2565 -3.0517  1.1087
 1189SOL    HW215027   3.368   2.591   4.055 -2.4145 -1.2389 -0.7501
 1190SOL     OW15028   0.248   1.967   1.631  0.0927 -0.5883 -0.0833
 1190SOL    HW115029   0.344   1.965   1.628  0.1094  0.7351 -0.4959
 1190SOL    HW215030   0.237   1.922   1.714  0.7172  0.1139  0.3840
 1191SOL     OW15031   4.157   3.190  10.273 -0.2113  0.0565 -0.2033
 1191SOL    HW115032   4.115   3.107  10.251 -2.0310  1.1500 -0.9056
 1191SOL    HW215033   4.099   3.258  10.237  0.5895  0.6965 -0.2681
 1192SOL     OW15034   3.569   1.963   9.316 -0.1920 -0.4519 -0.1021
 1192SOL    HW115035   3.499   1.900   9.298 -1.4564  1.1039 -0.6072
 1192SOL    HW215036   3.636   1.944   9.250 -0.6620  1.5062 -1.1365
 1193SOL     OW15037   1.120   4.675   6.821  0.1113 -0.1964  0.7215
 1193SOL    HW115038   1.026   4.669   6.807  0.5212 -1.7832 -1.2854
 1193SOL    HW215039   1.158   4.663   6.734 -1.4757 -2.2506  0.3228
 1194SOL     OW15040   1.389   4.621   3.589  0.1126  0.3543  0.0918
 1194SOL    HW115041   1.352   4.550   3.641 -0.7434  1.6066  1.1684
 1194SOL    HW215042   1.479   4.597   3.564  0.2656 -0.4361  1.4240
 1195SOL     OW15043   4.306   0.433   2.456 -0.0964  0.5311 -0.1448
 1195SOL    HW115044   4.309   0.474   2.543 -1.4246  0.7127 -0.1925
 1195SOL    HW215045   4.229   0.458   2.405 -0.8894  1.6854  1.6351
 1196SOL     OW15046   0.102   3.009   5.031 -0.3691 -0.0549 -0.2182
 1196SOL    HW115047   0.061   2.985   5.114  0.5980 -1.0029 -0.0110
 1196SOL    HW215048   0.178   2.954   5.050  1.1688  2.5920  1.2696
 1197SOL     OW15049   0.420   3.304  10.674  0.1273 -0.3183  0.2611
 1197SOL    HW115050   0.467   3.228  10.639 -0.1552 -0.5192  0.3136
 1197SOL    HW215051   0.368   3.267  10.746 -0.6180 -0.4859 -0.3657
 1198SOL     OW15052   3.471   2.074   7.696 -0.3018 -0.1812  0.4491
 1198SOL    HW115053   3.395   2.022   7.670 -0.4024  1.2443 -2.0479
 1198SOL    HW215054   3.433   2.156   7.665 -2.8375 -1.4747  0.1418
 1199SOL     OW15055   1.940   0.893   3.190 -0.6537 -0.4629  0.0643
 1199SOL    HW115056   2.025   0.875   3.150  0.4164  2.9238  0.8157
 1199SOL    HW215057   1.929   0.983   3.159 -0.4593 -0.5427 -0.2378
 1200SOL     OW15058   4.395   0.050   6.252  0.0643  0.2162 -0.4825
 1200SOL    HW115059   4.357   4.714   6.313  0.1147  0.8610  0.2108
 1200SOL    HW215060   4.432   0.115   6.312  0.8429 -0.8571  0.1945
 1201SOL     OW15061   0.031   4.685   7.298 -0.7667 -0.0067  0.2488
 1201SOL    HW115062   0.117   4.646   7.278 -0.9292  0.2242 -0.9175
 1201SOL    HW215063   0.054   0.041   7.340 -2.8639  0.3301  0.7440
 1202SOL     OW15064   4.130   4.569  14.353  0.0844  0.1355 -0.1348
 1202SOL    HW115065   4.175   4.623  14.287  1.3194  1.3771  1.7098
 1202SOL    HW215066   4.167   4.482  14.342 -0.1562 -0.0636  0.6024
 1203SOL     OW15067   0.567   3.015   4.342  0.5477 -0.4614  0.6163
 1203SOL    HW115068   0.659   3.023   4.368  0.9331 -0.9253 -0.6262
 1203SOL    HW215069   0.552   2.924   4.365  1.7816 -0.6554  0.6405
 1204SOL     OW15070   1.193   1.931  13.507  0.3101  0.1584 -0.5220
 1204SOL    HW115071   1.149   1.956  13.425 -1.8480  0.3745  0.7086
 1204SOL    HW215072   1.224   2.013  13.546 -1.7636  1.3167 -1.2796
 1205SOL     OW15073   0.315   0.151   4.754 -0.3172 -0.4739 -0.0490
 1205SOL    HW115074   0.298   0.245   4.746  2.4010  0.1247  1.1078
 1205SOL    HW215075   0.278   0.146   4.842  3.7629 -1.3293  1.6272
 1206SOL     OW15076   4.536   4.019  16.807  0.2776 -0.3509 -0.0006
 1206SOL    HW115077   4.553   4.056  16.893 -2.3678  0.4918  0.1375
 1206SOL    HW215078   4.549   3.928  16.835  0.6180 -0.8860 -1.8490
 1207SOL     OW15079   4.607   2.063   4.299  0.4996 -0.4892  0.2986
 1207SOL    HW115080   4.644   1.977   4.279  0.4043 -0.4301 -0.1271
 1207SOL    HW215081   4.545   2.039   4.368  0.9421 -2.8456 -0.1290
 1208SOL     OW15082   2.618   4.080  12.636 -0.3755 -0.4951 -0.2937
 1208SOL    HW115083   2.711   4.055  12.631 -0.5396 -1.3292  0.6958
 1208SOL    HW215084   2.593   4.040  12.552  3.6073 -0.6169 -1.4526
 1209SOL     OW15085   1.097   1.579  15.891 -0.6388 -0.2310 -0.0866
 1209SOL    HW115086   1.129   1.509  15.948  1.9385  3.2598  2.7853
 1209SOL    HW215087   1.101   1.539  15.804 -0.8584  2.6280 -1.3913
 1210SOL     OW15088   0.198   1.073   0.210 -0.1192 -0.0359 -0.6581
 1210SOL    HW115089   0.193   1.033   0.297 -2.4097 -0.1273 -0.8229
 1210SOL    HW215090   0.163   1.161   0.225  1.7538  0.5893 -0.0366
 1211SOL     OW15091   0.383   0.283  10.526  0.3205  0.4115  0.0571
 1211SOL    HW115092   0.455   0.332  10.486 -0.8639 -0.9375 -3.7086
 1211SOL    HW215093   0.392   0.317  10.615 -0.5815 -0.2036  0.3807
 1212SOL     OW15094   2.183   1.462   2.824  0.3436 -0.5565 -0.3737
 1212SOL    HW115095   2.273   1.446   2.797 -0.0822 -3.2130 -0.2871
 1212SOL    HW215096   2.151   1.380   2.785 -2.5211  1.0345 -1.4096
 1213SOL     OW15097   0.857   0.735   8.157  0.5749 -0.0118  0.7628
 1213SOL    HW115098   0.926   0.681   8.195  0.3997 -0.3001  0.6686
 1213SOL    HW215099   0.813   0.683   8.090 -2.3427  0.1559  2.5101
 1214SOL     OW15100   0.478   4.483  17.242  0.0064 -0.1699  0.0783
 1214SOL    HW115101   0.393   4.487  17.198 -0.4810  0.7245  1.1308
 1214SOL    HW215102   0.540   4.461  17.172 -1.8563  2.0595 -2.2894
 1215SOL     OW15103   3.868   3.986   6.673 -0.2663  0.1788 -0.1018
 1215SOL    HW115104   3.901   3.922   6.735 -0.6123 -0.0210 -0.1218
 1215SOL    HW215105   3.779   3.952   6.685 -1.1982  1.9410 -1.9388
 1216SOL     OW15106   1.656   1.033   6.720  0.3451  0.0916 -0.3938
 1216SOL    HW115107   1.573   1.055   6.677  0.0204 -1.0270 -0.3173
 1216SOL    HW215108   1.680   1.109   6.773  0.4287 -0.9987  1.1205
 1217SOL     OW15109   4.297   3.719   6.076 -0.7492  0.0793 -0.0088
 1217SOL    HW115110   4.386   3.744   6.098 -0.2569 -1.5894 -0.0940
 1217SOL    HW215111   4.287   3.745   5.984 -0.2459 -0.9193 -0.3464
 1218SOL     OW15112   2.252   4.473   2.524 -0.1247  0.0767  0.4173
 1218SOL    HW115113   2.316   4.405   2.546 -0.1223  0.1183  0.5369
 1218SOL    HW215114   2.174   4.421   2.543 -0.0712 -0.1161  0.1206
 1219SOL     OW15115   2.211   1.893   7.912 -0.3981 -0.3057 -0.3419
 1219SOL    HW115116   2.301   1.913   7.938 -0.0000  0.4447 -2.3099
 1219SOL    HW215117   2.178   1.979   7.888 -1.9754 -0.7759  0.1460
 1220SOL     OW15118   4.396   4.617   8.133  0.3041 -0.0708  0.0757
 1220SOL    HW115119   4.418   4.660   8.216 -0.9740  1.2659 -0.2891
 1220SOL    HW215120   4.477   4.568   8.116 -0.8956 -2.5257  1.3849
 1221SOL     OW15121   3.140   0.040   2.624 -0.1672 -0.5362 -0.0457
 1221SOL    HW115122   3.147   4.709   2.700 -1.1113  0.9117  1.1309
 1221SOL    HW215123   3.218   0.017   2.573 -0.5802  2.7110 -2.1571
 1222SOL     OW15124   0.969   1.856   9.138  0.3649  0.4194  0.1199
 1222SOL    HW115125   0.934   1.828   9.054  3.6309 -2.0811 -0.4193
 1222SOL    HW215126   1.027   1.927   9.108 -0.0508  0.3431 -0.8551
 1223SOL     OW15127   2.357   1.538   1.260  0.6665 -0.1987 -0.1895
 1223SOL    HW115128   2.343   1.519   1.167 -2.2705  2.6251 -0.3461
 1223SOL    HW215129   2.316   1.624   1.268  2.6309  0.7119  0.1713
 1224SOL     OW15130   2.874   1.331   8.558 -0.3411 -0.5917 -0.6978
 1224SOL    HW115131   2.964   1.304   8.539 -0.0473 -0.3796  0.4389
 1224SOL    HW215132   2.876   1.327   8.653  1.6089 -0.3037 -0.7313
 1225SOL     OW15133   2.784   3.512  15.211  0.4184  0.4110 -0.0083
 1225SOL    HW115134   2.864   3.478  15.170 -0.5691  0.6179 -2.1192
 1225SOL    HW215135   2.755   3.567  15.138  1.5336 -0.3357 -1.0245
 1226SOL     OW15136   2.792   4.026   7.017  0.4957 -0.4475 -0.2124
 1226SOL    HW115137   2.862   4.063   6.963  1.2115 -0.5589  0.6506
 1226SOL    HW215138   2.791   4.094   7.085  1.8722 -0.3254 -0.3313
 1227SOL     OW15139   2.224   3.019  11.325  0.5774  0.0386  0.0151
 1227SOL    HW115140   2.128   3.018  11.321  0.6702  0.8596 -2.3006
 1227SOL    HW215141   2.241   2.956  11.395 -1.0790 -1.3206 -0.7961
 1228SOL     OW15142   1.359   0.938   4.990 -0.1667 -0.2994 -0.1169
 1228SOL    HW115143   1.304   0.974   5.059 -1.0528 -0.1101 -0.9095
 1228SOL    HW215144   1.445   0.973   5.011  0.1276 -0.9327 -0.2686
 1229SOL     OW15145   0.846   0.907  16.388  0.1118  0.6347 -0.2468
 1229SOL    HW115146   0.767   0.855  16.372 -0.2146  0.6857  1.1969
 1229SOL    HW215147   0.846   0.900  16.484  3.4878  0.1811 -0.3013
 1230SOL     OW15148   1.354   2.323   5.671 -0.0782 -0.0246 -0.1692
 1230SOL    HW115149   1.319   2.406   5.702 -0.6469 -0.7274  1.0856
 1230SOL    HW215150   1.378   2.281   5.753 -0.8496  0.8834  0.5161
 1231SOL     OW15151   2.155   1.213   1.536  1.0629 -0.4062  0.0638
 1231SOL    HW115152   2.153   1.134   1.590 -0.1309  0.7439  1.7012
 1231SOL    HW215153   2.200   1.278   1.590 -2.7920  2.7855 -0.5061
 1232SOL     OW15154   0.584   0.866   8.136 -0.0691  0.0116  0.0096
 1232SOL    HW115155   0.562   0.816   8.057 -0.3681  0.0341  0.0786
 1232SOL    HW215156   0.545   0.948   8.106 -0.1146  0.0879  0.2770
 1233SOL     OW15157   1.682   2.655   7.536  0.2134 -0.3725  0.7778
 1233SOL    HW115158   1.717   2.621   7.618 -1.3857  0.3133  1.7475
 1233SOL    HW215159   1.712   2.746   7.531  3.3338 -1.4566 -0.0505
 1234SOL     OW15160   4.658   2.177   3.667 -0.2113  0.4455 -0.1898
 1234SOL    HW115161   4.604   2.252   3.691  1.1573  0.8930  1.4666
 1234SOL    HW215162   4.705   2.216   3.593  0.7734  0.4694  0.4581
 1235SOL     OW15163   2.390   3.626  10.277 -0.0418 -0.1429  0.7502
 1235SOL    HW115164   2.410   3.676  10.356 -1.5353 -1.4456  1.9410
 1235SOL    HW215165   2.392   3.698  10.213  0.6474  0.6767  1.6857
 1236SOL     OW15166   4.653   2.891   5.254  0.2390  0.0273  0.4454
 1236SOL    HW115167   4.681   2.849   5.336 -2.0944 -0.0845  1.1875
 1236SOL    HW215168   4.638   2.981   5.284 -1.3262 -0.2260  0.4424
 1237SOL     OW15169   4.414   2.997   6.955 -0.3253  0.0837  0.2066
 1237SOL    HW115170   4.378   3.084   6.945  1.3002  1.1310  3.5224
 1237SOL    HW215171   4.411   3.003   7.051  2.5229  0.2643  0.3051
 1238SOL     OW15172   1.592   2.704   8.754 -0.1264  0.0311 -0.6363
 1238SOL    HW115173   1.516   2.665   8.797 -0.4042  1.8913  0.5744
 1238SOL    HW215174   1.584   2.683   8.661  0.7685  3.0660 -1.4068
 1239SOL     OW15175   3.190   0.338   8.237 -0.2234 -0.1152  0.3925
 1239SOL    HW115176   3.118   0.316   8.177 -0.4477 -0.9944  0.9945
 1239SOL    HW215177   3.261   0.286   8.200 -0.3491 -0.6494  0.9060
 1240SOL     OW15178   2.882   1.717   3.832  0.2781 -0.4563 -0.1695
 1240SOL    HW115179   2.949   1.762   3.883  1.1623 -1.3229 -0.5771
 1240SOL    HW215180   2.812   1.783   3.829  0.5828 -0.1083  0.3297
 1241SOL     OW15181   4.686   3.725  13.681  0.3842 -0.0043  0.1825
 1241SOL    HW115182   4.684   3.651  13.621  0.9752 -1.6946  2.2617
 1241SOL    HW215183   4.699   3.801  13.624  2.1127 -0.2425  0.2762
 1242SOL     OW15184   4.416   0.106   3.640 -0.0166 -0.5056  0.1618
 1242SOL    HW115185   4.448   0.016   3.646 -2.2024 -1.2562  0.4014
 1242SOL    HW215186   4.364   0.099   3.560 -0.7491  0.6517  0.5315
 1243SOL     OW15187   1.534   0.216   2.282  0.1234 -0.1419 -0.2339
 1243SOL    HW115188   1.582   0.265   2.215 -1.7120  0.5888 -1.0092
 1243SOL    HW215189   1.593   0.144   2.304 -0.7278 -1.0727 -1.0350
 1244SOL     OW15190   3.478   1.975   7.289  0.1631 -0.1527  0.1825
 1244SOL    HW115191   3.573   1.969   7.291  0.2361  0.8575 -0.2398
 1244SOL    HW215192   3.472   2.064   7.325 -2.3823 -0.0494 -0.4880
 1245SOL     OW15193   3.699   2.768  11.265  0.0528  0.3387 -0.0655
 1245SOL    HW115194   3.791   2.785  11.247  0.4118 -0.9124  0.5515
 1245SOL    HW215195   3.702   2.672  11.258 -0.8159  0.3297 -0.3575
 1246SOL     OW15196   2.425   0.246   9.149 -0.1115  0.1857 -0.4710
 1246SOL    HW115197   2.491   0.179   9.130  0.4391  0.6314 -0.1469
 1246SOL    HW215198   2.469   0.314   9.201  0.6516  0.6397 -1.7309
 1247SOL     OW15199   2.196   0.599   0.637  0.4237 -0.1615 -0.1156
 1247SOL    HW115200   2.191   0.544   0.559 -4.3552  0.1611 -0.0544
 1247SOL    HW215201   2.188   0.684   0.594  2.7164  0.0299 -0.1543
 1248SOL     OW15202   0.374   4.637   5.731  0.0989  0.0768 -0.9144
 1248SOL    HW115203   0.410   4.673   5.650  0.6072 -0.3497 -0.8835
 1248SOL    HW215204   0.334   4.554   5.705 -0.2712  0.5101 -1.7102
 1249SOL     OW15205   0.531   3.778   2.761  0.2050 -0.0627  0.4511
 1249SOL    HW115206   0.620   3.763   2.729 -0.0770  3.4656 -1.9506
 1249SOL    HW215207   0.522   3.871   2.741  2.2084  0.1854  0.6537
 1250SOL     OW15208   1.365   2.461  17.690  0.8832  0.2730  0.0976
 1250SOL    HW115209   1.377   2.372  17.655 -0.2337  0.0303  0.3121
 1250SOL    HW215210   1.278   2.459   0.024  1.1035  0.9140  0.5868
 1251SOL     OW15211   0.871   0.679   7.741 -0.2047 -0.0603  0.4447
 1251SOL    HW115212   0.871   0.660   7.648 -1.0275  2.5189 -0.0696
 1251SOL    HW215213   0.933   0.751   7.748  0.8181 -0.9242  0.2043
 1252SOL     OW15214   1.206   0.967   2.438 -0.0307 -0.7412  0.8245
 1252SOL    HW115215   1.204   0.967   2.534  1.1950  0.4871  0.8705
 1252SOL    HW215216   1.180   0.880   2.411  2.1583 -1.3232  0.5594
 1253SOL     OW15217   1.265   3.392   9.229  0.2976  0.0651 -0.2096
 1253SOL    HW115218   1.231   3.319   9.178  0.2503  0.4005 -0.6592
 1253SOL    HW215219   1.182   3.428   9.260  0.5782  0.9229 -0.4616
 1254SOL     OW15220   3.986   3.065   4.864 -0.5155 -0.0915 -0.3768
 1254SOL    HW115221   4.020   2.978   4.883  0.8246  0.5455  0.1584
 1254SOL    HW215222   3.965   3.062   4.771  1.3304 -0.6999 -0.7813
 1255SOL     OW15223   4.089   3.363   4.479  0.2874  0.1101  0.1931
 1255SOL    HW115224   4.060   3.301   4.412  0.5253 -0.6746  0.8262
 1255SOL    HW215225   4.112   3.302   4.549 -2.0261  1.5670  2.2007
 1256SOL     OW15226   1.524   2.223   6.254  0.5810 -0.2604 -0.1659
 1256SOL    HW115227   1.442   2.272   6.255  0.9828  0.3982  0.5232
 1256SOL    HW215228   1.568   2.271   6.325 -0.7076  1.0285 -0.2392
 1257SOL     OW15229   0.347   3.694   6.407  0.1362 -0.1924 -0.8272
 1257SOL    HW115230   0.438   3.669   6.424 -1.0957 -3.8027  0.2868
 1257SOL    HW215231   0.357   3.783   6.371  2.5609  0.0253  0.3953
 1258SOL     OW15232   2.585   2.697   9.541  0.0607  0.1193  0.1291
 1258SOL    HW115233   2.527   2.623   9.558  1.2645 -0.3908  2.0016
 1258SOL    HW215234   2.535   2.738   9.470 -1.9498 -1.6854  0.5093
 1259SOL     OW15235   4.587   2.595  11.376  0.1650  0.1797 -0.2029
 1259SOL    HW115236   4.676   2.566  11.398  0.1266  0.3826  0.2222
 1259SOL    HW215237   4.557   2.628  11.460  1.6906  0.7961  0.1046
 1260SOL     OW15238   1.524   3.000   1.371  0.6223 -0.4112 -0.0229
 1260SOL    HW115239   1.609   2.977   1.332  0.7849  0.0491  0.0594
 1260SOL    HW215240   1.555   3.021   1.459  1.7737 -0.1703 -0.4834
 1261SOL     OW15241   2.262   2.846  15.714  0.5534 -0.5968  0.1592
 1261SOL    HW115242   2.205   2.841  15.791 -0.5313  2.6527 -0.4245
 1261SOL    HW215243   2.324   2.916  15.734 -1.3633  0.7161  1.4815
 1262SOL     OW15244   1.628   4.626  10.966 -1.0647 -0.1969 -0.1470
 1262SOL    HW115245   1.603   4.616  11.058 -2.5420 -2.7487 -0.8250
 1262SOL    HW215246   1.685   4.549  10.956 -1.6670 -0.5299 -1.0110
 1263SOL     OW15247   2.011   4.606   5.603 -0.1401 -0.4339  0.3131
 1263SOL    HW115248   1.949   4.533   5.601 -1.2893  0.5225  0.6451
 1263SOL    HW215249   1.986   4.653   5.683  1.0700  1.4460 -0.4316
 1264SOL     OW15250   4.472   4.168   2.497  0.2444 -0.4288 -0.3655
 1264SOL    HW115251   4.472   4.263   2.484  0.9800  0.1691  4.0009
 1264SOL    HW215252   4.405   4.141   2.435 -0.7522 -0.0460  0.5385
 1265SOL     OW15253   2.921   4.511  12.098 -0.1374  0.1793 -0.1916
 1265SOL    HW115254   2.913   4.579  12.164 -0.4085 -0.0882  0.0492
 1265SOL    HW215255   2.961   4.560  12.026 -1.4824 -0.8541 -1.6626
 1266SOL     OW15256   1.911   4.634   1.290  0.2908 -0.1328 -0.3462
 1266SOL    HW115257   1.870   4.560   1.335  3.0554  0.1195  2.5701
 1266SOL    HW215258   1.988   4.597   1.246 -0.0021 -1.9078  0.6499
 1267SOL     OW15259   4.274   2.062   2.937  0.5022  0.6926  0.0259
 1267SOL    HW115260   4.344   2.044   2.874  0.4025 -1.8282  0.6101
 1267SOL    HW215261   4.227   2.133   2.894  2.3863  2.9285  1.6566
 1268SOL     OW15262   4.445   4.465   1.142  0.0700 -0.3091  0.1685
 1268SOL    HW115263   4.382   4.511   1.085  1.4161  0.9695 -0.2854
 1268SOL    HW215264   4.498   4.417   1.078  2.5559  1.1971  1.1389
 1269SOL     OW15265   4.528   1.111   5.641  0.0540  0.1286 -0.4553
 1269SOL    HW115266   4.440   1.136   5.614 -0.8135 -0.8708  1.5151
 1269SOL    HW215267   4.529   1.016   5.656 -1.6718 -0.4090 -3.8065
 1270SOL     OW15268   1.821   0.379   7.366  0.7479 -0.2222  0.0714
 1270SOL    HW115269   1.881   0.360   7.294 -1.7466 -1.8944 -1.5685
 1270SOL    HW215270   1.739   0.337   7.340  1.4941  0.0949 -2.8705
 1271SOL     OW15271   0.586   2.496   9.319 -0.1049  0.1592 -0.4915
 1271SOL    HW115272   0.674   2.468   9.297 -0.8554 -2.0852 -0.6540
 1271SOL    HW215273   0.586   2.572   9.262  0.8633  0.9880  0.6275
 1272SOL     OW15274   2.946   4.578   3.682 -0.1015 -0.0244 -0.1824
 1272SOL    HW115275   3.010   4.518   3.644  1.6651  1.2334  0.7944
 1272SOL    HW215276   2.881   4.518   3.718 -0.6143 -0.6339 -2.1383
 1273SOL     OW15277   0.329   3.449   2.422  0.3529 -1.0169  0.5200
 1273SOL    HW115278   0.357   3.404   2.342 -0.7442 -0.5737 -0.1194
 1273SOL    HW215279   0.268   3.508   2.377 -1.4795 -2.5983  0.9358
 1274SOL     OW15280   2.050   2.867   6.900 -0.0467  0.1977  0.2157
 1274SOL    HW115281   2.085   2.942   6.851  0.7525 -1.1550 -1.2968
 1274SOL    HW215282   2.101   2.849   6.978 -1.3647  0.0322  1.0455
 1275SOL     OW15283   1.838   0.523   0.037 -0.0190  0.2433  0.8688
 1275SOL    HW115284   1.926   0.555   0.059 -0.2564  3.0052 -2.1434
 1275SOL    HW215285   1.790   0.601   0.008 -2.0814 -1.0254  0.9586
 1276SOL     OW15286   3.709   0.966   6.272  0.0032  0.2831  0.6435
 1276SOL    HW115287   3.715   0.967   6.368  0.3488  2.0031  0.5880
 1276SOL    HW215288   3.628   1.013   6.251  0.4808  1.1191  0.6946
 1277SOL     OW15289   3.828   0.595   8.167  0.5440  0.0939 -0.3061
 1277SOL    HW115290   3.824   0.668   8.106  0.9121  2.2235  2.2556
 1277SOL    HW215291   3.917   0.622   8.190  1.7227 -2.7953 -1.4684
 1278SOL     OW15292   2.137   1.233   8.205 -0.4538 -0.6531 -0.2392
 1278SOL    HW115293   2.161   1.319   8.170 -1.2984 -0.9469 -1.5758
 1278SOL    HW215294   2.208   1.230   8.268 -1.3709  0.4009  0.8492
 1279SOL     OW15295   2.288   1.467   8.177  0.4882  0.3502  0.2837
 1279SOL    HW115296   2.271   1.558   8.153  1.7286  0.6722  0.6571
 1279SOL    HW215297   2.371   1.448   8.133  0.8267  0.6839  0.7777
 1280SOL     OW15298   4.124   2.478  13.740  0.4248  0.3136  0.0209
 1280SOL    HW115299   4.183   2.508  13.809  0.7751 -1.7394  0.6104
 1280SOL    HW215300   4.184   2.420  13.693  0.7607 -0.3030  1.2188
 1281SOL     OW15301   0.346   1.701   9.406 -0.3493 -0.1350 -0.1891
 1281SOL    HW115302   0.415   1.767   9.409  0.3901 -0.8973 -0.5986
 1281SOL    HW215303   0.317   1.699   9.315  1.1131 -0.6963 -0.6424
 1282SOL     OW15304   2.424   3.464   7.046 -0.7228  0.2223  0.0012
 1282SOL    HW115305   2.386   3.503   7.124  3.2737 -1.2572  2.7161
 1282SOL    HW215306   2.489   3.532   7.027 -1.1409 -0.1607 -2.9010
 1283SOL     OW15307   0.882   0.308   9.691 -0.5194  0.1368 -0.3783
 1283SOL    HW115308   0.819   0.292   9.762  0.7404  0.7270  0.8728
 1283SOL    HW215309   0.895   0.401   9.710 -1.0107  0.1032  0.1274
 1284SOL     OW15310   4.540   3.037   9.249  0.6479  0.1879 -0.0059
 1284SOL    HW115311   4.464   3.052   9.193  1.0183 -0.9744 -0.8305
 1284SOL    HW215312   4.560   3.127   9.273 -0.7923  0.4658  0.1499
 1285SOL     OW15313   3.950   1.626  15.179 -0.0071  0.0179 -0.0917
 1285SOL    HW115314   3.926   1.585  15.262 -2.3185 -2.5503 -2.0119
 1285SOL    HW215315   3.892   1.572  15.124 -0.8074  0.1722  0.5878
 1286SOL     OW15316   2.351   3.266   7.564 -0.1254  0.3934  0.6180
 1286SOL    HW115317   2.377   3.196   7.623 -0.6010 -0.5769 -0.3011
 1286SOL    HW215318   2.356   3.342   7.621 -0.7664  0.7366  0.2211
 1287SOL     OW15319   2.374   0.759  15.050  0.0159  0.3863 -0.3732
 1287SOL    HW115320   2.313   0.714  14.991 -1.1381  1.0222  0.3364
 1287SOL    HW215321   2.425   0.686  15.085 -2.1407 -1.4884 -1.1371
 1288SOL     OW15322   0.711   0.104   4.107 -0.0305 -0.0527  0.3456
 1288SOL    HW115323   0.684   0.018   4.140  0.6750 -0.3270  0.2039
 1288SOL    HW215324   0.667   0.168   4.163  0.7830 -0.0911  1.0302
 1289SOL     OW15325   1.462   2.890  12.324  0.2012  0.1155  0.3092
 1289SOL    HW115326   1.500   2.958  12.378 -1.8057  1.4276  0.0994
 1289SOL    HW215327   1.414   2.945  12.261 -0.5582  0.8232  1.5142
 1290SOL     OW15328   2.584   2.272  15.538 -0.1140  0.2013 -0.4950
 1290SOL    HW115329   2.548   2.197  15.489 -0.6718  3.1611 -4.6324
 1290SOL    HW215330   2.521   2.343  15.531  0.5391  1.0052  1.9730
 1291SOL     OW15331   2.444   1.487   3.005 -0.0712  0.6535  0.1377
 1291SOL    HW115332   2.402   1.569   3.034 -2.6933 -1.3449  1.9543
 1291SOL    HW215333   2.513   1.527   2.952  0.4388 -0.6080 -0.1450
 1292SOL     OW15334   1.974   2.484   7.289 -0.2634 -0.3568  0.0806
 1292SOL    HW115335   2.060   2.494   7.249 -0.5621  2.1449  0.0794
 1292SOL    HW215336   1.989   2.504   7.382  1.5623 -1.0361 -0.0866
 1293SOL     OW15337   4.436   1.765  12.179  0.0118  0.0162  0.4085
 1293SOL    HW115338   4.417   1.805  12.094 -0.3581 -1.0604 -0.0238
 1293SOL    HW215339   4.511   1.709  12.158  0.3771  0.4309  0.6072
 1294SOL     OW15340   3.675   3.246   8.445  0.3035 -0.1448 -0.3716
 1294SOL    HW115341   3.589   3.205   8.431  0.9511 -1.5440 -0.1707
 1294SOL    HW215342   3.716   3.201   8.518  1.4057 -1.0732 -1.5825
 1295SOL     OW15343   3.788   4.499  15.894  0.2654  0.1828  0.5930
 1295SOL    HW115344   3.749   4.415  15.916 -0.0175  0.5826  1.6192
 1295SOL    HW215345   3.706   4.537  15.860  1.0367  0.0238 -1.4547
 1296SOL     OW15346   3.989   1.188   0.359 -0.5528  0.4074 -0.0919
 1296SOL    HW115347   3.941   1.155   0.435  0.3706  1.0313  0.7649
 1296SOL    HW215348   4.047   1.247   0.406  0.7019 -1.9814  1.3826
 1297SOL     OW15349   0.786   4.355   1.408  0.0143  0.0242 -0.1607
 1297SOL    HW115350   0.807   4.438   1.364  1.3618 -0.4357 -0.3894
 1297SOL    HW215351   0.869   4.309   1.395  0.5740  1.5412 -1.9371
 1298SOL     OW15352   0.143   2.179   1.463  0.3310  0.2261 -0.6632
 1298SOL    HW115353   0.052   2.189   1.492 -0.0564 -0.4962 -1.6196
 1298SOL    HW215354   0.166   2.103   1.515 -1.3997  0.8593  1.0325
 1299SOL     OW15355   2.276   0.000   6.484  0.1865 -0.1115  0.7119
 1299SOL    HW115356   2.362   4.724   6.525  0.8249 -2.0356 -0.7694
 1299SOL    HW215357   2.280   0.095   6.468 -2.4970 -0.2222 -0.6433
 1300SOL     OW15358   2.771   1.430  12.740  0.3993 -0.3338 -0.0879
 1300SOL    HW115359   2.685   1.405  12.706  1.4163 -0.5106 -2.5653
 1300SOL    HW215360   2.816   1.459  12.660 -0.7651 -1.5298 -1.1792
 1301SOL     OW15361   2.409   4.033   8.497 -0.1190  0.2193  0.0965
 1301SOL    HW115362   2.498   4.029   8.464 -1.3012  1.3599 -3.2886
 1301SOL    HW215363   2.426   4.039   8.591 -2.6575 -2.4355  0.7211
 1302SOL     OW15364   1.378   2.463   7.107  0.3307 -0.5121  0.4621
 1302SOL    HW115365   1.440   2.530   7.136  0.1293  0.0980 -0.5027
 1302SOL    HW215366   1.292   2.503   7.105  0.0364 -1.0872  1.4608
 1303SOL     OW15367   2.316   0.274   2.471 -0.1762 -0.7115 -0.0259
 1303SOL    HW115368   2.342   0.262   2.380 -2.0848  0.6420 -0.7392
 1303SOL    HW215369   2.286   0.185   2.490 -1.5760 -0.1333  0.4568
 1304SOL     OW15370   0.035   4.601   8.918 -0.5499  0.2978 -0.4398
 1304SOL    HW115371   4.723   4.595   9.005  0.4238 -0.8932 -0.0929
 1304SOL    HW215372   0.067   4.691   8.918  0.0892  0.0720  1.6105
 1305SOL     OW15373   3.949   4.558   7.338 -0.1339  0.6332 -0.3143
 1305SOL    HW115374   3.867   4.594   7.304 -1.6747 -2.1901  0.4293
 1305SOL    HW215375   4.000   4.571   7.258 -1.4934  0.7453 -1.1640
 1306SOL     OW15376   2.560   0.928  10.257 -0.1306 -0.0578 -0.5147
 1306SOL    HW115377   2.629   0.870  10.225  1.6145  1.6677  0.1097
 1306SOL    HW215378   2.540   0.881  10.337 -0.1041  1.0949  0.1665
 1307SOL     OW15379   2.276   0.865   2.161 -0.3897  0.1735  0.5176
 1307SOL    HW115380   2.339   0.850   2.231  0.0269 -1.2943 -0.1663
 1307SOL    HW215381   2.197   0.829   2.201 -0.7598  0.7274  0.2829
 1308SOL     OW15382   3.596   1.544  12.051  0.0580  0.1890  0.8085
 1308SOL    HW115383   3.539   1.528  12.125  0.0875 -0.4941  0.6856
 1308SOL    HW215384   3.573   1.634  12.027  0.6348  0.1040 -0.0951
 1309SOL     OW15385   0.754   2.859   8.008 -0.1160  0.2762 -0.3738
 1309SOL    HW115386   0.738   2.814   8.091  1.3129  1.8423  0.7510
 1309SOL    HW215387   0.842   2.827   7.986  0.5627  1.4119  0.6994
 1310SOL     OW15388   2.879   3.587   6.649 -0.2198 -0.1015 -0.0232
 1310SOL    HW115389   2.875   3.575   6.743 -0.4510  0.8674  0.0859
 1310SOL    HW215390   2.954   3.536   6.617 -0.3631 -0.8945  0.8999
 1311SOL     OW15391   2.162   1.158  13.509  0.0714 -0.6113  0.2698
 1311SOL    HW115392   2.116   1.114  13.581 -1.0353 -1.0493 -0.7117
 1311SOL    HW215393   2.128   1.128  13.424 -1.4557 -1.9576  1.3462
 1312SOL     OW15394   4.526   4.323   8.350  0.4905 -0.0431 -0.2624
 1312SOL    HW115395   4.553   4.232   8.359  2.0645  0.5454  0.8591
 1312SOL    HW215396   4.449   4.311   8.405  0.0614  0.6768 -0.7019
 1313SOL     OW15397   2.729   4.701   9.671 -0.0940 -0.3932  0.3732
 1313SOL    HW115398   2.801   0.037   9.672 -0.2224 -0.2353 -1.7113
 1313SOL    HW215399   2.714   4.685   9.764 -0.9561  0.7760  0.4290
 1314SOL     OW15400   3.734   1.662  10.759 -0.3821 -0.0960 -0.7413
 1314SOL    HW115401   3.789   1.592  10.725 -0.8477 -0.3793 -0.9187
 1314SOL    HW215402   3.798   1.733  10.763 -0.9543  0.4390 -1.0357
 1315SOL     OW15403   4.086   4.615  13.954  0.2322 -0.0356  0.1682
 1315SOL    HW115404   4.018   4.611  14.022  0.3020  1.2404  0.3092
 1315SOL    HW215405   4.059   4.537  13.906 -2.6158  0.7582  0.4587
 1316SOL     OW15406   1.210   4.418   3.594  0.2687  0.0766 -0.0901
 1316SOL    HW115407   1.218   4.347   3.530  1.2427  2.1940 -2.3546
 1316SOL    HW215408   1.118   4.418   3.619  0.3394 -0.6990  0.1606
 1317SOL     OW15409   0.171   1.307   8.550 -0.0545 -0.3437 -0.2203
 1317SOL    HW115410   0.203   1.342   8.633  0.2983 -2.0324  0.3464
 1317SOL    HW215411   0.090   1.269   8.583 -1.0837  0.0837 -2.2011
 1318SOL     OW15412   3.986   3.246   7.791  0.5675 -0.3534 -0.2075
 1318SOL    HW115413   4.051   3.305   7.828  0.1599 -0.0092 -0.0401
 1318SOL    HW215414   3.919   3.247   7.860 -0.5716  3.2086 -1.4060
 1319SOL     OW15415   0.938   1.989   7.089 -0.4209 -0.2957  0.0377
 1319SOL    HW115416   0.858   2.020   7.132  0.9849 -3.7927  5.1592
 1319SOL    HW215417   0.947   2.057   7.022  0.0829 -0.1270  0.2783
 1320SOL     OW15418   3.989   3.437   4.182 -0.3912 -0.0357 -0.5464
 1320SOL    HW115419   4.021   3.415   4.094 -2.3669 -0.6369 -1.1025
 1320SOL    HW215420   4.048   3.505   4.217  0.8871 -1.7834  0.7159
 1321SOL     OW15421   2.910   4.045   2.807 -0.3796 -0.4266 -0.2092
 1321SOL    HW115422   2.924   4.052   2.713  2.9533 -2.3946  0.1398
 1321SOL    HW215423   2.891   3.951   2.812  1.9109 -0.8277  1.1978
 1322SOL     OW15424   3.762   3.479   5.569  0.0827  0.3898  0.1029
 1322SOL    HW115425   3.749   3.418   5.496 -1.6429  1.9141 -0.8397
 1322SOL    HW215426   3.815   3.552   5.538  1.8037 -0.3672  1.2388
 1323SOL     OW15427   4.643   1.478   6.190  0.3112 -0.4352  0.2891
 1323SOL    HW115428   4.571   1.533   6.158  0.9349  0.3429  0.2128
 1323SOL    HW215429   4.634   1.413   6.121  0.5719 -1.2006  0.9801
 1324SOL     OW15430   4.160   1.531  13.403 -0.1001 -0.3557 -0.1034
 1324SOL    HW115431   4.157   1.466  13.332  1.4190  1.4464 -1.8217
 1324SOL    HW215432   4.077   1.573  13.379 -0.1895  1.8398  4.1363
 1325SOL     OW15433   4.124   2.189  11.899 -0.6123 -0.2539 -0.3215
 1325SOL    HW115434   4.205   2.179  11.948  0.3627 -0.8099 -2.0528
 1325SOL    HW215435   4.139   2.257  11.833 -2.6206 -1.7538 -2.3012
 1326SOL     OW15436   4.441   3.731   7.367  0.4194 -0.3198 -0.2103
 1326SOL    HW115437   4.367   3.748   7.308 -1.8893  0.3380  2.8770
 1326SOL    HW215438   4.428   3.793   7.439  0.6020  2.1845 -2.3137
 1327SOL     OW15439   3.142   4.369   3.876  0.3728  1.1197  0.0401
 1327SOL    HW115440   3.110   4.419   3.950 -3.5933  1.2255 -1.7579
 1327SOL    HW215441   3.203   4.435   3.842  0.1947  2.0261  1.5206
 1328SOL     OW15442   0.199   1.405   6.575 -0.6336  0.1648  0.0630
 1328SOL    HW115443   0.181   1.488   6.619 -2.1716  0.6670 -1.5602
 1328SOL    HW215444   0.110   1.372   6.563 -1.1189  0.5354  2.5038
 1329SOL     OW15445   3.636   1.395   5.646  0.3267 -0.7145 -0.8841
 1329SOL    HW115446   3.684   1.320   5.680 -2.0846 -2.5168 -1.4548
 1329SOL    HW215447   3.600   1.360   5.565 -1.8676  0.0859 -0.2591
 1330SOL     OW15448   1.447   4.061   3.423  0.2405 -0.0551 -0.0133
 1330SOL    HW115449   1.533   4.064   3.464 -0.3781  1.7289  1.1593
 1330SOL    HW215450   1.470   4.035   3.334  0.6390  0.7982 -0.1570
 1331SOL     OW15451   2.753   4.186   9.252  0.0601  0.7954 -0.1109
 1331SOL    HW115452   2.695   4.262   9.244 -0.6860  0.1793 -0.5537
 1331SOL    HW215453   2.708   4.129   9.314 -2.0932  1.1879 -1.3398
 1332SOL     OW15454   4.109   1.823   7.432  0.1638 -0.5424 -0.0513
 1332SOL    HW115455   4.136   1.762   7.364 -0.6831 -0.9197 -0.0495
 1332SOL    HW215456   4.014   1.814   7.442  0.4872 -2.3532  1.5217
 1333SOL     OW15457   1.849   1.382   4.936  0.2044  0.2311  0.1227
 1333SOL    HW115458   1.853   1.402   4.842  1.1502 -1.9117 -0.2981
 1333SOL    HW215459   1.942   1.380   4.959  0.2836  0.6205 -0.1549
 1334SOL     OW15460   3.640   3.505  11.272  0.2795  0.1552 -0.0036
 1334SOL    HW115461   3.691   3.435  11.312 -0.9444 -0.2901  0.7958
 1334SOL    HW215462   3.626   3.467  11.185  0.5590  0.1064 -0.0247
 1335SOL     OW15463   2.719   0.311   7.554 -0.3451  0.2437 -0.9448
 1335SOL    HW115464   2.676   0.227   7.568  0.8590  0.1080  1.8784
 1335SOL    HW215465   2.643   0.369   7.551  0.6584  1.6768  1.0175
 1336SOL     OW15466   0.354   2.467   9.449 -0.0241 -0.3547 -0.3012
 1336SOL    HW115467   0.310   2.546   9.481  1.3902  0.7413 -1.0558
 1336SOL    HW215468   0.433   2.507   9.412  0.5189  1.0201  2.3466
 1337SOL     OW15469   4.526   1.264   1.470  0.2352  0.3699 -0.0134
 1337SOL    HW115470   4.486   1.332   1.524  1.9425  1.6370 -0.3603
 1337SOL    HW215471   4.536   1.320   1.393  0.8753  0.4264  0.1125
 1338SOL     OW15472   0.971   2.975   4.934  0.1463 -0.0251 -0.0135
 1338SOL    HW115473   1.024   2.895   4.923 -0.3206 -0.3443  0.0598
 1338SOL    HW215474   0.990   3.033   4.860 -0.5854 -0.5241 -0.5861
 1339SOL     OW15475   1.247   1.698   4.134 -0.2437 -0.1289 -0.2956
 1339SOL    HW115476   1.186   1.629   4.107  0.1580  0.0747 -1.7045
 1339SOL    HW215477   1.245   1.769   4.070 -1.3424 -0.1129 -0.2458
 1340SOL     OW15478   0.178   0.081   4.992  0.2526 -0.0475  0.1389
 1340SOL    HW115479   0.092   0.083   4.950  1.1316 -0.5615 -1.6620
 1340SOL    HW215480   0.166   0.001   5.042 -0.6159 -0.5666 -0.8886
 1341SOL     OW15481   3.306   3.049   6.915  0.5634  0.3627  0.5365
 1341SOL    HW115482   3.235   3.112   6.925 -1.5213 -1.8866 -0.1422
 1341SOL    HW215483   3.384   3.102   6.897  1.8628 -1.9168 -0.5316
 1342SOL     OW15484   4.237   3.950   3.669  0.1169  0.5492 -0.1159
 1342SOL    HW115485   4.269   4.031   3.630 -1.6290  2.0062  1.5195
 1342SOL    HW215486   4.315   3.894   3.662  0.3329  0.9036 -0.5477
 1343SOL     OW15487   3.563   4.204   0.748  0.2559 -0.2890  0.2380
 1343SOL    HW115488   3.473   4.195   0.718 -0.6610 -1.8076  3.5622
 1343SOL    HW215489   3.549   4.266   0.820  2.1302 -1.2036  1.3937
 1344SOL     OW15490   1.204   4.276   2.979  0.4599 -0.2397  0.3025
 1344SOL    HW115491   1.154   4.215   3.032 -2.2634  1.0545 -0.7255
 1344SOL    HW215492   1.250   4.213   2.924  0.1852 -0.7534  0.6700
 1345SOL     OW15493   1.484   1.489   8.722 -0.8268  0.3123 -0.5547
 1345SOL    HW115494   1.527   1.571   8.746  2.6542 -1.6318 -0.1987
 1345SOL    HW215495   1.410   1.526   8.675  1.7011  3.9290 -1.6999
 1346SOL     OW15496   0.604   2.875   8.926  0.1854 -0.3481  0.2422
 1346SOL    HW115497   0.695   2.903   8.912  0.0866 -0.8284 -1.3103
 1346SOL    HW215498   0.555   2.875   8.844 -0.6190 -0.6892  0.7221
 1347SOL     OW15499   4.230   1.560   7.638 -0.1076  0.4578 -0.3863
 1347SOL    HW115500   4.135   1.561   7.636 -0.0901 -0.6719 -1.9436
 1347SOL    HW215501   4.251   1.474   7.602 -1.6870 -0.1833  0.2395
 1348SOL     OW15502   0.161   1.189   5.415  0.5466  0.0355 -0.0906
 1348SOL    HW115503   0.250   1.161   5.392  0.3554 -0.8759  0.2626
 1348SOL    HW215504   0.176   1.282   5.431 -0.0445  0.2543 -0.8190
 1349SOL     OW15505   1.131   4.219   5.762 -0.4271  0.2542  0.3493
 1349SOL    HW115506   1.141   4.279   5.835 -2.4141  3.0504 -1.7057
 1349SOL    HW215507   1.130   4.281   5.689  0.3517 -0.5436 -0.3539
 1350SOL     OW15508   0.203   3.723  14.078 -0.1249  0.0112  0.1961
 1350SOL    HW115509   0.196   3.635  14.115 -1.0578 -0.3858 -0.9373
 1350SOL    HW215510   0.140   3.774  14.129  0.4892  0.2237  0.7501
 1351SOL     OW15511   4.073   3.518  11.296  0.2386  1.0794  0.0279
 1351SOL    HW115512   4.146   3.468  11.260  0.8597  1.2658  1.0183
 1351SOL    HW215513   4.064   3.468  11.377 -0.3726 -0.3075 -0.8891
 1352SOL     OW15514   4.551   3.224   3.605 -0.1893 -0.5347  0.3139
 1352SOL    HW115515   4.574   3.137   3.571 -0.4262 -0.9537  1.2174
 1352SOL    HW215516   4.597   3.215   3.689 -0.3453 -1.6063  0.2910
 1353SOL     OW15517   3.579   3.777   3.842  0.2577  0.6550  0.0152
 1353SOL    HW115518   3.642   3.845   3.816  0.9472 -0.3825 -1.0077
 1353SOL    HW215519   3.620   3.692   3.825  2.0927  0.9728  2.7798
 1354SOL     OW15520   2.542   4.322   8.566  0.6780 -0.1328  0.2753
 1354SOL    HW115521   2.576   4.242   8.525 -1.0923 -1.1797  0.8486
 1354SOL    HW215522   2.621   4.363   8.601  0.7825 -0.4575  0.4193
 1355SOL     OW15523   0.579   1.606  11.777 -0.1363  0.2030 -0.3011
 1355SOL    HW115524   0.532   1.659  11.842 -0.5943 -0.9293  0.2906
 1355SOL    HW215525   0.587   1.535  11.841 -2.1504 -0.5759 -0.9363
 1356SOL     OW15526   4.334   0.502   6.504  0.3311  0.1516 -0.0198
 1356SOL    HW115527   4.303   0.584   6.467 -0.3078 -0.2389 -0.3472
 1356SOL    HW215528   4.402   0.526   6.567  2.4261 -1.0120 -1.8343
 1357SOL     OW15529   1.490   0.712   8.659  0.4291 -0.0569 -0.3762
 1357SOL    HW115530   1.543   0.673   8.589  2.3372  1.0728  0.4691
 1357SOL    HW215531   1.463   0.640   8.716 -0.6298 -1.1200 -2.2121
 1358SOL     OW15532   2.640   4.570   5.592  0.1254  0.5405 -0.4891
 1358SOL    HW115533   2.560   4.518   5.599 -1.8050  3.4893 -0.8620
 1358SOL    HW215534   2.697   4.512   5.540  0.7902  0.6492  0.1267
 1359SOL     OW15535   4.005   4.198   5.681 -0.2486 -0.0622  0.3580
 1359SOL    HW115536   4.005   4.122   5.738 -0.6396 -0.2922  0.0525
 1359SOL    HW215537   3.912   4.216   5.668 -0.0426 -0.7585 -2.1011
 1360SOL     OW15538   0.333   0.726   5.526 -0.5317 -0.1984  0.0134
 1360SOL    HW115539   0.384   0.786   5.581 -0.0834 -0.2958 -0.2948
 1360SOL    HW215540   0.249   0.772   5.524 -0.7663 -0.6383 -0.1891
 1361SOL     OW15541   0.855   2.638   7.014 -0.3197  0.0063 -0.7205
 1361SOL    HW115542   0.858   2.549   6.980  1.1783 -0.2414  0.0313
 1361SOL    HW215543   0.950   2.650   7.021 -0.5833  0.3692  2.1452
 1362SOL     OW15544   0.473   0.004   7.366 -0.6152  0.1461 -0.5645
 1362SOL    HW115545   0.440   0.061   7.436 -0.5173 -0.2253 -0.2197
 1362SOL    HW215546   0.510   4.657   7.413 -1.6916 -1.0340 -1.5843
 1363SOL     OW15547   2.502   4.168   2.963 -0.4940 -0.7070  0.1430
 1363SOL    HW115548   2.448   4.167   3.042  1.2473 -0.1431  1.3266
 1363SOL    HW215549   2.575   4.222   2.992 -1.2840 -0.1671  1.0902
 1364SOL     OW15550   2.747   2.552  15.422 -0.1489  0.1028 -0.4784
 1364SOL    HW115551   2.683   2.614  15.457 -3.2753 -2.4956 -1.6569
 1364SOL    HW215552   2.833   2.590  15.444  0.4259 -1.0971 -0.6361
 1365SOL     OW15553   1.272   2.224   3.697  0.2083  0.1287  0.3412
 1365SOL    HW115554   1.235   2.279   3.765  0.3238 -1.7181  1.8907
 1365SOL    HW215555   1.193   2.181   3.665 -0.6330  2.5224 -0.8339
 1366SOL     OW15556   4.538   2.157   5.712  0.8810 -0.0211  0.5995
 1366SOL    HW115557   4.536   2.125   5.802  0.0110 -1.5919  0.0163
 1366SOL    HW215558   4.453   2.142   5.672  1.2745  3.1495 -1.4710
 1367SOL     OW15559   0.480   2.100   8.116 -0.2934  0.4423 -0.7137
 1367SOL    HW115560   0.566   2.071   8.147 -0.4709  1.4679  0.7331
 1367SOL    HW215561   0.437   2.016   8.133  1.3672 -0.1488  0.6466
 1368SOL     OW15562   1.445   1.866  15.990 -0.0916  0.8548  0.2386
 1368SOL    HW115563   1.422   1.813  16.067  0.3061 -0.1683 -0.3571
 1368SOL    HW215564   1.357   1.903  15.980  0.5188  1.9410 -1.0130
 1369SOL     OW15565   1.786   0.308   3.687 -0.0467  0.2068  0.3579
 1369SOL    HW115566   1.855   0.366   3.718 -1.6239  1.7433  0.9929
 1369SOL    HW215567   1.815   0.298   3.596  1.0087 -1.2956  0.8722
 1370SOL     OW15568   3.464   3.986   5.575 -0.3960  0.3061 -0.4461
 1370SOL    HW115569   3.557   3.964   5.569  0.1484  2.2834  0.8917
 1370SOL    HW215570   3.454   4.065   5.522 -1.3229  0.7616  0.4043
 1371SOL     OW15571   4.448   0.871   4.384 -0.0751  0.3442  0.0241
 1371SOL    HW115572   4.441   0.899   4.475 -1.1287 -0.6629  0.2520
 1371SOL    HW215573   4.367   0.822   4.374  1.1018 -1.6223  0.0424
 1372SOL     OW15574   1.900   0.635  13.959 -0.1662 -0.4042 -0.1657
 1372SOL    HW115575   1.927   0.548  13.928 -0.4477 -0.6609  0.3060
 1372SOL    HW215576   1.986   0.676  13.961 -0.5302  0.4281 -1.2153
 1373SOL     OW15577   1.207   2.591   8.657  0.0586  0.2794  0.1722
 1373SOL    HW115578   1.238   2.521   8.600 -0.7218 -0.0537  0.1602
 1373SOL    HW215579   1.266   2.580   8.732 -0.1876 -0.5133  0.2546
 1374SOL     OW15580   4.151   4.377   1.961  0.0461  0.1906 -0.1086
 1374SOL    HW115581   4.211   4.341   2.027 -1.7664  1.0448  2.0199
 1374SOL    HW215582   4.084   4.309   1.964  0.3345  0.0009  1.7775
 1375SOL     OW15583   2.348   2.411   4.816  0.1482  0.0040 -0.5280
 1375SOL    HW115584   2.268   2.370   4.783 -1.0174  1.6043  0.2923
 1375SOL    HW215585   2.382   2.456   4.740 -0.1053  1.3411  0.1491
 1376SOL     OW15586   2.152   4.458   1.248 -0.1806  0.0882 -0.0881
 1376SOL    HW115587   2.236   4.416   1.235  0.0572  0.3962  0.4393
 1376SOL    HW215588   2.169   4.517   1.322  5.4122 -2.3345  0.5740
 1377SOL     OW15589   0.782   4.429   3.888 -0.3864 -0.1991  0.4962
 1377SOL    HW115590   0.840   4.494   3.848 -1.7382  1.2607  0.8836
 1377SOL    HW215591   0.713   4.415   3.823 -0.3769 -0.7687  0.6113
 1378SOL     OW15592   1.969   0.388   4.691 -0.3204 -0.1999 -0.2277
 1378SOL    HW115593   1.875   0.406   4.691  0.0082  1.4466  0.8394
 1378SOL    HW215594   2.001   0.478   4.685 -0.0211 -0.2293  1.1282
 1379SOL     OW15595   1.923   0.363   7.015 -0.7289  0.7159  0.1582
 1379SOL    HW115596   1.911   0.299   6.945  0.3571  0.6956 -0.0080
 1379SOL    HW215597   1.991   0.422   6.983 -0.4148  1.1169  1.5556
 1380SOL     OW15598   0.689   3.447   4.332  0.0954  0.1287  0.0804
 1380SOL    HW115599   0.771   3.407   4.305  0.4858 -0.7242  2.5343
 1380SOL    HW215600   0.621   3.386   4.303 -0.2971 -0.7298  2.7446
 1381SOL     OW15601   1.442   3.696   5.718 -0.3843  0.3841 -0.1134
 1381SOL    HW115602   1.379   3.700   5.645  0.9514  1.2931 -1.2315
 1381SOL    HW215603   1.515   3.746   5.680 -1.7550  2.2902 -0.2341
 1382SOL     OW15604   4.424   1.494  12.907 -0.2681  0.0821 -0.1806
 1382SOL    HW115605   4.400   1.412  12.951 -1.8087 -0.2393 -1.6369
 1382SOL    HW215606   4.418   1.556  12.980 -0.2993 -0.5951  0.3877
 1383SOL     OW15607   2.621   4.218   5.703  0.4842 -0.2304 -0.2212
 1383SOL    HW115608   2.631   4.247   5.793 -0.3381  1.1933 -0.6016
 1383SOL    HW215609   2.548   4.269   5.668 -2.1502 -2.3965  2.0997
 1384SOL     OW15610   3.802   0.595   7.652 -0.6218  0.0009 -0.4846
 1384SOL    HW115611   3.742   0.572   7.581  0.0560 -1.2574 -0.6490
 1384SOL    HW215612   3.795   0.521   7.713  1.4104  0.6553  0.5348
 1385SOL     OW15613   0.525   2.632   3.024 -0.2196 -0.2869  0.3929
 1385SOL    HW115614   0.589   2.697   3.055  0.3361 -0.2762 -0.7908
 1385SOL    HW215615   0.557   2.618   2.935 -1.9373  0.0561 -0.2618
 1386SOL     OW15616   2.498   3.844  10.892  0.6351 -0.0949  0.0346
 1386SOL    HW115617   2.419   3.804  10.928  0.2635  0.4790 -0.1461
 1386SOL    HW215618   2.456   3.909  10.836 -0.3538 -0.9191 -0.1814
 1387SOL     OW15619   1.340   4.117   6.160  0.2103 -0.4016  0.5216
 1387SOL    HW115620   1.268   4.118   6.222  1.6173 -0.0586  2.1410
 1387SOL    HW215621   1.328   4.207   6.129 -1.5388 -0.5455  0.7950
 1388SOL     OW15622   2.679   3.854   6.363 -0.3758 -0.4193 -0.1408
 1388SOL    HW115623   2.650   3.914   6.431  0.2896  0.6072 -0.7642
 1388SOL    HW215624   2.693   3.778   6.421 -0.8757  0.1946  0.7844
 1389SOL     OW15625   3.405   2.206  11.375 -0.4451  0.0278 -0.1115
 1389SOL    HW115626   3.394   2.114  11.351  0.0081  0.5878 -2.4653
 1389SOL    HW215627   3.486   2.204  11.425 -2.2284 -0.9871  2.7357
 1390SOL     OW15628   1.685   4.714   0.102 -0.1368 -0.0930  0.1545
 1390SOL    HW115629   1.729   4.641   0.144 -0.1041 -1.7828 -2.8026
 1390SOL    HW215630   1.659   0.045   0.174  0.4112 -0.1306  0.3761
 1391SOL     OW15631   3.288   3.586   8.193  0.1803 -0.1193  0.1462
 1391SOL    HW115632   3.193   3.577   8.199  0.0052  0.0910 -2.3090
 1391SOL    HW215633   3.324   3.505   8.229  0.0391 -0.6139 -0.8249
 1392SOL     OW15634   3.338   4.386  14.005 -0.8533 -0.0018 -0.2084
 1392SOL    HW115635   3.396   4.352  13.937 -1.6860 -1.5301 -0.1529
 1392SOL    HW215636   3.290   4.306  14.023 -0.3648 -0.1501  0.4363
 1393SOL     OW15637   0.173   3.601   9.272  0.3013 -0.2550 -0.4289
 1393SOL    HW115638   0.197   3.624   9.182 -0.6854  1.5837 -0.2226
 1393SOL    HW215639   0.120   3.523   9.256  0.7299 -0.3017 -1.5930
 1394SOL     OW15640   0.376   3.371   3.369 -0.3015  0.5030 -0.3916
 1394SOL    HW115641   0.299   3.369   3.313  0.6897  0.6414 -1.7694
 1394SOL    HW215642   0.447   3.393   3.309  2.7577 -4.3265  1.4332
 1395SOL     OW15643   1.567   3.079   3.405 -0.4833  0.1645  0.0555
 1395SOL    HW115644   1.640   3.142   3.403 -0.5011  0.2299  1.8990
 1395SOL    HW215645   1.549   3.061   3.313  2.7084  0.5721 -0.6608
 1396SOL     OW15646   3.895   3.980   6.224 -0.0820  0.6867  0.6349
 1396SOL    HW115647   3.980   3.946   6.250 -0.2662 -1.0069 -1.0519
 1396SOL    HW215648   3.868   3.898   6.185  0.9903  1.3223 -1.4412
 1397SOL     OW15649   0.586   1.116   7.462  0.0283 -0.4577 -0.0347
 1397SOL    HW115650   0.511   1.082   7.511  0.3467  0.9698  1.4514
 1397SOL    HW215651   0.555   1.201   7.431 -0.3864 -0.3110  0.7729
 1398SOL     OW15652   4.196   1.772   2.287 -1.3642  0.5640 -0.3028
 1398SOL    HW115653   4.290   1.759   2.302 -1.7107 -2.0697 -0.4457
 1398SOL    HW215654   4.213   1.805   2.199  1.5607  0.3283  0.1775
 1399SOL     OW15655   0.829   2.166   3.705 -0.1581 -0.1502 -0.2016
 1399SOL    HW115656   0.801   2.227   3.772  3.1887  0.8124  0.3056
 1399SOL    HW215657   0.745   2.119   3.703  1.0782 -2.4430  1.7767
 1400SOL     OW15658   0.734   2.350   9.569  0.9500  0.5424  0.2407
 1400SOL    HW115659   0.748   2.343   9.663  2.4816  2.2571  0.1208
 1400SOL    HW215660   0.716   2.444   9.568 -1.8038  0.0043  0.4118
 1401SOL     OW15661   4.434   2.766   0.370 -0.4908 -0.2709 -0.7202
 1401SOL    HW115662   4.442   2.836   0.434  1.9720 -0.1523 -1.1431
 1401SOL    HW215663   4.357   2.715   0.395 -0.6833  2.0671  3.4640
 1402SOL     OW15664   4.087   0.048   3.072 -0.6708 -0.1583 -0.4792
 1402SOL    HW115665   4.112   0.130   3.114  0.0327 -0.2879 -0.6506
 1402SOL    HW215666   4.124   0.071   2.987  0.6770  0.2505  0.2100
 1403SOL     OW15667   1.214   0.716  11.014 -0.9826 -0.0536  0.3393
 1403SOL    HW115668   1.205   0.621  11.002  1.0382 -0.0491 -1.2430
 1403SOL    HW215669   1.135   0.732  11.066 -0.1394  3.7840  0.3942
 1404SOL     OW15670   0.378   0.996   1.595 -0.1801  0.1112 -0.2091
 1404SOL    HW115671   0.446   0.950   1.645 -0.3753 -0.0753 -0.1121
 1404SOL    HW215672   0.415   1.083   1.583  1.7348 -0.4922  1.1330
 1405SOL     OW15673   3.962   2.695   8.145 -0.4976  0.5366  0.1643
 1405SOL    HW115674   4.057   2.705   8.149 -0.3948  0.0989 -1.1029
 1405SOL    HW215675   3.941   2.670   8.235 -0.6893  0.7662  0.1855
 1406SOL     OW15676   0.902   1.600  14.435 -0.0376 -1.3392  0.4244
 1406SOL    HW115677   0.861   1.598  14.348 -0.8407 -1.1561  0.7988
 1406SOL    HW215678   0.888   1.694  14.449  0.9051 -1.1087 -0.1668
 1407SOL     OW15679   4.313   2.649   2.513 -0.1535 -0.0713  0.1067
 1407SOL    HW115680   4.391   2.685   2.470  0.5051 -1.3716  0.2154
 1407SOL    HW215681   4.286   2.584   2.449 -2.3537 -1.5978  2.6008
 1408SOL     OW15682   3.281   3.354   1.761 -0.0590  0.0973 -0.4239
 1408SOL    HW115683   3.253   3.353   1.670  0.3153 -1.4992 -0.5228
 1408SOL    HW215684   3.376   3.352   1.756 -0.0128 -1.9578  0.8829
 1409SOL     OW15685   0.573   1.337   9.129  0.3984 -0.2827  0.1107
 1409SOL    HW115686   0.505   1.391   9.090 -0.6747 -1.3696  0.5023
 1409SOL    HW215687   0.586   1.376   9.216  1.3088 -0.5272  0.0850
 1410SOL     OW15688   0.050   4.367   7.626  0.2450 -0.1281 -0.2047
 1410SOL    HW115689   0.042   4.433   7.694  1.0407 -0.1819 -0.0644
 1410SOL    HW215690   0.007   4.415   7.555  0.1055 -1.6540 -1.1472
 1411SOL     OW15691   1.760   2.861  15.862  0.2002 -0.6784  0.0306
 1411SOL    HW115692   1.688   2.840  15.803  1.2225 -1.3826 -0.9726
 1411SOL    HW215693   1.725   2.929  15.920  1.3182 -3.0645  3.4876
 1412SOL     OW15694   1.897   4.454   0.161 -0.9479 -0.0594 -0.0102
 1412SOL    HW115695   1.961   4.482   0.095 -0.0650 -0.6306  0.6005
 1412SOL    HW215696   1.930   4.489   0.244  0.2552 -0.3159 -0.3883
 1413SOL     OW15697   3.334   3.534   6.293 -0.2436  0.1141  0.0215
 1413SOL    HW115698   3.358   3.586   6.216  1.8587 -1.7492 -0.6140
 1413SOL    HW215699   3.405   3.472   6.312 -0.6542 -0.7227 -1.1705
 1414SOL     OW15700   2.037   0.499   1.750  0.1093 -0.1593  0.0014
 1414SOL    HW115701   2.035   0.501   1.846  2.5244  1.2130  0.0182
 1414SOL    HW215702   2.093   0.423   1.739 -0.8028 -1.0432  1.5661
 1415SOL     OW15703   1.211   4.457   8.941  0.1318  0.9626 -0.4446
 1415SOL    HW115704   1.236   4.383   8.886 -0.9706  0.5207 -0.3337
 1415SOL    HW215705   1.192   4.411   9.022 -0.7320  2.0140 -0.0501
 1416SOL     OW15706   4.376   1.916   1.349  0.3287  0.2185 -0.3103
 1416SOL    HW115707   4.449   1.936   1.291  0.6421  0.6201  0.2193
 1416SOL    HW215708   4.417   1.928   1.435  1.1358  1.2777 -0.8439
 1417SOL     OW15709   0.269   1.957   9.235  0.1594 -0.2591  0.7320
 1417SOL    HW115710   0.344   1.951   9.293  1.0206 -0.5289 -0.4171
 1417SOL    HW215711   0.200   1.979   9.298  0.9972  0.3982  1.4132
 1418SOL     OW15712   4.374   1.597   3.848 -0.3609 -0.9563  0.5791
 1418SOL    HW115713   4.359   1.529   3.782  1.5676  0.9755 -1.8486
 1418SOL    HW215714   4.466   1.620   3.842 -0.5293 -0.4636 -0.2237
 1419SOL     OW15715   3.617   1.333  12.292  0.1191 -0.6013  0.1165
 1419SOL    HW115716   3.603   1.239  12.288  1.0812 -0.5855 -3.2319
 1419SOL    HW215717   3.539   1.374  12.256  1.6613  0.9906 -1.4367
 1420SOL     OW15718   0.805   1.992   4.725 -0.2839 -0.3533  0.1408
 1420SOL    HW115719   0.869   1.972   4.657  0.3874  0.2848  0.5952
 1420SOL    HW215720   0.871   2.004   4.793 -1.4732 -1.0773  1.4315
 1421SOL     OW15721   1.085   2.514   5.633 -0.4140 -0.7158 -0.2832
 1421SOL    HW115722   1.170   2.545   5.663 -0.7389  0.3355 -0.4431
 1421SOL    HW215723   1.060   2.570   5.560 -1.5961 -0.5149  0.2741
 1422SOL     OW15724   2.359   1.671   5.729 -0.2801 -0.1105 -0.0007
 1422SOL    HW115725   2.410   1.596   5.761 -3.3368 -1.0806  2.6006
 1422SOL    HW215726   2.310   1.686   5.810 -4.1041 -1.5596 -1.9859
 1423SOL     OW15727   2.101   4.353   3.856 -0.1186 -0.4239  0.0558
 1423SOL    HW115728   2.052   4.368   3.937 -1.5780  0.4808 -0.9853
 1423SOL    HW215729   2.151   4.434   3.844 -1.2101  0.3073  0.4376
 1424SOL     OW15730   2.315   0.248  12.474 -0.3945  0.4286  0.0490
 1424SOL    HW115731   2.359   0.234  12.391  1.1305  0.2878  0.8717
 1424SOL    HW215732   2.240   0.191  12.454  2.8838 -2.3002 -4.2831
 1425SOL     OW15733   1.608   2.840   6.684  0.1681  0.1577  0.4677
 1425SOL    HW115734   1.612   2.801   6.596 -0.8479 -2.0934  1.4164
 1425SOL    HW215735   1.554   2.787   6.743 -0.9085  1.0556  0.2767
 1426SOL     OW15736   0.267   0.420   7.450  0.2266 -0.0299 -0.0142
 1426SOL    HW115737   0.353   0.451   7.476 -0.1021  1.2464 -0.4224
 1426SOL    HW215738   0.259   0.479   7.375  1.1004 -1.5524 -1.2857
 1427SOL     OW15739   3.199   1.366   3.199 -0.0320 -0.2730 -0.0119
 1427SOL    HW115740   3.235   1.355   3.111  1.5364  0.6402  0.5019
 1427SOL    HW215741   3.256   1.318   3.259  1.6725  3.3690  1.2807
 1428SOL     OW15742   3.784   1.508   0.420 -0.3508  0.3899 -0.7595
 1428SOL    HW115743   3.834   1.512   0.501  0.8681 -1.3256 -1.4452
 1428SOL    HW215744   3.857   1.518   0.358  0.6517 -0.2694  0.3217
 1429SOL     OW15745   1.444   4.553  10.762 -0.1024 -0.4742  0.2158
 1429SOL    HW115746   1.455   4.458  10.762 -0.3104 -0.5159 -3.4525
 1429SOL    HW215747   1.511   4.586  10.822 -1.1667  2.2210 -0.0371
 1430SOL     OW15748   3.168   1.037   2.261 -0.5520  0.5277 -0.6467
 1430SOL    HW115749   3.153   0.976   2.333  1.4993  0.7524 -0.0181
 1430SOL    HW215750   3.247   1.075   2.301 -0.1374  0.2267 -1.1885
 1431SOL     OW15751   0.770   1.341   8.944  0.3568  0.1000  0.1239
 1431SOL    HW115752   0.718   1.372   9.018  0.2580 -0.1680  0.1668
 1431SOL    HW215753   0.856   1.371   8.977 -0.1428  0.2615  1.2909
 1432SOL     OW15754   2.501   2.076  15.042 -0.7349 -0.3763 -0.5179
 1432SOL    HW115755   2.501   1.982  15.060  0.7048  0.1397  2.1585
 1432SOL    HW215756   2.566   2.106  15.105  0.6048 -1.5057 -1.3777
 1433SOL     OW15757   0.721   0.193  12.864  0.2046 -0.3025  0.2797
 1433SOL    HW115758   0.727   0.196  12.769 -0.8299  0.6638  0.2447
 1433SOL    HW215759   0.814   0.175  12.880  0.1025 -1.0983 -0.0235
 1434SOL     OW15760   1.834   1.024   9.569 -0.1192  0.3602  0.1574
 1434SOL    HW115761   1.883   1.106   9.574  1.5955 -0.7826  2.1086
 1434SOL    HW215762   1.808   1.024   9.661 -0.0645  0.7917  0.1729
 1435SOL     OW15763   3.268   3.612   3.548 -0.2842 -0.1629  0.2088
 1435SOL    HW115764   3.174   3.595   3.551 -0.3162 -0.2757 -1.7713
 1435SOL    HW215765   3.270   3.708   3.552 -0.2871 -0.1299 -0.6961
 1436SOL     OW15766   2.880   3.709   4.375  0.4582  0.1593 -0.1531
 1436SOL    HW115767   2.896   3.639   4.311  0.8912 -1.6697  1.9716
 1436SOL    HW215768   2.944   3.684   4.441 -0.9671 -3.5332 -0.1324
 1437SOL     OW15769   1.282   0.732   0.375  0.0330 -0.2632  0.6687
 1437SOL    HW115770   1.286   0.726   0.471  3.4916  0.8280  0.5991
 1437SOL    HW215771   1.322   0.646   0.360  1.0399  0.1883  0.7649
 1438SOL     OW15772   0.123   3.220   9.004 -0.1302  0.5697  0.6004
 1438SOL    HW115773   0.079   3.289   9.054 -1.2239  0.7635 -0.6232
 1438SOL    HW215774   0.209   3.261   9.018  0.7121  0.5149 -4.3825
 1439SOL     OW15775   1.214   0.828  14.722  0.4666  0.7036 -0.5021
 1439SOL    HW115776   1.268   0.769  14.670  1.5443  0.5176  0.8003
 1439SOL    HW215777   1.246   0.817  14.812  1.1066  2.6629 -0.4890
 1440SOL     OW15778   0.296   0.966  12.479 -0.3553  0.2328 -0.0683
 1440SOL    HW115779   0.232   0.919  12.532  0.3875 -0.1383  0.4929
 1440SOL    HW215780   0.253   1.051  12.493  0.2983  1.0499 -2.8006
 1441SOL     OW15781   4.113   2.562  15.718 -0.4420  0.0753  0.1767
 1441SOL    HW115782   4.144   2.473  15.706  0.0584  0.1137  1.2099
 1441SOL    HW215783   4.132   2.590  15.808 -0.3107 -0.7622  0.4011
 1442SOL     OW15784   0.228   4.014  13.994  0.0715 -0.0320 -0.5744
 1442SOL    HW115785   0.183   4.001  13.911  0.0505 -0.7785 -0.4467
 1442SOL    HW215786   0.310   3.966  13.980 -0.0750 -0.9369  1.6581
 1443SOL     OW15787   4.103   0.093   2.328 -0.4374 -0.3012  0.1063
 1443SOL    HW115788   4.149   0.050   2.400  1.7894  0.5507 -0.8267
 1443SOL    HW215789   4.025   0.118   2.377  0.2235  1.1383  0.4327
 1444SOL     OW15790   2.590   1.706   3.301  0.5315  0.6167  0.7041
 1444SOL    HW115791   2.639   1.786   3.320  0.4974  0.5361  1.1338
 1444SOL    HW215792   2.667   1.654   3.277 -0.0049 -0.2005  0.7329
 1445SOL     OW15793   0.359   1.589   1.684 -0.3550  0.4800  0.0505
 1445SOL    HW115794   0.410   1.641   1.622  0.8362  0.2814  0.8496
 1445SOL    HW215795   0.424   1.539   1.734 -0.5950  0.5208  0.4078
 1446SOL     OW15796   0.073   2.296   8.436  0.1386 -0.0085 -0.0395
 1446SOL    HW115797   0.164   2.320   8.419  0.2293 -0.0638  0.3717
 1446SOL    HW215798   0.061   2.209   8.398 -0.8239 -0.3871  1.1127
 1447SOL     OW15799   1.611   3.074   7.398  0.7322  0.0796 -0.2320
 1447SOL    HW115800   1.695   3.100   7.359  0.6766  0.2195 -0.2596
 1447SOL    HW215801   1.620   3.122   7.480  0.0542 -0.3318  0.0839
 1448SOL     OW15802   1.089   1.023   6.728 -0.2215  0.3225  0.3858
 1448SOL    HW115803   1.116   0.938   6.764 -0.2087 -0.1670 -0.7639
 1448SOL    HW215804   1.048   0.992   6.647  0.0508 -0.1281  0.4171
 1449SOL     OW15805   1.959   1.463  17.272  0.3860  0.6209 -0.2645
 1449SOL    HW115806   1.884   1.519  17.292 -0.2102 -0.2189 -0.1196
 1449SOL    HW215807   2.033   1.504  17.317 -0.4324  1.6931  0.1152
 1450SOL     OW15808   4.443   4.524   2.148 -0.5084  0.1998  0.5012
 1450SOL    HW115809   4.425   4.600   2.204 -1.3306 -1.5336  2.5774
 1450SOL    HW215810   4.514   4.552   2.091 -1.4269 -0.2790 -0.8721
 1451SOL     OW15811   3.571   2.012  10.547  0.3122 -0.0068  0.7107
 1451SOL    HW115812   3.520   1.932  10.536  3.2595 -1.5999 -1.4717
 1451SOL    HW215813   3.589   2.041  10.457 -3.0904  1.2483  0.4574
 1452SOL     OW15814   3.142   3.160   7.341 -0.2005 -0.0963  0.3396
 1452SOL    HW115815   3.227   3.138   7.380 -1.1478 -0.4559  2.1803
 1452SOL    HW215816   3.177   3.203   7.262 -0.6312  0.9346  0.7143
 1453SOL     OW15817   0.376   0.051   3.031  0.2629 -0.5528 -0.3256
 1453SOL    HW115818   0.341   0.135   3.062 -0.3621 -0.6503 -0.7841
 1453SOL    HW215819   0.435   0.064   2.957 -0.7293  1.3814 -0.7712
 1454SOL     OW15820   0.979   3.104   4.674  0.2636  0.4370  0.4024
 1454SOL    HW115821   0.966   3.193   4.707 -1.2947  1.3364 -2.6584
 1454SOL    HW215822   1.072   3.106   4.651 -0.0267  2.5647 -0.5918
 1455SOL     OW15823   3.445   2.471   4.532 -0.1259  0.4000  0.4479
 1455SOL    HW115824   3.381   2.532   4.496 -1.4010 -1.7471 -0.9085
 1455SOL    HW215825   3.505   2.531   4.576  0.2373  2.2166 -2.5523
 1456SOL     OW15826   1.280   2.732   1.964  0.5364 -0.3687 -0.1652
 1456SOL    HW115827   1.292   2.659   1.903 -0.4376 -2.1099  1.7310
 1456SOL    HW215828   1.192   2.699   1.983  2.1449 -3.2527  2.3974
 1457SOL     OW15829   1.895   1.519   8.592  0.0597 -0.4394  0.1235
 1457SOL    HW115830   1.914   1.553   8.680  0.3328 -0.0907 -0.0726
 1457SOL    HW215831   1.949   1.440   8.589 -0.1678 -0.5540 -0.7335
 1458SOL     OW15832   0.917   1.284   6.482  0.3037  0.3683  0.1699
 1458SOL    HW115833   0.933   1.356   6.420 -1.5399 -0.7114 -1.5697
 1458SOL    HW215834   0.995   1.236   6.454 -0.4682 -2.1085  2.2628
 1459SOL     OW15835   0.717   2.214   5.476  0.0984  0.1904  0.6177
 1459SOL    HW115836   0.721   2.216   5.381 -0.7036  3.3665  0.6537
 1459SOL    HW215837   0.797   2.164   5.492 -0.3255 -0.0591  1.9516
 1460SOL     OW15838   0.116   0.858  14.559  0.3628 -0.0916  0.0257
 1460SOL    HW115839   0.037   0.838  14.508  0.1153  0.3998  0.2084
 1460SOL    HW215840   0.157   0.930  14.512  1.9961 -1.0473  0.0181
 1461SOL     OW15841   1.722   4.558   3.996  0.2195  0.2590  0.3083
 1461SOL    HW115842   1.747   4.468   4.019 -1.1733 -0.4759 -0.9768
 1461SOL    HW215843   1.635   4.565   4.035  0.0251  0.1628 -0.1010
 1462SOL     OW15844   1.285   0.304  10.374 -0.2804  0.7882  0.1707
 1462SOL    HW115845   1.381   0.306  10.370 -0.4459  3.0811 -2.4073
 1462SOL    HW215846   1.269   0.223  10.422  2.1908  0.5558  0.6290
 1463SOL     OW15847   4.511   3.954  17.357  0.1165  0.3558 -0.0148
 1463SOL    HW115848   4.467   4.005  17.424 -1.0701 -1.3784  0.5141
 1463SOL    HW215849   4.437   3.909  17.317  1.5667  0.2794 -2.6541
 1464SOL     OW15850   2.125   3.640  13.630 -0.0327 -0.2166 -0.1446
 1464SOL    HW115851   2.121   3.735  13.637  0.3748 -0.2738  0.9778
 1464SOL    HW215852   2.038   3.610  13.604  1.1306 -3.0621 -0.7676
 1465SOL     OW15853   2.809   2.964   5.672 -0.3253  0.5834  0.0069
 1465SOL    HW115854   2.839   3.030   5.611  2.7172 -1.8078 -1.0538
 1465SOL    HW215855   2.743   2.924   5.614 -0.2053  0.1351  0.1786
 1466SOL     OW15856   4.216   0.178   2.821  0.3447 -0.3417 -0.4805
 1466SOL    HW115857   4.288   0.234   2.852  2.4090 -2.9698 -0.5948
 1466SOL    HW215858   4.200   0.244   2.753  0.9775 -0.0217 -0.3239
 1467SOL     OW15859   3.237   3.438   6.845  0.0015 -0.1971  0.0473
 1467SOL    HW115860   3.223   3.523   6.887  0.5274  0.3074 -0.7868
 1467SOL    HW215861   3.325   3.428   6.881 -0.0215  0.9192  0.3956
 1468SOL     OW15862   0.766   4.364   9.470 -0.2913 -0.0713 -0.0873
 1468SOL    HW115863   0.743   4.454   9.451  0.5666 -0.1177 -1.3264
 1468SOL    HW215864   0.807   4.377   9.556 -0.6520 -0.3608  0.1312
 1469SOL     OW15865   1.007   0.743   0.690 -0.1825  0.6036  0.3691
 1469SOL    HW115866   0.970   0.769   0.605  0.9363 -0.3089 -0.3990
 1469SOL    HW215867   1.102   0.757   0.682 -0.2925  0.5922 -1.0367
 1470SOL     OW15868   2.592   2.341   9.618 -0.1361  0.9729 -0.2264
 1470SOL    HW115869   2.535   2.269   9.593  1.5137  0.7751 -3.5345
 1470SOL    HW215870   2.528   2.412   9.613 -2.8102 -1.4549 -0.2051
 1471SOL     OW15871   3.261   4.537   4.753  0.7194 -0.7830  0.4454
 1471SOL    HW115872   3.325   4.547   4.824 -0.4432 -0.2908  1.4314
 1471SOL    HW215873   3.220   4.455   4.780  0.7374 -0.5182  1.2987
 1472SOL     OW15874   1.172   1.576  16.246  0.4366 -0.3590 -0.3377
 1472SOL    HW115875   1.251   1.626  16.226  1.4102 -0.2611  3.5729
 1472SOL    HW215876   1.171   1.559  16.341 -1.8705  1.5476 -0.0306
 1473SOL     OW15877   0.808   3.564   4.056 -0.0408  0.4930  0.0553
 1473SOL    HW115878   0.751   3.551   4.131  2.7646  1.4018  2.3457
 1473SOL    HW215879   0.739   3.565   3.990 -2.0759 -1.0513  2.1892
 1474SOL     OW15880   1.194   0.733   2.304  0.2367  0.0257  0.3567
 1474SOL    HW115881   1.147   0.657   2.270  0.0125  1.2223 -2.0233
 1474SOL    HW215882   1.286   0.709   2.295  0.4528  2.2517 -3.6478
 1475SOL     OW15883   2.362   3.888   7.800  0.4530 -0.4054  0.2457
 1475SOL    HW115884   2.275   3.887   7.759  0.2832  0.6920  0.5878
 1475SOL    HW215885   2.350   3.829   7.874  0.1717 -1.7467 -0.8665
 1476SOL     OW15886   3.150   0.717   3.465  1.1410 -0.1176 -0.0601
 1476SOL    HW115887   3.161   0.628   3.433  0.3672  0.6552 -2.5251
 1476SOL    HW215888   3.104   0.708   3.548  2.0920 -1.6853  0.2840
 1477SOL     OW15889   2.959   2.796   8.377 -0.0914  0.3541 -0.1246
 1477SOL    HW115890   2.890   2.749   8.330 -0.9406  1.7721 -0.2736
 1477SOL    HW215891   3.013   2.801   8.299 -1.3005  1.2050 -0.9079
 1478SOL     OW15892   1.043   2.699  17.670  0.7263 -0.2267  0.1876
 1478SOL    HW115893   1.016   2.668  17.584  0.0483  2.2001 -0.4463
 1478SOL    HW215894   1.036   2.615   0.009 -0.8494  0.7046  1.6307
 1479SOL     OW15895   3.397   3.208   4.012  0.0064 -0.7228  0.1353
 1479SOL    HW115896   3.389   3.303   4.006  0.2373 -0.6729  0.6540
 1479SOL    HW215897   3.467   3.205   4.078 -0.6376 -1.5450  0.7838
 1480SOL     OW15898   4.487   2.121   7.162 -0.4057 -0.1847 -0.0176
 1480SOL    HW115899   4.541   2.124   7.240 -1.1737  2.5027  0.4246
 1480SOL    HW215900   4.498   2.029   7.138  0.0705 -0.7690  2.4980
 1481SOL     OW15901   2.230   2.976   4.789  0.1930 -0.3680 -0.7080
 1481SOL    HW115902   2.275   3.032   4.853 -1.1269 -0.6977  0.5003
 1481SOL    HW215903   2.267   2.888   4.794  0.9126 -0.0258  0.0350
 1482SOL     OW15904   4.457   3.526   0.550 -0.1548  0.5241 -0.0881
 1482SOL    HW115905   4.450   3.574   0.468 -2.9870 -2.6998 -1.7060
 1482SOL    HW215906   4.366   3.506   0.569  0.1138 -0.4782  0.1803
 1483SOL     OW15907   3.522   2.333   4.802 -0.3565  0.6639 -0.8727
 1483SOL    HW115908   3.600   2.283   4.826 -1.6362 -1.3601 -0.9759
 1483SOL    HW215909   3.522   2.335   4.706 -2.0166  0.5271 -0.8669
 1484SOL     OW15910   2.421   2.615   0.790  0.2430  0.1375 -0.2344
 1484SOL    HW115911   2.499   2.560   0.781 -0.3677 -1.0378  1.6710
 1484SOL    HW215912   2.439   2.697   0.746 -0.4041  0.8754  0.8810
 1485SOL     OW15913   3.546   3.533   3.292 -0.0960  0.2685 -0.3291
 1485SOL    HW115914   3.523   3.521   3.200 -0.1293  1.0388 -0.4225
 1485SOL    HW215915   3.506   3.619   3.302 -1.6948 -0.4705 -0.3198
 1486SOL     OW15916   4.463   2.452  15.282  0.0548 -0.6071 -0.0438
 1486SOL    HW115917   4.385   2.509  15.284  0.0844 -0.5796  0.3889
 1486SOL    HW215918   4.537   2.511  15.267  0.0975 -0.7778 -0.4824
 1487SOL     OW15919   1.930   2.710   4.767  0.0250  0.0836  0.2030
 1487SOL    HW115920   1.938   2.698   4.861 -0.2542  3.3601  0.6428
 1487SOL    HW215921   1.870   2.639   4.742 -0.6535  0.8260 -0.2707
 1488SOL     OW15922   2.147   3.208   5.739 -0.0900 -0.6628  0.4785
 1488SOL    HW115923   2.214   3.274   5.722 -1.4479  0.5064 -0.4122
 1488SOL    HW215924   2.084   3.223   5.668 -1.8767  0.3940  2.2887
 1489SOL     OW15925   0.535   4.310  11.595 -0.3038 -0.5563  0.3738
 1489SOL    HW115926   0.616   4.315  11.646 -0.4389  1.7115  0.3657
 1489SOL    HW215927   0.568   4.275  11.512 -0.1555  1.7125 -0.5018
 1490SOL     OW15928   0.896   4.680   4.369  0.1304  0.1539  0.2725
 1490SOL    HW115929   0.961   4.692   4.438 -1.8242  0.9853  1.9746
 1490SOL    HW215930   0.924   4.596   4.335  1.0695  1.0916 -1.2694
 1491SOL     OW15931   2.961   2.742  15.219  0.0663  0.6197 -0.0624
 1491SOL    HW115932   2.880   2.707  15.180 -0.2519  0.4391  0.7604
 1491SOL    HW215933   2.985   2.820  15.170  0.8878 -0.3436 -1.2234
 1492SOL     OW15934   3.329   3.677   2.431  0.0134  0.4346  0.1607
 1492SOL    HW115935   3.293   3.604   2.380 -1.2795  1.9579 -1.0692
 1492SOL    HW215936   3.417   3.641   2.447  0.4917  1.4810 -0.1325
 1493SOL     OW15937   2.894   3.372   5.397  0.6298  0.2468  0.3040
 1493SOL    HW115938   2.865   3.372   5.489  0.6479  1.3854  0.3079
 1493SOL    HW215939   2.840   3.437   5.353 -0.3601 -0.6094  0.2531
 1494SOL     OW15940   1.772   4.235   0.696 -0.0515 -0.4851  0.0067
 1494SOL    HW115941   1.836   4.238   0.625  0.1120  0.2792  0.1848
 1494SOL    HW215942   1.724   4.155   0.675  0.4616 -0.0789 -2.7042
 1495SOL     OW15943   2.379   0.902   4.395 -0.4140 -0.0958 -0.0429
 1495SOL    HW115944   2.470   0.907   4.366 -0.2009 -0.5041  0.5447
 1495SOL    HW215945   2.340   0.885   4.309  1.0967  2.0031 -1.1353
 1496SOL     OW15946   0.333   2.103   5.032 -0.2946  0.3008 -0.6656
 1496SOL    HW115947   0.279   2.109   4.953  0.4005  1.9197 -1.0224
 1496SOL    HW215948   0.287   2.149   5.103 -0.0064 -0.0061 -0.2777
 1497SOL     OW15949   2.476   3.384  16.542  0.3111  0.2219 -1.0063
 1497SOL    HW115950   2.546   3.450  16.547  0.6524 -0.1778 -0.4867
 1497SOL    HW215951   2.444   3.409  16.455 -1.0356  1.1376 -0.2331
 1498SOL     OW15952   3.735   1.961   6.462  0.1513  0.2079  0.2201
 1498SOL    HW115953   3.660   1.954   6.402 -0.6752 -0.3873  1.3267
 1498SOL    HW215954   3.759   2.050   6.434 -0.8013  0.6408  0.7694
 1499SOL     OW15955   0.871   2.557   8.844 -0.2366 -0.4782  0.6866
 1499SOL    HW115956   0.922   2.476   8.850  0.7950  0.1469  0.4132
 1499SOL    HW215957   0.780   2.529   8.838 -0.3333  0.2776 -1.3631
 1500SOL     OW15958   0.982   3.774   4.027  0.1915 -0.1888  0.1112
 1500SOL    HW115959   0.947   3.693   4.064 -0.3843  0.2902  0.6100
 1500SOL    HW215960   0.913   3.801   3.966  2.0929  1.7766 -1.1602
 1501SOL     OW15961   4.414   3.260   1.788  0.3319  0.2099  0.1377
 1501SOL    HW115962   4.458   3.180   1.818 -1.1052 -0.8756 -0.6596
 1501SOL    HW215963   4.380   3.294   1.871  2.2964 -0.6177  1.2841
 1502SOL     OW15964   4.697   4.237  13.734 -0.4523 -0.0643  0.1483
 1502SOL    HW115965   4.642   4.315  13.742  0.7022  0.7257  0.5089
 1502SOL    HW215966   4.706   4.246  13.639 -1.2224 -0.5627  0.0317
 1503SOL     OW15967   1.918   1.300   1.055  0.6022 -0.4645 -0.4810
 1503SOL    HW115968   1.963   1.325   0.974  1.5798  0.1563  0.2473
 1503SOL    HW215969   1.853   1.368   1.074 -0.7588 -1.7263 -0.6419
 1504SOL     OW15970   2.053   3.693   3.699 -0.0118 -0.0851 -0.3808
 1504SOL    HW115971   2.126   3.633   3.713  1.8519  1.8901 -1.7029
 1504SOL    HW215972   1.998   3.630   3.653  0.0053  1.3072 -2.2971
 1505SOL     OW15973   4.133   4.295   9.789 -0.5908  0.1882 -0.0832
 1505SOL    HW115974   4.095   4.226   9.734  0.1970  0.0354 -0.4391
 1505SOL    HW215975   4.073   4.368   9.773 -0.8141  0.0821  0.2546
 1506SOL     OW15976   1.019   0.358   5.555 -0.0512 -0.4543  0.7250
 1506SOL    HW115977   0.932   0.381   5.586  0.6906  1.6833  1.1789
 1506SOL    HW215978   1.063   0.443   5.549 -0.7613 -0.1481 -0.1235
 1507SOL     OW15979   0.377   0.689   9.999  0.5523 -0.0612  0.6939
 1507SOL    HW115980   0.355   0.780  10.018  2.0870  0.9710 -2.4037
 1507SOL    HW215981   0.300   0.638  10.022 -0.6253  1.4402  0.0697
 1508SOL     OW15982   1.879   3.989   6.735  0.5884  0.2224 -0.4262
 1508SOL    HW115983   1.891   3.936   6.814  0.4850  0.2367 -0.4001
 1508SOL    HW215984   1.876   3.925   6.664 -0.6454  0.4955 -0.6361
 1509SOL     OW15985   1.034   2.764   8.057 -0.1502  0.2972 -0.3002
 1509SOL    HW115986   1.117   2.743   8.013  0.9212  0.5870  1.5739
 1509SOL    HW215987   1.071   2.841   8.100 -1.2499  0.8043 -0.2529
 1510SOL     OW15988   1.779   1.992   0.067  0.2104  0.1031  0.5188
 1510SOL    HW115989   1.700   1.939   0.055 -0.8474  2.0398 -1.1520
 1510SOL    HW215990   1.743   2.071   0.027 -1.0522 -0.2390  1.0007
 1511SOL     OW15991   1.106   4.425   5.555  0.5480 -0.1895  0.4860
 1511SOL    HW115992   1.023   4.469   5.576  1.3154  0.4067  2.2774
 1511SOL    HW215993   1.163   4.495   5.524 -0.0026  1.2723  2.7496
 1512SOL     OW15994   0.664   2.083   0.944 -0.6060 -0.0601  0.3032
 1512SOL    HW115995   0.633   2.088   1.035 -2.1033 -0.2715 -0.1922
 1512SOL    HW215996   0.592   2.137   0.912  1.6252  2.3077 -0.7803
 1513SOL     OW15997   0.009   4.065   2.576 -0.1676 -0.2102 -0.5611
 1513SOL    HW115998   0.074   4.124   2.537  0.8736 -0.2018  1.1898
 1513SOL    HW215999   4.662   4.112   2.536  1.5361  2.2196 -0.8541
 1514SOL     OW16000   2.223   4.437   2.090  0.3803 -0.1028  0.5648
 1514SOL    HW116001   2.304   4.475   2.125  1.2482  0.3783 -1.9937
 1514SOL    HW216002   2.169   4.418   2.167 -1.5005  1.0521 -0.4402
 1515SOL     OW16003   1.934   4.437   5.834  0.0269 -0.2963 -0.1587
 1515SOL    HW116004   1.848   4.422   5.874  0.0989 -0.0938  0.0767
 1515SOL    HW216005   1.988   4.416   5.910  0.6031  1.1974 -0.1437
 1516SOL     OW16006   4.484   1.163   3.267 -0.0749  0.3689  0.2025
 1516SOL    HW116007   4.478   1.080   3.219 -0.5305  1.3634 -1.4504
 1516SOL    HW216008   4.441   1.146   3.351 -2.3756 -0.0282 -1.0807
 1517SOL     OW16009   0.466   2.827   8.685  0.2131  0.8551 -0.7038
 1517SOL    HW116010   0.523   2.754   8.660  0.8522  1.2441 -0.3904
 1517SOL    HW216011   0.472   2.869   8.599 -0.6031 -0.1978 -1.2744
 1518SOL     OW16012   2.413   1.580   2.226 -0.2688 -0.1438  0.6974
 1518SOL    HW116013   2.346   1.611   2.165  0.1198 -1.3021 -0.3294
 1518SOL    HW216014   2.479   1.571   2.157 -0.2737 -0.6983  0.7657
 1519SOL     OW16015   4.425   4.305  15.827  0.0160 -0.7049 -0.2937
 1519SOL    HW116016   4.470   4.236  15.875  0.1387 -2.6628 -3.2616
 1519SOL    HW216017   4.495   4.371  15.820  2.2478 -2.9527  0.8629
 1520SOL     OW16018   3.496   0.829   9.053 -0.4390  0.3072 -0.3801
 1520SOL    HW116019   3.494   0.901   8.989  0.0780 -1.5440 -2.4819
 1520SOL    HW216020   3.481   0.867   9.139 -0.7118  0.3614 -0.4503
 1521SOL     OW16021   3.504   1.837   4.193  0.4741  0.2417 -0.4843
 1521SOL    HW116022   3.512   1.880   4.108 -4.0213 -0.3557 -1.1976
 1521SOL    HW216023   3.452   1.759   4.175 -1.5594  1.3295  0.6489
 1522SOL     OW16024   3.859   0.344  11.987 -0.2372  0.4186  0.7092
 1522SOL    HW116025   3.824   0.297  12.062 -0.6934 -0.6074 -0.1421
 1522SOL    HW216026   3.921   0.281  11.949 -0.0555  1.7996 -1.2813
 1523SOL     OW16027   3.469   0.524   3.069 -0.2287  0.0900  0.5374
 1523SOL    HW116028   3.389   0.539   3.017 -0.1665 -1.4085  0.0263
 1523SOL    HW216029   3.435   0.465   3.136  1.0797 -2.4077 -0.9870
 1524SOL     OW16030   1.586   0.829   3.885 -0.3261 -0.3576 -0.1710
 1524SOL    HW116031   1.646   0.770   3.839 -0.0676 -0.8325  0.7654
 1524SOL    HW216032   1.499   0.811   3.850  0.5025 -0.2236 -2.2667
 1525SOL     OW16033   0.720   0.127   7.978  0.3994  0.1518  0.4518
 1525SOL    HW116034   0.771   0.079   7.913 -1.9021 -0.7129 -0.7342
 1525SOL    HW216035   0.634   0.085   7.979  1.1085 -1.3044 -0.2563
 1526SOL     OW16036   3.801   4.032  16.557  0.1753 -0.3130 -1.0028
 1526SOL    HW116037   3.896   4.042  16.567  0.4133 -2.1261 -1.3494
 1526SOL    HW216038   3.801   3.957  16.497 -2.2646 -0.7622 -0.4333
 1527SOL     OW16039   2.337   4.465  10.755  0.2129 -0.1783  0.5146
 1527SOL    HW116040   2.284   4.462  10.835 -1.2194 -2.1468 -0.4948
 1527SOL    HW216041   2.277   4.511  10.697  1.6176  1.5161  0.3917
 1528SOL     OW16042   0.699   3.449   9.397 -0.2633 -0.2069 -0.1036
 1528SOL    HW116043   0.616   3.486   9.366  0.3876 -0.4277 -2.1259
 1528SOL    HW216044   0.674   3.424   9.486  2.6151 -0.6823  0.5886
 1529SOL     OW16045   4.522   0.875   6.526  0.0049 -0.2464 -0.1111
 1529SOL    HW116046   4.543   0.951   6.580  1.0828  0.4428 -1.4713
 1529SOL    HW216047   4.491   0.923   6.449 -0.8901  1.0409  1.0617
 1530SOL     OW16048   1.334   2.427   6.263 -0.4705  0.4135 -0.0687
 1530SOL    HW116049   1.264   2.492   6.274  0.2441  0.9381  1.3308
 1530SOL    HW216050   1.381   2.464   6.188  2.2682 -1.0262  0.9233
 1531SOL     OW16051   0.501   1.701   7.701  0.0375  0.5244  0.4078
 1531SOL    HW116052   0.567   1.729   7.638  0.4262  0.2979  0.7124
 1531SOL    HW216053   0.440   1.654   7.644 -0.4166  0.3999  0.9975
 1532SOL     OW16054   2.126   1.967  10.889 -0.3222  0.0921  0.2260
 1532SOL    HW116055   2.194   1.913  10.848  2.4910  1.3703  3.1888
 1532SOL    HW216056   2.175   2.049  10.897 -0.7274  0.3643 -0.1076
 1533SOL     OW16057   2.979   2.101   2.635 -0.4090  0.0381  0.2649
 1533SOL    HW116058   2.976   2.183   2.685 -2.8589  0.0536  0.1351
 1533SOL    HW216059   2.970   2.135   2.546  0.3380 -0.8931 -0.1611
 1534SOL     OW16060   3.967   4.160  17.416 -0.1555  0.4739 -0.4948
 1534SOL    HW116061   4.059   4.142  17.434 -0.1268  1.7330  0.6375
 1534SOL    HW216062   3.929   4.072  17.414 -1.8447  1.1474  1.1257
 1535SOL     OW16063   1.827   3.909   2.809  0.0095 -0.6299  0.2122
 1535SOL    HW116064   1.753   3.919   2.870  1.4160  2.1307  1.4754
 1535SOL    HW216065   1.807   3.823   2.773  1.1337  0.0821 -2.1298
 1536SOL     OW16066   3.251   1.008  13.493 -0.0588  0.3444 -0.5340
 1536SOL    HW116067   3.188   1.079  13.503 -1.6001 -0.9809 -0.8832
 1536SOL    HW216068   3.253   1.003  13.398  3.2219  1.6289 -0.5388
 1537SOL     OW16069   0.193   3.256   1.966  0.0066 -0.0671 -0.6142
 1537SOL    HW116070   0.223   3.321   2.029 -0.2382  0.5383 -1.1224
 1537SOL    HW216071   0.273   3.244   1.915 -0.4090 -3.3723 -0.5171
 1538SOL     OW16072   0.084   3.759  16.296  0.1681 -0.1503 -0.3494
 1538SOL    HW116073   0.032   3.775  16.374  0.5172 -1.0919  0.0670
 1538SOL    HW216074   0.169   3.759  16.341  0.0006  0.0785 -0.0367
 1539SOL     OW16075   3.243   2.610  16.810  0.0453 -0.0990  0.2121
 1539SOL    HW116076   3.324   2.657  16.832  0.7181 -1.0347 -0.2118
 1539SOL    HW216077   3.198   2.688  16.778 -2.6304 -1.0839  1.6491
 1540SOL     OW16078   0.967   2.187   2.921 -0.1563 -0.3970 -0.8479
 1540SOL    HW116079   0.983   2.092   2.917 -1.0164 -0.5359 -0.8425
 1540SOL    HW216080   0.877   2.190   2.952  0.3490  0.2644  0.5622
 1541SOL     OW16081   2.066   1.721   5.012 -0.1241 -0.2191  0.5033
 1541SOL    HW116082   2.120   1.799   5.000  0.4821 -0.7593 -0.3040
 1541SOL    HW216083   2.093   1.680   5.094 -2.4292  2.6815  2.7202
 1542SOL     OW16084   1.398   4.101   5.613 -0.1402 -0.2283 -0.0022
 1542SOL    HW116085   1.363   4.162   5.548  1.1433  0.1133 -0.3581
 1542SOL    HW216086   1.442   4.037   5.557 -0.2861  2.2990 -3.0120
 1543SOL     OW16087   0.075   4.708   2.533  1.0378 -0.4679 -0.7760
 1543SOL    HW116088   4.710   4.679   2.529  0.6781  0.4282  0.8612
 1543SOL    HW216089   0.110   4.672   2.615  2.2834  3.7799  0.5737
 1544SOL     OW16090   0.951   3.366   1.637  0.0902  0.8352 -0.0776
 1544SOL    HW116091   0.955   3.292   1.577  2.1433 -0.4007  1.5907
 1544SOL    HW216092   0.938   3.436   1.573 -0.7479  0.9127  0.1721
 1545SOL     OW16093   1.466   4.512  17.636 -0.2148  0.8862 -0.2144
 1545SOL    HW116094   1.477   4.543  17.546  0.4952 -0.5012 -0.6125
 1545SOL    HW216095   1.547   4.462  17.650 -1.4181 -0.5271  1.6955
 1546SOL     OW16096   3.763   3.250   7.941  0.5589  0.3756 -0.0515
 1546SOL    HW116097   3.669   3.266   7.929  0.0407 -2.1792  0.5012
 1546SOL    HW216098   3.777   3.327   7.995  0.6110  0.9759 -0.9276
 1547SOL     OW16099   3.190   2.320   4.582  0.3108 -0.2036 -0.8429
 1547SOL    HW116100   3.247   2.341   4.509  0.9851 -1.0324 -0.5461
 1547SOL    HW216101   3.103   2.351   4.556 -0.1953  0.6704  1.7937
 1548SOL     OW16102   3.277   1.698   9.460  0.9233 -0.1823 -0.0853
 1548SOL    HW116103   3.239   1.657   9.538  2.3570 -2.0115 -0.3599
 1548SOL    HW216104   3.368   1.671   9.461  0.6617 -1.1320 -2.2278
 1549SOL     OW16105   1.668   3.820  17.314 -0.5070  0.0442  0.0261
 1549SOL    HW116106   1.596   3.779  17.361  0.2902 -2.3536 -0.8579
 1549SOL    HW216107   1.608   3.859  17.249 -0.1425  1.5794  0.6060
 1550SOL     OW16108   4.068   3.200   6.669 -0.0531 -0.1205  0.6597
 1550SOL    HW116109   4.008   3.155   6.610  0.5052  0.5594 -0.4298
 1550SOL    HW216110   4.151   3.168   6.635  0.4954  0.1917  1.7142
 1551SOL     OW16111   1.708   1.461   8.383 -0.2060 -0.0878  0.1147
 1551SOL    HW116112   1.772   1.475   8.452  2.4655 -4.9986 -1.3840
 1551SOL    HW216113   1.771   1.480   8.313 -0.0649 -0.1945  0.2128
 1552SOL     OW16114   1.674   3.528  14.209 -0.0709 -0.1510  0.1094
 1552SOL    HW116115   1.693   3.622  14.206 -0.8793  0.0690  1.8849
 1552SOL    HW216116   1.584   3.508  14.184 -1.4315  2.2492  3.0850
 1553SOL     OW16117   1.607   3.415   4.921 -0.2270  0.4903  1.2737
 1553SOL    HW116118   1.699   3.390   4.912 -1.0833 -1.9336 -0.8969
 1553SOL    HW216119   1.601   3.476   4.994  1.0103  0.2280  1.5812
 1554SOL     OW16120   1.052   1.734   7.074  0.4976 -0.5997 -0.9669
 1554SOL    HW116121   1.136   1.777   7.058  1.0041 -0.3119  2.6115
 1554SOL    HW216122   0.987   1.805   7.077  0.9234 -0.2488  0.0063
 1555SOL     OW16123   1.292   0.173   2.857 -0.5931  0.1399  0.3286
 1555SOL    HW116124   1.308   0.097   2.914  3.7968  0.6533 -0.1937
 1555SOL    HW216125   1.277   0.126   2.775 -1.4952  0.9243  0.0541
 1556SOL     OW16126   2.080   2.940   8.239 -0.4410  0.0021 -0.2598
 1556SOL    HW116127   2.015   2.994   8.285  0.5390 -0.3862  1.5765
 1556SOL    HW216128   2.164   2.976   8.268  0.1507  0.2747 -2.3325
 1557SOL     OW16129   3.854   0.060   7.786  0.8077  0.2984  0.5866
 1557SOL    HW116130   3.873   0.120   7.713 -1.4025  1.7277  1.1798
 1557SOL    HW216131   3.869   0.109   7.867  1.3708  0.3716  0.4378
 1558SOL     OW16132   2.024   0.333  11.982  0.0705  0.2326 -0.0422
 1558SOL    HW116133   2.113   0.296  11.980  0.4496  1.1030  0.9240
 1558SOL    HW216134   2.027   0.365  11.892 -0.3116 -1.1958 -0.5719
 1559SOL     OW16135   3.149   4.386   7.904 -0.1530  0.7279 -0.2922
 1559SOL    HW116136   3.199   4.446   7.958  1.7600 -0.4729 -0.7176
 1559SOL    HW216137   3.216   4.323   7.876 -0.8475 -0.3421  0.4441
 1560SOL     OW16138   0.537   3.577  16.801 -0.0879 -0.4445 -1.0594
 1560SOL    HW116139   0.576   3.642  16.859 -0.3217 -1.4493  0.2339
 1560SOL    HW216140   0.449   3.605  16.778 -0.1416  0.0516 -0.2556
 1561SOL     OW16141   1.310   2.164   9.829  0.0989 -0.8238  0.5968
 1561SOL    HW116142   1.355   2.244   9.855  0.3980  0.4037 -3.7753
 1561SOL    HW216143   1.240   2.197   9.774  0.5051 -0.7738  0.1104
 1562SOL     OW16144   3.894   3.238   7.088  0.3517 -0.1990 -0.7969
 1562SOL    HW116145   3.922   3.320   7.048  0.4749  1.0324  1.8525
 1562SOL    HW216146   3.964   3.220   7.150  0.2883  1.1085 -0.3504
 1563SOL     OW16147   2.091   2.276   9.556 -0.0276  0.0632 -0.2608
 1563SOL    HW116148   2.058   2.266   9.646  0.3847  1.4194  0.0365
 1563SOL    HW216149   2.048   2.361   9.544 -0.6399 -0.0136  1.3391
 1564SOL     OW16150   3.965   3.041   6.443  0.3036 -0.0086 -0.1313
 1564SOL    HW116151   3.945   3.000   6.359  2.3643 -0.8523 -0.2285
 1564SOL    HW216152   3.896   3.106   6.448 -0.3781 -0.6848 -0.7967
 1565SOL     OW16153   0.829   4.302  17.702 -0.0529 -0.5664 -0.2264
 1565SOL    HW116154   0.842   4.397  17.694 -2.8183 -0.2890 -1.4203
 1565SOL    HW216155   0.816   4.299   0.089  0.6696  3.2061  0.0146
 1566SOL     OW16156   0.783   0.284   5.069  0.2749  0.2843 -0.3581
 1566SOL    HW116157   0.796   0.221   5.140  0.6717  2.5683  1.6286
 1566SOL    HW216158   0.744   0.238   4.995 -1.4706  0.2062  0.6200
 1567SOL     OW16159   3.095   0.517   1.786 -0.7377 -0.1809  0.4368
 1567SOL    HW116160   3.070   0.431   1.820 -0.1800 -0.3995  0.2961
 1567SOL    HW216161   3.188   0.498   1.772 -0.8233 -0.9405  0.8952
 1568SOL     OW16162   2.378   0.272   3.039  0.4475  0.5567  0.2086
 1568SOL    HW116163   2.312   0.233   3.097  1.2184 -1.5321 -0.3202
 1568SOL    HW216164   2.324   0.326   2.981  0.2106  0.7638  0.6162
 1569SOL     OW16165   1.451   0.617   2.206 -0.3484 -0.0873  0.1127
 1569SOL    HW116166   1.499   0.567   2.141  0.2218 -1.7520  1.8165
 1569SOL    HW216167   1.449   0.700   2.159 -1.4574 -0.1938 -0.0253
 1570SOL     OW16168   1.678   4.601   7.705 -0.1559 -0.4179  0.1235
 1570SOL    HW116169   1.681   4.696   7.693 -0.2649 -0.5472 -0.9019
 1570SOL    HW216170   1.766   4.581   7.739  0.7728  0.5002 -1.7328
 1571SOL     OW16171   1.106   3.288   1.062 -0.3228 -0.3124  0.2456
 1571SOL    HW116172   1.139   3.241   1.138 -0.7389 -1.1565 -0.1003
 1571SOL    HW216173   1.169   3.276   0.991 -0.8816  0.4771 -0.3821
 1572SOL     OW16174   1.717   4.131  11.144 -0.4428 -0.4004  0.1882
 1572SOL    HW116175   1.734   4.037  11.151 -3.3448 -0.8637  1.1120
 1572SOL    HW216176   1.761   4.147  11.061 -0.0988  1.8980  0.8279
 1573SOL     OW16177   0.926   2.087  13.596  0.0973  0.1358  0.0646
 1573SOL    HW116178   1.018   2.109  13.588 -0.1109  0.8765 -0.3363
 1573SOL    HW216179   0.925   1.996  13.626 -1.8987  0.2458  0.3671
 1574SOL     OW16180   4.027   3.367   8.828  0.6193 -0.3376 -0.1061
 1574SOL    HW116181   3.962   3.329   8.886  0.1980 -0.0011 -0.3619
 1574SOL    HW216182   4.090   3.401   8.892  0.2401  3.2892 -1.6613
 1575SOL     OW16183   3.477   4.341   3.867 -0.2552  0.1665  0.5544
 1575SOL    HW116184   3.416   4.374   3.801 -0.4068 -0.6493  0.2847
 1575SOL    HW216185   3.554   4.393   3.848 -1.1526  1.0011 -0.7748
 1576SOL     OW16186   3.330   2.909   6.509 -0.2756  0.0261 -0.6664
 1576SOL    HW116187   3.423   2.891   6.522  0.0938  1.0765 -1.7902
 1576SOL    HW216188   3.293   2.867   6.587 -1.0558  0.7555 -0.6403
 1577SOL     OW16189   4.539   0.711   2.981 -0.0169 -0.6816  0.1301
 1577SOL    HW116190   4.472   0.707   2.913 -0.0326  0.6737  0.0657
 1577SOL    HW216191   4.616   0.713   2.925  0.4769  0.1745  0.8433
 1578SOL     OW16192   2.594   2.490   8.805 -0.1731 -0.0208  0.4380
 1578SOL    HW116193   2.551   2.408   8.831  0.0322 -0.5281 -0.8199
 1578SOL    HW216194   2.664   2.459   8.748 -2.5494  0.2104 -2.6012
 1579SOL     OW16195   1.064   3.667   3.588  0.6868  0.3194 -0.3366
 1579SOL    HW116196   1.092   3.750   3.627  0.3865  1.1004 -1.7938
 1579SOL    HW216197   1.064   3.605   3.661 -3.7935  0.0377 -0.5799
 1580SOL     OW16198   4.244   3.818  12.158  0.5813  0.2344  0.2534
 1580SOL    HW116199   4.183   3.885  12.187  2.0916  1.9904 -0.6095
 1580SOL    HW216200   4.292   3.857  12.085  0.0535 -0.8325 -0.6602
 1581SOL     OW16201   2.457   2.909   4.365  0.4112 -0.1069  0.1325
 1581SOL    HW116202   2.540   2.870   4.336  1.0860 -0.8624  3.1234
 1581SOL    HW216203   2.482   2.925   4.456 -0.5321  0.7846  0.2374
 1582SOL     OW16204   1.232   1.763  16.531 -0.3695 -0.0133 -0.3326
 1582SOL    HW116205   1.147   1.730  16.562 -0.2940  0.9127  0.8663
 1582SOL    HW216206   1.188   1.809  16.459 -1.3960  0.3708  0.5364
 1583SOL     OW16207   3.124   0.896   4.213 -0.0524 -0.1324  0.1225
 1583SOL    HW116208   3.042   0.943   4.200  0.3869  0.4582 -0.5681
 1583SOL    HW216209   3.092   0.807   4.224  1.1520 -0.6465 -0.5084
 1584SOL     OW16210   3.818   2.314   5.514 -0.1029  0.1048  0.3804
 1584SOL    HW116211   3.886   2.380   5.502 -0.1678  0.1379  0.1934
 1584SOL    HW216212   3.811   2.300   5.420 -2.7931 -0.7578  0.7242
 1585SOL     OW16213   4.631   2.969   7.252  0.7890 -0.1697 -0.3574
 1585SOL    HW116214   4.593   2.933   7.333  2.1173 -2.9591 -0.9520
 1585SOL    HW216215   4.634   2.889   7.200  1.8615 -0.1313 -0.3509
 1586SOL     OW16216   1.376   3.678   8.615 -0.4486 -0.0116 -0.1953
 1586SOL    HW116217   1.327   3.719   8.687 -0.4368 -0.1218 -0.1234
 1586SOL    HW216218   1.303   3.624   8.586 -0.4075  1.5250 -3.0428
 1587SOL     OW16219   3.550   4.415   2.095 -0.0014  0.2140  0.9012
 1587SOL    HW116220   3.552   4.351   2.024  2.5796  1.1150  0.1639
 1587SOL    HW216221   3.642   4.398   2.116 -0.0138 -1.5642 -0.4941
 1588SOL     OW16222   4.704   2.022   8.353 -0.1769 -0.5778 -0.9306
 1588SOL    HW116223   0.065   1.985   8.353 -0.8307 -2.1132 -1.5324
 1588SOL    HW216224   4.646   1.954   8.319 -0.4784 -1.5325  1.5234
 1589SOL     OW16225   0.370   4.048   7.147 -0.0469 -0.6016 -0.8224
 1589SOL    HW116226   0.400   4.077   7.233  0.0411  1.0319 -1.4024
 1589SOL    HW216227   0.438   4.090   7.094  1.1296 -0.8657  0.4683
 1590SOL     OW16228   3.357   1.578   5.395 -0.0182 -0.3701 -0.0141
 1590SOL    HW116229   3.326   1.656   5.348  1.6144  0.9928  1.1975
 1590SOL    HW216230   3.305   1.590   5.475 -0.4707  0.0164 -0.3610
 1591SOL     OW16231   3.973   3.520  13.934  0.3693  0.1230  0.4487
 1591SOL    HW116232   3.958   3.591  13.871  1.1119 -0.6159 -0.5570
 1591SOL    HW216233   4.004   3.449  13.878  0.6488 -0.4220  1.2905
 1592SOL     OW16234   4.358   1.472   5.250 -0.5966  0.3598  0.0438
 1592SOL    HW116235   4.368   1.379   5.232  0.7065  0.7089 -1.0517
 1592SOL    HW216236   4.411   1.516   5.183  0.0789  1.8735  1.5688
 1593SOL     OW16237   2.938   1.140   4.001 -0.1066  0.1323 -0.3470
 1593SOL    HW116238   2.844   1.139   3.979 -0.1832  0.9438 -0.0241
 1593SOL    HW216239   2.957   1.226   3.965  0.2106  0.1150 -0.2183
 1594SOL     OW16240   0.281   2.591   6.526 -0.0011  0.1481  0.4342
 1594SOL    HW116241   0.328   2.638   6.595  0.6891  1.7194 -1.1268
 1594SOL    HW216242   0.340   2.519   6.503 -2.6576 -1.6969 -0.6547
 1595SOL     OW16243   3.607   2.305   4.362 -0.1944 -0.1692  0.7390
 1595SOL    HW116244   3.598   2.213   4.390  0.3376 -0.3026  0.4815
 1595SOL    HW216245   3.554   2.352   4.426  0.2186 -2.0983  2.5281
 1596SOL     OW16246   0.435   1.993   4.350 -0.0116  0.0279  0.2639
 1596SOL    HW116247   0.530   1.996   4.355  0.1045 -3.0114  0.3739
 1596SOL    HW216248   0.426   1.951   4.265  0.6050 -0.9751  0.6929
 1597SOL     OW16249   2.228   1.917   4.931  0.6819 -0.3369  0.7365
 1597SOL    HW116250   2.181   1.917   4.848 -1.3098 -0.1727  1.8574
 1597SOL    HW216251   2.255   2.009   4.939 -1.0093  0.3432 -1.4396
 1598SOL     OW16252   2.421   3.004   8.531  0.0968 -0.2773  0.1619
 1598SOL    HW116253   2.455   2.920   8.561 -2.1934 -1.0513  0.6041
 1598SOL    HW216254   2.460   3.058   8.599  0.4346  1.7804 -1.6689
 1599SOL     OW16255   2.015   0.149   7.597 -0.6455  0.2217 -0.6298
 1599SOL    HW116256   2.085   0.199   7.554 -1.9303  1.2248 -1.5385
 1599SOL    HW216257   1.972   0.213   7.653 -2.5940 -0.8204 -0.9372
 1600SOL     OW16258   4.413   2.795   8.355  0.0571 -0.3537  0.4749
 1600SOL    HW116259   4.491   2.822   8.307  0.8885 -0.7047  1.6237
 1600SOL    HW216260   4.453   2.768   8.438 -0.5456 -1.6713  0.3471
 1601SOL     OW16261   2.864   1.312   7.615  0.1466 -0.3225 -0.0944
 1601SOL    HW116262   2.772   1.327   7.593  0.3887 -1.0657 -1.6176
 1601SOL    HW216263   2.856   1.221   7.643 -0.2590 -0.6136 -1.1460
 1602SOL     OW16264   2.244   0.793  10.202 -0.6681  0.1221  0.3550
 1602SOL    HW116265   2.239   0.737  10.280  0.2318  0.8308  0.9161
 1602SOL    HW216266   2.235   0.878  10.244 -2.4875 -0.0321  0.2756
 1603SOL     OW16267   2.481   0.321   7.181 -0.3608  0.5867 -0.4500
 1603SOL    HW116268   2.492   0.414   7.162  0.7175  0.7474  0.9415
 1603SOL    HW216269   2.484   0.327   7.277  3.6456  0.7308 -0.5786
 1604SOL     OW16270   0.564   3.261  13.538  0.2779  0.2439  0.0688
 1604SOL    HW116271   0.610   3.344  13.533  1.2726 -0.1514  3.1570
 1604SOL    HW216272   0.479   3.287  13.502  0.0063 -0.3063  0.3170
 1605SOL     OW16273   2.507   1.942  10.176  0.2498 -0.1528  0.3578
 1605SOL    HW116274   2.490   1.894  10.257 -1.0109 -1.1666 -0.5162
 1605SOL    HW216275   2.599   1.924  10.155 -0.0509 -2.8356  1.4083
 1606SOL     OW16276   0.989   4.544   2.275 -0.0932 -0.2624  0.4111
 1606SOL    HW116277   1.006   4.553   2.181 -1.8112 -1.7224 -0.0470
 1606SOL    HW216278   1.039   4.615   2.314  0.3792 -0.3691 -0.0021
 1607SOL     OW16279   4.524   3.107   9.586 -0.4508 -0.6144 -0.6494
 1607SOL    HW116280   4.529   3.015   9.560 -1.0639 -1.0004  0.5919
 1607SOL    HW216281   4.436   3.115   9.623 -0.3303 -0.3733 -0.4142
 1608SOL     OW16282   0.338   0.957  16.612  0.1314  0.0607 -0.0061
 1608SOL    HW116283   0.413   0.935  16.667  0.2150 -0.0049 -0.1482
 1608SOL    HW216284   0.369   1.026  16.553  2.0543 -1.7634 -1.1343
 1609SOL     OW16285   0.667   3.807  16.890 -0.0529 -0.1302 -0.2611
 1609SOL    HW116286   0.749   3.759  16.900 -1.2404 -1.6681  2.0249
 1609SOL    HW216287   0.654   3.838  16.980  0.3092  2.2566 -1.0351
 1610SOL     OW16288   0.118   3.597   2.294 -0.7167  0.0416  0.2504
 1610SOL    HW116289   0.167   3.634   2.221 -0.0984 -1.9173 -0.3248
 1610SOL    HW216290   0.033   3.594   2.251 -0.0589 -0.5610 -1.0117
 1611SOL     OW16291   0.924   4.200   9.293 -0.2785 -0.3106  0.5205
 1611SOL    HW116292   0.892   4.115   9.323  0.6401 -0.6443  0.5674
 1611SOL    HW216293   0.859   4.254   9.338  2.3286  0.8264  2.9311
 1612SOL     OW16294   2.671   3.508   2.495  0.2961  0.2340  0.0764
 1612SOL    HW116295   2.669   3.495   2.400  0.4654  0.5967  0.0198
 1612SOL    HW216296   2.691   3.602   2.492  0.3148  0.2718  1.4493
 1613SOL     OW16297   4.399   3.702   5.484 -0.3744  0.0785  0.4578
 1613SOL    HW116298   4.310   3.713   5.450  0.9686  0.5924 -2.8856
 1613SOL    HW216299   4.377   3.669   5.571 -1.5302 -0.8867 -0.2006
 1614SOL     OW16300   1.225   3.966   4.793 -0.2290 -0.1696  0.2241
 1614SOL    HW116301   1.173   3.930   4.722 -1.0372 -1.3721  1.4319
 1614SOL    HW216302   1.308   3.918   4.789 -1.0539 -1.4529 -1.0770
 1615SOL     OW16303   3.015   2.034   4.229 -0.7097 -0.4080  0.1956
 1615SOL    HW116304   3.096   2.071   4.264 -1.7766  3.3320 -1.2527
 1615SOL    HW216305   2.950   2.049   4.297  3.1622 -0.6196  3.9799
 1616SOL     OW16306   0.322   2.906  16.103  0.0725 -0.3716  0.4706
 1616SOL    HW116307   0.413   2.877  16.101 -0.5649 -2.3919  0.9715
 1616SOL    HW216308   0.326   2.989  16.150  0.6512 -0.6802  0.9730
 1617SOL     OW16309   2.334   1.537   1.007 -0.0301 -0.0152  0.6667
 1617SOL    HW116310   2.328   1.616   0.954 -4.6813 -0.5922  0.3396
 1617SOL    HW216311   2.296   1.469   0.951  1.2776 -0.3488  0.1987
 1618SOL     OW16312   1.972   3.877   4.016  0.1338  0.6451 -0.2710
 1618SOL    HW116313   1.902   3.813   4.034  1.1110  0.1102  1.6188
 1618SOL    HW216314   1.949   3.906   3.928 -1.3387  2.3655  0.6585
 1619SOL     OW16315   1.724   2.424   7.403 -0.0379  0.1871  0.2027
 1619SOL    HW116316   1.790   2.424   7.333  0.1037  0.1457  0.3348
 1619SOL    HW216317   1.734   2.512   7.442 -1.3103  0.0313  0.8784
 1620SOL     OW16318   2.999   2.806   3.285 -0.2413  0.1427 -0.2885
 1620SOL    HW116319   2.919   2.758   3.263 -0.8353  0.7850  0.4887
 1620SOL    HW216320   2.969   2.894   3.307  1.2674  0.3249  1.0138
 1621SOL     OW16321   0.397   1.176   0.541 -0.2150 -0.5951  0.2869
 1621SOL    HW116322   0.434   1.189   0.454  1.0353 -0.3120  0.8581
 1621SOL    HW216323   0.320   1.120   0.527  1.3605 -2.4084 -1.0427
 1622SOL     OW16324   0.257   0.469   9.222  0.3372  0.1352 -0.1611
 1622SOL    HW116325   0.255   0.475   9.317  1.2594  1.9820 -0.2533
 1622SOL    HW216326   0.193   0.401   9.203  0.6088 -0.7551  2.1169
 1623SOL     OW16327   3.011   3.768  10.864 -0.1347 -0.3885  0.5632
 1623SOL    HW116328   3.017   3.853  10.906 -1.6694 -0.5263  1.0542
 1623SOL    HW216329   2.925   3.773  10.822 -0.8739  0.7946  2.2034
 1624SOL     OW16330   3.153   3.097   4.062  0.3331 -0.1251 -0.0614
 1624SOL    HW116331   3.089   3.116   3.994 -2.2152 -0.5757  2.2126
 1624SOL    HW216332   3.236   3.136   4.035  0.1812  0.6988  0.6648
 1625SOL     OW16333   2.397   1.982   6.371 -0.6627  0.1196 -0.0668
 1625SOL    HW116334   2.375   1.954   6.460  0.6959 -1.1587 -0.1340
 1625SOL    HW216335   2.411   2.076   6.383 -0.7828  0.1240  0.0503
 1626SOL     OW16336   1.130   1.760  11.575  1.0123  0.0971  0.7908
 1626SOL    HW116337   1.188   1.765  11.498  3.6705 -1.2853  2.6968
 1626SOL    HW216338   1.101   1.670  11.568 -0.5466  0.7526 -1.2342
 1627SOL     OW16339   0.293   0.276  12.915  0.1066  0.5596  0.3279
 1627SOL    HW116340   0.232   0.348  12.905  0.5497  0.8491 -0.3212
 1627SOL    HW216341   0.368   0.319  12.874 -1.2521  0.5922 -2.1386
 1628SOL     OW16342   3.166   2.620  14.073 -0.1625  0.2936  0.5182
 1628SOL    HW116343   3.104   2.568  14.021  0.8096 -0.0261 -0.3296
 1628SOL    HW216344   3.151   2.709  14.043 -1.5809 -0.2741 -0.4660
 1629SOL     OW16345   2.117   1.450  12.295  0.7857 -0.1141  0.1027
 1629SOL    HW116346   2.085   1.540  12.296 -0.0150 -0.3923 -0.2782
 1629SOL    HW216347   2.092   1.428  12.205 -0.8609  0.7654  0.3482
 1630SOL     OW16348   0.655   0.749   4.200  0.2488 -0.3306 -0.5300
 1630SOL    HW116349   0.727   0.762   4.262 -0.3117 -0.9154  0.2379
 1630SOL    HW216350   0.633   0.657   4.215  1.4491 -0.5914 -0.3403
 1631SOL     OW16351   1.765   0.502   2.945  0.2153  0.7122  0.3253
 1631SOL    HW116352   1.684   0.469   2.984  2.5908 -2.2700  2.7378
 1631SOL    HW216353   1.776   0.447   2.867 -0.3323 -0.7607  1.2936
 1632SOL     OW16354   3.235   1.675  11.334  0.3370  0.1641  0.5552
 1632SOL    HW116355   3.167   1.623  11.378  0.3038 -1.5611 -1.5244
 1632SOL    HW216356   3.217   1.642  11.246 -1.3026  1.7209  0.3204
 1633SOL     OW16357   0.555   0.023   6.455  0.0757 -0.0744 -0.0243
 1633SOL    HW116358   0.582   0.094   6.396 -0.8169 -1.1084 -1.6796
 1633SOL    HW216359   0.514   0.077   6.522  1.2685  1.5274 -0.5671
 1634SOL     OW16360   2.459   0.368   8.351  0.0475 -0.5415  0.3754
 1634SOL    HW116361   2.533   0.318   8.384  0.1933  0.5362  1.6347
 1634SOL    HW216362   2.411   0.374   8.433  3.5135 -2.0857  2.5131
 1635SOL     OW16363   0.179   2.103   8.913  0.5209 -0.1380 -0.4895
 1635SOL    HW116364   0.264   2.138   8.936  1.2492 -2.5528  0.5860
 1635SOL    HW216365   0.183   2.040   8.841  1.7181 -0.1092 -0.4425
 1636SOL     OW16366   1.829   0.167  15.240  0.2515  0.4874  0.4823
 1636SOL    HW116367   1.897   0.099  15.237  0.7475  0.9912  0.1836
 1636SOL    HW216368   1.878   0.239  15.281 -0.3521  1.1083  0.1016
 1637SOL     OW16369   4.491   0.109   6.644 -0.3033 -0.1939  0.0639
 1637SOL    HW116370   4.485   0.169   6.570 -0.4555 -2.4326 -1.7677
 1637SOL    HW216371   4.458   0.165   6.713 -2.8320  0.8180 -1.9622
 1638SOL     OW16372   1.655   2.098   0.588  0.4493  0.0536 -0.6733
 1638SOL    HW116373   1.569   2.067   0.616  0.4350 -0.7767 -1.6244
 1638SOL    HW216374   1.715   2.059   0.652  0.8258  2.1982  0.2751
 1639SOL     OW16375   3.725   4.306   6.179 -0.1342 -0.0491 -0.3067
 1639SOL    HW116376   3.806   4.261   6.157  0.0296  0.1594 -0.1403
 1639SOL    HW216377   3.765   4.374   6.233  0.1805  0.6268 -1.3884
 1640SOL     OW16378   0.654   1.765   1.295 -0.1127  0.7685  0.5602
 1640SOL    HW116379   0.738   1.719   1.299  0.3224  1.4917 -0.2605
 1640SOL    HW216380   0.630   1.716   1.217 -0.5623  1.2604  0.3929
 1641SOL     OW16381   1.271   2.881   6.152 -0.0260 -0.2202  0.4040
 1641SOL    HW116382   1.337   2.869   6.084  0.9096  0.0524  1.2681
 1641SOL    HW216383   1.279   2.974   6.171  0.3985  0.2144 -1.9528
 1642SOL     OW16384   1.954   4.483   7.211 -0.6391  0.1515  0.3229
 1642SOL    HW116385   1.927   4.432   7.287 -1.2059 -0.6581 -0.4278
 1642SOL    HW216386   1.952   4.568   7.255 -1.8669  0.9550 -1.3106
 1643SOL     OW16387   2.525   3.383   4.543  0.5467  0.0933 -0.3850
 1643SOL    HW116388   2.619   3.395   4.528  0.3485  1.3556 -0.5877
 1643SOL    HW216389   2.493   3.373   4.453 -2.1701 -2.5452  0.8710
 1644SOL     OW16390   2.625   1.441  11.586 -0.1076  0.2630 -0.2685
 1644SOL    HW116391   2.658   1.519  11.539  0.3281 -0.6194 -1.4356
 1644SOL    HW216392   2.620   1.470  11.677 -1.1535 -1.1265  0.1127
 1645SOL     OW16393   0.135   1.342   6.902 -0.1581 -0.6188  0.1347
 1645SOL    HW116394   0.049   1.384   6.896  0.3861  0.4978  0.2350
 1645SOL    HW216395   0.150   1.336   6.996 -2.1947  0.7020  0.5365
 1646SOL     OW16396   2.988   3.824   6.596 -0.4124  0.2030  0.3804
 1646SOL    HW116397   3.064   3.779   6.560  1.3300  1.1480  2.9323
 1646SOL    HW216398   2.924   3.753   6.600 -1.4730  1.1843  1.0093
 1647SOL     OW16399   2.086   0.105  12.406  0.5022 -0.4302  0.1359
 1647SOL    HW116400   1.992   0.104  12.422  0.5204  0.2205  0.3031
 1647SOL    HW216401   2.101   0.063  12.321  1.5068  0.4442 -0.1256
 1648SOL     OW16402   2.846   0.302   5.398 -0.1160  0.2517  0.3144
 1648SOL    HW116403   2.916   0.320   5.336  1.1470  0.6850  1.8780
 1648SOL    HW216404   2.839   0.207   5.406 -0.6240  0.1270 -1.6714
 1649SOL     OW16405   3.140   4.134   5.733 -0.1835 -0.7091 -0.6646
 1649SOL    HW116406   3.147   4.225   5.762 -1.2620 -0.9484  0.3431
 1649SOL    HW216407   3.049   4.112   5.754 -0.6453  1.5161 -0.3821
 1650SOL     OW16408   3.021   2.573  13.238  0.0851 -0.1285 -0.5465
 1650SOL    HW116409   3.102   2.534  13.272  1.9486  2.8323 -1.6368
 1650SOL    HW216410   3.010   2.500  13.177  1.1156 -0.9961  0.3012
 1651SOL     OW16411   0.608   1.535   1.775 -0.4094  0.1531 -0.7108
 1651SOL    HW116412   0.667   1.600   1.814  1.0136 -1.8330  0.4879
 1651SOL    HW216413   0.616   1.560   1.683 -1.2572 -0.3125 -0.9095
 1652SOL     OW16414   3.404   2.205   7.407 -0.1453 -0.2576  0.5824
 1652SOL    HW116415   3.313   2.175   7.417 -0.4927  0.3344 -0.8422
 1652SOL    HW216416   3.419   2.252   7.489 -0.9182 -0.1185  0.6487
 1653SOL     OW16417   4.423   2.351   7.337 -0.8143 -0.3696  0.5483
 1653SOL    HW116418   4.368   2.337   7.415  0.0835 -4.0297  0.5336
 1653SOL    HW216419   4.407   2.263   7.303  1.6424  0.3937 -2.5988
 1654SOL     OW16420   1.669   0.428   7.010 -0.8352 -0.4997  0.2273
 1654SOL    HW116421   1.641   0.337   7.024 -2.6918 -0.0377 -0.5699
 1654SOL    HW216422   1.762   0.411   6.994 -0.9192  0.8177 -1.6329
 1655SOL     OW16423   1.987   0.250  10.360  0.5648  0.5068 -0.8256
 1655SOL    HW116424   1.924   0.232  10.290 -0.6112  0.5788  0.2046
 1655SOL    HW216425   2.064   0.207  10.323 -0.3151 -2.5340  0.8853
 1656SOL     OW16426   2.993   0.959   5.181  0.1839 -0.2141  0.0730
 1656SOL    HW116427   2.977   0.975   5.274 -1.1926 -2.6984  0.2537
 1656SOL    HW216428   2.914   0.906   5.170 -0.5322  1.2455 -1.8382
 1657SOL     OW16429   3.332   1.120   5.195 -0.2117 -0.4998  0.3866
 1657SOL    HW116430   3.259   1.182   5.192 -0.2267 -0.6061 -1.8304
 1657SOL    HW216431   3.348   1.101   5.287  1.6778  0.4504  0.2442
 1658SOL     OW16432   4.493   2.795   7.834  0.5534 -0.3542 -0.0026
 1658SOL    HW116433   4.416   2.835   7.795  1.2378  0.3526 -0.6449
 1658SOL    HW216434   4.555   2.829   7.769  0.7151  0.0472  0.3614
 1659SOL     OW16435   2.907   0.213   2.084  0.3233  0.2875  0.4075
 1659SOL    HW116436   2.838   0.150   2.059  0.3844  0.0295  0.8914
 1659SOL    HW216437   2.907   0.204   2.179  2.6250  0.9276  0.4593
 1660SOL     OW16438   2.449   0.648   8.623 -0.3114  0.0095 -0.6398
 1660SOL    HW116439   2.542   0.637   8.604  0.0512  1.1716  0.5123
 1660SOL    HW216440   2.438   0.569   8.677  0.8228 -1.6283 -2.7866
 1661SOL     OW16441   3.886   3.332  16.693 -0.1861  0.1924  0.1924
 1661SOL    HW116442   3.937   3.411  16.714 -0.5641  0.0979  1.4674
 1661SOL    HW216443   3.805   3.380  16.675 -0.9624 -0.8393  0.9444
 1662SOL     OW16444   3.166   1.585   8.866 -0.8344 -0.0101 -0.0592
 1662SOL    HW116445   3.136   1.512   8.921  0.0673 -0.3874 -0.0601
 1662SOL    HW216446   3.234   1.623   8.922  1.9344 -1.3951 -2.4862
 1663SOL     OW16447   0.412   2.086  10.073  0.3141 -0.0350  0.4233
 1663SOL    HW116448   0.336   2.110  10.019 -1.4336 -0.2469  2.8021
 1663SOL    HW216449   0.381   2.041  10.151  2.2626 -2.8674 -0.4235
 1664SOL     OW16450   3.269   3.800   5.469 -0.0861  0.4697 -0.1557
 1664SOL    HW116451   3.322   3.878   5.485 -1.5450  1.5044 -0.3473
 1664SOL    HW216452   3.341   3.738   5.481  2.4647  3.3744 -0.5682
 1665SOL     OW16453   2.887   3.910  14.166  0.2216 -0.1933  0.2932
 1665SOL    HW116454   2.836   3.948  14.237  0.9184 -0.1359  0.7627
 1665SOL    HW216455   2.854   3.820  14.165  5.1985 -2.0269  0.5113
 1666SOL     OW16456   2.899   0.903   6.129 -0.2772 -0.0513  0.1274
 1666SOL    HW116457   2.853   0.986   6.133  0.1840  0.2544 -0.8953
 1666SOL    HW216458   2.974   0.907   6.189 -0.3856 -2.0031  0.3983
 1667SOL     OW16459   2.708   0.572   4.379 -0.0023  0.1971 -0.6425
 1667SOL    HW116460   2.756   0.651   4.400 -2.9361  1.7604  0.2754
 1667SOL    HW216461   2.715   0.517   4.457  0.4959  0.9917 -0.1366
 1668SOL     OW16462   1.024   0.618  11.175  0.1665 -0.1853  0.0724
 1668SOL    HW116463   1.028   0.555  11.246  0.4274 -1.8169 -1.3951
 1668SOL    HW216464   1.000   0.697  11.223 -1.7237 -1.4716  1.2304
 1669SOL     OW16465   0.353   0.123   3.991  0.8512  0.1769  0.0641
 1669SOL    HW116466   0.297   0.047   3.977 -0.5934  1.0210  1.2400
 1669SOL    HW216467   0.334   0.134   4.084 -2.1929  2.8499 -0.8381
 1670SOL     OW16468   0.712   2.955   4.998  0.6914  0.1349  0.4996
 1670SOL    HW116469   0.800   2.992   5.003  0.3971  0.9246 -0.0860
 1670SOL    HW216470   0.709   2.953   4.902  3.1457 -0.1321  0.4418
 1671SOL     OW16471   2.559   3.687   3.575 -0.3122 -0.1180  0.1999
 1671SOL    HW116472   2.482   3.670   3.630  0.7364  0.0136  1.7274
 1671SOL    HW216473   2.593   3.599   3.560  0.7872  0.3406 -0.0207
 1672SOL     OW16474   4.603   4.522   7.445 -0.0252 -0.4125 -0.0120
 1672SOL    HW116475   4.665   4.567   7.388  1.6729  0.1020  2.2400
 1672SOL    HW216476   4.529   4.583   7.453  0.0208 -0.5154  1.2650
 1673SOL     OW16477   3.383   1.385  17.359 -0.7343 -0.2883 -0.3040
 1673SOL    HW116478   3.366   1.389  17.453 -1.4599 -0.3801 -0.4352
 1673SOL    HW216479   3.331   1.452  17.314 -1.0189 -0.0619  0.3608
 1674SOL     OW16480   4.642   4.329   3.620 -0.1612 -0.3366 -0.2915
 1674SOL    HW116481   4.637   4.328   3.525  1.0599  0.6469 -0.3599
 1674SOL    HW216482   4.619   4.240   3.648 -3.2083  0.5713  0.0837
 1675SOL     OW16483   4.621   3.025   3.425  0.0592  0.4844  0.1770
 1675SOL    HW116484   4.674   3.067   3.357  0.1814 -0.2508 -0.1735
 1675SOL    HW216485   4.683   2.957   3.450 -0.4703 -0.1225 -0.1857
 1676SOL     OW16486   1.148   1.422   8.761  0.0279  0.4523 -0.2502
 1676SOL    HW116487   1.211   1.452   8.826  2.0130 -0.9203 -1.5092
 1676SOL    HW216488   1.078   1.402   8.824  1.2924 -0.1264  0.9747
 1677SOL     OW16489   4.463   4.022   4.181 -0.1118 -0.2564 -0.3309
 1677SOL    HW116490   4.490   3.938   4.143 -1.2377 -2.1408  2.9975
 1677SOL    HW216491   4.493   4.089   4.120  0.4259 -0.4729 -0.3060
 1678SOL     OW16492   2.086   4.694   8.997 -0.0684  0.4300 -0.0465
 1678SOL    HW116493   2.101   0.061   8.992 -0.3820  0.4901  0.1418
 1678SOL    HW216494   2.070   4.690   9.091  2.5010  0.4432  0.3840
 1679SOL     OW16495   4.557   1.646   1.484 -0.6174  0.7668 -0.0277
 1679SOL    HW116496   4.556   1.583   1.411  3.3399  4.8778 -3.6422
 1679SOL    HW216497   4.486   1.604   1.533  1.3390  0.6122  2.6752
 1680SOL     OW16498   2.685   4.175  10.337  0.7373  0.0210  0.0624
 1680SOL    HW116499   2.602   4.222  10.344  0.3455 -0.1229 -3.2899
 1680SOL    HW216500   2.741   4.251  10.353 -0.8995  0.9843  1.2034
 1681SOL     OW16501   2.310   1.490   4.054  0.2194 -0.2298 -0.0613
 1681SOL    HW116502   2.290   1.528   4.139 -1.4871 -0.2425 -0.4590
 1681SOL    HW216503   2.237   1.523   4.002  0.1277 -1.3109 -0.6366
 1682SOL     OW16504   2.551   3.413   8.878 -0.1103  0.5074  0.1178
 1682SOL    HW116505   2.470   3.446   8.916 -1.0320 -0.9502 -0.5881
 1682SOL    HW216506   2.593   3.368   8.952  0.3051  0.7143  0.0047
 1683SOL     OW16507   1.787   0.389   4.919  0.6108  0.0729 -0.4727
 1683SOL    HW116508   1.756   0.379   5.009 -0.3327 -0.3367 -0.8412
 1683SOL    HW216509   1.760   0.480   4.909 -1.3070 -0.4747 -0.3291
 1684SOL     OW16510   4.282   2.025   7.385  0.4137 -0.1315  0.3624
 1684SOL    HW116511   4.218   1.954   7.394 -1.1037  1.3993  1.7420
 1684SOL    HW216512   4.253   2.057   7.300 -1.9562  1.5870  1.8192
 1685SOL     OW16513   0.996   1.351  13.768 -0.1641 -0.4383 -0.8133
 1685SOL    HW116514   1.056   1.338  13.841 -0.6854 -2.2226 -0.6975
 1685SOL    HW216515   1.035   1.426  13.722 -0.0324 -1.7083 -2.8157
 1686SOL     OW16516   4.555   2.810   3.675  0.2617  0.6912 -0.0805
 1686SOL    HW116517   4.619   2.758   3.723 -1.8662 -1.3745  0.5584
 1686SOL    HW216518   4.587   2.898   3.695 -0.8979  1.3220 -0.9735
 1687SOL     OW16519   1.755   1.538  10.294  0.0999  0.3465  0.4398
 1687SOL    HW116520   1.671   1.573  10.325  0.5771  1.8024  0.0454
 1687SOL    HW216521   1.730   1.445  10.295  1.5011 -0.0334  0.5050
 1688SOL     OW16522   3.183   0.033  12.006  0.1956  0.0492 -0.0829
 1688SOL    HW116523   3.118   0.002  11.943 -0.1468  1.5433 -0.4499
 1688SOL    HW216524   3.186   4.682  12.062  0.2766 -1.8189 -2.6489
 1689SOL     OW16525   1.315   3.861  17.577  0.2503 -0.1340  0.2830
 1689SOL    HW116526   1.317   3.818  17.663  2.2169 -1.4909 -0.4625
 1689SOL    HW216527   1.290   3.950  17.601 -2.1764 -0.9476  0.8587
 1690SOL     OW16528   1.868   2.119  10.674  0.0984 -0.5538 -0.1478
 1690SOL    HW116529   1.903   2.033  10.647 -1.0140 -1.2310  0.5979
 1690SOL    HW216530   1.818   2.140  10.595 -3.2463 -1.6036  1.6993
 1691SOL     OW16531   0.611   3.724   8.032 -0.3800 -0.6397 -0.2993
 1691SOL    HW116532   0.654   3.803   7.998  0.0012 -1.1932 -1.1137
 1691SOL    HW216533   0.672   3.659   7.998 -0.3492 -1.0145  0.4969
 1692SOL     OW16534   1.364   4.706   9.873 -0.2967 -0.2598 -0.7437
 1692SOL    HW116535   1.327   4.682   9.788 -0.2462 -2.3723 -0.1743
 1692SOL    HW216536   1.290   4.719   9.932  0.3775 -0.3222  0.1113
 1693SOL     OW16537   0.424   1.181  10.473 -0.5260  0.5703 -0.2490
 1693SOL    HW116538   0.398   1.272  10.456 -2.1291  0.5852  2.3522
 1693SOL    HW216539   0.444   1.179  10.566  0.5612 -3.4218 -0.5873
 1694SOL     OW16540   1.176   1.814   4.756 -0.2744  0.2740  1.0833
 1694SOL    HW116541   1.262   1.855   4.747 -0.6980  1.4003  2.1474
 1694SOL    HW216542   1.131   1.864   4.688  0.1415 -1.2373 -0.3255
 1695SOL     OW16543   0.732   2.350   6.652 -0.0778 -0.6042  0.3159
 1695SOL    HW116544   0.754   2.259   6.673 -0.9325 -0.8666  0.0932
 1695SOL    HW216545   0.775   2.391   6.727 -0.2157  1.9580 -1.0177
 1696SOL     OW16546   1.953   4.117   0.878 -0.2139 -0.2868  0.2760
 1696SOL    HW116547   1.873   4.155   0.841 -2.0463 -1.3760  3.1561
 1696SOL    HW216548   1.978   4.182   0.943  0.8063 -0.2435 -0.1590
 1697SOL     OW16549   3.690   1.047   2.372  0.1649  0.8878 -0.6507
 1697SOL    HW116550   3.749   1.003   2.434  0.4971  0.9318 -0.9355
 1697SOL    HW216551   3.735   1.081   2.295  0.7593  0.8734 -0.3111
 1698SOL     OW16552   3.872   0.623  14.212  0.1927 -0.9497 -0.1334
 1698SOL    HW116553   3.951   0.628  14.265  0.3595 -0.9237 -0.3821
 1698SOL    HW216554   3.839   0.712  14.225 -1.0348 -1.6166  1.3031
 1699SOL     OW16555   2.381   0.283   3.368 -0.2626 -0.2123 -0.6334
 1699SOL    HW116556   2.403   0.377   3.371  0.5978 -0.4995  2.3624
 1699SOL    HW216557   2.299   0.296   3.321  1.4154  2.5359 -2.7760
 1700SOL     OW16558   3.500   2.398   5.411 -0.3963 -0.2703  0.1264
 1700SOL    HW116559   3.407   2.388   5.394 -0.7518  1.6219  0.9502
 1700SOL    HW216560   3.535   2.320   5.369 -1.9445  0.0491 -1.7140
 1701SOL     OW16561   4.167   2.973   7.982  0.5491 -0.4522  0.0874
 1701SOL    HW116562   4.120   3.040   8.032 -1.0113  0.1613 -2.2290
 1701SOL    HW216563   4.167   2.902   8.047  2.0369 -1.3360 -0.8873
 1702SOL     OW16564   2.411   0.922   6.397 -0.5858 -0.9709 -0.1188
 1702SOL    HW116565   2.431   0.975   6.320 -0.2988 -1.5048 -0.4092
 1702SOL    HW216566   2.361   0.853   6.354 -0.8271 -1.9774  1.7925
 1703SOL     OW16567   1.165   2.877   7.095 -0.1285  0.2141  0.2739
 1703SOL    HW116568   1.129   2.790   7.109 -0.1245  0.1041 -0.4003
 1703SOL    HW216569   1.089   2.930   7.120 -0.4623  0.0765 -0.4582
 1704SOL     OW16570   4.710   2.483   8.602 -0.1849  0.5633  0.0329
 1704SOL    HW116571   4.616   2.470   8.587 -0.5051  1.2957  1.3238
 1704SOL    HW216572   0.020   2.423   8.538 -1.0198 -1.6963  1.6794
 1705SOL     OW16573   0.619   2.163   1.755 -0.0508 -0.1931 -0.2263
 1705SOL    HW116574   0.575   2.225   1.697  2.2441  2.3185  0.6933
 1705SOL    HW216575   0.620   2.201   1.843  0.2911  0.0516 -0.3329
 1706SOL     OW16576   3.113   3.692   0.106 -0.0207 -0.4272 -0.7283
 1706SOL    HW116577   3.073   3.779   0.108  0.1957 -0.3527  0.6316
 1706SOL    HW216578   3.103   3.663   0.016  2.0743 -0.1644 -1.0451
 1707SOL     OW16579   0.330   0.097   4.276  0.0656 -0.1396  0.1427
 1707SOL    HW116580   0.342   0.111   4.370  1.7789 -0.3646 -0.0464
 1707SOL    HW216581   0.364   0.008   4.265  1.1753  0.4835 -1.3921
 1708SOL     OW16582   3.034   2.741   8.115 -0.0634 -0.0643 -0.1721
 1708SOL    HW116583   2.970   2.695   8.061  0.4776  0.0358 -0.8981
 1708SOL    HW216584   3.115   2.713   8.071  1.8186  5.0207  0.1400
 1709SOL     OW16585   3.640   3.493  12.292  0.6113  0.2592  0.2908
 1709SOL    HW116586   3.620   3.562  12.229  0.2949  1.0774  1.2919
 1709SOL    HW216587   3.736   3.488  12.289  0.5951 -0.1355  0.3704
 1710SOL     OW16588   1.531   2.662   4.971  0.4787 -0.3477  0.1865
 1710SOL    HW116589   1.556   2.720   4.899  2.4061  0.5847  1.6367
 1710SOL    HW216590   1.613   2.659   5.021  0.6947 -2.9717 -0.3125
 1711SOL     OW16591   0.789   2.293  12.913  0.1437 -0.5039  0.2150
 1711SOL    HW116592   0.830   2.249  12.988  0.7212 -1.2702 -0.5448
 1711SOL    HW216593   0.731   2.224  12.881 -1.6134  1.6558 -1.2014
 1712SOL     OW16594   4.283   4.341  10.020 -0.3702  0.1910  0.1064
 1712SOL    HW116595   4.252   4.320   9.932 -0.3748  0.3040  0.0812
 1712SOL    HW216596   4.237   4.422  10.043  0.2563  0.8884 -1.1542
 1713SOL     OW16597   1.061   3.176  16.242  0.6611 -0.2226  0.0841
 1713SOL    HW116598   1.066   3.092  16.198 -0.4892 -0.1941 -0.0826
 1713SOL    HW216599   0.974   3.169  16.281 -0.0716  4.7276 -0.5673
 1714SOL     OW16600   4.122   1.389   0.501 -0.4689 -0.4084  0.4159
 1714SOL    HW116601   4.113   1.448   0.426  0.8745  1.6118  1.8659
 1714SOL    HW216602   4.062   1.432   0.563  1.0506  0.5180  1.2556
 1715SOL     OW16603   4.359   1.194   9.877  0.0196 -1.0752 -0.4962
 1715SOL    HW116604   4.386   1.189   9.786  1.0560  1.6023 -0.3572
 1715SOL    HW216605   4.279   1.246   9.867 -0.5434 -0.8186  5.0345
 1716SOL     OW16606   4.655   1.362   6.532  0.1931  0.2350  0.5731
 1716SOL    HW116607   4.601   1.438   6.554  2.2754  2.3624 -1.6880
 1716SOL    HW216608   4.649   1.352   6.437 -1.9773 -2.1003  0.9541
 1717SOL     OW16609   0.120   1.377  15.919 -0.1961  0.6617  0.0456
 1717SOL    HW116610   0.163   1.318  15.859  0.0477  0.4191  0.4582
 1717SOL    HW216611   0.150   1.462  15.886  2.0677 -1.0402 -2.2261
 1718SOL     OW16612   1.943   0.462   5.260 -0.4254  0.4728  0.1659
 1718SOL    HW116613   1.858   0.424   5.235 -0.4008 -1.6086  3.3277
 1718SOL    HW216614   1.929   0.557   5.263 -2.7161  0.1663 -0.5846
 1719SOL     OW16615   2.062   1.998   4.708  0.1629  0.6418  0.4961
 1719SOL    HW116616   2.019   1.913   4.703  1.8874 -0.4602  4.3635
 1719SOL    HW216617   1.989   2.058   4.695  0.8686  1.1904 -0.9885
 1720SOL     OW16618   3.661   1.490   4.883 -0.4417 -0.0542 -0.5564
 1720SOL    HW116619   3.594   1.524   4.824 -0.1521  1.6327  0.1140
 1720SOL    HW216620   3.610   1.477   4.963  0.4025 -1.6173 -0.2551
 1721SOL     OW16621   4.339   4.281   2.147 -0.8121 -0.1799 -0.4816
 1721SOL    HW116622   4.426   4.244   2.134 -0.9835 -0.6040 -0.4119
 1721SOL    HW216623   4.360   4.375   2.150  0.1925 -0.4094 -0.3445
 1722SOL     OW16624   4.575   4.271   3.377 -0.5998 -0.4099  0.0634
 1722SOL    HW116625   4.519   4.226   3.314 -0.1263  0.8327 -1.2525
 1722SOL    HW216626   4.654   4.290   3.326 -0.4394 -0.9669  0.1023
 1723SOL     OW16627   2.027   2.012   8.994 -0.4472  0.1300 -0.1740
 1723SOL    HW116628   2.088   2.054   9.055 -1.3976  2.0855 -0.5662
 1723SOL    HW216629   1.993   1.950   9.059  2.7957 -0.5721  0.8185
 1724SOL     OW16630   4.086   1.128   3.810  0.2146  0.1826  0.0067
 1724SOL    HW116631   4.002   1.173   3.805 -0.8722 -1.2368  4.8041
 1724SOL    HW216632   4.153   1.197   3.820 -0.1473  0.8265 -2.1264
 1725SOL     OW16633   4.160   2.597  16.403  0.0216 -0.3924  0.1470
 1725SOL    HW116634   4.184   2.653  16.477  0.6046 -0.1676 -0.2032
 1725SOL    HW216635   4.087   2.548  16.441  1.5324 -1.0277  2.2137
 1726SOL     OW16636   1.307   4.597  15.943 -0.4213 -0.2748 -0.0608
 1726SOL    HW116637   1.372   4.652  15.986  1.4156 -2.4482 -0.0571
 1726SOL    HW216638   1.227   4.611  15.993 -0.2117  0.3298  0.0912
 1727SOL     OW16639   2.591   3.972   7.362  0.6129  0.5015  0.0676
 1727SOL    HW116640   2.554   4.031   7.428  0.4626 -0.2727  0.6829
 1727SOL    HW216641   2.514   3.961   7.306 -0.3745  2.7352  0.9811
 1728SOL     OW16642   1.430   4.181  14.102  0.3249  0.4099  0.0002
 1728SOL    HW116643   1.350   4.160  14.054  0.4427 -1.6895  0.7258
 1728SOL    HW216644   1.444   4.273  14.078  1.3960  0.5814  1.2717
 1729SOL     OW16645   3.675   2.700   9.919  0.3716 -0.0732 -0.4179
 1729SOL    HW116646   3.641   2.787   9.898 -3.5195 -1.8297 -1.4428
 1729SOL    HW216647   3.767   2.715   9.938 -0.1736 -0.5139  2.5210
 1730SOL     OW16648   1.556   4.526   9.989  0.1419  0.2382 -0.2774
 1730SOL    HW116649   1.506   4.607   9.974 -1.2671 -0.5690  0.0357
 1730SOL    HW216650   1.549   4.492   9.900  3.6191 -2.9360  0.6717
 1731SOL     OW16651   0.307   3.304   7.226  0.1603  0.3553  0.5354
 1731SOL    HW116652   0.274   3.280   7.312  1.6116  0.2040  1.0528
 1731SOL    HW216653   0.246   3.263   7.164  0.6186 -0.0693  0.3553
 1732SOL     OW16654   1.384   2.559   8.404 -0.1196  0.0738 -0.4160
 1732SOL    HW116655   1.443   2.505   8.353 -1.1244 -1.5829  0.1891
 1732SOL    HW216656   1.445   2.616   8.451 -0.9992  0.3779  0.3816
 1733SOL     OW16657   1.313   0.132   3.164 -0.0081  0.6510 -0.4022
 1733SOL    HW116658   1.281   0.042   3.157  0.6633  0.3696  0.0794
 1733SOL    HW216659   1.402   0.112   3.194 -0.5021 -0.5805  0.2291
 1734SOL     OW16660   1.219   4.561  13.260  0.5438 -0.0425  0.1248
 1734SOL    HW116661   1.307   4.539  13.291 -0.3178 -1.1141  1.7255
 1734SOL    HW216662   1.216   4.516  13.176 -0.2722  1.5465 -0.7008
 1735SOL     OW16663   2.143   1.828   6.400 -0.2200  0.0133  0.3668
 1735SOL    HW116664   2.202   1.780   6.343 -0.5148 -1.5250  1.3465
 1735SOL    HW216665   2.184   1.914   6.402 -1.8705  0.8117 -0.7935
 1736SOL     OW16666   3.725   0.031  11.563 -0.2328 -0.1578  0.2228
 1736SOL    HW116667   3.688   4.669  11.565 -0.0907 -0.1807  1.7198
 1736SOL    HW216668   3.672   0.071  11.632  0.8301  0.0862  0.8996
 1737SOL     OW16669   3.281   3.291   6.048  0.1701  0.2532 -0.1215
 1737SOL    HW116670   3.335   3.302   6.126 -0.9794 -1.2222  0.8898
 1737SOL    HW216671   3.353   3.272   5.988 -0.9509  2.2178 -2.1173
 1738SOL     OW16672   3.798   2.645   3.726  0.6777 -0.2327 -0.0638
 1738SOL    HW116673   3.840   2.729   3.744 -0.2375 -0.3220  2.5039
 1738SOL    HW216674   3.824   2.623   3.637  1.4180 -1.2718  0.4053
 1739SOL     OW16675   2.874   4.275   4.728 -0.1281 -0.4751 -0.9178
 1739SOL    HW116676   2.924   4.289   4.808  0.4973 -1.5456 -1.1294
 1739SOL    HW216677   2.939   4.307   4.665  0.0767  0.7810 -0.0828
 1740SOL     OW16678   2.203   2.427   5.361  0.2260  0.1322 -0.3162
 1740SOL    HW116679   2.199   2.440   5.456  2.4641  0.7579 -0.3090
 1740SOL    HW216680   2.193   2.518   5.333 -1.2214 -0.2201 -0.9091
 1741SOL     OW16681   3.130   2.531   2.442  0.0434 -0.0194  0.3297
 1741SOL    HW116682   3.160   2.621   2.426 -1.2746 -0.2479 -3.2060
 1741SOL    HW216683   3.093   2.536   2.531 -1.1081 -0.5618 -0.1241
 1742SOL     OW16684   4.384   3.156   7.928 -0.2137 -0.0438 -0.1351
 1742SOL    HW116685   4.309   3.099   7.945  1.3785 -1.2097  3.0012
 1742SOL    HW216686   4.351   3.227   7.873  0.1670 -1.4772 -2.2005
 1743SOL     OW16687   4.053   4.487  15.038  0.4904 -0.0695  0.8291
 1743SOL    HW116688   3.987   4.551  15.067  0.0485  0.1507 -0.6602
 1743SOL    HW216689   3.995   4.418  15.005  2.2543 -0.1708 -2.0114
 1744SOL     OW16690   2.892   4.169  17.521  0.2886 -0.0726  0.3973
 1744SOL    HW116691   2.967   4.113  17.503 -2.2516 -3.2135 -0.5396
 1744SOL    HW216692   2.928   4.256  17.511 -0.9951  0.4044 -0.0603
 1745SOL     OW16693   1.835   4.116  10.889 -0.5858  0.4510 -0.3904
 1745SOL    HW116694   1.792   4.121  10.804 -1.5232 -0.2510  0.0453
 1745SOL    HW216695   1.923   4.092  10.862  0.0897  0.4875  1.7317
 1746SOL     OW16696   2.140   1.518   5.560 -0.3680  0.4014 -0.0276
 1746SOL    HW116697   2.074   1.490   5.623  0.7452 -0.4008  0.7796
 1746SOL    HW216698   2.201   1.562   5.620  0.9368 -0.4194 -0.7655
 1747SOL     OW16699   0.661   4.064   5.586 -0.1374  0.4973  0.1865
 1747SOL    HW116700   0.583   4.035   5.632  1.7011 -1.6905  1.9411
 1747SOL    HW216701   0.730   4.049   5.651  0.6204 -2.3291 -1.2928
 1748SOL     OW16702   0.742   1.918   2.288 -1.0896 -0.1973 -0.0752
 1748SOL    HW116703   0.763   1.889   2.377  0.3061  0.6039 -0.1423
 1748SOL    HW216704   0.793   1.853   2.241  0.3550 -0.1213  1.4003
 1749SOL     OW16705   0.193   3.806   1.673 -0.5655  0.3543  0.0790
 1749SOL    HW116706   0.238   3.890   1.685 -0.7395  0.7666 -2.1285
 1749SOL    HW216707   0.261   3.760   1.723 -0.2690  1.5355  0.7584
 1750SOL     OW16708   2.037   4.278   2.500 -0.0620 -0.1249 -0.4796
 1750SOL    HW116709   2.099   4.223   2.452  0.1478  0.3358 -0.7281
 1750SOL    HW216710   1.979   4.211   2.537 -0.7061  0.8549  0.3053
 1751SOL     OW16711   2.863   2.878   6.329  0.1071 -0.0446 -0.5583
 1751SOL    HW116712   2.913   2.865   6.410  0.9721 -1.5915 -1.3317
 1751SOL    HW216713   2.919   2.945   6.290 -2.6159  3.3708  1.4573
 1752SOL     OW16714   0.389   3.279   2.194  0.7514 -0.3401 -0.5700
 1752SOL    HW116715   0.475   3.284   2.151  1.2162 -1.9784  0.1922
 1752SOL    HW216716   0.387   3.185   2.178  1.0517 -0.5279  0.4689
 1753SOL     OW16717   4.640   1.384  14.294 -0.3057 -0.3936 -0.3484
 1753SOL    HW116718   4.545   1.389  14.285 -0.6550 -3.1883  1.8812
 1753SOL    HW216719   4.652   1.297  14.332  1.1313 -1.0935 -2.4081
 1754SOL     OW16720   2.495   2.352   5.399  0.3401  0.0598 -0.0979
 1754SOL    HW116721   2.477   2.312   5.484  0.5216  1.0097  0.3864
 1754SOL    HW216722   2.412   2.330   5.356  0.5211 -2.1540  0.7160
 1755SOL     OW16723   4.129   0.804   5.880 -0.0790  0.3579  0.2659
 1755SOL    HW116724   4.109   0.885   5.832 -2.8121  0.4290  1.5558
 1755SOL    HW216725   4.043   0.782   5.916  0.5995  0.1568  1.7382
 1756SOL     OW16726   3.398   3.839   6.264 -0.0539  0.4084 -0.4555
 1756SOL    HW116727   3.469   3.871   6.209 -0.1159  1.5381  0.1209
 1756SOL    HW216728   3.322   3.868   6.213 -0.2861  0.3645 -0.1371
 1757SOL     OW16729   3.441   3.253  11.513 -0.3037  0.5015 -0.1994
 1757SOL    HW116730   3.449   3.226  11.421 -0.2654 -2.1555  0.5927
 1757SOL    HW216731   3.434   3.164  11.547  0.5728  0.6052  0.2606
 1758SOL     OW16732   0.777   3.548  15.201  0.2907 -0.0279 -0.4930
 1758SOL    HW116733   0.790   3.455  15.218 -1.7029 -0.4970 -1.6183
 1758SOL    HW216734   0.829   3.565  15.123  0.6896  1.1217  0.0153
 1759SOL     OW16735   2.653   3.651   3.192 -1.4600  0.5613 -0.9252
 1759SOL    HW116736   2.718   3.664   3.262  1.7009 -1.9017 -3.3824
 1759SOL    HW216737   2.572   3.672   3.239 -1.1974  0.3348 -0.3610
 1760SOL     OW16738   3.571   3.491   4.305 -0.3807  0.6083 -0.2515
 1760SOL    HW116739   3.540   3.413   4.259  0.9483  0.2355 -0.5301
 1760SOL    HW216740   3.596   3.557   4.240  0.5348  2.3841  1.8956
 1761SOL     OW16741   2.941   3.062   7.149  0.6010 -0.3831  0.1328
 1761SOL    HW116742   2.980   3.145   7.176  0.2600  0.0446 -0.6677
 1761SOL    HW216743   3.026   3.018   7.143  1.7469  1.7574  0.6039
 1762SOL     OW16744   1.088   0.898   5.583 -0.1424 -0.4594 -0.8304
 1762SOL    HW116745   1.005   0.939   5.608  0.0632 -1.3422  1.2306
 1762SOL    HW216746   1.145   0.963   5.624 -0.1031 -0.9970 -0.0426
 1763SOL     OW16747   1.629   0.524   6.089  0.0513  0.1971  0.4244
 1763SOL    HW116748   1.618   0.514   5.994 -0.9963 -1.3312  0.7058
 1763SOL    HW216749   1.711   0.476   6.097  0.1128  0.4804  1.4830
 1764SOL     OW16750   1.212   3.213   0.803 -0.3461  0.3041 -0.5206
 1764SOL    HW116751   1.126   3.213   0.760  0.9912  0.9321 -3.2021
 1764SOL    HW216752   1.272   3.251   0.739 -0.3843 -1.6060 -1.6802
 1765SOL     OW16753   3.781   3.607  11.481  0.4048  0.6072  0.7294
 1765SOL    HW116754   3.807   3.520  11.451  1.7139  0.6795  1.6965
 1765SOL    HW216755   3.733   3.635  11.403 -2.8166 -0.5515  2.2873
 1766SOL     OW16756   0.053   3.791   0.348 -0.2407 -0.3797 -0.7038
 1766SOL    HW116757   4.705   3.731   0.339 -1.4602  0.9663  0.3390
 1766SOL    HW216758   0.005   3.859   0.396  1.5296 -0.1003  0.6367
 1767SOL     OW16759   4.428   1.233   6.094 -0.1681 -0.3576  0.0588
 1767SOL    HW116760   4.392   1.307   6.143  1.4550  0.7515 -0.4449
 1767SOL    HW216761   4.351   1.191   6.055  0.3793  0.0969 -1.4983
 1768SOL     OW16762   4.189   3.734   0.365  0.3901 -0.3949  0.1410
 1768SOL    HW116763   4.206   3.772   0.452 -4.8918 -1.9453  1.8310
 1768SOL    HW216764   4.218   3.806   0.308 -1.0331  0.4095  0.4310
 1769SOL     OW16765   3.265   0.883   5.132 -0.5047 -0.1818 -0.2477
 1769SOL    HW116766   3.172   0.907   5.133 -0.4247  0.0286  1.6361
 1769SOL    HW216767   3.304   0.967   5.157  1.2114 -0.3356 -2.3586
 1770SOL     OW16768   4.324   1.171   6.552  0.6977 -0.3456  0.0940
 1770SOL    HW116769   4.276   1.251   6.572 -0.6773 -0.7991 -1.4558
 1770SOL    HW216770   4.303   1.152   6.461 -0.6432 -3.0197  0.9519
 1771SOL     OW16771   4.239   3.678   8.084  0.1807  0.1073 -0.9195
 1771SOL    HW116772   4.247   3.628   8.166  0.5325  1.3481 -0.1919
 1771SOL    HW216773   4.252   3.769   8.113  1.0482 -0.4520  0.4679
 1772SOL     OW16774   0.932   2.630  15.660 -0.1740  0.8669 -0.5103
 1772SOL    HW116775   0.860   2.663  15.608 -0.7196  0.1374 -0.2193
 1772SOL    HW216776   1.004   2.599  15.604  0.8333  0.2815  1.1081
 1773SOL     OW16777   3.156   1.612   7.531 -1.1213 -0.4791  0.0352
 1773SOL    HW116778   3.201   1.538   7.491 -0.0307 -0.1651  0.6680
 1773SOL    HW216779   3.111   1.640   7.452 -1.9538 -2.4316 -0.1750
 1774SOL     OW16780   0.426   3.959   3.482  0.3161 -0.1245 -0.4874
 1774SOL    HW116781   0.341   3.956   3.437 -0.3409 -1.4019  0.8151
 1774SOL    HW216782   0.431   3.865   3.498  1.1239  0.3923  2.2125
 1775SOL     OW16783   0.664   3.214   4.830 -0.1788 -0.1188  0.3023
 1775SOL    HW116784   0.651   3.129   4.788  0.6775 -0.3292  0.4675
 1775SOL    HW216785   0.757   3.231   4.812 -0.8885  1.6398 -1.7472
 1776SOL     OW16786   0.026   0.893  11.018 -0.1013  0.6387 -0.2883
 1776SOL    HW116787   0.026   0.905  10.923  3.3329 -0.7711 -0.4502
 1776SOL    HW216788   0.013   0.800  11.033 -1.4214  0.8232 -0.2817
 1777SOL     OW16789   0.989   0.010   3.371  0.1581  0.4541 -0.0029
 1777SOL    HW116790   1.065   4.681   3.356  1.3678  2.6545 -2.0133
 1777SOL    HW216791   1.006   0.010   3.465 -1.0694 -0.9768  0.2267
 1778SOL     OW16792   4.323   4.163   1.843 -0.5691 -0.5252 -0.5610
 1778SOL    HW116793   4.372   4.179   1.762  1.1184 -0.4788  0.4809
 1778SOL    HW216794   4.291   4.252   1.860  0.2487 -0.6713  1.7421
 1779SOL     OW16795   3.340   0.277   6.277 -0.0537  0.4863 -0.4426
 1779SOL    HW116796   3.373   0.358   6.238 -1.8409  1.1023 -0.6549
 1779SOL    HW216797   3.413   0.253   6.334 -0.6680 -0.5382 -0.0922
 1780SOL     OW16798   4.522   3.973   2.985 -0.2036 -0.1715 -0.5918
 1780SOL    HW116799   4.583   3.956   2.914  0.8141 -0.1320  0.2863
 1780SOL    HW216800   4.480   4.051   2.948 -0.2579 -0.1661 -0.5197
 1781SOL     OW16801   1.225   2.044   8.404 -0.2295  0.1038  0.6415
 1781SOL    HW116802   1.311   2.077   8.430 -0.4209 -0.3583  1.8451
 1781SOL    HW216803   1.224   2.037   8.309 -0.8616  0.9646  0.5856
 1782SOL     OW16804   0.793   0.703   4.417  0.2508  0.4290  0.4224
 1782SOL    HW116805   0.826   0.619   4.449 -0.6154 -0.1948 -0.3136
 1782SOL    HW216806   0.765   0.740   4.501  0.1836 -0.0373  0.6009
 1783SOL     OW16807   2.478   3.300   8.606 -0.0821  0.1843  0.5567
 1783SOL    HW116808   2.492   3.296   8.700  2.0252  0.5308  0.2512
 1783SOL    HW216809   2.535   3.372   8.579 -0.4681 -0.1232 -1.0655
 1784SOL     OW16810   0.244   0.818  11.653 -0.1614  0.1215 -0.5865
 1784SOL    HW116811   0.305   0.863  11.711 -1.1508  0.4314  0.2297
 1784SOL    HW216812   0.195   0.893  11.620  0.0944  0.0367 -1.1548
 1785SOL     OW16813   1.303   3.256   9.890 -0.1580  0.1486  0.4249
 1785SOL    HW116814   1.332   3.295   9.808  0.6993 -0.1359  0.5954
 1785SOL    HW216815   1.346   3.172   9.875 -0.7611 -0.0125 -0.3538
 1786SOL     OW16816   2.752   4.721   1.974  0.4898 -1.0384 -0.0407
 1786SOL    HW116817   2.705   4.688   1.897 -0.0462  1.3066 -0.7176
 1786SOL    HW216818   2.697   0.060   2.017  2.0365  1.3310 -1.7355
 1787SOL     OW16819   3.573   3.398  14.638  0.5472 -0.1971  0.1937
 1787SOL    HW116820   3.648   3.456  14.647 -0.4418  0.9807  0.7926
 1787SOL    HW216821   3.510   3.457  14.597  0.6190 -1.5458 -1.8847
 1788SOL     OW16822   2.144   4.567   9.923  0.5324  0.4702  0.1886
 1788SOL    HW116823   2.176   4.484   9.888  0.2139  1.3603 -2.2258
 1788SOL    HW216824   2.173   4.569  10.014 -1.2588  1.0071  0.7405
 1789SOL     OW16825   2.225   2.367   2.548  0.1123  0.1734 -0.0311
 1789SOL    HW116826   2.135   2.398   2.558 -0.1723 -0.4871 -0.5833
 1789SOL    HW216827   2.275   2.448   2.543  2.5991 -1.4624 -1.5950
 1790SOL     OW16828   3.368   0.519   0.816  0.6443  0.4219  0.4888
 1790SOL    HW116829   3.453   0.534   0.857  2.3213  1.1621 -3.2445
 1790SOL    HW216830   3.396   0.486   0.730 -1.8708 -1.0067  0.2004
 1791SOL     OW16831   1.815   3.643   4.007  0.0846 -0.2901  0.0144
 1791SOL    HW116832   1.750   3.617   3.943 -0.4803  0.3714  0.3186
 1791SOL    HW216833   1.792   3.597   4.088 -2.6955 -0.3084 -0.8044
 1792SOL     OW16834   1.552   1.157   5.806 -0.1827 -0.4050  0.4757
 1792SOL    HW116835   1.624   1.119   5.855  0.9926 -1.2495 -1.9376
 1792SOL    HW216836   1.513   1.084   5.759  0.6027  0.1610 -1.0625
 1793SOL     OW16837   0.309   4.511   3.591  0.5238 -0.3260 -0.4575
 1793SOL    HW116838   0.381   4.566   3.559 -2.5410  1.7114 -3.7971
 1793SOL    HW216839   0.353   4.426   3.589 -1.0510 -1.1081 -1.3395
 1794SOL     OW16840   3.430   3.052   3.408  0.4152 -0.7183 -0.2258
 1794SOL    HW116841   3.474   2.974   3.374  2.9718  0.6092 -0.0151
 1794SOL    HW216842   3.392   3.084   3.326  1.2772 -2.4176 -1.2890
 1795SOL     OW16843   2.996   2.016   6.418  0.9693  0.3900  0.2264
 1795SOL    HW116844   3.035   2.058   6.494 -0.4852  0.7737  0.7540
 1795SOL    HW216845   2.997   2.088   6.354  0.4169  0.6452  0.5080
 1796SOL     OW16846   1.065   0.906   8.324 -0.5086  0.0644  0.4529
 1796SOL    HW116847   1.131   0.942   8.265 -3.0926  0.6206 -2.1056
 1796SOL    HW216848   1.069   0.811   8.312 -0.8505  0.1319 -0.1625
 1797SOL     OW16849   3.229   1.009  15.908  0.2303 -0.4909 -0.1088
 1797SOL    HW116850   3.175   1.013  15.829 -0.5936 -1.1472  0.4201
 1797SOL    HW216851   3.296   0.951  15.871  0.4389 -0.3453  0.0441
 1798SOL     OW16852   0.074   3.618   1.898  0.0496  0.1884  0.6481
 1798SOL    HW116853   0.125   3.653   1.824  0.0419 -0.2818  0.4243
 1798SOL    HW216854   0.016   3.564   1.845 -1.0699  2.5028 -0.5261
 1799SOL     OW16855   3.126   4.092  16.503  0.4440 -0.9799 -0.1483
 1799SOL    HW116856   3.109   4.040  16.582 -0.1716 -1.5119 -0.6380
 1799SOL    HW216857   3.037   4.114  16.476  0.8419  2.1488  1.0250
 1800SOL     OW16858   0.966   3.980  17.552  0.0700 -0.0163  0.1377
 1800SOL    HW116859   0.943   3.937  17.634 -1.9731  1.6581  0.4406
 1800SOL    HW216860   0.997   3.897  17.516 -2.0590 -0.5933 -0.3214
 1801SOL     OW16861   3.396   0.432   4.564  0.0026 -0.4443  0.0480
 1801SOL    HW116862   3.383   0.492   4.638 -1.1530 -0.8601  0.1830
 1801SOL    HW216863   3.303   0.421   4.547  0.1575 -1.3110 -0.2010
 1802SOL     OW16864   1.438   3.051  10.339 -0.1145 -0.0407 -0.2913
 1802SOL    HW116865   1.348   3.063  10.309  0.0659 -1.3989 -1.3763
 1802SOL    HW216866   1.480   3.136  10.344 -1.1024  0.4697 -0.6256
 1803SOL     OW16867   1.455   2.893   7.536 -0.0738  0.0820  0.4403
 1803SOL    HW116868   1.389   2.877   7.468  0.5299 -1.0435  0.1248
 1803SOL    HW216869   1.505   2.959   7.487 -0.0171  0.4318  0.9697
 1804SOL     OW16870   1.546   3.044  16.235  0.2965 -0.3485 -0.5744
 1804SOL    HW116871   1.568   3.037  16.142 -0.7474 -2.1704 -0.6760
 1804SOL    HW216872   1.592   3.126  16.256  2.3365 -1.5801 -0.1956
 1805SOL     OW16873   2.383   2.211   8.339  0.1305 -0.0945 -0.5269
 1805SOL    HW116874   2.322   2.273   8.299 -2.3039 -1.8924  0.4316
 1805SOL    HW216875   2.335   2.184   8.417  2.3823 -1.3078  0.4287
 1806SOL     OW16876   3.038   3.522   8.169 -0.0059  0.3035 -0.0152
 1806SOL    HW116877   2.982   3.574   8.111 -0.0743 -1.8141 -1.8225
 1806SOL    HW216878   2.983   3.453   8.206  0.5981 -0.3021 -0.2316
 1807SOL     OW16879   4.059   2.312   3.597  0.2515  0.3753  0.0869
 1807SOL    HW116880   3.977   2.356   3.577 -0.0915 -0.8345 -1.1625
 1807SOL    HW216881   4.082   2.343   3.685 -1.8705 -2.8672  1.8038
 1808SOL     OW16882   0.707   1.012   8.737 -0.3865  1.0002  0.1611
 1808SOL    HW116883   0.799   1.033   8.751 -0.1299  0.8820 -1.3258
 1808SOL    HW216884   0.693   1.014   8.642  0.4403  0.7546  0.0339
 1809SOL     OW16885   4.594   1.803   5.078 -0.0591 -0.1010  0.2294
 1809SOL    HW116886   4.528   1.736   5.094 -1.1953  0.8516 -0.4795
 1809SOL    HW216887   4.636   1.810   5.164  0.7344  0.4427 -0.1999
 1810SOL     OW16888   0.839   0.270   6.979 -0.1085 -0.0477  0.6074
 1810SOL    HW116889   0.924   0.225   6.983  0.0285  0.2264  0.7050
 1810SOL    HW216890   0.870   0.354   7.011 -0.8985 -0.0221  1.3035
 1811SOL     OW16891   0.931   0.648   7.490 -0.1887  0.1043 -0.1434
 1811SOL    HW116892   1.024   0.645   7.469  0.3390  1.4032  2.0365
 1811SOL    HW216893   0.897   0.679   7.406 -1.1993  1.3203  0.7214
 1812SOL     OW16894   0.248   2.898   9.728  0.6310  0.4884 -0.1799
 1812SOL    HW116895   0.255   2.887   9.823  0.1333 -0.7142 -0.2824
 1812SOL    HW216896   0.186   2.971   9.726  0.8634  0.6350 -1.5029
 1813SOL     OW16897   2.310   1.961   7.610 -0.6797 -0.5027  0.7560
 1813SOL    HW116898   2.220   1.985   7.631 -0.6748 -0.5964  0.8878
 1813SOL    HW216899   2.292   1.903   7.537  0.3587  1.8421 -1.3791
 1814SOL     OW16900   2.104   3.741   2.469  0.3498  0.2382  0.1502
 1814SOL    HW116901   2.090   3.782   2.555 -1.8506  0.9709 -0.5502
 1814SOL    HW216902   2.111   3.817   2.412  1.3133 -0.3945 -0.5622
 1815SOL     OW16903   0.367   3.665   4.250 -0.4343  0.2754  0.2342
 1815SOL    HW116904   0.430   3.736   4.255 -0.1389 -0.1399  2.5633
 1815SOL    HW216905   0.365   3.647   4.156 -0.6125 -2.9601  0.8400
 1816SOL     OW16906   2.224   3.131   8.398  0.0946 -0.4995  0.0900
 1816SOL    HW116907   2.295   3.096   8.451  0.9087  0.6893 -0.2361
 1816SOL    HW216908   2.269   3.205   8.356  0.2642 -1.0839 -0.7704
 1817SOL     OW16909   4.161   2.748   6.276  0.0938  0.0486  1.0834
 1817SOL    HW116910   4.101   2.724   6.347  0.1084 -0.4747  0.9193
 1817SOL    HW216911   4.214   2.817   6.316  0.9930 -0.7985  1.3551
 1818SOL     OW16912   3.487   0.682   1.101  0.4498 -0.0851 -0.4687
 1818SOL    HW116913   3.487   0.741   1.026 -0.1480 -0.7081 -0.9512
 1818SOL    HW216914   3.570   0.635   1.088  0.1663 -0.4643 -0.9013
 1819SOL     OW16915   1.954   1.383   7.540  0.3881  0.3429  0.1553
 1819SOL    HW116916   1.871   1.412   7.578 -0.2404  0.9842 -1.7109
 1819SOL    HW216917   2.000   1.464   7.561  2.3108 -1.1449  1.7477
 1820SOL     OW16918   3.877   2.264  10.135 -0.1377  0.8815  0.0259
 1820SOL    HW116919   3.836   2.288  10.218 -0.4957  0.0698  0.0889
 1820SOL    HW216920   3.818   2.303  10.071  3.0375  0.9764 -2.8502
 1821SOL     OW16921   4.561   1.459   1.261 -0.0481 -0.5702  0.4188
 1821SOL    HW116922   4.546   1.542   1.216 -0.8185 -1.0509 -0.2109
 1821SOL    HW216923   4.579   1.393   1.194 -0.4243 -1.8357  1.5539
 1822SOL     OW16924   1.307   3.375   0.074  0.0819 -0.5372  0.9418
 1822SOL    HW116925   1.362   3.305   0.038 -1.1513 -1.7019  1.3367
 1822SOL    HW216926   1.347   3.411   0.154 -0.7941  0.7061  0.8167
 1823SOL     OW16927   1.831   1.115   3.526 -0.0493  0.2627  0.1316
 1823SOL    HW116928   1.835   1.210   3.517  1.7481  0.1037 -0.7394
 1823SOL    HW216929   1.768   1.092   3.457  0.0020 -0.4706  0.3241
 1824SOL     OW16930   4.584   0.776   5.070  0.1272  0.3116  0.5089
 1824SOL    HW116931   4.515   0.717   5.101 -1.6253  0.1520 -3.6528
 1824SOL    HW216932   4.524   0.840   5.031  0.3388  0.4336  0.3864
 1825SOL     OW16933   1.376   4.141   4.379 -0.0568  0.0772  0.1952
 1825SOL    HW116934   1.417   4.104   4.457  0.5989  1.1197  0.3528
 1825SOL    HW216935   1.425   4.102   4.307 -0.2829 -0.5004  0.3576
 1826SOL     OW16936   3.986   2.298   1.756  0.2561  0.1760 -0.7701
 1826SOL    HW116937   4.071   2.329   1.726  1.2631 -1.4743  0.3696
 1826SOL    HW216938   3.945   2.378   1.791 -1.0537 -0.4181 -0.9444
 1827SOL     OW16939   1.527   4.471  14.102 -0.2652  0.1531  0.1622
 1827SOL    HW116940   1.559   4.457  14.191 -0.9987 -1.3330  0.1955
 1827SOL    HW216941   1.442   4.515  14.111 -0.3295 -0.2548  1.4723
 1828SOL     OW16942   4.569   0.081  15.939  0.1252  0.4495  0.4643
 1828SOL    HW116943   4.592   0.032  15.860  0.8319 -1.7279  2.0182
 1828SOL    HW216944   4.654   0.094  15.980  1.0639  1.1237 -1.7205
 1829SOL     OW16945   3.394   2.579   5.899  0.3114  0.2536  0.6501
 1829SOL    HW116946   3.377   2.527   5.820  0.8210  0.7378  0.2165
 1829SOL    HW216947   3.308   2.607   5.928 -0.1522  0.2896 -0.7361
 1830SOL     OW16948   0.495   2.901  15.168 -0.3054 -0.2728 -0.4570
 1830SOL    HW116949   0.527   2.962  15.102  0.0558 -0.2902 -0.2932
 1830SOL    HW216950   0.447   2.963  15.224  1.1529 -0.3575  0.8788
 1831SOL     OW16951   4.206   3.822  12.512 -0.6481  0.1050  0.1712
 1831SOL    HW116952   4.248   3.888  12.456  1.0365  0.4438  1.8270
 1831SOL    HW216953   4.280   3.787  12.562 -0.5819  2.4959  1.7910
 1832SOL     OW16954   0.383   0.444  11.043  0.1905 -0.1417 -0.3754
 1832SOL    HW116955   0.366   0.533  11.073  0.4993 -0.9212  2.1001
 1832SOL    HW216956   0.401   0.407  11.129  0.4320  2.5922  0.7329
 1833SOL     OW16957   0.800   4.251  11.721  0.6836  0.3233  0.4135
 1833SOL    HW116958   0.769   4.251  11.812  0.0138 -1.7236  0.1753
 1833SOL    HW216959   0.890   4.239  11.749  0.6981 -0.3134  0.0879
 1834SOL     OW16960   1.905   3.026   8.842 -0.1489  0.7169  0.5977
 1834SOL    HW116961   1.980   3.083   8.830  1.6701 -1.7666  0.1302
 1834SOL    HW216962   1.944   2.939   8.832  2.4361  1.9234  0.3632
 1835SOL     OW16963   2.692   3.593   6.460  0.2297  0.2055 -0.4991
 1835SOL    HW116964   2.611   3.559   6.497  0.6054  0.4562  0.5691
 1835SOL    HW216965   2.760   3.551   6.514 -0.6368  0.7350  0.9937
 1836SOL     OW16966   1.094   0.510   2.171 -0.3354  0.5849 -0.0333
 1836SOL    HW116967   1.083   0.478   2.082 -1.0669  0.9477 -0.0803
 1836SOL    HW216968   1.058   0.434   2.216  0.3395  1.2246  1.5769
 1837SOL     OW16969   0.930   1.366   9.209 -0.4684 -0.2074  0.1258
 1837SOL    HW116970   0.992   1.412   9.152 -0.6392 -1.0713 -0.7660
 1837SOL    HW216971   0.895   1.447   9.246  0.1198 -0.5271  1.3568
 1838SOL     OW16972   3.855   0.471   4.869 -0.3549  0.3293 -0.1028
 1838SOL    HW116973   3.795   0.509   4.805 -0.0065 -1.5826 -1.5492
 1838SOL    HW216974   3.801   0.406   4.913 -1.4231  0.9187 -0.5411
 1839SOL     OW16975   0.538   2.348   3.329  0.3362 -0.4422  0.1089
 1839SOL    HW116976   0.518   2.255   3.323  0.3204 -0.5032  1.0813
 1839SOL    HW216977   0.583   2.370   3.247 -0.5951  1.2445  0.0486
 1840SOL     OW16978   0.265   2.634   4.621  0.1755 -0.4812 -0.2535
 1840SOL    HW116979   0.270   2.697   4.694  1.3063  1.5142 -2.0596
 1840SOL    HW216980   0.274   2.552   4.670  0.2631  0.4065  1.2180
 1841SOL     OW16981   1.975   4.450   4.124 -0.0922  0.0800  0.1330
 1841SOL    HW116982   2.021   4.434   4.207 -0.2431 -1.8121 -0.1468
 1841SOL    HW216983   1.974   4.545   4.124  2.5678  0.1070  1.6960
 1842SOL     OW16984   1.778   2.927   1.345 -0.4160  0.0779  0.3123
 1842SOL    HW116985   1.785   2.851   1.403  0.8826  0.4208  0.6130
 1842SOL    HW216986   1.867   2.935   1.311 -0.0506 -1.8912  0.8087
 1843SOL     OW16987   1.707   4.665  15.857 -0.6716  0.6812 -0.7425
 1843SOL    HW116988   1.663   0.024  15.851  1.3774  1.9675  2.3167
 1843SOL    HW216989   1.796   4.698  15.869 -0.8918  1.9255 -2.4332
 1844SOL     OW16990   2.398   2.851  12.145  0.5397 -0.2028  0.4628
 1844SOL    HW116991   2.481   2.807  12.161  0.5070 -1.3069 -2.4668
 1844SOL    HW216992   2.430   2.936  12.113 -1.8090 -0.1357 -1.7008
 1845SOL     OW16993   2.289   3.769   5.018 -0.2830  0.8876  1.0888
 1845SOL    HW116994   2.329   3.755   4.932 -2.2113 -2.8801  0.8350
 1845SOL    HW216995   2.338   3.704   5.067  3.3583  2.2661 -0.6972
 1846SOL     OW16996   4.001   0.590   4.409 -0.2703 -0.6185  0.3667
 1846SOL    HW116997   4.090   0.554   4.415 -0.4996 -1.6111 -2.3505
 1846SOL    HW216998   3.985   0.601   4.503  4.7038 -0.9965  1.2709
 1847SOL     OW16999   2.368   2.723   4.803 -0.1239 -0.3964 -0.5178
 1847SOL    HW117000   2.456   2.692   4.780 -0.1579 -0.6371 -0.3198
 1847SOL    HW217001   2.354   2.677   4.885 -3.0700  0.0648 -0.7600
 1848SOL     OW17002   2.533   2.625   2.159 -0.4059  0.4270  0.2412
 1848SOL    HW117003   2.483   2.706   2.158 -0.2608  0.5153  0.2641
 1848SOL    HW217004   2.466   2.564   2.192 -0.7231  0.0148 -1.1220
 1849SOL     OW17005   0.112   1.592   7.323  0.4005  0.3611 -0.0391
 1849SOL    HW117006   0.102   1.617   7.414 -0.8520 -2.8582  0.6919
 1849SOL    HW217007   0.056   1.656   7.279 -0.4643 -1.7863 -2.0851
 1850SOL     OW17008   1.503   0.564   5.283 -1.0021 -0.1037  0.1916
 1850SOL    HW117009   1.445   0.640   5.280  1.6193  1.9602  1.2051
 1850SOL    HW217010   1.447   0.492   5.310 -0.7159 -0.6478 -0.6728
 1851SOL     OW17011   1.558   2.986   0.107  0.3780 -0.1086 -0.2953
 1851SOL    HW117012   1.500   2.947   0.172  0.7369  0.9573  0.6694
 1851SOL    HW217013   1.500   3.014   0.037 -2.0311  1.9278  2.5218
 1852SOL     OW17014   3.933   3.517  16.325  0.0561  0.0611 -0.1015
 1852SOL    HW117015   3.871   3.450  16.297  2.2621 -2.1485  0.3212
 1852SOL    HW217016   4.013   3.466  16.322 -0.4135 -0.7126  0.6540
 1853SOL     OW17017   2.208   4.646   1.471  0.4257 -0.0619  0.5527
 1853SOL    HW117018   2.127   4.606   1.503  0.0792 -1.3545 -1.9794
 1853SOL    HW217019   2.195   0.015   1.476  0.0108  0.0310 -2.1868
 1854SOL     OW17020   3.897   2.870   8.596  0.1174 -0.3984  0.0082
 1854SOL    HW117021   3.867   2.898   8.682 -3.6259  0.4620 -1.5766
 1854SOL    HW217022   3.943   2.788   8.613  0.1533  0.1513  2.5151
 1855SOL     OW17023   4.040   2.469  13.316  0.2678  0.2423  0.5074
 1855SOL    HW117024   4.127   2.431  13.330 -1.1008 -2.1859  2.5751
 1855SOL    HW217025   4.001   2.412  13.250  0.4725  0.2273  0.3984
 1856SOL     OW17026   0.236   3.124  13.080 -0.2609 -0.9011 -0.1812
 1856SOL    HW117027   0.264   3.212  13.057 -2.6574  0.3696  1.8179
 1856SOL    HW217028   0.318   3.075  13.093 -0.7390 -1.7936 -0.5394
 1857SOL     OW17029   3.672   1.330  14.835 -0.3851 -0.3314 -0.0237
 1857SOL    HW117030   3.735   1.315  14.766 -0.0549  0.1936  0.1664
 1857SOL    HW217031   3.719   1.394  14.889 -2.1495  0.3988  0.6581
 1858SOL     OW17032   3.489   4.280   7.164 -0.0928 -0.2737 -0.3844
 1858SOL    HW117033   3.471   4.370   7.138  3.1445  1.2580  2.5872
 1858SOL    HW217034   3.432   4.227   7.109 -0.2084  1.8597 -2.3298
 1859SOL     OW17035   0.953   2.199   1.915  0.3287 -0.2750 -0.1605
 1859SOL    HW117036   0.894   2.130   1.945  0.3416  0.4714  1.6041
 1859SOL    HW217037   0.958   2.176   1.823 -1.5795  0.1318 -0.3600
 1860SOL     OW17038   1.705   3.802  16.004 -0.3567 -0.2725  0.0761
 1860SOL    HW117039   1.705   3.776  15.912  0.9768  0.4832 -0.1435
 1860SOL    HW217040   1.616   3.839  16.002 -0.6731 -0.9812  1.4578
 1861SOL     OW17041   2.879   3.799   4.880  0.3328  0.5647  0.7250
 1861SOL    HW117042   2.971   3.774   4.874 -0.1635 -0.8491 -1.1445
 1861SOL    HW217043   2.852   3.738   4.949  0.6814 -0.2728  0.1205
 1862SOL     OW17044   4.000   2.033  11.099  0.5489  0.5023 -0.6987
 1862SOL    HW117045   4.055   2.111  11.110 -2.2649  2.3060  0.6892
 1862SOL    HW217046   3.937   2.059  11.033  0.2929 -0.2485 -0.7506
 1863SOL     OW17047   1.359   2.985  16.700 -0.9328  0.3418 -0.2365
 1863SOL    HW117048   1.277   2.990  16.650 -2.7375 -1.1817  2.6031
 1863SOL    HW217049   1.426   3.005  16.634 -0.6422 -1.2241 -0.4051
 1864SOL     OW17050   0.963   2.621   2.722 -0.2929  0.4607  0.0233
 1864SOL    HW117051   0.940   2.528   2.722 -0.4637  0.5049  0.4215
 1864SOL    HW217052   0.895   2.652   2.663  2.5345 -0.0770 -3.5292
 1865SOL     OW17053   2.287   1.433  17.229  0.3074 -0.2101  0.0047
 1865SOL    HW117054   2.264   1.519  17.262 -0.0506 -0.4749  0.4444
 1865SOL    HW217055   2.208   1.405  17.182 -0.7482  1.6953  0.6604
 1866SOL     OW17056   3.197   2.325   6.121 -0.4626  0.7091 -0.0992
 1866SOL    HW117057   3.196   2.282   6.036 -0.6876 -0.7077  0.6198
 1866SOL    HW217058   3.179   2.418   6.111 -1.1884  0.3399 -2.1147
 1867SOL     OW17059   2.871   4.516   2.122 -0.4513 -0.3382  0.0743
 1867SOL    HW117060   2.902   4.571   2.195 -0.6284 -2.4061  1.7156
 1867SOL    HW217061   2.845   4.593   2.071  1.6518 -0.7638 -1.6319
 1868SOL     OW17062   0.671   2.165  16.364  0.3419  0.7566  0.0240
 1868SOL    HW117063   0.591   2.142  16.411 -0.1783  0.1128 -1.1555
 1868SOL    HW217064   0.700   2.076  16.340 -1.6933  0.8981 -2.9948
 1869SOL     OW17065   2.274   3.869  14.070 -0.1828 -0.2563  0.2713
 1869SOL    HW117066   2.274   3.920  13.989  2.1184 -1.0543 -0.2101
 1869SOL    HW217067   2.310   3.927  14.137 -0.3632  1.0049 -0.7251
 1870SOL     OW17068   4.302   4.341  16.200 -0.0348  0.3072  0.2826
 1870SOL    HW117069   4.355   4.300  16.131 -1.7077 -1.1828 -0.1214
 1870SOL    HW217070   4.227   4.282  16.201  0.8342 -0.7968  0.3907
 1871SOL     OW17071   4.283   0.478   8.435 -0.3121  0.2647 -0.4764
 1871SOL    HW117072   4.251   0.552   8.486  3.0522  0.0580  1.9572
 1871SOL    HW217073   4.321   0.420   8.501 -0.4813  2.4591  1.5160
 1872SOL     OW17074   3.239   3.271  13.661 -0.5941  0.8515  0.2478
 1872SOL    HW117075   3.310   3.284  13.723 -0.4629  1.3624 -0.0034
 1872SOL    HW217076   3.164   3.238  13.711 -0.5123 -0.1642 -0.2930
 1873SOL     OW17077   3.981   4.202   2.052  0.1725 -0.6051  0.3742
 1873SOL    HW117078   3.967   4.137   1.984 -1.5861  1.1679 -0.9224
 1873SOL    HW217079   3.972   4.149   2.131 -1.4244  1.7829  1.7894
 1874SOL     OW17080   0.062   1.777   5.320  0.8475  0.3236 -0.4352
 1874SOL    HW117081   0.039   1.725   5.398  0.1830  2.0107  0.4936
 1874SOL    HW217082   0.139   1.828   5.346  2.4370 -1.0481 -2.4271
 1875SOL     OW17083   2.155   4.707   8.114  0.1083  0.4907 -0.0980
 1875SOL    HW117084   2.231   4.696   8.170 -0.0795 -0.6257 -0.0692
 1875SOL    HW217085   2.179   0.050   8.053  0.5582  0.5503  0.1495
 1876SOL     OW17086   0.246   0.405  16.478 -0.3860 -0.2363 -0.0819
 1876SOL    HW117087   0.194   0.418  16.399  1.7791  2.1695 -1.0996
 1876SOL    HW217088   0.216   0.319  16.510  1.8538  0.1524  3.1066
 1877SOL     OW17089   1.725   2.528  11.242 -0.5009  0.1792 -0.2769
 1877SOL    HW117090   1.813   2.532  11.280 -2.4092  1.3233  4.0385
 1877SOL    HW217091   1.701   2.439  11.271 -0.0814 -0.3956 -1.7114
 1878SOL     OW17092   4.340   1.448   4.137 -0.1692  0.0344 -0.3035
 1878SOL    HW117093   4.380   1.436   4.223  0.2049  1.2676 -0.3183
 1878SOL    HW217094   4.252   1.478   4.161 -0.0204 -0.8925  1.4451
 1879SOL     OW17095   1.710   4.557   6.308  0.7087 -0.3305  0.0927
 1879SOL    HW117096   1.746   4.494   6.370  2.0578  0.8795  0.5679
 1879SOL    HW217097   1.779   4.576   6.244  1.5055 -1.4646  0.6264
 1880SOL     OW17098   1.190   4.621   1.718  0.7102 -0.3069 -0.4245
 1880SOL    HW117099   1.210   4.538   1.675  0.0913 -0.7653  0.1758
 1880SOL    HW217100   1.120   4.649   1.658  0.3472  2.2329  1.1732
 1881SOL     OW17101   3.064   2.299  14.526  0.2838  0.4822 -0.3106
 1881SOL    HW117102   3.118   2.349  14.466  0.5633  0.0158 -0.4442
 1881SOL    HW217103   3.132   2.279  14.591  1.1781 -1.7028 -1.9315
 1882SOL     OW17104   0.474   4.009  13.444 -0.2667 -0.0152  0.0678
 1882SOL    HW117105   0.475   4.089  13.392  0.9882 -0.5620 -0.7598
 1882SOL    HW217106   0.390   4.017  13.489 -0.7731  1.1436 -1.0700
 1883SOL     OW17107   4.107   2.051   3.499  0.1056 -0.2228  0.2095
 1883SOL    HW117108   4.107   2.046   3.404 -1.0149 -1.2181  0.2511
 1883SOL    HW217109   4.092   2.143   3.522  0.1356  0.1853 -1.4348
 1884SOL     OW17110   3.304   0.358  16.055  0.4194  0.2513 -0.0884
 1884SOL    HW117111   3.315   0.445  16.016 -0.5646 -0.8760 -2.9341
 1884SOL    HW217112   3.343   0.303  15.986 -1.1980 -0.4480 -0.4329
 1885SOL     OW17113   2.567   1.447   9.085  0.4952 -0.0758  0.6124
 1885SOL    HW117114   2.581   1.355   9.108  1.4593 -0.0790 -0.0018
 1885SOL    HW217115   2.651   1.485   9.113 -0.1423  0.8623  1.2526
 1886SOL     OW17116   4.616   0.628  13.236 -0.4329  0.2788 -0.1318
 1886SOL    HW117117   4.558   0.649  13.310  0.3639  2.0420 -0.0002
 1886SOL    HW217118   4.700   0.665  13.263 -1.2801  1.9099  0.2918
 1887SOL     OW17119   0.091   3.142  12.096  0.0757  0.5629  0.2535
 1887SOL    HW117120   0.124   3.232  12.097 -0.0214  0.5443  3.4888
 1887SOL    HW217121   0.136   3.094  12.025  1.6203  1.2814  0.7402
 1888SOL     OW17122   4.199   0.491   1.843  0.8155  0.3843  0.2010
 1888SOL    HW117123   4.214   0.584   1.831 -0.4903  1.1648  4.6238
 1888SOL    HW217124   4.185   0.469   1.751 -0.9014  0.3043  0.4827
 1889SOL     OW17125   1.625   2.325   1.923  0.5815 -0.4662 -0.1394
 1889SOL    HW117126   1.553   2.352   1.867  1.5254  0.1053 -1.0663
 1889SOL    HW217127   1.597   2.236   1.947  0.6788 -0.2438  0.8178
 1890SOL     OW17128   2.450   0.932   6.989 -0.6372  0.3080 -0.2526
 1890SOL    HW117129   2.411   1.008   6.945  0.3542  1.7510  1.3341
 1890SOL    HW217130   2.392   0.921   7.065 -1.3478  0.8322 -0.7185
 1891SOL     OW17131   2.691   4.196   8.103  0.0620  0.1648 -0.7301
 1891SOL    HW117132   2.690   4.291   8.092  0.1204  0.4760  2.0494
 1891SOL    HW217133   2.786   4.187   8.108  0.0685 -1.4732 -3.8156
 1892SOL     OW17134   4.299   2.350   1.734 -0.1076  0.3503  0.2295
 1892SOL    HW117135   4.342   2.436   1.729  0.3494 -0.0006 -1.9391
 1892SOL    HW217136   4.252   2.348   1.651 -0.4262  0.3630  0.4121
 1893SOL     OW17137   3.298   2.843   9.192 -0.5883 -0.0956 -0.5276
 1893SOL    HW117138   3.215   2.800   9.211 -0.8236  0.9692  0.8794
 1893SOL    HW217139   3.285   2.846   9.097  2.3992 -0.4069 -0.9467
 1894SOL     OW17140   3.178   1.861   5.710  0.4013  1.0312 -0.2688
 1894SOL    HW117141   3.164   1.857   5.805  0.5850  2.1353 -0.1951
 1894SOL    HW217142   3.201   1.768   5.698 -0.7438  0.5349  1.2832
 1895SOL     OW17143   3.088   4.385   3.151  0.3622 -0.0752  0.0884
 1895SOL    HW117144   3.107   4.432   3.070  1.8660  0.4787  0.7622
 1895SOL    HW217145   3.029   4.314   3.127  0.6691 -0.5606  0.7685
 1896SOL     OW17146   0.536   3.131   7.633  1.1727 -0.3443 -0.4343
 1896SOL    HW117147   0.600   3.202   7.631  1.4626 -0.6405 -2.1360
 1896SOL    HW217148   0.563   3.091   7.715  0.9124  1.4056  0.5247
 1897SOL     OW17149   2.250   1.210  10.008  0.2089  0.2910 -0.6352
 1897SOL    HW117150   2.273   1.302  10.013 -2.8435  1.1735 -2.8779
 1897SOL    HW217151   2.257   1.198   9.913 -2.1502 -1.4847 -0.5956
 1898SOL     OW17152   0.986   4.291   6.778  0.1424  0.2677 -0.4557
 1898SOL    HW117153   1.041   4.331   6.846 -2.0061 -0.8106  1.9378
 1898SOL    HW217154   0.994   4.200   6.807 -0.4276  0.7954  1.3500
 1899SOL     OW17155   0.592   4.484   6.989 -0.6898  0.1894 -0.8170
 1899SOL    HW117156   0.637   4.568   6.999  1.8622 -0.8838 -3.1254
 1899SOL    HW217157   0.516   4.507   6.936 -1.5102 -2.4016 -0.7877
 1900SOL     OW17158   3.165   0.385   7.375 -0.4329 -0.2979 -0.5988
 1900SOL    HW117159   3.074   0.357   7.386 -0.7259  0.4782 -1.0486
 1900SOL    HW217160   3.185   0.375   7.468 -0.8226 -0.5752 -0.5433
 1901SOL     OW17161   3.129   4.378   0.849 -0.0203 -0.7035 -0.0380
 1901SOL    HW117162   3.107   4.285   0.857  0.9988 -0.9287  0.0524
 1901SOL    HW217163   3.135   4.395   0.943 -0.9344  0.8916 -0.2627
 1902SOL     OW17164   1.433   1.022   1.195 -0.6929  0.2798 -0.5524
 1902SOL    HW117165   1.358   1.026   1.136 -0.4636  2.3283 -0.7173
 1902SOL    HW217166   1.438   1.103   1.245 -1.8503 -0.5060  0.8200
 1903SOL     OW17167   0.864   2.708   0.941 -0.2192 -0.2300  0.6034
 1903SOL    HW117168   0.927   2.653   0.895 -0.5837 -1.6911  1.8503
 1903SOL    HW217169   0.796   2.642   0.957  0.4624 -0.7123  1.5306
 1904SOL     OW17170   4.128   1.606   3.602  0.4009  0.3987  0.4167
 1904SOL    HW117171   4.048   1.617   3.549 -0.2654  0.9610  1.5369
 1904SOL    HW217172   4.135   1.690   3.647 -4.8970  0.1154  1.7632
 1905SOL     OW17173   1.644   4.306   2.268 -0.1754  0.3193 -0.7987
 1905SOL    HW117174   1.592   4.246   2.322 -1.6514  1.5952 -0.8043
 1905SOL    HW217175   1.712   4.245   2.239 -0.9846 -1.1543  0.3627
 1906SOL     OW17176   2.067   3.861   4.731  0.1444 -0.1321 -0.3232
 1906SOL    HW117177   2.108   3.783   4.695 -1.3441 -0.5109 -1.1806
 1906SOL    HW217178   2.075   3.926   4.661  0.9147  2.6620  2.3417
 1907SOL     OW17179   1.615   0.552  10.594 -0.2159  0.3481 -0.0848
 1907SOL    HW117180   1.710   0.557  10.585 -0.3496  1.4679 -0.8611
 1907SOL    HW217181   1.594   0.547  10.501 -2.5723  0.8999  0.4082
 1908SOL     OW17182   1.238   3.178   4.606  0.0855  0.1054  0.3645
 1908SOL    HW117183   1.225   3.182   4.701 -0.1357 -1.8827  0.4335
 1908SOL    HW217184   1.325   3.214   4.589 -0.2039 -0.0043 -1.3469
 1909SOL     OW17185   0.014   3.932  15.604  0.8682  0.2930  0.0746
 1909SOL    HW117186   0.011   3.920  15.509  0.2329 -0.5799  0.2100
 1909SOL    HW217187   4.715   4.024  15.607 -0.0034 -0.0459  2.4653
 1910SOL     OW17188   0.055   2.743   6.878 -0.2640  0.0707 -0.6300
 1910SOL    HW117189   0.067   2.650   6.897  0.4270  0.3171  0.1408
 1910SOL    HW217190   4.725   2.773   6.949  2.6405  3.3103  0.3271
 1911SOL     OW17191   2.746   2.256   3.630 -0.3053 -0.5533 -0.1254
 1911SOL    HW117192   2.714   2.240   3.719 -0.2704 -1.7374 -0.3297
 1911SOL    HW217193   2.823   2.199   3.633 -0.6523 -0.9177  1.9847
 1912SOL     OW17194   0.604   3.964  12.483 -0.2048  0.7874  0.8070
 1912SOL    HW117195   0.598   4.060  12.486  0.4553  0.8377  0.5168
 1912SOL    HW217196   0.625   3.932  12.570  1.7238  2.3750  0.9423
 1913SOL     OW17197   1.435   3.534   3.092 -0.6630  0.8287 -0.6011
 1913SOL    HW117198   1.517   3.490   3.113 -0.4093  3.2608  3.3223
 1913SOL    HW217199   1.451   3.628   3.087  0.9519  0.4669 -2.2768
 1914SOL     OW17200   2.000   1.845   3.984  0.1513 -0.0682  0.1511
 1914SOL    HW117201   2.009   1.773   4.046  3.2142 -0.5082 -0.7792
 1914SOL    HW217202   1.992   1.796   3.901  1.0583  0.0199  0.0144
 1915SOL     OW17203   2.825   3.354   9.518 -0.4550  0.0294  0.4608
 1915SOL    HW117204   2.841   3.443   9.552 -0.4250 -0.3378  1.4006
 1915SOL    HW217205   2.908   3.329   9.476  0.0474 -0.6222  1.8301
 1916SOL     OW17206   2.587   4.644   3.730  0.0713 -0.2699  0.2613
 1916SOL    HW117207   2.524   4.677   3.795 -2.2713 -1.9672 -1.1453
 1916SOL    HW217208   2.649   4.603   3.790  0.7650  0.5926  0.1268
 1917SOL     OW17209   0.231   0.326   6.321  0.5516 -0.1532 -0.1954
 1917SOL    HW117210   0.222   0.385   6.396 -1.3382 -0.4001 -0.2250
 1917SOL    HW217211   0.263   0.388   6.255  0.9295 -0.2748 -0.1243
 1918SOL     OW17212   1.381   3.456   6.286 -0.2738 -0.3802  0.2405
 1918SOL    HW117213   1.289   3.458   6.313 -0.5790 -1.1775 -0.7455
 1918SOL    HW217214   1.374   3.536   6.233 -2.8695 -0.3214  0.6492
 1919SOL     OW17215   1.383   4.087   1.699  0.3332  0.0110  0.0112
 1919SOL    HW117216   1.413   4.047   1.781  0.1810  0.8640  0.4911
 1919SOL    HW217217   1.326   4.021   1.661  1.0387  0.8368 -2.4620
 1920SOL     OW17218   2.719   2.930   8.067  0.3349 -0.2022  0.0404
 1920SOL    HW117219   2.765   2.848   8.050  2.3794  0.8715  0.4476
 1920SOL    HW217220   2.730   2.955   8.158 -1.9224 -3.0470  1.1094
 1921SOL     OW17221   1.613   0.096   4.112 -0.4774 -0.3782  0.1737
 1921SOL    HW117222   1.629   0.044   4.033  3.3577  1.6812 -0.4379
 1921SOL    HW217223   1.544   0.160   4.094 -0.5014  0.1132  2.0134
 1922SOL     OW17224   0.365   1.838   8.137 -0.1410  0.2468 -0.5190
 1922SOL    HW117225   0.453   1.802   8.125 -0.1737 -0.1616  0.5011
 1922SOL    HW217226   0.355   1.871   8.048 -1.3332  0.9743 -0.1113
 1923SOL     OW17227   1.373   0.900   9.982  0.1221 -0.3205  0.1489
 1923SOL    HW117228   1.290   0.862  10.010 -0.3960 -0.7482 -2.0009
 1923SOL    HW217229   1.418   0.818   9.962  2.4252  1.1205 -0.6690
 1924SOL     OW17230   2.085   0.977   9.719 -0.0000 -0.2001 -0.2154
 1924SOL    HW117231   2.016   0.986   9.784 -0.7885 -1.8745 -0.8295
 1924SOL    HW217232   2.047   0.917   9.654 -0.0358 -1.6195  1.1220
 1925SOL     OW17233   3.209   2.851   6.746 -0.2588  0.4173  0.0073
 1925SOL    HW117234   3.250   2.902   6.815 -0.7246 -1.9510  2.0506
 1925SOL    HW217235   3.176   2.775   6.795  2.8968 -1.1123 -0.2273
 1926SOL     OW17236   2.484   4.565   1.976  0.4035 -0.3530 -0.3544
 1926SOL    HW117237   2.423   4.553   1.903 -0.2818  3.1895 -0.3403
 1926SOL    HW217238   2.545   4.493   1.958 -0.6472 -1.7339  1.6789
 1927SOL     OW17239   0.006   2.300  12.185  0.9564  0.1062 -0.2124
 1927SOL    HW117240   0.076   2.355  12.149 -0.5363  3.2983  1.7048
 1927SOL    HW217241   0.056   2.266  12.260 -2.9305 -0.5867  2.0489
 1928SOL     OW17242   0.617   0.388   3.429 -0.2491 -0.7582 -0.8255
 1928SOL    HW117243   0.652   0.347   3.508 -2.7671 -1.0018  0.1659
 1928SOL    HW217244   0.558   0.452   3.468  2.8779  0.5149  1.8140
 1929SOL     OW17245   0.534   3.163   5.111  0.1769  0.2850  0.3941
 1929SOL    HW117246   0.594   3.107   5.062  2.2365  1.3623  1.6900
 1929SOL    HW217247   0.576   3.249   5.113  0.4062  0.1545  1.1601
 1930SOL     OW17248   4.008   2.200   7.607  0.1650 -0.3526 -0.3949
 1930SOL    HW117249   3.986   2.292   7.589  2.3159  0.1477 -0.5825
 1930SOL    HW217250   3.927   2.154   7.586 -0.5035  1.2883 -1.4570
 1931SOL     OW17251   4.187   2.628   7.596  0.1198 -0.0608 -0.2471
 1931SOL    HW117252   4.118   2.561   7.603 -0.5162  0.7029  0.7772
 1931SOL    HW217253   4.254   2.585   7.649  1.5742  1.3835 -0.9179
 1932SOL     OW17254   4.040   2.294   7.065  0.2192 -0.4244 -0.1892
 1932SOL    HW117255   4.096   2.359   7.108  0.0861  0.7413 -1.7446
 1932SOL    HW217256   4.048   2.328   6.976 -0.3481 -0.5292 -0.2797
 1933SOL     OW17257   4.059   0.500   3.135 -0.1161 -0.2513 -0.0743
 1933SOL    HW117258   4.014   0.493   3.219 -0.0531  0.6482  0.0298
 1933SOL    HW217259   4.023   0.584   3.108 -1.4906 -0.6892  0.4440
 1934SOL     OW17260   1.108   0.400   7.611 -0.5544 -0.3362  0.6351
 1934SOL    HW117261   1.040   0.466   7.599 -0.1559  0.3090  2.0159
 1934SOL    HW217262   1.184   0.452   7.587 -0.2625 -1.3107 -0.5675
 1935SOL     OW17263   4.132   4.680   0.123  0.8514 -0.1676  0.4602
 1935SOL    HW117264   4.066   4.613   0.108 -1.2380  2.2322 -0.9767
 1935SOL    HW217265   4.190   4.640   0.058  2.0899 -0.3762  1.6923
 1936SOL     OW17266   3.720   3.580   7.050 -0.0461  0.1842  0.4319
 1936SOL    HW117267   3.801   3.570   7.099  1.1169 -1.9918 -1.9386
 1936SOL    HW217268   3.740   3.647   6.985  0.3764  0.8783  1.2824
 1937SOL     OW17269   2.614   1.697   9.737 -0.7031  0.3279  0.3697
 1937SOL    HW117270   2.552   1.660   9.800 -1.7377  1.2310 -0.1218
 1937SOL    HW217271   2.554   1.723   9.668  0.2635 -1.1742 -1.0473
 1938SOL     OW17272   4.416   3.928  12.365 -0.5410 -0.3397 -0.3007
 1938SOL    HW117273   4.507   3.912  12.391 -1.0851  0.3863  1.9800
 1938SOL    HW217274   4.401   3.863  12.296  0.8268 -0.1563 -0.7760
 1939SOL     OW17275   1.303   3.016   7.747 -0.2729 -0.9504  0.1243
 1939SOL    HW117276   1.354   2.961   7.687  0.0402 -1.7497  1.1271
 1939SOL    HW217277   1.219   3.023   7.702  0.9389  0.4753 -1.9734
 1940SOL     OW17278   3.537   0.635   5.558 -1.0308  0.7533  0.1469
 1940SOL    HW117279   3.462   0.582   5.584 -0.2106 -0.0700  0.8026
 1940SOL    HW217280   3.594   0.608   5.630 -3.1214  0.4278  1.6887
 1941SOL     OW17281   2.987   4.144  15.169 -0.3678 -0.0072 -0.3407
 1941SOL    HW117282   2.976   4.050  15.182  0.6071 -0.2562 -1.3624
 1941SOL    HW217283   2.902   4.171  15.134  0.1329  0.0335 -1.5186
 1942SOL     OW17284   2.483   0.005   2.181 -0.1837  0.5621  0.5765
 1942SOL    HW117285   2.435   4.684   2.248 -0.9511  0.3356 -0.1428
 1942SOL    HW217286   2.488   4.668   2.110  1.3389  0.3099  0.9043
 1943SOL     OW17287   3.869   2.223   3.352 -0.2048  0.0345 -0.4189
 1943SOL    HW117288   3.873   2.194   3.443  1.7918 -0.2327 -0.5911
 1943SOL    HW217289   3.795   2.171   3.321 -0.1457 -0.4411  0.2352
 1944SOL     OW17290   3.831   0.989   8.433  0.4468 -0.4566  0.0995
 1944SOL    HW117291   3.849   0.911   8.485 -0.2183 -1.2200 -0.8228
 1944SOL    HW217292   3.736   0.991   8.422  0.5392  0.1550 -0.5752
 1945SOL     OW17293   4.455   1.523   6.594 -0.3857 -0.1854  0.2031
 1945SOL    HW117294   4.418   1.593   6.647  0.1070  0.0394  0.2487
 1945SOL    HW217295   4.377   1.476   6.564 -1.0553  1.1257 -0.0838
 1946SOL     OW17296   0.982   2.747   2.951 -0.1255  0.3288 -0.2523
 1946SOL    HW117297   1.014   2.665   2.989  1.2902  0.1597 -1.7552
 1946SOL    HW217298   0.972   2.709   2.864  1.5175  1.3288 -0.8851
 1947SOL     OW17299   1.174   3.237   4.853 -0.4620 -0.2678 -0.1083
 1947SOL    HW117300   1.153   3.329   4.870  1.1179  0.1614 -0.5148
 1947SOL    HW217301   1.211   3.212   4.937  0.5980 -3.8459 -1.6475
 1948SOL     OW17302   1.720   1.065   1.330  0.0970 -0.3748 -0.3428
 1948SOL    HW117303   1.739   1.097   1.242 -0.2217  0.2807 -0.1740
 1948SOL    HW217304   1.653   1.127   1.359 -0.6527 -0.6931 -1.3985
 1949SOL     OW17305   3.333   4.065  11.075  0.1118  0.2927  0.1230
 1949SOL    HW117306   3.407   4.125  11.062  2.1519 -2.1822  0.3186
 1949SOL    HW217307   3.302   4.075  11.165 -1.1538  1.2990 -0.4285
 1950SOL     OW17308   2.811   0.471   2.441 -0.4516  0.0324  0.4327
 1950SOL    HW117309   2.837   0.561   2.424 -0.6712  0.0255  0.0746
 1950SOL    HW217310   2.813   0.469   2.537 -1.9632  1.0204  0.4882
 1951SOL     OW17311   0.003   4.550   3.126  0.7237  0.2654 -0.2362
 1951SOL    HW117312   4.685   4.635   3.131  3.7700  1.8448 -0.2188
 1951SOL    HW217313   0.009   4.532   3.219  1.5681 -0.1376 -0.3709
 1952SOL     OW17314   4.647   4.186  15.612  0.3136 -0.2414  0.3638
 1952SOL    HW117315   4.679   4.274  15.588  2.4414 -1.5799 -1.7349
 1952SOL    HW217316   4.553   4.190  15.629  0.7953  4.1462  2.1040
 1953SOL     OW17317   1.211   0.352   4.165 -0.6522 -0.2204 -0.5780
 1953SOL    HW117318   1.160   0.271   4.166  0.7999 -1.1205  0.4240
 1953SOL    HW217319   1.206   0.392   4.252  0.0557 -2.1482  0.3424
 1954SOL     OW17320   4.150   2.150   4.505  0.3897  0.4939 -0.0689
 1954SOL    HW117321   4.078   2.178   4.449 -0.8588  0.3054  1.4471
 1954SOL    HW217322   4.108   2.101   4.576 -1.2611  0.2641 -1.1966
 1955SOL     OW17323   0.991   2.193   6.204 -0.5289  0.1970 -0.0311
 1955SOL    HW117324   1.030   2.248   6.271 -0.3282 -0.8935  0.7483
 1955SOL    HW217325   0.972   2.262   6.141  0.1388  0.6340  0.2547
 1956SOL     OW17326   3.106   3.977   3.217 -0.3519 -0.0210  0.3083
 1956SOL    HW117327   3.071   4.033   3.148 -1.1236 -0.3338  0.4451
 1956SOL    HW217328   3.172   4.038   3.250  0.6175 -0.1942 -1.3344
 1957SOL     OW17329   3.583   2.706   5.578  0.1666 -0.3306 -0.3843
 1957SOL    HW117330   3.609   2.715   5.670 -1.9333 -0.8009  0.2534
 1957SOL    HW217331   3.552   2.615   5.573 -1.8242  0.1624  2.9696
 1958SOL     OW17332   3.187   2.866  13.993 -0.0744  0.0256 -0.1122
 1958SOL    HW117333   3.139   2.927  13.937  2.0917  1.3398 -0.5625
 1958SOL    HW217334   3.278   2.870  13.964 -0.5588 -0.9205 -1.7496
 1959SOL     OW17335   0.220   0.785   4.775  0.5625  0.1877  0.2760
 1959SOL    HW117336   0.146   0.800   4.715  0.5085 -0.4247  0.1830
 1959SOL    HW217337   0.184   0.748   4.856  2.9686  0.0082  1.2461
 1960SOL     OW17338   2.772   4.027   6.662  0.3146  0.4950 -0.0305
 1960SOL    HW117339   2.816   4.112   6.655  2.2659 -0.5702 -0.9683
 1960SOL    HW217340   2.852   3.974   6.654 -0.4455 -1.1699  3.6260
 1961SOL     OW17341   2.888   0.502   2.146 -0.3459  0.1340  0.3228
 1961SOL    HW117342   2.820   0.472   2.206 -0.9937  0.8342 -0.0622
 1961SOL    HW217343   2.910   0.424   2.096 -1.1065 -1.2153  2.0976
 1962SOL     OW17344   2.681   1.033   8.100  0.1170 -0.1621 -0.0296
 1962SOL    HW117345   2.590   1.007   8.112 -0.0756  1.1159  1.2224
 1962SOL    HW217346   2.721   0.949   8.077 -0.0833 -0.3031  0.1498
 1963SOL     OW17347   1.653   2.046   1.658  0.2332  0.4060  0.7372
 1963SOL    HW117348   1.679   2.133   1.628 -0.8328 -0.1815 -1.8650
 1963SOL    HW217349   1.728   2.026   1.714 -0.7472  0.6347  2.1313
 1964SOL     OW17350   3.047   3.010   0.782 -0.3792 -0.4977  0.3345
 1964SOL    HW117351   3.066   3.102   0.798 -1.6684 -0.3447  0.9841
 1964SOL    HW217352   3.132   2.986   0.819  1.0749  2.9962 -0.7249
 1965SOL     OW17353   2.233   1.627   8.654  0.0921 -0.5627 -0.2301
 1965SOL    HW117354   2.284   1.560   8.608 -0.0587 -1.4067  0.8318
 1965SOL    HW217355   2.146   1.589   8.640  0.2164 -0.3087 -1.6895
 1966SOL     OW17356   1.340   2.818   2.869  0.2441 -0.3743 -0.1282
 1966SOL    HW117357   1.307   2.796   2.782  1.2586  1.6726 -1.0246
 1966SOL    HW217358   1.300   2.903   2.887 -0.5802 -0.6712 -0.5629
 1967SOL     OW17359   1.236   0.783  12.190 -0.0106  0.3347 -0.1901
 1967SOL    HW117360   1.154   0.747  12.224 -0.4524  0.6797 -0.9028
 1967SOL    HW217361   1.298   0.718  12.225  1.2363  0.1529 -2.7231
 1968SOL     OW17362   0.654   0.946   4.014 -0.3756 -0.3389 -0.2250
 1968SOL    HW117363   0.646   0.869   4.072  3.7270 -0.1054  0.5922
 1968SOL    HW217364   0.731   0.912   3.969 -0.0669 -0.4237  0.3579
 1969SOL     OW17365   2.818   0.783   2.849  0.0071 -0.3333  0.5701
 1969SOL    HW117366   2.867   0.854   2.891 -1.9029 -0.2232  2.5572
 1969SOL    HW217367   2.886   0.717   2.830 -0.3068 -0.2959 -0.7157
 1970SOL     OW17368   0.882   2.450   2.034  0.5667 -0.6811 -0.0876
 1970SOL    HW117369   0.862   2.378   1.973  1.3063 -0.9703  0.0114
 1970SOL    HW217370   0.827   2.429   2.109  1.1050 -0.2808  0.4178
 1971SOL     OW17371   3.871   1.868   6.175  0.6947  0.0081 -0.5224
 1971SOL    HW117372   3.899   1.932   6.110 -0.4692  1.8948  0.8022
 1971SOL    HW217373   3.776   1.875   6.163  1.1763  2.0376 -3.0051
 1972SOL     OW17374   1.350   1.816   6.705  0.4505  0.3485 -0.0179
 1972SOL    HW117375   1.422   1.767   6.665 -0.7311  0.4105 -2.1754
 1972SOL    HW217376   1.338   1.879   6.634 -1.9273  0.3224  0.3847
 1973SOL     OW17377   3.841   1.271   4.226 -0.6353 -0.5383 -0.5600
 1973SOL    HW117378   3.859   1.339   4.291 -0.8033  1.0983 -2.2111
 1973SOL    HW217379   3.758   1.236   4.259  0.5294 -1.3020  1.5306
 1974SOL     OW17380   2.880   1.712   9.629 -0.4565  0.2069 -0.2799
 1974SOL    HW117381   2.790   1.721   9.662 -0.4827  2.4588 -0.9855
 1974SOL    HW217382   2.934   1.748   9.699 -1.0353  1.9111 -0.7189
 1975SOL     OW17383   4.589   3.953   6.560 -0.2987 -0.4628  0.0041
 1975SOL    HW117384   4.535   3.878   6.537  1.3687 -2.0847  1.4507
 1975SOL    HW217385   4.674   3.909   6.562 -0.6259 -1.1003 -0.3450
 1976SOL     OW17386   1.346   3.485   1.049 -0.3041  0.7892  0.1424
 1976SOL    HW117387   1.354   3.396   1.081 -0.5334  0.6373 -0.2282
 1976SOL    HW217388   1.436   3.518   1.049 -0.8333  2.2129 -2.9158
 1977SOL     OW17389   0.120   1.668   1.775 -0.2138 -0.5593  0.2099
 1977SOL    HW117390   0.202   1.644   1.731  0.7335  0.1282  1.6081
 1977SOL    HW217391   0.101   1.590   1.827 -1.4785 -1.5949 -1.7946
 1978SOL     OW17392   2.912   2.124   4.657  0.6139  0.2066 -0.5434
 1978SOL    HW117393   2.846   2.150   4.721 -1.4904 -1.1664 -2.1759
 1978SOL    HW217394   2.931   2.202   4.605  1.8306  0.2240 -0.0737
 1979SOL     OW17395   2.349   0.573   3.324 -0.4156 -0.6750  0.5152
 1979SOL    HW117396   2.353   0.593   3.231 -2.1987 -2.8605 -0.0101
 1979SOL    HW217397   2.400   0.646   3.361  0.9264 -0.4612 -1.7374
 1980SOL     OW17398   0.778   2.219   5.176 -0.0749  0.3197 -0.3442
 1980SOL    HW117399   0.854   2.192   5.125  0.4011  0.1872  0.4220
 1980SOL    HW217400   0.726   2.246   5.101  0.1618  1.8763  0.0651
 1981SOL     OW17401   4.615   1.298   8.727 -0.2126 -0.3828 -0.2786
 1981SOL    HW117402   4.620   1.252   8.811  1.4102 -0.5192 -0.4349
 1981SOL    HW217403   4.647   1.382   8.759  0.8433 -0.8432 -0.1048
 1982SOL     OW17404   1.784   3.894   0.709 -0.0723  0.5292 -0.2442
 1982SOL    HW117405   1.873   3.928   0.718  0.3444 -1.1380  1.9267
 1982SOL    HW217406   1.807   3.810   0.668 -2.4643 -1.5068  2.5988
 1983SOL     OW17407   0.861   1.432  16.338 -0.5574 -0.1485 -0.0923
 1983SOL    HW117408   0.929   1.450  16.273  0.0083  1.0964  0.8378
 1983SOL    HW217409   0.911   1.370  16.392 -1.1077 -1.2995 -0.9058
 1984SOL     OW17410   1.510   3.374   2.129  0.3613  0.2729 -0.4795
 1984SOL    HW117411   1.491   3.403   2.040  0.8065  1.0921 -0.3157
 1984SOL    HW217412   1.564   3.297   2.111 -2.2897 -1.9819  1.2712
 1985SOL     OW17413   4.111   3.237  12.824  0.5487 -0.1723 -0.2380
 1985SOL    HW117414   4.050   3.246  12.898  1.3115 -0.5504  0.4250
 1985SOL    HW217415   4.195   3.222  12.866  0.6626 -2.3117 -1.2494
 1986SOL     OW17416   3.937   2.554   1.836  0.4549  0.1899  0.3248
 1986SOL    HW117417   4.012   2.610   1.857  0.1000  0.5786  0.5586
 1986SOL    HW217418   3.869   2.614   1.806 -1.7868 -1.1498  2.6991
 1987SOL     OW17419   1.860   0.668   8.728  0.4815 -0.0797  0.1355
 1987SOL    HW117420   1.769   0.645   8.747  0.5640  1.0002  1.7688
 1987SOL    HW217421   1.907   0.609   8.786  1.5243 -1.0152 -1.6682
 1988SOL     OW17422   0.397   3.472   5.992  0.1139  0.4269  0.0088
 1988SOL    HW117423   0.482   3.438   5.965  0.6501  2.5197 -0.9026
 1988SOL    HW217424   0.358   3.410   6.055  1.6352  1.1557  1.6710
 1989SOL     OW17425   1.906   2.579   6.867  0.0630  0.5160 -0.5667
 1989SOL    HW117426   1.963   2.655   6.883  1.3728 -0.6555  0.3575
 1989SOL    HW217427   1.957   2.507   6.904 -0.2378  0.0090 -1.1381
 1990SOL     OW17428   1.183   2.614   7.510 -0.3296  0.1467  0.4399
 1990SOL    HW117429   1.178   2.703   7.476  2.1766  1.1707  2.7471
 1990SOL    HW217430   1.261   2.580   7.468  0.1214 -1.4855  2.5902
 1991SOL     OW17431   1.798   1.298   3.775 -0.5941 -0.9650  0.3288
 1991SOL    HW117432   1.795   1.340   3.689  1.1631 -0.4405  0.5138
 1991SOL    HW217433   1.719   1.244   3.774 -0.7572 -0.6908 -1.3485
 1992SOL     OW17434   1.497   0.183   5.084  0.9259 -0.7813  0.1137
 1992SOL    HW117435   1.457   0.096   5.074 -1.5810  0.4387 -0.3855
 1992SOL    HW217436   1.423   0.241   5.070  1.9226  0.0226 -1.7558
 1993SOL     OW17437   0.904   0.010   7.283  0.7770 -0.0920  0.5177
 1993SOL    HW117438   0.971   0.057   7.333 -0.4091  1.2412  0.8301
 1993SOL    HW217439   0.826   0.064   7.288  1.3607  0.7613  0.3454
 1994SOL     OW17440   1.446   3.427   0.322  0.1622 -0.2094 -0.7263
 1994SOL    HW117441   1.488   3.357   0.271  0.6127 -1.1643  0.9503
 1994SOL    HW217442   1.516   3.491   0.319 -0.3905  0.3609 -1.4619
 1995SOL     OW17443   0.392   3.597   2.919 -0.2595  0.1440 -0.1582
 1995SOL    HW117444   0.356   3.547   2.845  1.6948 -0.0914 -0.9450
 1995SOL    HW217445   0.450   3.657   2.873 -0.3960  0.3443 -0.0711
 1996SOL     OW17446   2.182   3.502   5.525 -0.0303 -0.1617 -0.1115
 1996SOL    HW117447   2.233   3.446   5.466  1.9312 -1.8284  3.1848
 1996SOL    HW217448   2.158   3.574   5.467 -0.5206 -0.6006 -0.4590
 1997SOL     OW17449   2.380   1.365   6.417  0.3910  0.1753 -0.2393
 1997SOL    HW117450   2.288   1.367   6.446  0.5113 -1.3978  0.2645
 1997SOL    HW217451   2.376   1.278   6.376 -2.2533 -0.1481  0.6566
 1998SOL     OW17452   4.339   1.774   3.270 -0.6197  0.8536  0.4683
 1998SOL    HW117453   4.342   1.825   3.189  0.7526 -0.4169 -0.2729
 1998SOL    HW217454   4.301   1.832   3.335 -0.1647  1.9322 -0.2311
 1999SOL     OW17455   0.055   3.171  17.268 -0.3286  0.2962  0.0339
 1999SOL    HW117456   0.052   3.239  17.200 -0.9455 -1.1305 -1.3725
 1999SOL    HW217457   0.012   3.214  17.341 -0.5496 -0.5702  0.4167
 2000SOL     OW17458   3.828   3.780  16.403 -0.5712 -0.9728  0.7174
 2000SOL    HW117459   3.879   3.700  16.414  2.2874  0.2669 -3.2776
 2000SOL    HW217460   3.746   3.738  16.377 -0.1613 -1.8925  0.8990
 2001SOL     OW17461   4.642   1.830  12.987 -0.2493  0.1188  0.0476
 2001SOL    HW117462   4.568   1.773  13.007  2.3677 -2.6049  1.8810
 2001SOL    HW217463   4.597   1.912  13.008 -1.2002  0.0004 -1.5085
 2002SOL     OW17464   2.925   3.880   7.751 -0.2900 -0.0403  0.2218
 2002SOL    HW117465   2.961   3.791   7.749 -0.3643 -0.0884  1.2965
 2002SOL    HW217466   2.878   3.890   7.668 -2.4490  0.1198  1.4548
 2003SOL     OW17467   0.168   1.825   7.560 -0.3745  0.2549  0.0695
 2003SOL    HW117468   0.218   1.743   7.550  2.3058  2.0223 -0.9033
 2003SOL    HW217469   0.197   1.877   7.486  1.4844  2.2992  2.2279
 2004SOL     OW17470   1.761   3.238   7.121 -0.2094  0.5548  0.1185
 2004SOL    HW117471   1.706   3.180   7.068  1.0344 -1.1936  0.7298
 2004SOL    HW217472   1.850   3.208   7.101 -0.7429 -0.7375 -0.2816
 2005SOL     OW17473   3.674   3.874  17.664 -0.1734 -0.2019 -0.1793
 2005SOL    HW117474   3.592   3.881   0.005  0.0990 -1.8509  0.4925
 2005SOL    HW217475   3.730   3.822   0.015  0.1342  1.3594  0.9227
 2006SOL     OW17476   0.998   4.623   5.065  0.8636 -0.3455  0.7929
 2006SOL    HW117477   1.063   4.595   5.001 -0.6511 -1.4063 -0.2765
 2006SOL    HW217478   0.930   4.648   5.002  1.2488 -0.1152  0.4709
 2007SOL     OW17479   0.438   3.597  11.268 -0.1745  0.4016 -0.1688
 2007SOL    HW117480   0.379   3.623  11.197 -1.6113  0.4161  1.0400
 2007SOL    HW217481   0.403   3.618  11.355  0.5618  1.5919 -0.1576
 2008SOL     OW17482   1.272   0.029  17.493 -0.9859  0.3211 -0.1972
 2008SOL    HW117483   1.253   4.675  17.540 -1.8904 -0.4239 -1.8231
 2008SOL    HW217484   1.351   0.005  17.444 -2.0121 -1.5587 -0.9288
 2009SOL     OW17485   4.391   0.792   7.479  0.3978  0.0070  0.2722
 2009SOL    HW117486   4.334   0.834   7.415  1.1216 -0.9903 -1.0439
 2009SOL    HW217487   4.358   0.853   7.544  0.3770 -0.6942  0.9256
 2010SOL     OW17488   4.608   2.570   1.437 -0.2248 -0.6274 -1.0762
 2010SOL    HW117489   4.528   2.608   1.401 -1.6472 -1.4752  1.1834
 2010SOL    HW217490   4.632   2.626   1.511 -0.0802 -0.3721 -1.3141
 2011SOL     OW17491   0.845   1.813   6.674 -0.0092 -0.0103  0.1051
 2011SOL    HW117492   0.847   1.762   6.593  1.4636  0.1385  0.0502
 2011SOL    HW217493   0.927   1.787   6.715  1.6373  1.8751 -2.0037
 2012SOL     OW17494   1.321   3.356   7.977 -0.4071  0.5930 -0.5143
 2012SOL    HW117495   1.409   3.319   7.988  0.2765  2.2248 -0.5243
 2012SOL    HW217496   1.323   3.426   8.041  0.1409  0.0021  0.1241
 2013SOL     OW17497   2.515   0.587   2.375 -0.4020 -0.3486 -0.0442
 2013SOL    HW117498   2.604   0.622   2.367 -1.6526  2.8857  0.4348
 2013SOL    HW217499   2.468   0.661   2.412 -0.2374 -0.0443 -0.4468
 2014SOL     OW17500   0.041   2.577   9.662 -0.9203  0.1459  0.0079
 2014SOL    HW117501   0.110   2.627   9.619  1.4191 -0.9914  2.4904
 2014SOL    HW217502   4.696   2.590   9.599 -1.0015 -1.1588 -0.1630
 2015SOL     OW17503   4.532   1.594   7.829  0.5242 -0.0501  0.0662
 2015SOL    HW117504   4.520   1.576   7.735  0.5907  1.4224 -0.2289
 2015SOL    HW217505   4.446   1.572   7.866  1.0015  3.8450  3.3842
 2016SOL     OW17506   3.932   3.225  12.201  0.0322 -0.2751  0.8427
 2016SOL    HW117507   4.024   3.236  12.227  0.1644  1.4584 -0.4075
 2016SOL    HW217508   3.925   3.151  12.141 -3.1154 -0.3566  1.3405
 2017SOL     OW17509   3.145   1.350   5.775 -0.1660  0.2265 -0.3155
 2017SOL    HW117510   3.208   1.278   5.781  0.3043  0.7767  1.3114
 2017SOL    HW217511   3.066   1.308   5.742 -2.7195  2.5758  2.7835
 2018SOL     OW17512   0.390   0.793   2.804  0.3410 -0.1045  0.8320
 2018SOL    HW117513   0.450   0.729   2.844 -1.7834 -0.5856  3.2766
 2018SOL    HW217514   0.418   0.784   2.713 -3.1267  1.7766 -0.4248
 2019SOL     OW17515   2.421   4.341  12.868 -0.2783  0.2489 -0.1447
 2019SOL    HW117516   2.401   4.274  12.802  1.1698 -2.1115  1.8055
 2019SOL    HW217517   2.456   4.416  12.820 -0.7111  1.1087  0.9026
 2020SOL     OW17518   0.517   3.382   6.395 -0.5913 -0.1763  0.1651
 2020SOL    HW117519   0.597   3.427   6.367 -0.6621  0.0320  0.2904
 2020SOL    HW217520   0.462   3.409   6.322 -0.0794 -0.5275 -0.3567
 2021SOL     OW17521   2.093   0.760   3.770  0.2157 -0.2428  0.0497
 2021SOL    HW117522   2.038   0.791   3.841  0.7363  1.4557 -0.2883
 2021SOL    HW217523   2.055   0.818   3.705  1.3060  0.3321 -0.0740
 2022SOL     OW17524   0.079   0.180  14.432  0.1133 -0.0660 -0.1522
 2022SOL    HW117525   0.147   0.186  14.365 -0.4230  0.3859 -0.6583
 2022SOL    HW217526   0.133   0.152  14.506 -0.1037  0.2849  0.1367
 2023SOL     OW17527   0.354   1.593   6.885 -0.9268  0.9781  0.3049
 2023SOL    HW117528   0.422   1.655   6.861  0.5741 -1.4482 -1.7305
 2023SOL    HW217529   0.287   1.622   6.823 -0.0317  2.1413 -0.1171
 2024SOL     OW17530   4.517   0.990   1.541 -0.2129  0.0699 -0.1516
 2024SOL    HW117531   4.502   1.073   1.496 -0.5774  0.7955  1.3135
 2024SOL    HW217532   4.597   0.959   1.498 -1.4360  1.0703 -3.1475
 2025SOL     OW17533   1.183   0.368   3.182  0.2958  0.6658  0.3441
 2025SOL    HW117534   1.225   0.282   3.185  1.1087  0.9658 -1.6914
 2025SOL    HW217535   1.212   0.397   3.095 -0.6474 -1.2849 -0.6172
 2026SOL     OW17536   0.855   3.751   3.410 -0.2012  0.0894  0.1886
 2026SOL    HW117537   0.923   3.774   3.473  1.6611  0.5937 -2.0356
 2026SOL    HW217538   0.888   3.670   3.371 -1.2213 -0.1463 -0.1830
 2027SOL     OW17539   4.432   2.232  13.869  0.2847  0.1098 -0.4117
 2027SOL    HW117540   4.451   2.138  13.870  0.1439  0.0790 -0.9170
 2027SOL    HW217541   4.434   2.242  13.964  0.5212 -3.3921 -0.0597
 2028SOL     OW17542   4.568   1.719   5.797 -0.2717  0.1064 -0.0812
 2028SOL    HW117543   4.504   1.654   5.826 -0.0632  1.3633  3.1213
 2028SOL    HW217544   4.643   1.694   5.851 -0.5055  0.3627  0.3546
 2029SOL     OW17545   2.573   2.143   2.862 -0.0106  0.0634  0.7411
 2029SOL    HW117546   2.595   2.082   2.792  0.3297  0.1086  0.8097
 2029SOL    HW217547   2.525   2.210   2.814 -0.8118 -0.2068  1.1641
 2030SOL     OW17548   1.856   0.709   5.165 -0.5164 -0.0237 -0.3213
 2030SOL    HW117549   1.774   0.699   5.116  0.4370 -2.0655 -1.4700
 2030SOL    HW217550   1.816   0.737   5.248 -1.5516 -0.9298 -0.5055
 2031SOL     OW17551   2.378   2.693   7.570 -0.7117 -0.3854  0.0227
 2031SOL    HW117552   2.457   2.736   7.537 -0.7722 -0.4744 -0.2397
 2031SOL    HW217553   2.326   2.768   7.598  1.2857  1.1176 -0.2960
 2032SOL     OW17554   1.255   4.228  10.222  0.7336  0.1598  0.2491
 2032SOL    HW117555   1.294   4.150  10.261  1.6679  0.6583  0.3157
 2032SOL    HW217556   1.331   4.281  10.196  0.8537 -1.9410 -3.5823
 2033SOL     OW17557   4.223   0.760   3.124 -0.0171  0.6580  0.2407
 2033SOL    HW117558   4.177   0.796   3.200  0.8185 -2.1860  2.1198
 2033SOL    HW217559   4.145   0.740   3.072 -0.2128  1.6745  0.1543
 2034SOL     OW17560   4.534   4.603   3.699 -0.4130  0.2603 -0.5770
 2034SOL    HW117561   4.581   4.617   3.781 -0.7136 -1.1378 -0.1764
 2034SOL    HW217562   4.582   4.525   3.672  1.7650  1.7090 -0.9099
 2035SOL     OW17563   2.684   1.860  14.086  0.4739  0.3965 -0.2088
 2035SOL    HW117564   2.620   1.918  14.045 -0.7896  1.5317  3.3125
 2035SOL    HW217565   2.678   1.864  14.182  0.7495  1.8999 -0.2455
 2036SOL     OW17566   4.508   0.454   1.734  0.1406  0.1871 -0.5586
 2036SOL    HW117567   4.508   0.544   1.702  0.7295 -0.0190 -1.1493
 2036SOL    HW217568   4.534   0.401   1.659  1.0264  1.4425 -1.1456
 2037SOL     OW17569   0.021   1.877   3.049  0.3563 -0.1836 -0.0141
 2037SOL    HW117570   0.016   1.782   3.043  0.5386 -0.2682  1.1893
 2037SOL    HW217571   4.655   1.899   3.056  0.4070 -0.5049  1.7093
 2038SOL     OW17572   4.654   3.629   8.928  0.5023 -0.0655 -0.0410
 2038SOL    HW117573   4.624   3.538   8.919  2.9213 -1.0788  2.1597
 2038SOL    HW217574   4.583   3.673   8.974  0.9494  1.1596 -0.5332
 2039SOL     OW17575   0.999   3.207   7.916  0.3299  0.5719 -0.8420
 2039SOL    HW117576   1.084   3.204   7.959 -0.3210 -0.6467  0.3537
 2039SOL    HW217577   1.017   3.279   7.855 -0.9569  0.3459 -1.5035
 2040SOL     OW17578   3.020   0.676   8.204  0.3562  0.1255 -0.2033
 2040SOL    HW117579   3.114   0.690   8.198  0.4109 -0.8177 -1.6260
 2040SOL    HW217580   3.015   0.637   8.291  0.0777  3.4075  1.2180
 2041SOL     OW17581   3.349   3.175   6.469  0.8838 -0.5960 -0.5073
 2041SOL    HW117582   3.347   3.080   6.462 -0.9296 -0.7033  1.3456
 2041SOL    HW217583   3.258   3.191   6.444  0.7933  0.9951  0.8403
 2042SOL     OW17584   4.503   3.666  16.084  0.3518  0.2493  0.1728
 2042SOL    HW117585   4.591   3.703  16.075 -0.9068  2.5711 -2.5123
 2042SOL    HW217586   4.439   3.737  16.084  1.1603  0.9793  2.3682
 2043SOL     OW17587   4.148   0.560  12.687 -0.3068  0.2371  0.0140
 2043SOL    HW117588   4.210   0.488  12.693 -0.9661 -0.4346 -1.2260
 2043SOL    HW217589   4.171   0.618  12.760 -1.2326  0.4815  0.1174
 2044SOL     OW17590   2.959   3.082   0.379  0.0219 -0.5326  0.1950
 2044SOL    HW117591   3.004   3.154   0.423  0.8216 -0.1276 -1.2821
 2044SOL    HW217592   2.914   3.134   0.313 -1.1400 -2.1202 -0.2734
 2045SOL     OW17593   2.009   0.610   7.559 -0.5205  0.2438  0.4407
 2045SOL    HW117594   1.951   0.570   7.494 -1.3129  2.1007  0.0111
 2045SOL    HW217595   1.967   0.594   7.643 -1.8973 -1.4821 -0.5847
 2046SOL     OW17596   2.454   2.139   6.700 -0.0542  0.4526 -0.1552
 2046SOL    HW117597   2.534   2.121   6.651 -0.3651 -0.0747 -0.4668
 2046SOL    HW217598   2.485   2.226   6.726  0.8437  0.7045 -2.0403
 2047SOL     OW17599   3.770   4.565   9.261 -0.3720  0.3125 -0.4994
 2047SOL    HW117600   3.824   4.497   9.219 -1.5724  0.4334 -2.2340
 2047SOL    HW217601   3.722   4.519   9.330 -1.1826  2.2328  0.2044
 2048SOL     OW17602   0.039   1.029   9.468 -0.0602  0.1819 -1.1028
 2048SOL    HW117603   0.111   0.970   9.493 -0.8340 -0.3306 -0.0834
 2048SOL    HW217604   4.695   1.002   9.527  0.5656  0.6434 -0.1397
 2049SOL     OW17605   4.156   0.431   1.582  0.0181  0.0655 -0.0160
 2049SOL    HW117606   4.062   0.448   1.596  0.1627 -0.8676  1.9998
 2049SOL    HW217607   4.150   0.363   1.514  0.8048  0.1882 -0.2067
 2050SOL     OW17608   4.191   0.880  15.073 -0.0659 -0.0262 -0.0458
 2050SOL    HW117609   4.191   0.812  15.006  0.6967 -0.8134  0.7640
 2050SOL    HW217610   4.196   0.825  15.151  0.4923  0.3652  0.1892
 2051SOL     OW17611   3.555   0.223   3.762  0.3525  0.1202 -0.3846
 2051SOL    HW117612   3.640   0.196   3.796  0.2337  0.0413 -0.1472
 2051SOL    HW217613   3.537   0.155   3.697 -0.4762  1.9192 -2.0452
 2052SOL     OW17614   3.563   1.793   5.710  0.1567  0.1454  1.0518
 2052SOL    HW117615   3.559   1.888   5.695  1.4562 -0.2605 -1.9627
 2052SOL    HW217616   3.602   1.771   5.625 -2.7204 -3.3322  0.6470
 2053SOL     OW17617   2.290   3.321   3.267  0.0389  0.1306 -0.4219
 2053SOL    HW117618   2.305   3.264   3.342 -0.9954  2.9489  1.9046
 2053SOL    HW217619   2.227   3.382   3.306  0.1241 -0.7370  1.0630
 2054SOL     OW17620   1.296   2.322   8.599  0.4353  0.0655  0.4357
 2054SOL    HW117621   1.356   2.251   8.578  0.3624  0.0839  0.1680
 2054SOL    HW217622   1.278   2.293   8.689  2.0554 -3.5267 -0.3957
 2055SOL     OW17623   1.827   2.749   9.995  0.5073  0.1129  0.2116
 2055SOL    HW117624   1.910   2.706   9.974  0.9469  0.3813  1.3844
 2055SOL    HW217625   1.821   2.812   9.923  1.5849 -0.7564 -0.6379
 2056SOL     OW17626   0.233   3.327   6.177 -0.0252  0.1247 -0.0352
 2056SOL    HW117627   0.180   3.271   6.233  0.8251 -1.7533 -1.1329
 2056SOL    HW217628   0.227   3.276   6.097 -0.0567 -0.0357  0.0690
 2057SOL     OW17629   3.143   4.700   6.884  0.4950  0.2256  0.4114
 2057SOL    HW117630   3.055   0.010   6.894  1.1461  2.2085 -1.0206
 2057SOL    HW217631   3.136   4.632   6.817  0.5003  0.6464 -0.0262
 2058SOL     OW17632   3.591   2.369   7.253  0.4894 -0.5452  0.0315
 2058SOL    HW117633   3.512   2.324   7.284  1.1934 -2.6511 -1.2241
 2058SOL    HW217634   3.618   2.298   7.195 -0.1437 -2.1765  1.7066
 2059SOL     OW17635   3.379   3.507   0.156 -0.1287  0.2575 -0.2251
 2059SOL    HW117636   3.296   3.539   0.190 -0.5143 -0.6871 -0.2710
 2059SOL    HW217637   3.353   3.416   0.142  0.1786 -0.0287  1.0139
 2060SOL     OW17638   4.187   4.681   7.970 -0.0346 -0.2288 -0.6816
 2060SOL    HW117639   4.264   4.658   8.022  0.3120  1.1485 -0.5766
 2060SOL    HW217640   4.227   4.724   7.894  1.3489 -0.6657 -0.1899
 2061SOL     OW17641   4.051   4.288   4.475 -0.2047 -0.2943 -0.6854
 2061SOL    HW117642   4.115   4.270   4.544 -0.9247 -0.9565 -0.1897
 2061SOL    HW217643   4.079   4.369   4.433 -0.8136  0.5402  0.5183
 2062SOL     OW17644   2.744   4.438   8.240 -0.2468  0.4540 -0.4077
 2062SOL    HW117645   2.802   4.375   8.283 -1.4384 -1.2621 -1.3389
 2062SOL    HW217646   2.657   4.425   8.276 -0.8551  0.0632 -2.0293
 2063SOL     OW17647   0.257   0.853   9.450 -0.0311 -0.2319  0.3568
 2063SOL    HW117648   0.330   0.858   9.388 -0.3189  1.0858  0.1385
 2063SOL    HW217649   0.221   0.767   9.428 -0.4507  0.1007 -0.2711
 2064SOL     OW17650   1.882   3.351   6.846  0.4181 -0.0194  0.5376
 2064SOL    HW117651   1.797   3.308   6.854  0.2904  0.2750  0.7760
 2064SOL    HW217652   1.847   3.433   6.881 -1.9778 -1.4726  1.5391
 2065SOL     OW17653   1.315   4.376  11.390 -0.5354 -0.1274 -0.0927
 2065SOL    HW117654   1.404   4.386  11.356 -0.3183 -2.6370 -0.2654
 2065SOL    HW217655   1.331   4.301  11.448  2.1036  0.8744  0.4726
 2066SOL     OW17656   2.578   3.139   9.314  0.0239  0.4176  0.7995
 2066SOL    HW117657   2.602   3.197   9.242 -1.2095  0.0393  0.0942
 2066SOL    HW217658   2.508   3.187   9.356 -0.9154 -1.3201  1.2390
 2067SOL     OW17659   1.143   2.996   4.036  0.4303 -0.0376  0.2795
 2067SOL    HW117660   1.116   3.070   4.089 -0.0958 -0.9727  1.3266
 2067SOL    HW217661   1.120   2.917   4.086  0.5194 -0.8050 -0.8794
 2068SOL     OW17662   4.506   4.727   7.206  0.2125  0.1283 -0.1088
 2068SOL    HW117663   4.596   4.709   7.237  0.0172 -1.0864 -0.2235
 2068SOL    HW217664   4.524   0.006   7.112  2.7783 -4.0512  0.0997
 2069SOL     OW17665   4.273   1.966   5.140  0.6158 -0.2419  0.3481
 2069SOL    HW117666   4.187   1.928   5.158  1.5048 -0.3830  4.3222
 2069SOL    HW217667   4.250   2.035   5.079  0.2511 -0.3650  0.3499
 2070SOL     OW17668   3.138   4.526   5.913 -0.3435  0.0363 -0.2080
 2070SOL    HW117669   3.099   4.440   5.931 -1.1423  0.0362 -1.9768
 2070SOL    HW217670   3.174   4.560   5.995  0.3116  1.4127 -1.0526
 2071SOL     OW17671   3.627   3.470  16.670 -0.1296 -0.1452 -0.1185
 2071SOL    HW117672   3.603   3.445  16.760  1.2328  1.3262  0.6397
 2071SOL    HW217673   3.674   3.553  16.673 -0.7510  0.2442 -1.2943
 2072SOL     OW17674   1.770   0.148   8.172  0.5136 -0.2677 -0.3416
 2072SOL    HW117675   1.682   0.122   8.145  0.4653 -1.1590  0.6684
 2072SOL    HW217676   1.817   0.065   8.163  0.1236 -0.6312  0.9413
 2073SOL     OW17677   0.251   4.041   4.744 -0.1316 -0.1067 -0.3783
 2073SOL    HW117678   0.248   3.951   4.775  0.9032  0.5015  1.4758
 2073SOL    HW217679   0.331   4.071   4.787 -0.8566 -0.5304  1.2620
 2074SOL     OW17680   4.410   1.582   8.366  0.3691 -0.1568 -0.2063
 2074SOL    HW117681   4.477   1.613   8.428  1.9134 -1.5495 -1.1870
 2074SOL    HW217682   4.328   1.615   8.404 -0.2100  1.7301 -3.1388
 2075SOL     OW17683   3.514   2.895   7.916  0.3432 -0.3379 -0.0271
 2075SOL    HW117684   3.500   2.883   8.009 -0.6309 -0.0700 -0.1451
 2075SOL    HW217685   3.601   2.934   7.906 -0.7685  2.2361  0.3916
 2076SOL     OW17686   0.685   1.703  14.698 -0.0196 -0.4189 -0.2763
 2076SOL    HW117687   0.747   1.746  14.639  0.4849 -2.1845 -1.0336
 2076SOL    HW217688   0.707   1.763  14.770 -2.5175 -0.1208  0.2527
 2077SOL     OW17689   0.120   1.113  13.306  0.1443 -0.0967  0.5654
 2077SOL    HW117690   0.185   1.181  13.288 -1.4869  0.5693 -2.7762
 2077SOL    HW217691   0.059   1.123  13.233 -0.8666 -0.9896  1.2915
 2078SOL     OW17692   0.593   0.693   2.992  0.5935  0.1297  0.9629
 2078SOL    HW117693   0.617   0.755   3.061  0.1059  0.8084  0.5238
 2078SOL    HW217694   0.544   0.620   3.031 -2.4419  1.9770  0.6517
 2079SOL     OW17695   1.126   0.264  17.448 -0.2029  0.3029  0.2342
 2079SOL    HW117696   1.136   0.310  17.531  2.3111  1.8691 -0.9513
 2079SOL    HW217697   1.185   0.190  17.462  2.1535  1.7779 -1.7077
 2080SOL     OW17698   0.691   4.220   5.021 -0.5453 -0.3016 -0.0297
 2080SOL    HW117699   0.671   4.299   5.071 -1.1475  0.7513 -1.9488
 2080SOL    HW217700   0.751   4.174   5.080 -0.4196 -0.9299 -0.6543
 2081SOL     OW17701   2.998   4.372   5.640  0.0400 -0.5982  0.5756
 2081SOL    HW117702   3.017   4.465   5.629 -0.7210 -0.6716 -1.2389
 2081SOL    HW217703   2.922   4.373   5.582  0.3428  2.0473  0.2354
 2082SOL     OW17704   3.225   0.019   3.248  0.0020  0.0106 -0.8307
 2082SOL    HW117705   3.179   4.725   3.166 -0.6302 -1.1645 -0.1873
 2082SOL    HW217706   3.154   0.035   3.310  0.5132  0.3162 -0.3288
 2083SOL     OW17707   2.709   4.420   4.481  0.2482  0.2543 -0.3544
 2083SOL    HW117708   2.733   4.447   4.570 -0.1710  0.3297 -0.2651
 2083SOL    HW217709   2.769   4.466   4.422  0.1853 -2.2170 -2.3484
 2084SOL     OW17710   1.614   0.335   9.972  0.2103  0.1922  0.0030
 2084SOL    HW117711   1.605   0.322   9.878  0.8901  1.5275 -0.2421
 2084SOL    HW217712   1.558   0.411   9.986  0.1915 -0.0906  1.5020
 2085SOL     OW17713   0.973   2.357   7.197  0.0336 -0.3274 -0.0670
 2085SOL    HW117714   0.942   2.391   7.281  0.9031 -3.5041  1.4980
 2085SOL    HW217715   1.008   2.281   7.242 -0.3662 -0.8902 -0.7057
 2086SOL     OW17716   2.561   4.591   2.700  0.1391 -0.2542 -0.2214
 2086SOL    HW117717   2.555   4.629   2.612  2.1543 -0.9775 -0.6760
 2086SOL    HW217718   2.646   4.628   2.725  0.6799 -1.3634 -0.4075
 2087SOL     OW17719   0.821   0.459   4.508  0.1289 -0.4461  0.1864
 2087SOL    HW117720   0.884   0.458   4.580  0.4870 -1.1080 -0.1333
 2087SOL    HW217721   0.732   0.477   4.537  0.5345  1.1432  0.4506
 2088SOL     OW17722   2.372   1.696  13.228  0.1653  0.1461  0.0180
 2088SOL    HW117723   2.431   1.687  13.153 -0.9254  0.2466 -0.8488
 2088SOL    HW217724   2.431   1.652  13.289  1.3772  1.2129 -0.3821
 2089SOL     OW17725   4.525   1.385   9.596  0.8778 -0.0777  0.8087
 2089SOL    HW117726   4.493   1.295   9.598 -0.7086  0.4616 -0.4093
 2089SOL    HW217727   4.582   1.382   9.672  3.2970 -0.5229 -1.0218
 2090SOL     OW17728   1.969   1.390   6.730  0.5055  0.1158  0.0008
 2090SOL    HW117729   1.962   1.333   6.807 -0.3128 -0.2246 -0.3207
 2090SOL    HW217730   1.999   1.319   6.673  2.7741  2.6184 -1.9167
 2091SOL     OW17731   3.265   3.505  10.715  0.5727 -0.3628  0.1211
 2091SOL    HW117732   3.331   3.565  10.681 -1.0844  0.3994 -1.8334
 2091SOL    HW217733   3.312   3.421  10.717 -1.1815 -1.3388  0.6588
 2092SOL     OW17734   0.264   2.510   8.008 -1.0152 -0.3892 -0.0981
 2092SOL    HW117735   0.343   2.457   8.016 -0.4137  0.8283  2.0955
 2092SOL    HW217736   0.284   2.559   7.928 -0.3431  1.4020  1.1481
 2093SOL     OW17737   2.288   3.436   6.040  0.2947 -0.0482  0.4787
 2093SOL    HW117738   2.269   3.475   6.126 -0.6056  1.1423 -0.2552
 2093SOL    HW217739   2.325   3.352   6.067  0.6386 -0.7973 -2.3696
 2094SOL     OW17740   2.455   4.507  11.787  0.5699  0.0138  0.0713
 2094SOL    HW117741   2.384   4.542  11.734  0.7607  0.8333  0.3576
 2094SOL    HW217742   2.528   4.520  11.726  1.7382 -0.0910  1.4357
 2095SOL     OW17743   3.655   4.620   2.310 -0.1054 -0.4658  0.6238
 2095SOL    HW117744   3.570   4.632   2.269 -0.3055 -3.0322  0.2732
 2095SOL    HW217745   3.635   4.601   2.402 -1.1760 -0.1642  0.4499
 2096SOL     OW17746   2.847   4.063   4.985 -0.0398 -0.1046 -0.0821
 2096SOL    HW117747   2.833   3.976   4.948 -3.2044  0.7444 -0.9068
 2096SOL    HW217748   2.930   4.086   4.944 -0.9314  2.5123 -0.4859
 2097SOL     OW17749   0.237   3.031   7.788  0.4744 -0.0773 -0.0198
 2097SOL    HW117750   0.294   3.064   7.718  0.1840 -2.0735 -1.1888
 2097SOL    HW217751   0.173   3.100   7.807  1.2880  0.0951  2.0590
 2098SOL     OW17752   3.976   0.562  13.218 -0.1371  0.0993  0.2692
 2098SOL    HW117753   4.017   0.548  13.303  0.5378  0.0590 -0.0674
 2098SOL    HW217754   3.928   0.641  13.243  2.9184  1.9343  0.3293
 2099SOL     OW17755   4.445   2.326   5.049 -0.8637 -0.2689 -0.0974
 2099SOL    HW117756   4.466   2.397   4.989 -1.9024  0.4398  0.3750
 2099SOL    HW217757   4.472   2.367   5.131 -0.0779  1.6596 -1.3264
 2100SOL     OW17758   3.296   2.606   1.995  0.2063 -0.1617 -0.5089
 2100SOL    HW117759   3.261   2.548   2.063 -0.9751  1.2091  0.0524
 2100SOL    HW217760   3.290   2.546   1.920  1.5609 -1.1629  0.1704
 2101SOL     OW17761   3.895   1.376  12.266 -0.3245  0.1053  0.0140
 2101SOL    HW117762   3.865   1.382  12.175  0.6767 -0.6614 -0.3767
 2101SOL    HW217763   3.807   1.364  12.301 -0.6615  0.2701 -0.7591
 2102SOL     OW17764   4.282   0.668   1.562  0.2717 -0.0749  0.6886
 2102SOL    HW117765   4.239   0.583   1.570  0.5791 -0.3590 -0.6611
 2102SOL    HW217766   4.365   0.653   1.517 -0.7245  1.5208 -1.6713
 2103SOL     OW17767   3.775   0.656   8.837 -0.2389 -0.0385  0.1024
 2103SOL    HW117768   3.804   0.740   8.801 -2.7458  0.6217 -0.3708
 2103SOL    HW217769   3.837   0.604   8.787  1.9271  1.9267  0.7530
 2104SOL     OW17770   3.318   2.561  14.535  0.5703 -0.6320 -0.6479
 2104SOL    HW117771   3.324   2.537  14.628 -1.6032 -1.0553 -0.6282
 2104SOL    HW217772   3.397   2.616  14.533  1.6131 -2.0675  1.3265
 2105SOL     OW17773   3.747   0.317  16.411  0.7658  0.2621 -0.0545
 2105SOL    HW117774   3.693   0.239  16.420  1.4165 -0.2963 -1.0757
 2105SOL    HW217775   3.699   0.358  16.339  0.0240  1.2865  1.0178
 2106SOL     OW17776   2.976   1.675   4.497 -0.3826  0.2260 -0.0868
 2106SOL    HW117777   3.038   1.615   4.455  1.5008  3.1849 -1.5753
 2106SOL    HW217778   2.977   1.632   4.582  0.1581 -0.0838 -0.2507
 2107SOL     OW17779   4.223   0.144  16.096 -0.3056  0.0439 -0.4384
 2107SOL    HW117780   4.266   0.177  16.017  0.2161  1.0112  0.2467
 2107SOL    HW217781   4.290   0.101  16.150  0.9127  0.4677 -1.6333
 2108SOL     OW17782   4.249   2.191   6.783  0.6384 -0.1929  0.3946
 2108SOL    HW117783   4.310   2.138   6.834  0.5634  0.1441  0.8377
 2108SOL    HW217784   4.306   2.268   6.772  0.7877 -0.3132  0.3308
 2109SOL     OW17785   3.754   1.483   1.176  0.0619 -0.0583 -0.0289
 2109SOL    HW117786   3.706   1.551   1.222 -1.2345 -0.8776 -0.1843
 2109SOL    HW217787   3.810   1.450   1.246  0.4748  1.3286  0.2923
 2110SOL     OW17788   3.176   1.746   5.258  0.1388  0.0917 -0.3504
 2110SOL    HW117789   3.173   1.727   5.164  3.0714  0.3885 -0.5059
 2110SOL    HW217790   3.083   1.740   5.280  0.6844 -3.1470  1.1879
 2111SOL     OW17791   4.580   1.186   1.946  0.2589 -0.3275  0.0292
 2111SOL    HW117792   4.581   1.091   1.955  0.7277 -0.5398 -2.2107
 2111SOL    HW217793   4.617   1.201   1.859  0.4918 -1.6112 -0.0946
 2112SOL     OW17794   4.100   4.013   1.624  0.1419  0.4082 -1.2296
 2112SOL    HW117795   4.168   4.062   1.578  0.5929  3.0346  2.2352
 2112SOL    HW217796   4.145   3.969   1.696 -2.0575  0.7115  0.3264
 2113SOL     OW17797   2.599   1.842   4.102  0.4531  0.2643  0.6097
 2113SOL    HW117798   2.628   1.754   4.128 -1.5256 -0.5855  0.0030
 2113SOL    HW217799   2.636   1.866   4.018  0.5971 -0.5222  0.4448
 2114SOL     OW17800   3.218   0.223   9.072  0.0151 -0.4279 -0.7471
 2114SOL    HW117801   3.173   0.198   9.153 -1.4465 -0.0494 -1.4447
 2114SOL    HW217802   3.281   0.153   9.053  1.8387  0.2603  2.7163
 2115SOL     OW17803   0.292   1.966   7.298 -0.6365  0.4441 -0.2466
 2115SOL    HW117804   0.293   2.025   7.223  1.2585 -0.6130 -1.0276
 2115SOL    HW217805   0.315   1.889   7.247  0.6012  0.2120  0.6508
 2116SOL     OW17806   2.161   1.090  10.245  0.2685  0.0925 -0.1811
 2116SOL    HW117807   2.197   1.109  10.158  2.2508  1.9683  1.0696
 2116SOL    HW217808   2.085   1.148  10.255  1.6228  1.9575 -0.7614
 2117SOL     OW17809   3.525   4.554   8.232  0.1764  0.0754 -0.3134
 2117SOL    HW117810   3.464   4.521   8.166  2.2168 -0.2933 -2.0193
 2117SOL    HW217811   3.485   4.521   8.313  1.1851  0.9571  0.5401
 2118SOL     OW17812   1.188   1.767   5.688  0.0129 -0.3581 -0.0491
 2118SOL    HW117813   1.246   1.831   5.649  1.4007 -1.3761  0.3360
 2118SOL    HW217814   1.252   1.721   5.744 -0.4920  0.1717  0.9639
 2119SOL     OW17815   3.341   1.091  11.585  0.2991  0.1167  0.8863
 2119SOL    HW117816   3.323   0.998  11.577  0.7151  0.0571  0.6710
 2119SOL    HW217817   3.261   1.122  11.541  0.0096 -1.2765  0.4358
 2120SOL     OW17818   3.381   4.542   7.844  0.1686  0.2113 -0.5388
 2120SOL    HW117819   3.461   4.535   7.792 -0.9687 -1.3287 -2.1216
 2120SOL    HW217820   3.425   4.500   7.917  0.0034  1.7907  0.4634
 2121SOL     OW17821   2.034   1.716   3.755  0.1947  0.2201 -0.2868
 2121SOL    HW117822   1.958   1.732   3.699  0.1568  3.2979  0.6513
 2121SOL    HW217823   2.070   1.635   3.719  1.3415 -0.4014  2.2465
 2122SOL     OW17824   2.001   0.869   7.491  0.1911  0.4259  0.5346
 2122SOL    HW117825   1.924   0.844   7.440 -1.1247  1.5382  1.9826
 2122SOL    HW217826   2.029   0.788   7.534  2.1450  0.1992 -1.1662
 2123SOL     OW17827   3.866   1.842  17.374 -0.0792 -0.1298  0.3123
 2123SOL    HW117828   3.839   1.894  17.449 -0.8475 -1.0338  0.6585
 2123SOL    HW217829   3.788   1.788  17.361 -0.0630 -0.7148  2.6578
 2124SOL     OW17830   0.551   2.284   4.995 -0.0570 -0.2272 -0.2648
 2124SOL    HW117831   0.542   2.339   4.917  0.5142 -0.7889 -0.7166
 2124SOL    HW217832   0.484   2.215   4.992 -0.3781 -0.0438  2.4634
 2125SOL     OW17833   4.506   4.637   3.319  0.4297  0.2755 -0.3843
 2125SOL    HW117834   4.543   4.689   3.247 -0.8300 -0.7701 -1.7974
 2125SOL    HW217835   4.429   4.691   3.337 -1.0260 -1.3151 -1.7861
 2126SOL     OW17836   1.555   2.855  11.986  0.0819  0.3473 -0.7791
 2126SOL    HW117837   1.593   2.798  12.053  1.5216  0.8308 -1.1781
 2126SOL    HW217838   1.512   2.787  11.934 -0.2026 -0.3223  0.3406
 2127SOL     OW17839   2.137   2.704   5.327 -0.1566  0.1638 -0.3633
 2127SOL    HW117840   2.165   2.711   5.418  0.4097 -2.1736 -0.3673
 2127SOL    HW217841   2.045   2.728   5.335  0.3546  0.9909  2.9935
 2128SOL     OW17842   1.727   4.144   5.745  0.1550  0.1453 -0.2967
 2128SOL    HW117843   1.698   4.235   5.750  0.5922  0.2103  0.9939
 2128SOL    HW217844   1.762   4.148   5.835 -1.3524 -0.5021  0.3127
 2129SOL     OW17845   1.276   0.427   1.295  0.2568 -0.3318  0.3456
 2129SOL    HW117846   1.200   0.471   1.333  1.5523  0.0470  2.4886
 2129SOL    HW217847   1.337   0.500   1.306 -0.2448 -0.2405  2.4859
 2130SOL     OW17848   3.400   1.236  15.018  0.1082  0.0945 -0.2882
 2130SOL    HW117849   3.471   1.209  15.076 -1.2161 -0.2250  1.1800
 2130SOL    HW217850   3.450   1.274  14.945 -1.9645  2.3051 -0.5552
 2131SOL     OW17851   1.823   3.180   7.956  0.7018  0.1237  0.6000
 2131SOL    HW117852   1.891   3.248   7.958  2.0540 -1.2577  1.1915
 2131SOL    HW217853   1.865   3.096   7.940 -0.9427 -0.8002  1.2080
 2132SOL     OW17854   0.790   3.781   2.660 -0.1151 -0.2328 -0.4179
 2132SOL    HW117855   0.816   3.837   2.733 -1.9865 -0.2366  0.2750
 2132SOL    HW217856   0.874   3.775   2.615  0.4820  1.4332  0.4664
 2133SOL     OW17857   1.899   3.421   6.413  0.7681  0.3718  0.1251
 2133SOL    HW117858   1.859   3.452   6.494  1.3352 -2.2202  1.4069
 2133SOL    HW217859   1.821   3.409   6.358  2.2109  0.0613 -1.8611
 2134SOL     OW17860   0.785   4.665   3.199 -0.3343  0.1903  0.0338
 2134SOL    HW117861   0.851   4.609   3.158 -2.3609 -1.6222 -0.7142
 2134SOL    HW217862   0.834   4.714   3.265 -0.6936  4.0547 -2.5641
 2135SOL     OW17863   0.290   4.110   6.004  0.0819 -0.5943 -0.6974
 2135SOL    HW117864   0.232   4.181   5.978  1.3140  1.1089  1.2560
 2135SOL    HW217865   0.346   4.149   6.072 -1.9158  2.4255 -0.8044
 2136SOL     OW17866   2.451   1.978   9.860  0.0273 -0.1052  0.1349
 2136SOL    HW117867   2.489   1.891   9.872 -0.1202 -0.0616  0.8630
 2136SOL    HW217868   2.362   1.957   9.831  0.3339 -1.5959  0.2635
 2137SOL     OW17869   3.963   2.232   4.317 -0.2135 -0.0020 -0.5120
 2137SOL    HW117870   3.937   2.244   4.225  2.0208  2.4017 -0.8386
 2137SOL    HW217871   3.944   2.320   4.350  0.8868  0.7368 -1.8348
 2138SOL     OW17872   4.213   0.779  14.613 -0.0087  0.6256  0.2689
 2138SOL    HW117873   4.280   0.824  14.665  0.9261  0.6294 -0.9367
 2138SOL    HW217874   4.265   0.711  14.571 -1.4873 -0.5289  0.3116
 2139SOL     OW17875   3.363   4.137   6.972 -0.7955 -0.4372 -0.7457
 2139SOL    HW117876   3.435   4.076   6.990 -0.1708  0.4439 -0.2485
 2139SOL    HW217877   3.408   4.180   6.898 -1.7361  0.8349 -0.5735
 2140SOL     OW17878   0.619   3.214   2.067  0.3636 -0.1948  0.1256
 2140SOL    HW117879   0.671   3.177   1.995  1.0031  1.7761 -0.4351
 2140SOL    HW217880   0.667   3.187   2.146 -2.6147 -2.1986  1.2349
 2141SOL     OW17881   4.666   3.340  13.114 -0.2089 -0.4187 -0.2671
 2141SOL    HW117882   4.679   3.401  13.041  1.1664 -0.1318  0.2189
 2141SOL    HW217883   4.589   3.382  13.154  1.3455  1.2990  0.9288
 2142SOL     OW17884   3.982   0.337   9.818 -0.3698 -0.0039 -0.0325
 2142SOL    HW117885   3.960   0.366   9.730  0.2348 -0.2173 -0.2552
 2142SOL    HW217886   4.078   0.338   9.809 -0.4425 -0.5673 -0.8036
 2143SOL     OW17887   2.937   0.115  13.869 -0.0728 -0.1420  0.9250
 2143SOL    HW117888   2.958   0.033  13.825  1.8869  1.8192 -1.7821
 2143SOL    HW217889   2.884   0.148  13.797  0.1877 -1.7050  0.0163
 2144SOL     OW17890   0.545   1.088  16.505 -0.0610 -0.0916  0.0177
 2144SOL    HW117891   0.572   0.996  16.503  0.9701  0.1863  1.4277
 2144SOL    HW217892   0.603   1.129  16.440  0.0130  1.9536  1.3930
 2145SOL     OW17893   3.990   2.019   8.351  0.1517  0.2057 -0.5688
 2145SOL    HW117894   4.077   2.047   8.323 -0.2829  1.4607 -0.6613
 2145SOL    HW217895   3.944   2.001   8.269 -1.3973 -1.6648  0.6826
 2146SOL     OW17896   0.764   0.316  13.769 -0.1198 -0.0291 -0.3377
 2146SOL    HW117897   0.794   0.253  13.834 -2.1951 -1.5004 -0.8022
 2146SOL    HW217898   0.682   0.327  13.816 -1.1537 -2.1407 -1.6425
 2147SOL     OW17899   0.831   3.037  15.457 -0.1680 -0.2785 -0.1173
 2147SOL    HW117900   0.738   3.050  15.475 -0.1590 -0.6717  0.2058
 2147SOL    HW217901   0.827   2.983  15.378  3.4569 -0.9025  0.1348
 2148SOL     OW17902   2.564   0.084   9.467  0.5698 -0.2633  0.3541
 2148SOL    HW117903   2.583   0.034   9.547  2.6891  1.3461  0.8678
 2148SOL    HW217904   2.614   0.029   9.407 -1.1213 -1.4067  0.0000
 2149SOL     OW17905   0.709   2.320   3.890  0.4427  0.2375  0.1289
 2149SOL    HW117906   0.744   2.407   3.911  0.4574  0.6287 -1.5522
 2149SOL    HW217907   0.618   2.348   3.890  0.6021  0.7694  1.5813
 2150SOL     OW17908   4.444   3.616   3.734 -0.1704 -0.0735 -0.1264
 2150SOL    HW117909   4.405   3.638   3.649  0.3340  1.9622  0.1725
 2150SOL    HW217910   4.438   3.704   3.772  0.3969  0.1473 -0.5339
 2151SOL     OW17911   0.441   0.383   8.633 -0.0941  0.4252  0.0768
 2151SOL    HW117912   0.375   0.368   8.566 -1.5003 -0.3019  1.6226
 2151SOL    HW217913   0.525   0.369   8.590  0.4661  2.0369  0.6474
 2152SOL     OW17914   0.612   0.673   9.048  0.5256  0.2999  0.7281
 2152SOL    HW117915   0.706   0.690   9.056  0.5057  0.6300  0.2329
 2152SOL    HW217916   0.615   0.578   9.049  0.8117  0.2747 -2.3945
 2153SOL     OW17917   2.227   2.776   7.995  0.2966  1.0560 -0.3217
 2153SOL    HW117918   2.155   2.836   8.011 -1.0686 -0.5903 -0.3136
 2153SOL    HW217919   2.298   2.810   8.049 -0.3379  2.9642 -0.7031
 2154SOL     OW17920   3.522   0.380  16.803  0.1824  0.0534  0.6852
 2154SOL    HW117921   3.432   0.414  16.797 -0.1051 -0.5843  1.4111
 2154SOL    HW217922   3.509   0.292  16.837  1.4291 -0.4009 -0.0390
 2155SOL     OW17923   0.369   0.197   7.562  0.5983 -0.3722 -0.3661
 2155SOL    HW117924   0.355   0.235   7.648 -1.2635  1.7133 -1.5939
 2155SOL    HW217925   0.341   0.274   7.513 -0.9955 -2.0183 -2.0661
 2156SOL     OW17926   2.923   2.729   4.844  0.0956 -0.2742 -0.6362
 2156SOL    HW117927   2.957   2.767   4.925  2.4790  0.2036 -1.8586
 2156SOL    HW217928   2.920   2.799   4.780  1.1374  1.3390  1.0983
 2157SOL     OW17929   2.698   4.373   3.035  0.5523 -0.1600 -0.1581
 2157SOL    HW117930   2.666   4.460   3.060 -0.1395 -0.7197  0.9322
 2157SOL    HW217931   2.715   4.336   3.121  0.2406 -1.4452 -0.6481
 2158SOL     OW17932   3.861   0.835   7.734 -0.0833 -0.1808  0.0308
 2158SOL    HW117933   3.857   0.830   7.830 -1.0260 -1.5076 -0.0883
 2158SOL    HW217934   3.829   0.749   7.709  0.4094  0.0395 -1.3369
 2159SOL     OW17935   0.791   1.463   4.036  0.4320  0.1300  0.3798
 2159SOL    HW117936   0.787   1.369   4.015 -2.2073  0.2024  0.5652
 2159SOL    HW217937   0.863   1.463   4.099  0.5518  0.1055  0.2433
 2160SOL     OW17938   4.542   4.644   2.485 -0.3388 -0.3003 -0.2385
 2160SOL    HW117939   4.515   4.725   2.529  0.9169  0.7254 -1.3569
 2160SOL    HW217940   4.481   4.631   2.412 -0.6540  0.9870 -0.2180
 2161SOL     OW17941   3.890   4.428   5.089 -0.6714  0.8969  0.5267
 2161SOL    HW117942   3.829   4.415   5.162  0.6753 -0.8617  1.3366
 2161SOL    HW217943   3.851   4.513   5.070 -0.6575  0.5665 -1.0187
 2162SOL     OW17944   1.369   4.668   6.953  0.0357  0.2484 -0.0787
 2162SOL    HW117945   1.278   4.662   6.925 -0.2928 -0.4561  1.1587
 2162SOL    HW217946   1.414   4.597   6.907 -1.2429  0.0250 -1.0031
 2163SOL     OW17947   2.794   1.064   7.719  0.2183  0.0774 -0.3394
 2163SOL    HW117948   2.800   0.968   7.719  1.9363  0.1859  0.9586
 2163SOL    HW217949   2.699   1.075   7.709  0.4163  1.2305 -0.9168
 2164SOL     OW17950   2.313   1.177  15.684  0.3054 -0.1488 -0.1235
 2164SOL    HW117951   2.321   1.232  15.607  0.2365 -0.9825 -0.7287
 2164SOL    HW217952   2.286   1.098  15.636  0.1911  0.4883 -1.0945
 2165SOL     OW17953   0.781   3.541   9.129  0.2425 -0.2303 -0.1523
 2165SOL    HW117954   0.787   3.537   9.225 -0.8990 -1.3492 -0.1243
 2165SOL    HW217955   0.833   3.618   9.107  0.1038  0.2497  1.2395
 2166SOL     OW17956   2.831   3.039   4.912 -0.2651 -0.0099  0.4803
 2166SOL    HW117957   2.844   3.009   4.822  2.8571  1.6427  0.4024
 2166SOL    HW217958   2.879   3.121   4.900  2.1721 -1.0481  3.1475
 2167SOL     OW17959   4.361   3.872   9.062  0.5635 -0.0733 -0.3623
 2167SOL    HW117960   4.278   3.868   9.015 -0.6050 -2.2567  1.8484
 2167SOL    HW217961   4.395   3.782   9.061 -0.9423 -0.6637  1.0453
 2168SOL     OW17962   3.919   0.714   6.239 -0.4390  0.5135 -0.1490
 2168SOL    HW117963   3.927   0.647   6.307 -0.5847  0.6223 -0.0238
 2168SOL    HW217964   3.971   0.785   6.277 -0.5773  0.4103  0.2423
 2169SOL     OW17965   3.618   2.585  11.793 -0.2042  0.1164 -0.3178
 2169SOL    HW117966   3.635   2.493  11.813  2.5700  0.5659 -0.7262
 2169SOL    HW217967   3.540   2.572  11.738 -0.7273  0.1551  0.4146
 2170SOL     OW17968   2.868   3.883  12.972  0.5407  0.1473 -1.0094
 2170SOL    HW117969   2.842   3.840  13.054 -0.3224  1.1340 -0.7618
 2170SOL    HW217970   2.832   3.970  12.983  2.5166  0.9942 -1.2226
 2171SOL     OW17971   0.241   4.536  17.101 -0.9246  0.0461 -0.1284
 2171SOL    HW117972   0.249   4.512  17.008  0.2821 -2.0911  0.5280
 2171SOL    HW217973   0.193   4.615  17.078  1.9438  0.9405 -3.1553
 2172SOL     OW17974   2.276   0.923   3.086  0.1158 -0.1190  0.2155
 2172SOL    HW117975   2.316   0.868   3.154 -0.3217  0.1488  0.6818
 2172SOL    HW217976   2.360   0.969   3.076  1.1698 -1.7994  1.1582
 2173SOL     OW17977   0.571   3.500   6.649  0.8477  0.0077 -0.1566
 2173SOL    HW117978   0.488   3.533   6.684 -0.2196 -0.9491 -1.7652
 2173SOL    HW217979   0.530   3.448   6.580  2.5554  0.3360 -1.4116
 2174SOL     OW17980   0.335   3.660  15.779  0.2417 -0.5500  0.0075
 2174SOL    HW117981   0.276   3.724  15.820  1.9895  0.2070  1.3382
 2174SOL    HW217982   0.359   3.597  15.847  2.0147  0.5312  0.3834
 2175SOL     OW17983   2.454   0.439   5.688 -0.1040 -0.1976 -0.0984
 2175SOL    HW117984   2.517   0.497   5.731  0.3516  0.1978 -1.3149
 2175SOL    HW217985   2.482   0.426   5.598 -1.0443 -0.4316 -0.3635
 2176SOL     OW17986   3.431   1.374   2.584  0.2373  0.2787  0.4120
 2176SOL    HW117987   3.433   1.373   2.679  2.2528 -1.0898  0.3476
 2176SOL    HW217988   3.455   1.466   2.572 -1.8762  0.7947  0.2208
 2177SOL     OW17989   1.544   2.056   1.927  0.1677 -0.4313  0.1709
 2177SOL    HW117990   1.594   2.036   1.848  2.1858 -1.3010  1.6699
 2177SOL    HW217991   1.456   2.034   1.896  0.6357  1.5498 -2.5476
 2178SOL     OW17992   3.450   2.768   2.301 -0.5542  0.5944 -0.5882
 2178SOL    HW117993   3.496   2.688   2.327  0.2020  1.3132  0.2891
 2178SOL    HW217994   3.471   2.781   2.209 -0.8062 -3.0851 -1.1802
 2179SOL     OW17995   1.244   2.252   8.848 -0.1007  0.7066 -0.3180
 2179SOL    HW117996   1.204   2.316   8.908  0.6542  1.1651 -0.3002
 2179SOL    HW217997   1.336   2.265   8.873  0.5317  1.1412 -2.9043
 2180SOL     OW17998   1.313   0.654   4.989  0.2376 -0.1168  0.1708
 2180SOL    HW117999   1.222   0.626   4.980 -1.0349  2.7970  3.8782
 2180SOL    HW218000   1.305   0.749   4.984  1.0175 -0.0446  0.3172
 2181SOL     OW18001   2.813   3.382  11.300 -0.3639  0.0173 -0.0384
 2181SOL    HW118002   2.755   3.457  11.284  0.1062  0.5005  0.5127
 2181SOL    HW218003   2.844   3.369  11.211  1.9298 -2.2306  1.0933
 2182SOL     OW18004   2.553   4.627   8.426  0.4297 -0.1224  0.2641
 2182SOL    HW118005   2.479   4.578   8.391  0.1483  1.7230 -1.7689
 2182SOL    HW218006   2.606   4.555   8.460  0.9957  0.0639 -0.2214
 2183SOL     OW18007   1.464   3.412   5.590 -0.5112  0.0815 -0.3524
 2183SOL    HW118008   1.474   3.495   5.638 -2.2573  1.0285 -1.5936
 2183SOL    HW218009   1.389   3.364   5.624 -1.6593  0.5633 -2.2017
 2184SOL     OW18010   3.627   0.779   2.169 -0.5053  0.4923 -0.3454
 2184SOL    HW118011   3.553   0.731   2.131 -0.6108 -1.7482  2.7163
 2184SOL    HW218012   3.686   0.799   2.097 -1.4778 -0.5645 -1.4391
 2185SOL     OW18013   4.195   3.208  15.463 -0.1469 -0.0358 -0.0198
 2185SOL    HW118014   4.219   3.120  15.434  2.5453  0.7575 -0.1723
 2185SOL    HW218015   4.218   3.207  15.556 -0.6469 -1.8524  0.0873
 2186SOL     OW18016   3.311   3.913   1.132  0.0726  0.2528 -0.0324
 2186SOL    HW118017   3.311   4.001   1.170  1.0673  0.6335 -0.9172
 2186SOL    HW218018   3.279   3.848   1.194 -0.7125  1.1599  0.5191
 2187SOL     OW18019   4.664   3.586  13.436  0.3716  0.5166  0.1022
 2187SOL    HW118020   4.671   3.666  13.384  2.8590  0.4656  0.3903
 2187SOL    HW218021   4.610   3.522  13.388  1.8827 -1.4735  1.0502
 2188SOL     OW18022   1.819   2.733   7.243  0.1180  0.8333  0.6991
 2188SOL    HW118023   1.826   2.763   7.333  2.4741  0.5281  0.6139
 2188SOL    HW218024   1.899   2.684   7.225 -0.5622 -0.2083  0.5211
 2189SOL     OW18025   0.146   3.667  15.472  0.2401  0.4191  0.2517
 2189SOL    HW118026   0.088   3.663  15.548 -0.2233 -0.2681 -0.1457
 2189SOL    HW218027   0.226   3.701  15.513  1.6473  0.8378 -2.8380
 2190SOL     OW18028   0.774   4.688   9.282  0.4276  0.7635 -0.3082
 2190SOL    HW118029   0.869   4.698   9.276  0.5144  0.3668  0.4248
 2190SOL    HW218030   0.778   4.599   9.249 -1.0274  1.2468 -1.7715
 2191SOL     OW18031   2.794   1.647  10.295  0.9452 -0.3346  0.2946
 2191SOL    HW118032   2.830   1.587  10.359 -1.0708 -3.6644 -1.6747
 2191SOL    HW218033   2.790   1.735  10.332  0.4369 -0.4590  0.5368
 2192SOL     OW18034   1.932   2.752   5.731 -0.2602  0.0427  0.0626
 2192SOL    HW118035   1.941   2.733   5.638 -2.2851  1.0445 -0.3215
 2192SOL    HW218036   1.912   2.845   5.726 -1.2641 -0.1050  1.2293
 2193SOL     OW18037   4.291   4.249  13.541 -0.0459 -0.1093  0.3234
 2193SOL    HW118038   4.272   4.235  13.448 -1.6940 -1.1053  0.7947
 2193SOL    HW218039   4.371   4.299  13.529 -0.0128 -0.2504 -0.0350
 2194SOL     OW18040   4.360   2.226   3.846  0.0753 -0.7897 -0.3196
 2194SOL    HW118041   4.298   2.160   3.879  0.2331 -1.1694 -0.7946
 2194SOL    HW218042   4.433   2.218   3.907 -1.1032 -1.2205  1.0337
 2195SOL     OW18043   0.563   2.995  15.470 -0.1423 -0.5268 -0.0158
 2195SOL    HW118044   0.482   3.030  15.432 -0.1316  1.9824  2.2433
 2195SOL    HW218045   0.549   2.901  15.460  1.5851 -0.8757  0.7852
 2196SOL     OW18046   4.377   4.668  12.649 -0.0063  0.5375 -0.2931
 2196SOL    HW118047   4.458   4.646  12.696 -0.5504 -2.7873 -0.9437
 2196SOL    HW218048   4.321   4.621  12.711  0.2154  0.5825 -0.0592
 2197SOL     OW18049   0.907   3.985   2.794  0.3345  0.7393 -0.1319
 2197SOL    HW118050   0.889   4.069   2.837 -2.5326 -0.1862  0.4632
 2197SOL    HW218051   0.982   3.946   2.839 -1.2945 -1.6348  0.5290
 2198SOL     OW18052   2.235   4.198  12.357  0.3078  0.3220 -0.1646
 2198SOL    HW118053   2.272   4.286  12.364  0.0596  0.1904  3.0190
 2198SOL    HW218054   2.193   4.198  12.271 -0.9604  1.2442  0.4431
 2199SOL     OW18055   4.029   3.692  10.686 -0.0155  0.1357 -0.4194
 2199SOL    HW118056   4.110   3.689  10.636  0.0983 -0.0308 -0.2251
 2199SOL    HW218057   4.058   3.728  10.770  1.2925 -0.4784 -0.6106
 2200SOL     OW18058   1.136   4.078   1.115  0.1623 -0.1023  0.0688
 2200SOL    HW118059   1.229   4.098   1.108 -0.4253  2.6556  0.1428
 2200SOL    HW218060   1.129   3.993   1.071 -0.6535 -0.1508  0.2786
 2201SOL     OW18061   4.648   4.295   2.202 -0.7895  0.2003  0.0555
 2201SOL    HW118062   4.721   4.336   2.249  0.1892 -3.2383  1.5419
 2201SOL    HW218063   4.645   4.357   2.129  0.6125 -0.6355 -0.7144
 2202SOL     OW18064   1.997   2.882   3.750  0.1860 -0.3585  0.0502
 2202SOL    HW118065   1.993   2.786   3.748 -2.8368 -0.2385 -0.3799
 2202SOL    HW218066   2.083   2.911   3.779  0.2433  0.2275 -0.6961
 2203SOL     OW18067   3.565   0.987   7.395  0.0022  0.1692  0.1933
 2203SOL    HW118068   3.521   1.072   7.400 -0.4182 -0.0958  1.0252
 2203SOL    HW218069   3.556   0.965   7.302 -0.6545  0.2672  0.2328
 2204SOL     OW18070   2.325   1.952  10.620  0.6101 -0.5468 -0.3269
 2204SOL    HW118071   2.232   1.953  10.598  0.2507  3.4940  1.4108
 2204SOL    HW218072   2.361   1.925  10.535  1.7475 -0.3985  0.1014
 2205SOL     OW18073   4.354   2.753  13.784  0.3480  0.3347 -0.5262
 2205SOL    HW118074   4.321   2.729  13.698  1.5865 -2.5509 -0.2018
 2205SOL    HW218075   4.443   2.776  13.758 -0.1295  0.7106 -1.8145
 2206SOL     OW18076   0.061   1.121   5.689 -0.2493  0.8754 -0.2904
 2206SOL    HW118077   4.692   1.121   5.678 -0.3503  0.5303  0.5299
 2206SOL    HW218078   0.088   1.130   5.598 -1.0888 -1.8185 -0.8227
 2207SOL     OW18079   3.853   1.701   4.906 -0.1795 -0.1032 -0.5788
 2207SOL    HW118080   3.851   1.712   4.811  0.1982  0.7380 -0.4941
 2207SOL    HW218081   3.799   1.623   4.902  1.0056 -1.0413  1.7624
 2208SOL     OW18082   1.896   1.818   2.249 -0.3755  0.0844  0.0539
 2208SOL    HW118083   1.948   1.867   2.186  1.6396 -1.5235  0.4631
 2208SOL    HW218084   1.962   1.816   2.319  0.4278 -1.3923 -0.7416
 2209SOL     OW18085   1.076   0.979  16.263 -0.0796  0.3743  0.3568
 2209SOL    HW118086   0.992   0.948  16.296 -0.1535  1.6837  1.3585
 2209SOL    HW218087   1.140   0.954  16.331 -0.8399 -0.0258  0.9267
 2210SOL     OW18088   3.520   2.776   0.838 -0.2560 -0.1851  0.0663
 2210SOL    HW118089   3.568   2.820   0.768 -1.6063 -0.8808 -1.2952
 2210SOL    HW218090   3.576   2.699   0.846 -0.0752  0.4857  5.0454
 2211SOL     OW18091   3.777   2.940   8.192  0.1178  0.5426 -0.2835
 2211SOL    HW118092   3.818   2.855   8.176 -1.0126  0.4691 -2.7953
 2211SOL    HW218093   3.694   2.927   8.237 -0.7272 -2.6534 -2.7843
 2212SOL     OW18094   1.712   3.437   5.447 -0.3047  0.1344 -0.2777
 2212SOL    HW118095   1.728   3.522   5.488  0.1060 -1.7257  3.4306
 2212SOL    HW218096   1.622   3.421   5.476  0.5394 -1.9807  1.1663
 2213SOL     OW18097   0.261   4.670   7.623  0.1027  0.8997 -0.2553
 2213SOL    HW118098   0.191   4.720   7.665  1.0616  1.2071  0.9547
 2213SOL    HW218099   0.329   0.007   7.603  1.0110  0.2629  0.7895
 2214SOL     OW18100   1.461   2.787   3.800  0.0270 -0.2182 -0.4578
 2214SOL    HW118101   1.431   2.712   3.749 -1.9070 -0.3624  0.8858
 2214SOL    HW218102   1.465   2.857   3.734  0.2186 -1.6637 -1.9840
 2215SOL     OW18103   1.129   3.973   9.045  0.0932  0.1255 -0.3506
 2215SOL    HW118104   1.148   4.027   9.121 -0.6395  1.0774 -0.8526
 2215SOL    HW218105   1.097   4.041   8.986  1.0461  0.7430 -0.1511
 2216SOL     OW18106   2.508   3.133  11.758 -0.1131  0.0039  0.0171
 2216SOL    HW118107   2.570   3.061  11.744  0.9287  0.7346  0.9248
 2216SOL    HW218108   2.433   3.111  11.702  0.1322 -3.7748  1.1439
 2217SOL     OW18109   2.776   4.589   0.390  0.2528  0.6726  0.3728
 2217SOL    HW118110   2.687   4.620   0.405 -0.1527 -0.4837  0.3939
 2217SOL    HW218111   2.762   4.496   0.411 -1.6790  1.5177  2.8464
 2218SOL     OW18112   0.142   1.485   7.904  0.3263  0.2628 -0.5180
 2218SOL    HW118113   0.204   1.413   7.895  0.6816  0.3010  1.4986
 2218SOL    HW218114   0.094   1.464   7.824  0.8471  0.1310 -0.7900
 2219SOL     OW18115   2.375   3.755   8.412 -0.5437 -0.2785 -0.2265
 2219SOL    HW118116   2.395   3.847   8.431  1.6460 -1.0324  1.2065
 2219SOL    HW218117   2.452   3.708   8.444  0.1443 -1.1263 -3.1561
 2220SOL     OW18118   4.018   3.843   0.050 -0.2815  0.3807  0.3245
 2220SOL    HW118119   3.961   3.780   0.093  0.6641 -0.8394 -0.2135
 2220SOL    HW218120   4.029   3.907   0.119  1.1709 -0.4773  0.8856
 2221SOL     OW18121   3.417   1.953   5.223  0.3371  0.0483  0.4083
 2221SOL    HW118122   3.375   1.938   5.308 -1.5523  1.6431 -0.2547
 2221SOL    HW218123   3.337   1.985   5.181  0.6422  0.6625  0.2956
 2222SOL     OW18124   0.638   3.832  17.172 -0.3530  0.1580  0.3072
 2222SOL    HW118125   0.704   3.823  17.241 -0.2110 -0.4655  0.0910
 2222SOL    HW218126   0.594   3.912  17.200 -1.9756 -0.1539 -1.3250
 2223SOL     OW18127   2.668   2.010   6.585  0.2848 -0.1132 -0.5869
 2223SOL    HW118128   2.751   2.058   6.583 -0.8553  1.8140 -1.4235
 2223SOL    HW218129   2.689   1.942   6.520 -0.6106  0.8457 -1.8729
 2224SOL     OW18130   2.738   2.463   3.974  0.3062 -0.1192  0.5271
 2224SOL    HW118131   2.686   2.511   4.039 -0.5461  0.3757 -0.5122
 2224SOL    HW218132   2.806   2.417   4.023  0.6064 -1.3327 -1.0061
 2225SOL     OW18133   1.247   3.964   5.916  0.2497 -0.5466  0.1746
 2225SOL    HW118134   1.271   3.994   5.828  1.9693 -0.6691  0.5885
 2225SOL    HW218135   1.160   4.001   5.928  0.4444 -0.0102 -0.0588
 2226SOL     OW18136   4.397   1.094  16.626 -0.1325 -0.0338 -0.5091
 2226SOL    HW118137   4.423   1.186  16.627 -0.2978  0.0143 -0.7037
 2226SOL    HW218138   4.470   1.065  16.682 -1.3658 -1.7041  0.2229
 2227SOL     OW18139   2.498   2.863   9.351 -0.2383 -0.0872 -0.2374
 2227SOL    HW118140   2.537   2.950   9.339 -0.7115  0.1151 -0.3027
 2227SOL    HW218141   2.450   2.854   9.269 -1.9764 -0.4557  0.8258
 2228SOL     OW18142   3.632   1.219   8.677  0.3054  0.0542  0.2108
 2228SOL    HW118143   3.616   1.141   8.623 -0.9231 -0.8944  1.9593
 2228SOL    HW218144   3.709   1.194   8.727 -0.6137  0.0924  1.6471
 2229SOL     OW18145   4.330   1.560   5.785 -0.1551  0.1539 -0.2498
 2229SOL    HW118146   4.240   1.527   5.783  0.0394 -0.4521  1.0565
 2229SOL    HW218147   4.307   1.653   5.779 -1.3793 -0.0801  0.8567
 2230SOL     OW18148   1.979   2.310   9.836 -0.4555 -0.2854 -0.4594
 2230SOL    HW118149   1.969   2.352   9.921 -3.1828  0.1734 -1.0059
 2230SOL    HW218150   2.060   2.259   9.846 -0.0255  0.4737 -0.0994
 2231SOL     OW18151   1.190   4.382   5.945 -0.2798 -0.1996  0.1795
 2231SOL    HW118152   1.171   4.473   5.921 -0.6533 -0.9848 -2.6036
 2231SOL    HW218153   1.208   4.387   6.038 -0.0858  1.9271  0.0462
 2232SOL     OW18154   0.438   4.248   3.866  0.1343 -0.2112  0.3699
 2232SOL    HW118155   0.379   4.217   3.797  0.9523  0.2407 -0.5163
 2232SOL    HW218156   0.380   4.286   3.933  0.2950  2.0278 -0.7859
 2233SOL     OW18157   3.939   2.141  12.223 -0.0589  0.3772  0.4673
 2233SOL    HW118158   3.946   2.118  12.131  0.6537 -0.1126  0.6470
 2233SOL    HW218159   3.926   2.053  12.260 -3.9674  1.2380  1.1457
 2234SOL     OW18160   3.813   2.539   2.076 -0.2731 -0.0088  0.2889
 2234SOL    HW118161   3.904   2.570   2.084 -0.2732  0.1718 -0.4073
 2234SOL    HW218162   3.824   2.484   1.999 -0.2699 -0.9621  0.9785
 2235SOL     OW18163   4.207   2.502   7.998 -0.1000  0.2332  0.1487
 2235SOL    HW118164   4.275   2.517   7.933  0.4954 -1.8885  0.2775
 2235SOL    HW218165   4.162   2.422   7.970 -1.1740  1.1381 -0.7444
 2236SOL     OW18166   1.054   4.480   4.749 -0.6927 -0.1323 -0.2583
 2236SOL    HW118167   0.968   4.471   4.707 -1.9310 -0.5190  2.3966
 2236SOL    HW218168   1.088   4.391   4.742 -1.6945 -0.6438  1.4027
 2237SOL     OW18169   0.519   2.121   7.834 -1.0889 -0.5492 -0.5005
 2237SOL    HW118170   0.475   2.035   7.829  0.3844 -1.3759  1.1358
 2237SOL    HW218171   0.494   2.145   7.923 -2.3189 -0.6699 -0.8146
 2238SOL     OW18172   0.565   0.109   2.842  0.1192  0.2688 -0.0994
 2238SOL    HW118173   0.549   0.188   2.791 -0.2242 -0.5811 -1.3003
 2238SOL    HW218174   0.550   0.041   2.776  2.1049 -1.0413  0.7885
 2239SOL     OW18175   4.476   2.028   1.583  0.0802  0.0947 -0.3589
 2239SOL    HW118176   4.499   2.119   1.603  0.1463 -0.0987  0.4652
 2239SOL    HW218177   4.541   1.978   1.632 -2.2999 -2.0194  0.6904
 2240SOL     OW18178   3.307   2.614   8.095  0.3366 -0.1419 -0.1188
 2240SOL    HW118179   3.288   2.632   8.003  0.6299 -1.6540 -0.4600
 2240SOL    HW218180   3.326   2.521   8.097 -0.6294 -0.2897  1.8139
 2241SOL     OW18181   0.575   4.654   2.622 -0.3006  0.4078  0.0918
 2241SOL    HW118182   0.634   4.613   2.559 -0.6025  1.3602 -0.8036
 2241SOL    HW218183   0.503   4.684   2.567 -1.2628 -1.8551  0.1087
 2242SOL     OW18184   2.066   2.024  17.115  0.0992  0.1230 -0.6880
 2242SOL    HW118185   2.031   1.951  17.166 -0.1699 -0.2972 -1.4753
 2242SOL    HW218186   1.987   2.079  17.112 -0.1213 -0.0951  1.3195
 2243SOL     OW18187   2.890   0.896   9.178  0.0819 -0.0994  0.1216
 2243SOL    HW118188   2.944   0.973   9.195 -0.4513  0.1591  0.6388
 2243SOL    HW218189   2.922   0.825   9.233  1.7015  1.7435  1.5628
 2244SOL     OW18190   2.668   4.612   5.840 -0.7627  0.3749 -0.1500
 2244SOL    HW118191   2.746   4.666   5.851  1.3081 -2.4859 -0.8836
 2244SOL    HW218192   2.666   4.603   5.745  0.7573  1.0706 -0.2522
 2245SOL     OW18193   2.827   2.611   5.190  0.2000  0.4178  0.0813
 2245SOL    HW118194   2.744   2.635   5.231  0.2322  1.7193 -0.6402
 2245SOL    HW218195   2.856   2.700   5.172 -0.9467  1.3267  2.7508
 2246SOL     OW18196   0.644   4.250   4.620 -0.3428  0.3198 -0.0121
 2246SOL    HW118197   0.675   4.238   4.530 -2.0931  1.7618 -0.8092
 2246SOL    HW218198   0.556   4.213   4.613 -0.9582  1.8140 -0.3037
 2247SOL     OW18199   3.915   2.476   9.717  0.2358  0.4577  0.3451
 2247SOL    HW118200   3.891   2.433   9.799 -2.2303 -1.4424 -1.3489
 2247SOL    HW218201   3.909   2.407   9.651 -2.6694 -0.2773  1.3818
 2248SOL     OW18202   0.917   0.349   3.533 -0.3220 -0.4209 -0.6074
 2248SOL    HW118203   0.920   0.307   3.446 -0.7465 -0.2134 -0.7188
 2248SOL    HW218204   0.847   0.303   3.579 -0.9477  0.4372 -0.7166
 2249SOL     OW18205   4.569   3.182   7.713  0.3147 -0.3385 -0.1487
 2249SOL    HW118206   4.652   3.181   7.760  0.2721 -2.0698 -0.1220
 2249SOL    HW218207   4.513   3.146   7.782 -1.2596  2.3596  0.0152
 2250SOL     OW18208   4.147   1.272   3.204  0.3201  0.2521 -0.1565
 2250SOL    HW118209   4.176   1.230   3.285 -1.8154  1.8937  1.4738
 2250SOL    HW218210   4.224   1.324   3.181  0.5662 -1.7810 -3.9744
 2251SOL     OW18211   2.832   1.158   9.843  0.3452 -0.4934 -0.4959
 2251SOL    HW118212   2.838   1.171   9.937 -2.0729 -1.7380 -0.1607
 2251SOL    HW218213   2.851   1.244   9.807  1.9062 -1.6187 -2.3457
 2252SOL     OW18214   4.553   3.939  15.373 -0.0254  0.1510 -0.8350
 2252SOL    HW118215   4.502   3.859  15.388  0.6231 -0.1212 -0.1210
 2252SOL    HW218216   4.498   4.007  15.413 -0.7045 -1.0104  0.1971
 2253SOL     OW18217   2.210   4.634   5.440  0.1060 -0.0524  0.4921
 2253SOL    HW118218   2.133   4.616   5.495  0.0928  2.0139  1.1591
 2253SOL    HW218219   2.281   4.652   5.502 -1.6494  1.1359  2.1768
 2254SOL     OW18220   3.088   1.434   7.115  0.1104  0.1734  0.0347
 2254SOL    HW118221   3.029   1.447   7.190 -0.2931 -0.1477 -0.2251
 2254SOL    HW218222   3.049   1.356   7.074 -0.2063  0.4158 -0.1245
 2255SOL     OW18223   2.913   3.885   7.210 -0.3463 -0.2236  0.3567
 2255SOL    HW118224   2.866   3.933   7.142  0.2397 -0.1993 -0.0311
 2255SOL    HW218225   2.997   3.930   7.215 -0.2072 -0.1934 -2.4002
 2256SOL     OW18226   4.240   4.380   5.985 -0.0928  0.0659 -0.0906
 2256SOL    HW118227   4.275   4.300   6.025 -1.1384 -0.0322  0.6531
 2256SOL    HW218228   4.303   4.447   6.011  0.8047 -0.3460 -1.2435
 2257SOL     OW18229   3.142   0.843  11.561 -0.4332 -0.3185 -0.2172
 2257SOL    HW118230   3.224   0.802  11.589  0.2475  0.9552 -0.3508
 2257SOL    HW218231   3.095   0.849  11.643  0.1945  0.4504  0.0886
 2258SOL     OW18232   0.161   3.750  14.423  0.5236 -0.1445  0.4801
 2258SOL    HW118233   0.095   3.790  14.367  0.8682 -0.1236  0.0907
 2258SOL    HW218234   0.193   3.678  14.370  0.4798 -0.7841  1.3136
 2259SOL     OW18235   1.941   2.701   8.301  0.4492 -0.1877 -0.1292
 2259SOL    HW118236   2.015   2.752   8.268  1.3070 -0.8095  0.8427
 2259SOL    HW218237   1.939   2.712   8.397  1.6010 -1.0786 -0.0110
 2260SOL     OW18238   1.800   0.351   2.200 -0.0732 -0.2532  0.3068
 2260SOL    HW118239   1.793   0.416   2.270 -1.7744  0.2074 -0.2868
 2260SOL    HW218240   1.876   0.298   2.223 -0.1937 -0.3036  0.5935
 2261SOL     OW18241   3.163   1.402  16.385 -0.3397  0.5536 -0.8080
 2261SOL    HW118242   3.098   1.367  16.447  0.4750 -1.5933 -1.1657
 2261SOL    HW218243   3.120   1.480  16.350 -1.4935  0.5778  0.6685
 2262SOL     OW18244   1.549   4.123  16.673  0.0849 -0.2635  0.2176
 2262SOL    HW118245   1.621   4.097  16.615  0.0277  2.0864 -0.9110
 2262SOL    HW218246   1.515   4.198  16.625  2.9960  1.1808  0.4005
 2263SOL     OW18247   2.655   0.348   2.264 -0.4371 -0.8356 -0.3037
 2263SOL    HW118248   2.714   0.348   2.339 -0.5631  1.5896 -0.1897
 2263SOL    HW218249   2.599   0.421   2.293  1.7916  0.2113  1.3541
 2264SOL     OW18250   0.402   1.517   8.954 -0.5195  0.0964  0.8683
 2264SOL    HW118251   0.334   1.582   8.972  0.1300  1.2696 -0.9893
 2264SOL    HW218252   0.480   1.571   8.941 -0.6857  0.3435  0.8918
 2265SOL     OW18253   2.701   2.074   7.965  0.0411 -0.8055 -0.3429
 2265SOL    HW118254   2.717   1.995   7.914  0.4673  0.0819 -1.5890
 2265SOL    HW218255   2.612   2.102   7.943  0.6586  0.0923 -1.7357
 2266SOL     OW18256   0.785   2.546   6.436 -0.0971 -0.1685  0.2592
 2266SOL    HW118257   0.881   2.551   6.437 -0.0986 -0.0332 -0.5420
 2266SOL    HW218258   0.767   2.486   6.508 -0.2678  0.0414  0.3914
 2267SOL     OW18259   0.404   3.764   5.135 -0.0271 -0.3416 -0.0959
 2267SOL    HW118260   0.388   3.855   5.158 -0.6895 -0.5973  0.4503
 2267SOL    HW218261   0.489   3.764   5.090  0.6614 -0.8220  1.2253
 2268SOL     OW18262   3.359   4.467   2.264 -0.1756  0.3078  0.0734
 2268SOL    HW118263   3.341   4.380   2.301  1.2209 -0.7422 -1.7336
 2268SOL    HW218264   3.431   4.439   2.208  0.7923  0.9699  0.9881
 2269SOL     OW18265   1.191   4.348   4.366  0.0059 -0.0756 -0.3988
 2269SOL    HW118266   1.213   4.353   4.273  0.4638  0.1993 -0.2754
 2269SOL    HW218267   1.218   4.258   4.383 -0.5297 -0.5136 -1.8103
 2270SOL     OW18268   2.524   0.654   3.620  0.8273 -0.1228  0.2872
 2270SOL    HW118269   2.616   0.681   3.624  0.8899 -0.4235  0.7825
 2270SOL    HW218270   2.536   0.575   3.567 -1.0477  1.1818 -2.1074
 2271SOL     OW18271   1.407   4.117   1.069 -0.2335 -0.5108 -0.5614
 2271SOL    HW118272   1.470   4.059   1.027  1.6467  1.1396 -0.0302
 2271SOL    HW218273   1.450   4.121   1.155 -1.1980  2.1019 -0.2195
 2272SOL     OW18274   2.375   1.967  13.058  0.1949  0.5200 -0.4961
 2272SOL    HW118275   2.390   1.873  13.059 -2.1105  0.2024  2.9389
 2272SOL    HW218276   2.285   1.973  13.026 -0.0631  1.9494  0.4782
 2273SOL     OW18277   3.616   1.105   3.163 -0.0168  0.1073  0.3123
 2273SOL    HW118278   3.551   1.044   3.198  1.2147 -1.2347  0.2080
 2273SOL    HW218279   3.557   1.181   3.155 -1.1587 -1.0692 -2.5170
 2274SOL     OW18280   0.647   1.027   1.931  0.1911 -0.2210  0.1267
 2274SOL    HW118281   0.605   1.084   1.995 -0.4175  1.7994 -2.0698
 2274SOL    HW218282   0.729   1.023   1.980 -0.9002 -2.2772  1.7827
 2275SOL     OW18283   0.562   2.282  11.027 -0.3229 -0.2075  0.5769
 2275SOL    HW118284   0.491   2.252  10.970  0.1462  1.0006 -0.6322
 2275SOL    HW218285   0.517   2.268  11.110  0.9711  0.4560  1.3867
 2276SOL     OW18286   4.081   1.774   5.512  0.0758  0.0261  0.5655
 2276SOL    HW118287   4.007   1.714   5.503 -0.1757 -0.1048  3.6307
 2276SOL    HW218288   4.155   1.713   5.509  0.4318  0.5963 -2.7157
 2277SOL     OW18289   1.801   4.101   0.388 -0.1596  0.4780  0.3012
 2277SOL    HW118290   1.750   4.159   0.331 -1.3664 -1.0730 -0.1901
 2277SOL    HW218291   1.854   4.164   0.436  2.0624 -1.6327  0.6088
 2278SOL     OW18292   4.017   3.631   1.092 -0.1692 -0.0893 -0.1460
 2278SOL    HW118293   4.095   3.619   1.037 -0.1454  0.4456 -0.2312
 2278SOL    HW218294   3.999   3.540   1.113 -1.5858  0.8415  2.7285
 2279SOL     OW18295   3.778   1.343  12.025  0.9362 -0.4452  0.0077
 2279SOL    HW118296   3.710   1.410  12.019  0.3457 -1.0359  0.0089
 2279SOL    HW218297   3.733   1.283  12.085  0.6253  0.4052  0.6146
 2280SOL     OW18298   4.103   0.962   3.576 -0.4969 -0.1818  0.2897
 2280SOL    HW118299   4.099   0.993   3.667  1.8166 -1.3170  0.8023
 2280SOL    HW218300   4.156   0.882   3.581 -0.8990 -0.4398  0.4433
 2281SOL     OW18301   4.223   2.952  12.214  0.2319  0.1285 -0.0046
 2281SOL    HW118302   4.180   2.915  12.291 -1.6749 -0.4459 -1.3470
 2281SOL    HW218303   4.284   2.882  12.192  2.7702  2.5401 -0.6847
 2282SOL     OW18304   1.436   4.358   2.450  0.1163 -0.0406  0.4437
 2282SOL    HW118305   1.504   4.365   2.382 -0.0274 -0.1600  0.2884
 2282SOL    HW218306   1.480   4.398   2.525  1.5107 -0.7463  0.0075
 2283SOL     OW18307   1.725   3.209  11.386 -0.3104 -0.4355  0.3465
 2283SOL    HW118308   1.654   3.185  11.326 -0.4193 -1.2929  0.8239
 2283SOL    HW218309   1.677   3.218  11.468  2.4547  1.6341  1.7114
 2284SOL     OW18310   1.530   4.396  16.329  0.5553 -0.3615  0.2030
 2284SOL    HW118311   1.577   4.319  16.298 -1.7472 -1.4015 -0.6968
 2284SOL    HW218312   1.578   4.467  16.286 -0.3551  0.2944  0.2535
 2285SOL     OW18313   3.709   4.595   2.598 -0.1298  0.2967  0.4683
 2285SOL    HW118314   3.737   4.505   2.583  2.0810  0.8586  1.3646
 2285SOL    HW218315   3.659   4.580   2.679 -1.5149 -1.6078 -0.7224
 2286SOL     OW18316   1.635   4.421   7.474 -0.2956 -0.5045 -0.1556
 2286SOL    HW118317   1.594   4.487   7.530  0.1309  0.1432 -0.6075
 2286SOL    HW218318   1.702   4.468   7.423  0.5044 -1.8588 -0.3576
 2287SOL     OW18319   1.373   3.024  16.964 -0.3936 -0.0570 -0.2668
 2287SOL    HW118320   1.384   3.048  16.872  2.1242  1.0012  0.3071
 2287SOL    HW218321   1.377   3.108  17.010  0.1631  0.4236 -1.2002
 2288SOL     OW18322   2.187   1.631   2.059  0.5344 -0.1033 -0.3506
 2288SOL    HW118323   2.176   1.707   2.003 -0.0342 -1.4432 -2.0519
 2288SOL    HW218324   2.112   1.645   2.117 -1.1485 -1.2468 -2.2697
 2289SOL     OW18325   3.569   2.604  14.940  0.1378 -0.3867  0.0645
 2289SOL    HW118326   3.537   2.664  15.007  0.2352 -0.6976  0.3936
 2289SOL    HW218327   3.636   2.647  14.888 -0.9138  2.4006  1.0288
 2290SOL     OW18328   1.907   1.530  11.612 -0.2655  0.3317 -0.5846
 2290SOL    HW118329   1.828   1.476  11.606 -1.3875  1.9931 -1.0943
 2290SOL    HW218330   1.869   1.618  11.605 -0.1858  0.5058  1.3211
 2291SOL     OW18331   2.149   2.580   3.960  0.3005 -0.1205  0.0781
 2291SOL    HW118332   2.100   2.505   3.994 -1.5476  0.8697 -0.4254
 2291SOL    HW218333   2.238   2.543   3.964  0.7706  1.2414  2.3263
 2292SOL     OW18334   1.588   3.119  12.406 -0.2291 -0.1155  0.1304
 2292SOL    HW118335   1.532   3.193  12.428 -0.2152  0.5319 -1.9819
 2292SOL    HW218336   1.665   3.132  12.461 -1.0982 -1.9411  1.7754
 2293SOL     OW18337   1.191   3.908   5.188 -0.0840  0.1314 -0.0528
 2293SOL    HW118338   1.249   3.968   5.140 -0.0014  0.9285  1.0523
 2293SOL    HW218339   1.175   3.962   5.265  1.1378  0.6864 -0.1826
 2294SOL     OW18340   2.860   0.205   5.016  0.6215 -0.1803 -0.4617
 2294SOL    HW118341   2.905   0.238   5.094  0.3000 -0.1278 -0.2988
 2294SOL    HW218342   2.775   0.247   5.029 -0.3620 -2.7339  1.4283
 2295SOL     OW18343   2.613   1.365   7.085 -0.5743  0.4742 -0.6465
 2295SOL    HW118344   2.551   1.393   7.018 -2.9096 -2.2517  0.3339
 2295SOL    HW218345   2.686   1.333   7.031  0.0648  2.8267 -1.1576
 2296SOL     OW18346   1.649   3.570  17.056 -0.0373 -0.8329 -0.3438
 2296SOL    HW118347   1.594   3.598  16.983 -1.6082  0.4763  1.3738
 2296SOL    HW218348   1.577   3.534  17.107  0.8398 -0.5952  1.0552
 2297SOL     OW18349   4.560   3.623   4.709  0.9551 -0.1034  0.2735
 2297SOL    HW118350   4.598   3.710   4.714  1.7050 -0.3575 -1.0218
 2297SOL    HW218351   4.588   3.597   4.621  0.1894 -0.6058  0.1790
 2298SOL     OW18352   0.229   2.453   1.101  0.7851 -0.1700 -0.0400
 2298SOL    HW118353   0.171   2.445   1.177  2.0185 -1.5514  0.7812
 2298SOL    HW218354   0.163   2.451   1.032 -0.9837  0.0529  1.6376
 2299SOL     OW18355   3.003   1.432   4.289  0.4385 -0.2138  0.4583
 2299SOL    HW118356   3.089   1.459   4.259 -0.5683  1.6732 -0.7455
 2299SOL    HW218357   2.946   1.467   4.220  3.6196  0.5140 -1.7629
 2300SOL     OW18358   3.804   1.412   6.598 -0.2768 -0.3261 -0.2099
 2300SOL    HW118359   3.784   1.467   6.674 -0.2454 -1.5391  0.6880
 2300SOL    HW218360   3.851   1.469   6.537 -0.3881 -0.6321 -0.5852
 2301SOL     OW18361   0.237   4.514   2.978 -0.2231  0.0004  0.0601
 2301SOL    HW118362   0.287   4.594   2.994  0.3236 -0.3937  0.2893
 2301SOL    HW218363   0.161   4.519   3.037 -0.2206 -0.6161  0.1063
 2302SOL     OW18364   3.597   3.370  11.026  0.4683 -0.3941 -0.3037
 2302SOL    HW118365   3.503   3.351  11.022 -0.0732  2.0722  0.2780
 2302SOL    HW218366   3.611   3.392  10.934 -2.3803  0.5854 -0.5039
 2303SOL     OW18367   1.044   1.037   8.758  0.3689  0.4163  0.0869
 2303SOL    HW118368   1.032   1.043   8.853 -0.7486 -0.1334 -0.0196
 2303SOL    HW218369   1.081   0.949   8.749  0.4281  0.3667  0.8140
 2304SOL     OW18370   2.725   2.576   4.357  0.4183 -0.4127 -0.0102
 2304SOL    HW118371   2.662   2.592   4.286  0.0673 -1.8107 -0.0050
 2304SOL    HW218372   2.700   2.491   4.393  1.9801 -0.4970  0.8665
 2305SOL     OW18373   1.515   1.922   9.114  0.5268 -0.2588 -0.0171
 2305SOL    HW118374   1.534   1.988   9.048 -1.7308  1.6426  1.2599
 2305SOL    HW218375   1.595   1.868   9.109  0.6123 -0.3434  1.9837
 2306SOL     OW18376   4.427   1.852   9.113 -0.0614 -0.7810  0.3396
 2306SOL    HW118377   4.428   1.944   9.138 -0.2705 -1.2757  2.1672
 2306SOL    HW218378   4.370   1.817   9.181 -1.3505 -0.8714 -0.7851
 2307SOL     OW18379   4.641   3.768  12.399  0.0175  0.0379 -0.0255
 2307SOL    HW118380   4.640   3.730  12.486  1.8302  1.6194  0.6989
 2307SOL    HW218381   4.726   3.811  12.393 -0.4810  0.8325 -1.5504
 2308SOL     OW18382   1.413   4.429  11.044  0.3165 -0.4854 -0.2001
 2308SOL    HW118383   1.456   4.389  11.120  0.9475 -0.9888 -0.8150
 2308SOL    HW218384   1.479   4.435  10.975 -0.7791  2.7628 -0.9621
 2309SOL     OW18385   2.774   1.666  11.464  0.2233  0.4612 -0.1192
 2309SOL    HW118386   2.784   1.659  11.370 -0.2013 -1.1922 -0.0396
 2309SOL    HW218387   2.712   1.739  11.470 -0.4078 -0.1192  0.4052
 2310SOL     OW18388   3.369   1.588   4.170 -0.3377 -0.3040 -0.0803
 2310SOL    HW118389   3.278   1.615   4.183 -0.0959  0.9522 -0.8916
 2310SOL    HW218390   3.352   1.496   4.151 -0.8362 -0.3735  0.7099
 2311SOL     OW18391   0.558   2.091   3.687  0.3517  0.3480 -0.2232
 2311SOL    HW118392   0.552   1.999   3.662 -1.0561  0.4339 -0.1957
 2311SOL    HW218393   0.491   2.089   3.755  0.2520  0.8886 -0.3019
 2312SOL     OW18394   0.631   3.457   5.069 -0.5909 -0.0233 -0.0805
 2312SOL    HW118395   0.640   3.547   5.036 -1.2270  0.2149  0.3867
 2312SOL    HW218396   0.545   3.431   5.037 -0.1588 -2.2271  0.5947
 2313SOL     OW18397   0.002   3.672  14.625  0.1604 -0.0488  0.3544
 2313SOL    HW118398   4.675   3.749  14.609 -0.6654 -0.6102  0.4276
 2313SOL    HW218399   0.069   3.677  14.557  0.3185  1.4411  0.6082
 2314SOL     OW18400   3.294   1.841  16.879 -0.5589 -0.2593 -0.2054
 2314SOL    HW118401   3.219   1.882  16.922 -3.2150 -1.5214 -3.6214
 2314SOL    HW218402   3.371   1.889  16.909 -0.5479  0.6140 -1.6494
 2315SOL     OW18403   0.877   2.265   3.234  0.0801  1.0784  0.1578
 2315SOL    HW118404   0.805   2.277   3.172  0.4467 -2.3293 -0.9562
 2315SOL    HW218405   0.859   2.189   3.289  1.8670  0.1557 -0.5415
 2316SOL     OW18406   1.596   3.291   1.214 -0.6470  0.0464  0.4105
 2316SOL    HW118407   1.670   3.310   1.155 -1.1556  1.7049  0.3021
 2316SOL    HW218408   1.574   3.377   1.249 -0.4255 -1.0328  3.2035
 2317SOL     OW18409   0.582   0.478   0.191  0.1749  0.2751  0.2033
 2317SOL    HW118410   0.523   0.405   0.209 -0.0310  0.3245 -0.2922
 2317SOL    HW218411   0.514   0.545   0.184 -0.6807 -0.7785 -1.4941
 2318SOL     OW18412   4.002   0.077  13.773 -0.0452 -0.2515  0.1492
 2318SOL    HW118413   4.015   4.712  13.749 -0.7011 -0.2926 -0.0300
 2318SOL    HW218414   4.012   0.082  13.868 -0.3522 -0.7609  0.2067
 2319SOL     OW18415   0.706   3.058   5.882  0.4017  0.2271 -0.3075
 2319SOL    HW118416   0.651   2.980   5.889 -0.7459  0.8238 -2.8872
 2319SOL    HW218417   0.689   3.078   5.790 -0.7960 -0.6258 -0.2699
 2320SOL     OW18418   1.073   4.470   9.873  0.4480  0.6642 -0.0423
 2320SOL    HW118419   1.022   4.537   9.919  0.3047 -0.6313  1.6689
 2320SOL    HW218420   1.140   4.523   9.830  1.3042  0.7733  1.4477
 2321SOL     OW18421   2.446   0.008  11.254  0.5956  0.2201 -0.0817
 2321SOL    HW118422   2.432   4.650  11.296  0.2394  0.3688  0.1022
 2321SOL    HW218423   2.527   0.042  11.292  1.4469 -0.7068 -1.0626
 2322SOL     OW18424   1.456   3.978   5.366  0.0336  0.7340  0.2159
 2322SOL    HW118425   1.545   3.956   5.391 -0.8654 -2.4053  0.6444
 2322SOL    HW218426   1.458   4.000   5.273  0.5230  1.3757  0.3803
 2323SOL     OW18427   4.153   1.997   3.950 -0.1429  0.0331  0.0383
 2323SOL    HW118428   4.132   1.972   3.860 -1.6734 -1.3477  0.7867
 2323SOL    HW218429   4.157   1.913   3.996  1.3559 -0.1938 -0.5133
 2324SOL     OW18430   0.227   0.527  15.123  0.3964 -0.2723 -0.3820
 2324SOL    HW118431   0.273   0.608  15.146 -1.9752  0.7709  0.6849
 2324SOL    HW218432   0.221   0.483  15.208  0.7417 -0.5427 -0.4972
 2325SOL     OW18433   2.028   3.198   3.451  0.3151 -0.2303 -0.4536
 2325SOL    HW118434   2.008   3.244   3.532 -0.2771 -1.3695  0.0537
 2325SOL    HW218435   2.123   3.201   3.459  0.1651 -0.9246  1.6050
 2326SOL     OW18436   4.332   0.013   5.864  0.4378  0.1761  0.3873
 2326SOL    HW118437   4.309   0.081   5.801  0.5213 -0.1899 -0.0380
 2326SOL    HW218438   4.391   0.069   5.914  0.1179  0.4618  0.4455
 2327SOL     OW18439   0.440   1.692  11.971  0.5031  0.2973 -0.2876
 2327SOL    HW118440   0.377   1.628  12.002  0.9033  0.1716  0.2619
 2327SOL    HW218441   0.420   1.777  12.012  0.5134  0.9129 -1.5399
 2328SOL     OW18442   1.273   4.331   7.558 -0.6517 -0.0844  0.1804
 2328SOL    HW118443   1.284   4.424   7.581 -0.7348  0.5645 -2.3876
 2328SOL    HW218444   1.362   4.302   7.539 -0.2766  1.6902 -0.8231
 2329SOL     OW18445   0.147   1.109   3.766 -0.0016  0.0296  0.4519
 2329SOL    HW118446   0.122   1.020   3.792 -3.1899  0.0594 -2.4976
 2329SOL    HW218447   0.065   1.141   3.729 -0.0074  0.1068  0.5325
 2330SOL     OW18448   1.057   0.153  16.890 -0.1320  0.0497  0.0188
 2330SOL    HW118449   1.008   0.148  16.972 -1.9988  0.0633 -1.0961
 2330SOL    HW218450   1.120   0.086  16.915  0.1361 -0.0126 -0.8001
 2331SOL     OW18451   2.656   1.238   7.328 -0.1133 -0.1974 -0.3571
 2331SOL    HW118452   2.641   1.304   7.396 -2.1065  1.5258 -2.4886
 2331SOL    HW218453   2.643   1.281   7.244 -1.1166  2.1044  0.9684
 2332SOL     OW18454   0.700   3.575   1.582  0.0004  0.0290 -0.1980
 2332SOL    HW118455   0.655   3.491   1.587  0.8414 -0.4716 -1.2330
 2332SOL    HW218456   0.679   3.608   1.670  1.7386  0.1822  0.1482
 2333SOL     OW18457   4.108   2.283  15.804  0.3379 -0.2051 -0.0190
 2333SOL    HW118458   4.174   2.257  15.867  0.7821  1.0200  0.0130
 2333SOL    HW218459   4.038   2.226  15.837 -0.6968  0.1228 -1.6244
 2334SOL     OW18460   0.975   1.728   0.936  0.3612  0.2016 -0.3935
 2334SOL    HW118461   0.885   1.757   0.920 -0.1429 -1.0656  0.1787
 2334SOL    HW218462   1.016   1.798   0.987 -2.0357  0.7656  0.7918
 2335SOL     OW18463   4.133   0.399   5.634  0.3799  0.1338 -0.5438
 2335SOL    HW118464   4.190   0.469   5.604  0.1243 -0.4697 -2.4559
 2335SOL    HW218465   4.062   0.449   5.675  1.2939  1.6793 -0.8543
 2336SOL     OW18466   4.236   0.639   5.309 -0.2724  0.1526  0.2221
 2336SOL    HW118467   4.329   0.640   5.288 -1.1298  2.2453 -3.4827
 2336SOL    HW218468   4.192   0.703   5.254 -3.3458 -1.3676  0.8916
 2337SOL     OW18469   4.448   1.985   2.453  0.3941 -0.3084 -0.1717
 2337SOL    HW118470   4.521   2.022   2.404  1.4646  0.0183  1.6459
 2337SOL    HW218471   4.433   1.900   2.412  0.4737  0.0832 -1.0056
 2338SOL     OW18472   0.657   4.520   0.753  0.8123 -0.4210  0.0755
 2338SOL    HW118473   0.707   4.564   0.684 -2.7125  2.6467 -0.5552
 2338SOL    HW218474   0.726   4.475   0.801  1.5392  0.5294 -0.0824
 2339SOL     OW18475   0.918   0.986   2.704  0.2795  0.4230  0.3968
 2339SOL    HW118476   0.900   1.073   2.669  0.6845 -1.0202 -3.4833
 2339SOL    HW218477   1.008   0.961   2.683 -0.4567 -0.5794 -1.6247
 2340SOL     OW18478   3.825   0.941   7.468 -0.3154 -0.1253 -0.2700
 2340SOL    HW118479   3.731   0.956   7.458 -0.5291 -1.1338  0.2516
 2340SOL    HW218480   3.834   0.909   7.558 -0.2850  0.5856 -0.0209
 2341SOL     OW18481   2.275   2.094   6.908 -0.1088 -0.0253 -0.0341
 2341SOL    HW118482   2.325   2.076   6.829  1.6686 -0.8343  1.2772
 2341SOL    HW218483   2.266   2.012   6.956  2.2066  0.0010  0.4636
 2342SOL     OW18484   3.793   0.624  14.703  0.1228 -0.1802 -0.3802
 2342SOL    HW118485   3.708   0.603  14.741  0.1645  0.3505  0.0004
 2342SOL    HW218486   3.821   0.545  14.656 -2.2071 -0.3481 -1.5170
 2343SOL     OW18487   3.253   1.822  16.598 -0.0817  0.0624 -0.1404
 2343SOL    HW118488   3.250   1.805  16.693  1.2982 -0.5650 -0.2013
 2343SOL    HW218489   3.240   1.917  16.593 -0.4692  0.0788  1.1805
 2344SOL     OW18490   0.826   4.144   7.512  0.1590  0.0139 -0.3900
 2344SOL    HW118491   0.882   4.218   7.533  0.0717 -0.1183  0.2985
 2344SOL    HW218492   0.758   4.150   7.579  1.4672  0.5583  0.8870
 2345SOL     OW18493   4.409   2.958   8.980 -0.7611 -0.2475 -0.3938
 2345SOL    HW118494   4.503   2.970   8.966 -0.6334 -2.9870 -1.8736
 2345SOL    HW218495   4.374   3.042   8.951 -0.4893  0.5571  1.5906
 2346SOL     OW18496   1.594   0.951   3.552 -1.2139  0.3019  0.4307
 2346SOL    HW118497   1.538   1.009   3.603  1.0071  0.7908  2.2896
 2346SOL    HW218498   1.550   0.951   3.467 -1.8587  1.4536  0.7757
 2347SOL     OW18499   1.083   1.526   7.613 -0.0579 -0.8038  0.4554
 2347SOL    HW118500   1.097   1.566   7.527 -0.7554 -2.1913 -0.3009
 2347SOL    HW218501   1.029   1.450   7.592 -0.4038 -0.9913  2.0374
 2348SOL     OW18502   2.183   2.997  15.956 -0.0069 -0.3230  0.2128
 2348SOL    HW118503   2.274   2.986  15.984 -0.4603 -1.9386  1.0965
 2348SOL    HW218504   2.159   2.905  15.972 -0.0782  0.0180  2.1021
 2349SOL     OW18505   1.450   2.567   7.439 -0.5185 -0.0923 -0.1197
 2349SOL    HW118506   1.480   2.607   7.358  3.5066  0.0619  1.4867
 2349SOL    HW218507   1.517   2.617   7.485 -1.0764 -1.0797  1.7659
 2350SOL     OW18508   2.059   0.154   6.831  0.5768 -0.1579  0.0297
 2350SOL    HW118509   2.134   0.102   6.801  0.9904  0.3769  0.1201
 2350SOL    HW218510   2.092   0.229   6.882 -0.0485 -0.9212  1.5629
 2351SOL     OW18511   0.184   4.377   6.114  0.4052 -0.4280  0.0057
 2351SOL    HW118512   0.149   4.332   6.191 -0.6943  1.5206  0.6555
 2351SOL    HW218513   0.130   4.455   6.101 -0.0000 -0.6552  0.3403
 2352SOL     OW18514   3.102   0.919   8.828 -0.3624 -0.0280 -0.0973
 2352SOL    HW118515   3.089   0.836   8.874 -2.6622 -0.0267 -0.7278
 2352SOL    HW218516   3.107   0.978   8.903 -1.1940  0.9603 -0.8118
 2353SOL     OW18517   2.791   0.708   3.666 -0.2164 -0.5339 -0.2984
 2353SOL    HW118518   2.812   0.767   3.593  0.5095  2.3253  2.2507
 2353SOL    HW218519   2.880   0.690   3.697 -0.4372  0.0483  0.6889
 2354SOL     OW18520   4.251   3.994  13.830 -0.0261  0.1840 -0.2041
 2354SOL    HW118521   4.312   3.929  13.865 -0.4631 -1.3933 -2.4204
 2354SOL    HW218522   4.237   3.956  13.744  0.4063  1.1734 -0.7163
 2355SOL     OW18523   2.936   2.530  16.615  0.0533 -0.5312 -0.4443
 2355SOL    HW118524   2.894   2.465  16.671  2.2716 -1.7505 -0.2166
 2355SOL    HW218525   2.870   2.564  16.554  0.3281  0.6199 -0.1050
 2356SOL     OW18526   3.408   4.549   5.288  0.1600 -0.1940 -0.1491
 2356SOL    HW118527   3.470   4.622   5.286  1.0845 -0.9726  0.2089
 2356SOL    HW218528   3.353   4.574   5.214  0.8752 -2.4857 -1.4538
 2357SOL     OW18529   1.582   3.808   2.908  0.2429  0.7912  0.4554
 2357SOL    HW118530   1.649   3.742   2.922 -0.5953  0.2340  1.7916
 2357SOL    HW218531   1.552   3.785   2.820 -0.3223 -0.1548  0.8982
 2358SOL     OW18532   2.025   0.016  14.627 -0.5570  0.4092 -0.1989
 2358SOL    HW118533   1.986   0.002  14.541 -1.1046 -2.9600  0.6130
 2358SOL    HW218534   1.971   0.090  14.654 -0.2170  0.4008  0.5107
 2359SOL     OW18535   2.213   2.243   5.754  0.5288  0.5978 -0.0121
 2359SOL    HW118536   2.261   2.303   5.810 -0.4558  0.3690  1.0778
 2359SOL    HW218537   2.137   2.236   5.812  0.3859 -2.4644 -0.5948
 2360SOL     OW18538   1.345   4.310   5.457 -0.2672  0.1342 -0.3184
 2360SOL    HW118539   1.387   4.377   5.404 -1.3116  0.5744 -0.5919
 2360SOL    HW218540   1.280   4.368   5.495 -0.7655 -1.5012  1.3541
 2361SOL     OW18541   4.211   4.089  17.459 -0.0232 -0.0135  0.0304
 2361SOL    HW118542   4.211   4.004  17.415 -2.3419 -0.8245  1.5444
 2361SOL    HW218543   4.300   4.111  17.485  0.1263  1.0529 -1.4387
 2362SOL     OW18544   1.399   1.079   4.016  0.5055 -0.0027  0.2178
 2362SOL    HW118545   1.305   1.057   4.016  0.4069  0.4494  1.6596
 2362SOL    HW218546   1.424   1.050   4.103  0.8068 -0.9201 -0.1758
 2363SOL     OW18547   0.791   3.393  17.697 -0.3758 -0.3175 -0.1941
 2363SOL    HW118548   0.796   3.310  17.649 -2.3908 -0.6223  0.1209
 2363SOL    HW218549   0.786   3.459  17.627  2.6086 -1.8588 -1.8810
 2364SOL     OW18550   0.948   0.150  16.483 -0.2847 -0.5344  0.0657
 2364SOL    HW118551   1.035   0.121  16.511 -0.6894 -0.2931  1.5303
 2364SOL    HW218552   0.933   0.098  16.403  1.4448 -2.3953  0.9292
 2365SOL     OW18553   1.276   1.636   6.415 -0.2384 -0.1028  0.0414
 2365SOL    HW118554   1.291   1.579   6.491  1.8755 -0.7538 -0.8689
 2365SOL    HW218555   1.368   1.662   6.409 -0.0584 -0.6039  0.5766
 2366SOL     OW18556   0.450   0.185   3.332  0.0008  0.4927  0.3978
 2366SOL    HW118557   0.499   0.257   3.372  1.3435 -0.0259 -0.2980
 2366SOL    HW218558   0.502   0.177   3.251 -0.9539 -0.2267 -0.1359
 2367SOL     OW18559   0.047   0.765   6.265 -0.0803  0.2547 -0.0536
 2367SOL    HW118560   0.040   0.776   6.360 -2.2243  1.5478 -0.3749
 2367SOL    HW218561   4.683   0.744   6.244 -0.4633  0.3940  1.4450
 2368SOL     OW18562   4.295   0.930   1.680  0.4995 -0.3609  0.3635
 2368SOL    HW118563   4.298   0.834   1.680 -0.9546 -0.4257 -1.5566
 2368SOL    HW218564   4.379   0.944   1.635 -1.2215  1.9500 -2.1135
 2369SOL     OW18565   3.062   3.905  14.391 -0.0262  0.2188  0.0884
 2369SOL    HW118566   2.994   3.838  14.392 -0.9788  1.1951 -1.4654
 2369SOL    HW218567   3.025   3.962  14.324 -2.5297  0.0951  1.3914
 2370SOL     OW18568   1.530   2.863  15.686 -0.5888 -0.2707  0.3384
 2370SOL    HW118569   1.435   2.872  15.680 -0.4604  0.2609 -0.9448
 2370SOL    HW218570   1.545   2.808  15.610  0.6229  0.1472  0.2772
 2371SOL     OW18571   3.998   2.249   2.891  0.2939  0.0408  0.0833
 2371SOL    HW118572   4.034   2.336   2.875 -0.5334  0.6428  1.5896
 2371SOL    HW218573   3.906   2.254   2.867  0.6315 -0.5512 -1.3541
 2372SOL     OW18574   4.468   0.260   2.325  0.3807  0.4739  0.2844
 2372SOL    HW118575   4.407   0.310   2.378  0.1538  1.2720 -0.7191
 2372SOL    HW218576   4.540   0.264   2.388  0.1187 -0.6741  0.6569
 2373SOL     OW18577   0.253   0.272   3.139 -0.0194  0.0197 -0.0574
 2373SOL    HW118578   0.241   0.319   3.221 -1.5981  2.6821 -1.8120
 2373SOL    HW218579   0.168   0.230   3.125 -0.1857  0.1824  0.4469
 2374SOL     OW18580   1.994   2.060   2.910 -0.2037 -0.3810  0.1585
 2374SOL    HW118581   1.964   2.053   3.001 -0.1109  0.4357  0.2489
 2374SOL    HW218582   2.086   2.078   2.930 -0.5664 -0.0620  1.5702
 2375SOL     OW18583   4.553   3.819   6.089 -0.0367 -0.1639  0.4784
 2375SOL    HW118584   4.589   3.864   6.013  0.3045  1.7049  1.7533
 2375SOL    HW218585   4.634   3.797   6.135  0.8171  1.8071 -0.1143
 2376SOL     OW18586   0.602   0.717   7.346  0.3060  0.2046 -0.1733
 2376SOL    HW118587   0.653   0.796   7.329  1.6945 -0.6251  0.1562
 2376SOL    HW218588   0.514   0.752   7.361 -0.8883 -3.5776  1.7541
 2377SOL     OW18589   1.810   4.227   7.749  0.0793 -0.5435  0.3552
 2377SOL    HW118590   1.847   4.314   7.756 -0.5107 -0.3742  1.4236
 2377SOL    HW218591   1.843   4.181   7.827  1.0051 -1.2146 -0.4415
 2378SOL     OW18592   2.399   1.952   3.394  0.1651 -0.3687 -0.4276
 2378SOL    HW118593   2.313   1.943   3.352 -0.0572  1.5746 -0.3791
 2378SOL    HW218594   2.445   1.874   3.361 -0.6033 -0.5053 -1.1797
 2379SOL     OW18595   0.859   1.045   5.677  0.1883  0.4089 -0.0998
 2379SOL    HW118596   0.864   1.021   5.770  0.1445 -0.5487 -0.3488
 2379SOL    HW218597   0.772   1.086   5.678  0.5136  1.0931  0.6513
 2380SOL     OW18598   0.461   4.034   4.936 -0.0134 -0.4727  0.3492
 2380SOL    HW118599   0.432   4.042   5.027 -0.8730 -0.2520  0.0519
 2380SOL    HW218600   0.499   4.121   4.924  0.9549 -0.7801  1.1672
 2381SOL     OW18601   0.121   0.549   8.554 -0.9402  0.3152  0.1941
 2381SOL    HW118602   0.130   0.555   8.649 -0.8554  1.8188  0.0957
 2381SOL    HW218603   0.208   0.579   8.526 -1.1776  2.7871  2.1888
 2382SOL     OW18604   0.228   0.556   5.329 -0.7666  0.2317  0.2162
 2382SOL    HW118605   0.257   0.616   5.399  2.2660 -0.6056 -0.3373
 2382SOL    HW218606   0.133   0.567   5.336 -0.8249  1.0579 -1.9972
 2383SOL     OW18607   1.273   4.642   4.736 -0.2879  0.6669  0.3706
 2383SOL    HW118608   1.311   4.608   4.655  0.0169 -1.6254  1.4724
 2383SOL    HW218609   1.201   4.579   4.744 -0.5380  1.1107  1.5975
 2384SOL     OW18610   3.094   2.685   6.923  0.1876 -0.1074 -0.0892
 2384SOL    HW118611   3.054   2.743   6.988  0.2150  0.5307 -0.6491
 2384SOL    HW218612   3.044   2.603   6.923 -2.5686  1.5778  1.6115
 2385SOL     OW18613   1.706   1.345   0.219 -0.2932  0.3360 -0.1113
 2385SOL    HW118614   1.748   1.260   0.205  0.4374  0.5295  0.8600
 2385SOL    HW218615   1.774   1.412   0.228  1.3940 -1.4999  0.6814
 2386SOL     OW18616   1.252   2.019   3.448 -0.2737 -0.0560  0.2751
 2386SOL    HW118617   1.227   2.063   3.367 -1.7975  0.6298  1.1078
 2386SOL    HW218618   1.168   2.021   3.495 -0.2124 -0.8329  0.4215
 2387SOL     OW18619   0.560   4.714  12.958 -0.3931  0.4948  0.0774
 2387SOL    HW118620   0.578   4.659  12.883 -2.5513 -0.8035  0.5138
 2387SOL    HW218621   0.627   0.056  12.952 -1.0876  1.3061  1.5019
 2388SOL     OW18622   0.536   0.762   8.501  0.2219  0.7281  0.0946
 2388SOL    HW118623   0.521   0.709   8.579  1.2948 -1.8645 -1.4755
 2388SOL    HW218624   0.459   0.739   8.449 -0.0836  1.0645  0.3954
 2389SOL     OW18625   3.687   1.635  14.146 -0.1082  0.0007  0.6433
 2389SOL    HW118626   3.777   1.645  14.179  0.3135 -1.7932  0.0774
 2389SOL    HW218627   3.697   1.541  14.130 -3.2997 -0.2912  0.5398
 2390SOL     OW18628   0.145   3.553   6.303 -0.2185  0.2836  0.1578
 2390SOL    HW118629   0.220   3.593   6.348  0.8276  0.0415 -1.3894
 2390SOL    HW218630   0.190   3.496   6.241  0.1409  1.3042 -0.5164
 2391SOL     OW18631   2.979   2.762   3.667 -0.0652  0.3177  0.0680
 2391SOL    HW118632   3.047   2.697   3.653  0.3861  0.3183  2.2401
 2391SOL    HW218633   3.039   2.836   3.665  0.0417  0.2884  2.7508
 2392SOL     OW18634   4.179   3.123   2.434 -0.9885 -0.5479  0.3277
 2392SOL    HW118635   4.185   3.216   2.456 -1.2586 -0.0948 -1.5214
 2392SOL    HW218636   4.265   3.109   2.393 -0.6910  1.9667  0.0931
 2393SOL     OW18637   0.992   2.202   7.769  0.3671  0.2724  0.0561
 2393SOL    HW118638   0.902   2.210   7.801  0.2632  0.9571 -0.4094
 2393SOL    HW218639   1.022   2.291   7.750 -0.8506  0.7425  0.3248
 2394SOL     OW18640   0.212   3.806   3.139 -0.4653 -0.0631  0.3276
 2394SOL    HW118641   0.270   3.871   3.100 -0.8764  0.0739 -0.0475
 2394SOL    HW218642   0.145   3.867   3.168 -1.0821  0.1317 -1.5028
 2395SOL     OW18643   0.230   3.770  13.352 -0.2348 -0.2702 -0.4971
 2395SOL    HW118644   0.256   3.857  13.383  0.2540 -0.1575 -1.2255
 2395SOL    HW218645   0.136   3.781  13.344 -0.0619  1.4226 -0.2678
 2396SOL     OW18646   1.824   1.678   8.827 -0.8307  0.0017  0.5410
 2396SOL    HW118647   1.820   1.755   8.770 -0.0426 -0.7657 -0.5695
 2396SOL    HW218648   1.809   1.713   8.914 -0.5709  1.4635  0.0068
 2397SOL     OW18649   3.733   1.214  11.775  0.6064 -0.3653  0.2935
 2397SOL    HW118650   3.733   1.259  11.860 -0.1248  2.5421 -1.2610
 2397SOL    HW218651   3.728   1.124  11.805  1.6314 -0.8760 -1.0736
 2398SOL     OW18652   2.161   1.552  16.285  0.1765  0.0141 -0.2629
 2398SOL    HW118653   2.130   1.502  16.210  2.0711  1.2038 -1.8539
 2398SOL    HW218654   2.138   1.641  16.257 -0.5089  0.5019  1.8504
 2399SOL     OW18655   3.094   4.533   8.771 -0.5593 -0.3075 -0.0642
 2399SOL    HW118656   3.128   4.483   8.845  1.2081  1.5125  0.3354
 2399SOL    HW218657   3.090   4.625   8.797 -1.5850 -0.6528  1.0412
 2400SOL     OW18658   3.941   0.025   4.450 -0.0735  0.5220  0.3402
 2400SOL    HW118659   3.872   0.085   4.477 -2.8027 -3.4880  2.1417
 2400SOL    HW218660   4.022   0.066   4.481 -0.6261  1.7604  0.1369
 2401SOL     OW18661   1.591   1.030  15.435 -0.1908 -0.0903  0.0809
 2401SOL    HW118662   1.678   0.989  15.433  0.3792  1.1466  0.0278
 2401SOL    HW218663   1.602   1.057  15.343 -0.0883  1.7350  0.6434
 2402SOL     OW18664   1.373   0.280   3.953  0.0166 -0.1290 -0.1972
 2402SOL    HW118665   1.320   0.309   4.027 -0.4817 -3.0019  0.5575
 2402SOL    HW218666   1.358   0.186   3.949  2.1577 -0.5282  1.0223
 2403SOL     OW18667   0.486   1.961   9.390  0.1971  0.1097 -0.2802
 2403SOL    HW118668   0.498   2.055   9.381  0.3312  0.0642 -0.6008
 2403SOL    HW218669   0.577   1.937   9.409  0.3492  1.0041  0.1209
 2404SOL     OW18670   4.324   1.193   5.143 -0.3290  0.4208 -0.0657
 2404SOL    HW118671   4.312   1.101   5.122 -0.1669  0.3519  0.1401
 2404SOL    HW218672   4.324   1.235   5.057  1.3137  2.9326  1.1439
 2405SOL     OW18673   2.881   0.162  11.879 -0.0726 -0.3522 -0.2324
 2405SOL    HW118674   2.804   0.134  11.928 -2.0643  0.8991 -2.6205
 2405SOL    HW218675   2.912   0.076  11.853 -0.9878 -0.9192  0.5402
 2406SOL     OW18676   1.981   0.809   4.054 -0.0322 -0.3474  0.5073
 2406SOL    HW118677   1.912   0.870   4.079 -0.2460  0.1521 -1.3282
 2406SOL    HW218678   1.926   0.731   4.046  0.9445 -0.6942 -2.6147
 2407SOL     OW18679   2.416   0.674   4.959  0.3697  0.6122 -0.4785
 2407SOL    HW118680   2.419   0.578   4.954 -0.7990  0.6168 -1.3377
 2407SOL    HW218681   2.328   0.684   4.995  0.9842 -0.0256  1.2274
 2408SOL     OW18682   2.200   0.399   5.702 -0.0345 -0.0518  0.2742
 2408SOL    HW118683   2.294   0.376   5.704 -0.1517 -0.4718  1.1179
 2408SOL    HW218684   2.189   0.411   5.608 -0.6027 -0.0439  0.3454
 2409SOL     OW18685   4.486   1.534  16.976  0.2424 -0.0935  0.3568
 2409SOL    HW118686   4.451   1.456  16.935  0.4375  0.9222 -1.7112
 2409SOL    HW218687   4.412   1.576  17.020  0.4625  0.4814  0.1806
 2410SOL     OW18688   1.315   2.995   6.774 -0.1177  0.2092 -0.3598
 2410SOL    HW118689   1.225   3.007   6.803  1.0315  1.3439  2.7283
 2410SOL    HW218690   1.314   3.037   6.688 -1.9978 -1.3763 -1.1170
 2411SOL     OW18691   3.292   2.692   3.906  0.5157  0.1329 -0.4228
 2411SOL    HW118692   3.298   2.786   3.925 -2.0489 -0.5768  3.9570
 2411SOL    HW218693   3.292   2.687   3.810 -0.0328 -3.5306 -0.2438
 2412SOL     OW18694   4.009   1.097   3.040 -0.1594  0.1119 -0.3863
 2412SOL    HW118695   4.055   1.177   3.066  0.2546  0.7705 -3.1504
 2412SOL    HW218696   4.076   1.048   2.993  0.5659 -1.1581  1.9561
 2413SOL     OW18697   2.476   4.251   2.234 -0.3615  0.3310  0.3034
 2413SOL    HW118698   2.386   4.231   2.209 -0.3745 -0.2165  0.7750
 2413SOL    HW218699   2.493   4.170   2.282 -1.0663 -0.5537 -0.9570
 2414SOL     OW18700   1.204   3.510   1.538  0.4112 -0.7322  0.3578
 2414SOL    HW118701   1.117   3.532   1.505 -0.9431  0.5626  4.8693
 2414SOL    HW218702   1.214   3.583   1.600  3.0174 -2.1237  1.5952
 2415SOL     OW18703   4.386   1.903   8.642 -0.1607  0.0001  0.0770
 2415SOL    HW118704   4.324   1.959   8.597 -0.6165  0.2598  1.0198
 2415SOL    HW218705   4.329   1.860   8.706  0.7506 -3.1979 -1.2788
 2416SOL     OW18706   3.436   2.371   7.896  0.2256 -0.3422 -0.1491
 2416SOL    HW118707   3.482   2.452   7.877  0.7440 -0.8245 -0.9065
 2416SOL    HW218708   3.386   2.353   7.817  1.1201 -1.9094 -0.3557
 2417SOL     OW18709   4.115   1.397   2.147 -0.2736 -0.5327  0.5170
 2417SOL    HW118710   4.134   1.440   2.064  0.1587 -0.4266  0.6690
 2417SOL    HW218711   4.039   1.444   2.182  0.5884  1.5411 -0.4112
 2418SOL     OW18712   0.246   1.926   0.495 -0.1369  0.2050 -0.7702
 2418SOL    HW118713   0.175   1.864   0.476 -1.6790  1.5226  0.8430
 2418SOL    HW218714   0.254   1.958   0.405  1.5630 -0.8877 -1.0048
 2419SOL     OW18715   0.389   3.590  10.515  0.1134 -0.2554 -0.5390
 2419SOL    HW118716   0.322   3.603  10.583  1.2355  1.8507  0.1613
 2419SOL    HW218717   0.422   3.501  10.529  0.7978  0.1667  0.5111
 2420SOL     OW18718   2.769   0.337  16.819 -0.0663 -0.1094 -0.3574
 2420SOL    HW118719   2.745   0.335  16.726  0.8288 -0.5372 -0.5744
 2420SOL    HW218720   2.857   0.375  16.815 -0.2535  0.3402 -0.1621
 2421SOL     OW18721   0.027   2.638  12.104  0.3767 -0.6336 -0.8915
 2421SOL    HW118722   0.002   2.569  12.042  1.0867 -0.3375 -1.5042
 2421SOL    HW218723   0.111   2.666  12.069 -0.2529  0.6194 -1.4110
 2422SOL     OW18724   1.163   0.797   9.135 -0.1555  0.1915  0.0148
 2422SOL    HW118725   1.225   0.855   9.091  1.6415 -1.1102  0.8312
 2422SOL    HW218726   1.195   0.812   9.224  2.5371 -1.7905 -0.6303
 2423SOL     OW18727   4.106   1.113   5.726  0.1432  0.0886 -0.0803
 2423SOL    HW118728   4.159   1.153   5.657  1.2913 -0.9166  0.2189
 2423SOL    HW218729   4.021   1.098   5.684 -0.5113 -1.6275  1.8645
 2424SOL     OW18730   0.198   1.736   4.015  0.3452  0.2437  0.8786
 2424SOL    HW118731   0.161   1.694   4.092 -2.4093 -0.1116 -0.6394
 2424SOL    HW218732   0.213   1.662   3.956 -2.1226  0.5305 -0.1295
 2425SOL     OW18733   1.971   2.601   6.582 -0.2102  0.1519  0.5230
 2425SOL    HW118734   1.933   2.604   6.670 -0.2290  1.2634  0.4836
 2425SOL    HW218735   2.003   2.691   6.589  0.6709 -0.0523 -1.0057
 2426SOL     OW18736   4.596   2.574   4.692  0.1920 -0.3254 -0.0247
 2426SOL    HW118737   4.639   2.659   4.704  1.8294 -0.7686 -2.8550
 2426SOL    HW218738   4.648   2.531   4.625 -0.0166 -0.0958 -0.3334
 2427SOL     OW18739   1.264   4.726   6.214 -0.2008  0.6998  0.3070
 2427SOL    HW118740   1.346   0.024   6.255  0.5397  0.0249 -0.7564
 2427SOL    HW218741   1.209   0.077   6.223  2.0698  2.5557 -1.6623
 2428SOL     OW18742   2.438   0.747  17.140 -0.1051 -0.5182 -0.3706
 2428SOL    HW118743   2.439   0.748  17.044 -1.1381 -0.5021 -0.3788
 2428SOL    HW218744   2.413   0.837  17.160  0.7200 -0.8288  2.0276
 2429SOL     OW18745   0.721   1.588   5.138 -0.2509  0.6242 -0.1825
 2429SOL    HW118746   0.630   1.578   5.166 -0.0235 -0.4144  0.2059
 2429SOL    HW218747   0.731   1.512   5.080 -0.1278 -0.5928  1.4283
 2430SOL     OW18748   2.172   3.336   4.348 -0.6485 -0.0430  0.1001
 2430SOL    HW118749   2.093   3.288   4.324  0.6728 -1.6455 -1.0661
 2430SOL    HW218750   2.248   3.280   4.332 -0.4681 -0.5511  2.6796
 2431SOL     OW18751   3.610   0.483   0.528  0.4975 -0.6149 -0.3944
 2431SOL    HW118752   3.665   0.416   0.568  1.5011  0.8778  0.7166
 2431SOL    HW218753   3.524   0.440   0.528  0.3501 -0.3142 -1.2468
 2432SOL     OW18754   3.687   0.043   5.879 -0.1272 -0.0407 -0.1868
 2432SOL    HW118755   3.702   4.676   5.867  0.7942 -0.0396  1.0885
 2432SOL    HW218756   3.706   0.050   5.972  1.0416 -1.1380 -0.3397
 2433SOL     OW18757   0.899   0.174  13.383 -0.0702 -0.3541 -0.2939
 2433SOL    HW118758   0.995   0.168  13.382 -0.1012 -0.2067 -2.5551
 2433SOL    HW218759   0.871   0.265  13.387 -2.2767 -1.1074  1.5479
 2434SOL     OW18760   1.855   4.098   9.139  0.2352 -0.2517  0.3609
 2434SOL    HW118761   1.943   4.076   9.170 -0.0577  1.7949  2.7042
 2434SOL    HW218762   1.799   4.060   9.207  0.3490  0.0811  0.6449
 2435SOL     OW18763   1.523   4.719   0.538  0.3169  0.4378 -0.4093
 2435SOL    HW118764   1.562   0.036   0.462  1.5584  1.4331  0.8260
 2435SOL    HW218765   1.582   4.644   0.544  0.2099  0.3596 -0.3314
 2436SOL     OW18766   4.307   2.394   2.331 -0.4271  0.1990  0.1007
 2436SOL    HW118767   4.294   2.392   2.236 -1.2152  3.7682  0.1239
 2436SOL    HW218768   4.394   2.355   2.325 -0.0817  1.0961 -0.7156
 2437SOL     OW18769   0.450   1.472   2.061  0.7130 -0.8919 -0.0796
 2437SOL    HW118770   0.377   1.529   2.083  0.9127  0.0883 -1.9491
 2437SOL    HW218771   0.528   1.525   2.042  0.2878 -0.9322 -1.9454
 2438SOL     OW18772   1.689   3.787  13.203 -0.1272 -0.1746  0.6443
 2438SOL    HW118773   1.594   3.777  13.200 -0.1923  0.0814  2.3512
 2438SOL    HW218774   1.714   3.727  13.273 -1.2856  1.8952  2.8384
 2439SOL     OW18775   0.500   2.051  11.500 -0.3431 -0.3635  0.3565
 2439SOL    HW118776   0.588   2.048  11.537  0.9951  0.2195 -2.7148
 2439SOL    HW218777   0.454   2.103  11.565  0.3469  1.2894 -0.4742
 2440SOL     OW18778   0.106   0.268   5.891  0.5807  0.2118  0.3436
 2440SOL    HW118779   0.065   0.259   5.977  0.1721  2.1929  0.3372
 2440SOL    HW218780   0.154   0.185   5.892 -1.1922 -0.8589 -2.0325
 2441SOL     OW18781   0.195   0.984   9.782  0.4548 -0.0142  0.3361
 2441SOL    HW118782   0.244   0.902   9.782  0.3640 -0.0651  1.3427
 2441SOL    HW218783   0.111   0.958   9.820 -0.0969  0.0371 -0.8415
 2442SOL     OW18784   0.104   1.401  12.598  0.1805  0.0930  0.3348
 2442SOL    HW118785   0.095   1.405  12.693  0.2377  0.5797  0.3207
 2442SOL    HW218786   0.163   1.476  12.594  1.6867 -0.9770  2.7141
 2443SOL     OW18787   1.553   1.403   4.110 -0.7072  0.2602 -0.3077
 2443SOL    HW118788   1.634   1.369   4.148  0.1305  2.1263 -0.4599
 2443SOL    HW218789   1.484   1.368   4.166 -1.8918  1.9372 -0.7330
 2444SOL     OW18790   4.705   1.566   4.157  0.2238 -0.0601  0.6341
 2444SOL    HW118791   4.649   1.532   4.087 -0.6453  1.2723  0.7046
 2444SOL    HW218792   4.723   1.481   4.198  0.4333 -0.7146 -0.7888
 2445SOL     OW18793   2.903   0.407   7.744  0.6256  0.2831 -0.0101
 2445SOL    HW118794   2.959   0.340   7.782 -1.9458 -0.6136  2.2310
 2445SOL    HW218795   2.849   0.358   7.682 -0.8040 -0.8691  2.1616
 2446SOL     OW18796   4.531   2.733   6.177 -0.0795 -0.1524 -0.6259
 2446SOL    HW118797   4.536   2.712   6.270 -0.0652 -0.4909 -0.7041
 2446SOL    HW218798   4.502   2.825   6.184  0.1739 -0.0735 -0.6229
 2447SOL     OW18799   4.611   2.612  11.112  0.4805 -0.1816  0.3089
 2447SOL    HW118800   4.651   2.698  11.101  0.3365 -0.3341 -1.3084
 2447SOL    HW218801   4.594   2.613  11.206 -3.4935 -1.7977 -0.4022
 2448SOL     OW18802   1.049   3.572   8.308  0.3789  0.4973 -0.2417
 2448SOL    HW118803   1.080   3.483   8.298 -0.4849  0.2772 -0.9233
 2448SOL    HW218804   1.048   3.584   8.403  1.2430 -1.0356 -0.0494
 2449SOL     OW18805   2.137   1.146   6.061  0.1604 -0.0396 -0.3171
 2449SOL    HW118806   2.217   1.198   6.052  1.8695 -2.8092 -1.1508
 2449SOL    HW218807   2.166   1.060   6.031  2.5632  0.1873  1.3175
 2450SOL     OW18808   0.529   1.630   3.006 -0.4886 -0.2920  0.2572
 2450SOL    HW118809   0.453   1.611   2.951 -1.5952 -2.2588  2.4487
 2450SOL    HW218810   0.480   1.637   3.088 -0.3163  2.0943  0.1688
 2451SOL     OW18811   1.950   1.409   5.720 -0.5299  0.0843 -0.3298
 2451SOL    HW118812   1.978   1.334   5.772  2.3246  0.0148 -1.9361
 2451SOL    HW218813   1.868   1.378   5.682  0.2336 -1.3571 -0.8207
 2452SOL     OW18814   2.628   3.626   6.988 -0.4132 -0.1989  0.4609
 2452SOL    HW118815   2.641   3.658   7.078 -0.1588 -0.3248  0.4720
 2452SOL    HW218816   2.617   3.712   6.949  1.4257 -0.9795 -1.8057
 2453SOL     OW18817   4.053   3.048   4.111 -0.5442  0.2810 -1.0119
 2453SOL    HW118818   4.108   3.056   4.032 -0.3539 -0.6848 -0.9752
 2453SOL    HW218819   4.062   2.955   4.129 -0.9749  0.7976  1.8975
 2454SOL     OW18820   0.875   1.603   1.240  0.2805 -0.9459  0.1049
 2454SOL    HW118821   0.846   1.513   1.229 -1.4934 -0.5789  1.6887
 2454SOL    HW218822   0.964   1.593   1.207 -0.9197  0.2243 -3.4880
 2455SOL     OW18823   4.200   2.506  17.655 -0.3146  0.3180 -0.4405
 2455SOL    HW118824   4.145   2.582  17.674 -1.4576  0.1078 -2.8571
 2455SOL    HW218825   4.130   2.442  17.643  1.7577 -1.6131 -2.0834
 2456SOL     OW18826   3.787   0.864   3.281 -0.6314  0.4655 -0.8502
 2456SOL    HW118827   3.748   0.826   3.203 -0.9982  2.9841 -1.8809
 2456SOL    HW218828   3.759   0.955   3.273  0.5878  0.8050 -1.2273
 2457SOL     OW18829   0.419   4.355   3.201  0.4569  0.1066  0.4075
 2457SOL    HW118830   0.401   4.449   3.210 -2.8700 -0.5898  0.9194
 2457SOL    HW218831   0.500   4.365   3.151  0.1831 -0.9616 -0.2476
 2458SOL     OW18832   2.646   3.719   1.632  0.1797  0.5262 -0.2268
 2458SOL    HW118833   2.676   3.641   1.679  3.7837  1.8384 -0.3954
 2458SOL    HW218834   2.573   3.672   1.591  1.2953 -0.7209 -0.7933
 2459SOL     OW18835   2.224   2.748   8.390  0.0993  0.0990 -0.0829
 2459SOL    HW118836   2.189   2.783   8.472  1.4895  1.4292 -0.0589
 2459SOL    HW218837   2.231   2.653   8.398 -3.6750 -0.1488  0.1330
 2460SOL     OW18838   4.405   3.182   6.005 -0.1389  0.1828 -0.2818
 2460SOL    HW118839   4.428   3.174   5.913  0.6537 -0.9724  0.0130
 2460SOL    HW218840   4.465   3.251   6.035 -1.7690  0.7571  1.7224
 2461SOL     OW18841   3.387   1.862   2.690  0.1800 -0.2168 -0.3803
 2461SOL    HW118842   3.408   1.955   2.683  2.5580 -0.6052  1.5471
 2461SOL    HW218843   3.398   1.854   2.785 -0.1502  1.3608 -0.2047
 2462SOL     OW18844   3.707   4.312   8.320  0.0479 -0.3419 -0.3111
 2462SOL    HW118845   3.683   4.405   8.319 -2.8065 -1.0648  0.2303
 2462SOL    HW218846   3.780   4.309   8.259  1.8520 -2.1402  1.9546
 2463SOL     OW18847   2.282   2.818  11.541  0.5468 -0.3436  0.2959
 2463SOL    HW118848   2.323   2.752  11.485  0.8042  1.2240 -1.3509
 2463SOL    HW218849   2.326   2.808  11.625 -1.8791  1.6296  1.7999
 2464SOL     OW18850   2.877   2.332   3.197  0.0806  0.0915 -0.3900
 2464SOL    HW118851   2.838   2.246   3.179 -1.5658  0.5138  1.1374
 2464SOL    HW218852   2.947   2.330   3.132  0.4900  0.2439  0.0454
 2465SOL     OW18853   4.702   4.154   6.184 -0.2910 -0.0039  0.4665
 2465SOL    HW118854   4.692   4.187   6.094 -2.1748 -2.7060 -0.2925
 2465SOL    HW218855   4.609   4.176   6.192 -0.6580 -1.9425  1.3329
 2466SOL     OW18856   0.075   0.932   4.512  0.0861 -0.1941 -0.2740
 2466SOL    HW118857   0.120   1.013   4.487 -0.4410 -0.3835 -1.8017
 2466SOL    HW218858   0.045   0.906   4.425  0.8099  1.1507 -0.9383
 2467SOL     OW18859   0.607   1.301   8.688 -0.1118  0.2534  0.2404
 2467SOL    HW118860   0.549   1.226   8.674 -0.5351  0.6534 -0.1631
 2467SOL    HW218861   0.653   1.275   8.767  0.8476  2.3555  0.3558
 2468SOL     OW18862   4.401   2.784   5.090 -0.1037  0.1447  0.0417
 2468SOL    HW118863   4.470   2.798   5.155 -1.1654 -4.4672  2.1046
 2468SOL    HW218864   4.446   2.710   5.049 -0.4272 -0.8863  1.5632
 2469SOL     OW18865   2.242   2.620   9.274  0.1963  0.5543  0.4047
 2469SOL    HW118866   2.173   2.640   9.337 -2.2597 -1.5513 -1.6108
 2469SOL    HW218867   2.237   2.698   9.218  0.2305 -0.2832 -0.7655
 2470SOL     OW18868   3.867   0.677  16.858  0.0396 -0.1835 -0.2146
 2470SOL    HW118869   3.960   0.658  16.849 -0.0007 -1.1704  1.5663
 2470SOL    HW218870   3.874   0.758  16.908 -2.4092 -1.2867  1.9387
 2471SOL     OW18871   3.502   2.172  16.692  0.1728  0.0096  0.0211
 2471SOL    HW118872   3.539   2.134  16.771 -0.8723  0.6476  0.8185
 2471SOL    HW218873   3.421   2.121  16.682  0.3035 -0.1350 -0.3203
 2472SOL     OW18874   4.645   2.364  15.689  0.1190  0.0008 -0.1572
 2472SOL    HW118875   4.588   2.331  15.620 -1.7111  1.0540  0.8468
 2472SOL    HW218876   4.582   2.404  15.749  1.4926  1.8047  0.0846
 2473SOL     OW18877   2.996   0.108   0.192  0.1596 -0.0268 -0.2992
 2473SOL    HW118878   3.091   0.123   0.197 -0.2173  2.3495 -0.1821
 2473SOL    HW218879   2.975   0.116   0.285  0.2941  1.9762 -0.4447
 2474SOL     OW18880   1.677   1.399   5.159  0.4505  0.4130  0.5614
 2474SOL    HW118881   1.680   1.495   5.157 -1.0744  0.4386 -0.4441
 2474SOL    HW218882   1.737   1.382   5.087  1.7310 -0.5925  1.8852
 2475SOL     OW18883   3.575   2.093   7.960 -0.4570 -0.0620 -0.0436
 2475SOL    HW118884   3.509   2.092   7.891 -1.2183 -1.1724  0.7041
 2475SOL    HW218885   3.598   2.186   7.959 -1.8851  0.2756 -2.1804
 2476SOL     OW18886   0.133   2.278   7.975  0.0500  0.0766  0.3593
 2476SOL    HW118887   0.152   2.369   7.998 -0.6314 -0.3354  2.5811
 2476SOL    HW218888   0.161   2.275   7.883  2.7186 -0.9471  1.2010
 2477SOL     OW18889   4.631   4.031   2.061  0.3478  0.0696 -0.1266
 2477SOL    HW118890   4.693   4.029   1.987 -0.3959 -3.5403 -0.6678
 2477SOL    HW218891   4.637   4.118   2.099 -0.4727  0.3545 -0.6433
 2478SOL     OW18892   0.102   1.750  14.733  0.1274  0.1167  0.1127
 2478SOL    HW118893   0.193   1.720  14.734 -0.3661 -1.5450 -3.1085
 2478SOL    HW218894   0.090   1.784  14.822 -1.7899 -0.3273  0.0165
 2479SOL     OW18895   1.822   1.694   6.067 -0.1344 -0.3610  0.0236
 2479SOL    HW118896   1.865   1.736   6.141  0.4975 -2.0274  0.5930
 2479SOL    HW218897   1.751   1.653   6.117 -0.0352 -2.2196 -1.3669
 2480SOL     OW18898   0.809   1.495   5.818 -0.2346 -0.4971 -0.1624
 2480SOL    HW118899   0.823   1.437   5.893 -0.6023  0.3374  0.5454
 2480SOL    HW218900   0.837   1.441   5.744 -1.0531 -0.4834 -0.4728
 2481SOL     OW18901   4.064   1.086   7.397  0.3017 -0.3312  0.2104
 2481SOL    HW118902   3.998   1.097   7.329  0.7820  0.3123 -0.1520
 2481SOL    HW218903   4.028   1.039   7.472 -0.9454  0.9463  0.4130
 2482SOL     OW18904   4.265   2.419  11.728  0.5336  0.3604 -0.3194
 2482SOL    HW118905   4.301   2.496  11.771  0.9814  0.5142 -0.9589
 2482SOL    HW218906   4.325   2.409  11.654 -0.7890 -0.1565 -1.3408
 2483SOL     OW18907   1.231   0.263  10.079 -0.5148  0.4366  0.1927
 2483SOL    HW118908   1.256   0.271  10.171 -1.9860  0.2125  0.6140
 2483SOL    HW218909   1.138   0.282  10.088 -1.1838 -1.4245 -2.8409
 2484SOL     OW18910   4.248   3.775  17.599  0.8615 -0.0515 -0.2282
 2484SOL    HW118911   4.216   3.798  17.512 -0.6110 -0.8759  0.0985
 2484SOL    HW218912   4.170   3.811  17.642  2.0499  2.3331 -0.0593
 2485SOL     OW18913   2.282   1.407   0.662  0.9124 -0.6580 -0.4731
 2485SOL    HW118914   2.302   1.376   0.750  0.9404  1.0104  0.1014
 2485SOL    HW218915   2.224   1.339   0.626 -1.3488 -0.3051  2.5456
 2486SOL     OW18916   0.530   4.347   6.674 -0.5757  0.0942  0.9812
 2486SOL    HW118917   0.617   4.385   6.688 -0.5831 -0.0607  1.4320
 2486SOL    HW218918   0.467   4.412   6.707 -0.6658 -0.0458  1.0822
 2487SOL     OW18919   3.777   1.160   7.905  0.0293 -0.1677  0.5436
 2487SOL    HW118920   3.818   1.177   7.989 -2.5748  1.3228  1.5329
 2487SOL    HW218921   3.697   1.214   7.903  1.8165  2.4633 -0.1434
 2488SOL     OW18922   2.046   3.889  13.634 -0.2135 -0.4012 -0.2506
 2488SOL    HW118923   2.056   3.969  13.582  0.4683  1.1390  2.2187
 2488SOL    HW218924   1.959   3.894  13.674 -0.1873 -1.1557 -0.1088
 2489SOL     OW18925   4.072   1.363   8.698  0.2248 -0.2276  0.1565
 2489SOL    HW118926   4.162   1.333   8.714  0.6093 -0.5449 -2.4880
 2489SOL    HW218927   4.078   1.453   8.667 -0.0375 -0.4222 -0.4576
 2490SOL     OW18928   2.536   2.802   7.862 -0.4527  0.2334  0.3447
 2490SOL    HW118929   2.550   2.848   7.945 -1.0166  3.8015 -1.5477
 2490SOL    HW218930   2.529   2.716   7.902 -0.0373  0.0213 -0.0498
 2491SOL     OW18931   0.731   1.827   0.881  0.1322  0.2371  0.4188
 2491SOL    HW118932   0.702   1.917   0.888  0.7538  0.5353 -0.7593
 2491SOL    HW218933   0.645   1.793   0.854 -0.4454  0.9667  1.3573
 2492SOL     OW18934   1.020   1.619   8.055 -0.6265  0.3174  0.3309
 2492SOL    HW118935   1.086   1.666   8.106 -0.0998 -0.0520 -0.0088
 2492SOL    HW218936   0.946   1.638   8.113 -1.2345 -0.6056 -0.1411
 2493SOL     OW18937   0.431   2.496   4.126 -0.1555  0.0713  0.0825
 2493SOL    HW118938   0.409   2.405   4.146 -2.0346  0.2690 -1.0746
 2493SOL    HW218939   0.436   2.486   4.031 -0.6253 -0.5500  0.1191
 2494SOL     OW18940   4.231   1.556   1.307 -0.0110  0.4130 -0.1473
 2494SOL    HW118941   4.281   1.549   1.226 -0.1979  1.6900 -0.3635
 2494SOL    HW218942   4.161   1.494   1.285  1.9171 -0.8460 -2.8396
 2495SOL     OW18943   1.349   1.110   2.244  0.2655 -0.2960  0.1468
 2495SOL    HW118944   1.312   1.097   2.331 -2.7042 -0.7121 -1.1771
 2495SOL    HW218945   1.267   1.105   2.195 -0.1857 -2.9091  1.1769
 2496SOL     OW18946   4.142   0.180  10.247  0.2862 -0.4625 -0.1899
 2496SOL    HW118947   4.128   0.139  10.332  0.9242  0.9389  0.5903
 2496SOL    HW218948   4.187   0.258  10.280  2.9624 -2.0853 -0.0946
 2497SOL     OW18949   1.020   1.193   3.187  0.4700 -0.4668 -0.5769
 2497SOL    HW118950   1.084   1.124   3.205 -1.5748 -2.5055 -0.9751
 2497SOL    HW218951   0.965   1.144   3.126  0.6051 -1.3763  0.0302
 2498SOL     OW18952   0.118   2.160  15.753  0.2472 -0.5769  0.1986
 2498SOL    HW118953   0.152   2.209  15.829 -1.5276 -0.4842  0.9300
 2498SOL    HW218954   0.046   2.215  15.723  1.7351  1.9484  1.2063
 2499SOL     OW18955   1.260   3.534   4.674  0.0175 -0.9440 -0.2583
 2499SOL    HW118956   1.226   3.488   4.750  1.1466 -0.3507  0.6140
 2499SOL    HW218957   1.341   3.484   4.668  1.0396  0.7444 -0.6310
 2500SOL     OW18958   2.433   3.450  13.738  0.0051  0.0546 -0.6404
 2500SOL    HW118959   2.419   3.355  13.731 -2.2168  0.4094 -1.2672
 2500SOL    HW218960   2.350   3.479  13.777 -0.0985 -0.1244 -0.7248
 2501SOL     OW18961   1.704   3.643   8.059  0.2301  0.4670  0.1017
 2501SOL    HW118962   1.745   3.700   7.994 -4.8249  1.5838 -2.0666
 2501SOL    HW218963   1.629   3.616   8.006 -0.4549 -0.5022  1.5496
 2502SOL     OW18964   1.003   3.071  10.383  0.2827  0.1523 -0.8000
 2502SOL    HW118965   0.923   3.031  10.418  1.6747 -0.0835  2.0548
 2502SOL    HW218966   1.062   2.996  10.384 -1.3654 -1.1700 -2.5227
 2503SOL     OW18967   2.937   3.464   5.984  0.4586  0.0440  0.2958
 2503SOL    HW118968   2.954   3.467   6.078 -2.0866  0.1190  0.7692
 2503SOL    HW218969   2.976   3.549   5.966 -0.2997  0.6685  1.6046
 2504SOL     OW18970   0.219   1.406   0.528  0.2225 -0.5942  0.1653
 2504SOL    HW118971   0.248   1.315   0.519  3.6367  0.4485  0.4252
 2504SOL    HW218972   0.217   1.416   0.623  0.0270 -1.4161  0.2473
 2505SOL     OW18973   1.248   1.179  13.788 -0.1045 -0.0313 -0.4381
 2505SOL    HW118974   1.241   1.088  13.818  2.6967 -0.4515 -1.0902
 2505SOL    HW218975   1.186   1.191  13.716 -1.3011 -2.2849  0.2085
 2506SOL     OW18976   3.187   0.207   7.169 -0.1404 -0.1693 -0.5592
 2506SOL    HW118977   3.172   0.260   7.247  1.1898 -0.4448 -0.1165
 2506SOL    HW218978   3.205   0.121   7.208  0.6971 -0.3046 -1.2464
 2507SOL     OW18979   1.891   4.010  12.006  0.1072  0.5171  0.2105
 2507SOL    HW118980   1.963   4.071  12.021  0.2953  1.1324 -3.2699
 2507SOL    HW218981   1.825   4.033  12.071 -0.2372 -1.8303  0.7043
 2508SOL     OW18982   4.599   4.208  10.421  0.2169  0.0407  0.4070
 2508SOL    HW118983   4.639   4.152  10.355 -0.5917 -0.2140  0.1323
 2508SOL    HW218984   4.565   4.282  10.371 -0.4645 -1.1739 -0.9228
 2509SOL     OW18985   1.019   1.675  13.410 -0.4283 -0.3450  0.0318
 2509SOL    HW118986   1.113   1.692  13.406 -0.5928  0.1451 -1.9320
 2509SOL    HW218987   0.990   1.744  13.350  0.1423 -1.3027 -1.3320
 2510SOL     OW18988   1.787   1.176   8.164  0.3117  0.1149  0.6348
 2510SOL    HW118989   1.775   1.082   8.151  1.5447 -0.0186  0.4013
 2510SOL    HW218990   1.859   1.177   8.227 -1.0501  0.0286  2.1605
 2511SOL     OW18991   4.269   0.697   6.097  0.1699 -0.0345  0.3828
 2511SOL    HW118992   4.222   0.752   6.034 -0.9167 -1.1281  0.2562
 2511SOL    HW218993   4.270   0.613   6.053  0.7895  0.7761 -1.1452
 2512SOL     OW18994   2.794   3.800   3.655  0.4517 -0.2935  0.5226
 2512SOL    HW118995   2.710   3.758   3.637  0.7460 -0.0528 -1.4091
 2512SOL    HW218996   2.819   3.849   3.577  1.2033 -1.5550 -0.0365
 2513SOL     OW18997   0.381   1.665   4.563 -0.3024  0.0419 -0.0222
 2513SOL    HW118998   0.290   1.688   4.544  0.0145  0.5594 -0.9198
 2513SOL    HW218999   0.415   1.749   4.595 -0.8056 -0.1028  0.8880
 2514SOL     OW19000   4.206   0.958   3.991 -0.4245  0.1443  0.4964
 2514SOL    HW119001   4.165   0.973   4.076 -1.3986  0.1238  0.0218
 2514SOL    HW219002   4.153   1.002   3.925 -0.9200  1.3598  1.7071
 2515SOL     OW19003   0.373   1.585   2.408 -0.3112  0.0695  0.5242
 2515SOL    HW119004   0.319   1.658   2.439  1.1407  0.8340  1.2790
 2515SOL    HW219005   0.457   1.599   2.454 -0.3782  2.4545 -0.0369
 2516SOL     OW19006   3.352   1.446   0.174 -0.4334  0.0084  0.2037
 2516SOL    HW119007   3.421   1.508   0.195 -1.0858  0.5081  0.8950
 2516SOL    HW219008   3.344   1.395   0.254 -0.5766  1.7525  1.3164
 2517SOL     OW19009   2.066   1.440  16.505  0.2078  0.0900 -0.0637
 2517SOL    HW119010   2.014   1.364  16.477  1.6880 -1.4157  1.2559
 2517SOL    HW219011   2.101   1.474  16.423  4.4143 -0.3459  1.5841
 2518SOL     OW19012   2.013   2.608   6.308  0.1799 -0.8189  0.1101
 2518SOL    HW119013   1.938   2.664   6.287 -0.1464 -0.8934  1.0625
 2518SOL    HW219014   2.069   2.678   6.343 -1.0536 -0.4708  1.4045
 2519SOL     OW19015   4.367   2.588   2.098 -0.1343 -0.5948  0.1155
 2519SOL    HW119016   4.418   2.630   2.167  0.9413  0.5195 -1.3808
 2519SOL    HW219017   4.434   2.522   2.078  2.4838  1.5886  1.6323
 2520SOL     OW19018   0.156   0.467   6.558 -0.3024  0.2138  0.0230
 2520SOL    HW119019   0.234   0.517   6.583  0.5957 -0.1939 -1.9247
 2520SOL    HW219020   0.088   0.535   6.550 -0.3132  0.1268 -0.6687
 2521SOL     OW19021   4.431   3.843   3.889 -0.2885  0.3200 -0.4225
 2521SOL    HW119022   4.473   3.928   3.896  1.5366 -0.4945 -1.5985
 2521SOL    HW219023   4.489   3.796   3.947  0.1987  2.1516  0.5729
 2522SOL     OW19024   4.557   1.029  13.679  0.9225  0.0810  0.0768
 2522SOL    HW119025   4.482   0.981  13.643  1.0634 -0.3983  0.4168
 2522SOL    HW219026   4.554   1.011  13.772 -2.5746 -0.0824 -0.0915
 2523SOL     OW19027   1.577   4.518   1.651 -0.3388 -0.0771 -0.2909
 2523SOL    HW119028   1.500   4.551   1.698 -0.0010  0.8546 -0.4004
 2523SOL    HW219029   1.588   4.573   1.574  1.9664  0.7992  0.6818
 2524SOL     OW19030   1.279   4.653   5.582  0.3035 -0.2033  0.1747
 2524SOL    HW119031   1.348   4.683   5.523 -0.3012 -0.6609 -0.7714
 2524SOL    HW219032   1.320   4.598   5.648  0.4226 -0.2823  0.0358
 2525SOL     OW19033   1.602   1.072   8.672  0.0421  0.6155  0.5587
 2525SOL    HW119034   1.559   0.989   8.655  0.4693  0.5769 -0.3552
 2525SOL    HW219035   1.692   1.045   8.653 -0.6948 -2.3799  1.3661
 2526SOL     OW19036   1.288   4.671   5.945 -0.4003 -0.2182 -0.1743
 2526SOL    HW119037   1.267   0.031   5.912  1.6494  0.9392  1.5108
 2526SOL    HW219038   1.291   4.690   6.039  3.2119 -3.0214  0.2823
 2527SOL     OW19039   3.892   1.596   5.521  0.8617  0.0763 -0.1891
 2527SOL    HW119040   3.858   1.514   5.485 -1.5437  1.1542 -0.3661
 2527SOL    HW219041   3.808   1.642   5.519 -1.2682 -3.7896  0.9287
 2528SOL     OW19042   2.806   4.373   5.439 -0.1774 -0.5352  0.0339
 2528SOL    HW119043   2.835   4.408   5.355  1.2229 -1.6543  0.0473
 2528SOL    HW219044   2.785   4.282   5.420 -0.8349 -0.1770 -0.9920
 2529SOL     OW19045   0.051   0.147   5.325  0.2981 -0.0142 -0.0379
 2529SOL    HW119046   0.072   0.197   5.403  0.4719  0.5187 -0.4236
 2529SOL    HW219047   0.134   0.102   5.310  0.5160 -0.1459  1.6111
 2530SOL     OW19048   0.474   3.112   6.292  0.2207 -0.1772 -0.1677
 2530SOL    HW119049   0.514   3.198   6.302  2.9298 -1.1494 -2.5876
 2530SOL    HW219050   0.539   3.068   6.238 -0.1832 -0.7844 -0.1669
 2531SOL     OW19051   3.555   2.511  11.273  0.2145  0.1987  0.4803
 2531SOL    HW119052   3.507   2.566  11.335 -1.2541 -1.6274  0.9553
 2531SOL    HW219053   3.488   2.452  11.239 -1.2482  2.1737 -0.0808
 2532SOL     OW19054   1.178   4.083  10.578  0.4461 -0.6209  0.3358
 2532SOL    HW119055   1.093   4.083  10.622  0.2831  1.8273  0.0190
 2532SOL    HW219056   1.214   4.010  10.627  0.2903 -1.7244 -1.1953
 2533SOL     OW19057   0.955   3.764   9.061 -0.2091 -0.3677 -0.5396
 2533SOL    HW119058   1.012   3.743   8.987 -0.2667 -0.9155 -0.4311
 2533SOL    HW219059   1.008   3.839   9.086 -0.9493  0.1619 -0.5862
 2534SOL     OW19060   1.345   4.104   7.705  0.7070 -0.0359 -0.0188
 2534SOL    HW119061   1.416   4.143   7.755  1.4704 -1.2853 -0.1427
 2534SOL    HW219062   1.300   4.180   7.667  0.8818  0.9884  1.8377
 2535SOL     OW19063   4.512   4.366   6.454  0.5512  0.3451  0.4716
 2535SOL    HW119064   4.555   4.316   6.524 -1.3341 -0.7547  0.8267
 2535SOL    HW219065   4.423   4.359   6.488  0.2570 -0.7457 -0.5427
 2536SOL     OW19066   0.967   3.974  14.686 -0.2205 -0.2509 -0.0551
 2536SOL    HW119067   0.907   3.933  14.749  1.0512 -1.5011  0.3674
 2536SOL    HW219068   0.954   3.911  14.615  1.8001 -0.4067 -0.2848
 2537SOL     OW19069   0.749   0.195   7.612  0.2877  0.2189  0.1664
 2537SOL    HW119070   0.726   0.282   7.644  2.6247  0.5681  0.8974
 2537SOL    HW219071   0.667   0.149   7.598 -0.0887  0.4094  1.7746
 2538SOL     OW19072   0.670   0.831   4.614 -0.3554 -0.0426  0.1886
 2538SOL    HW119073   0.587   0.786   4.628 -0.3521  0.3589  1.5267
 2538SOL    HW219074   0.652   0.917   4.575 -1.1409 -1.0062 -1.6128
 2539SOL     OW19075   1.386   2.632   5.560  0.3825  0.4750 -0.0437
 2539SOL    HW119076   1.468   2.585   5.576 -1.0287 -0.9119  3.0874
 2539SOL    HW219077   1.396   2.668   5.472  1.3863 -1.4616 -0.7261
 2540SOL     OW19078   3.415   2.161   2.619  0.4343  0.0128 -0.0478
 2540SOL    HW119079   3.417   2.195   2.529 -1.8643  0.3974  0.0445
 2540SOL    HW219080   3.505   2.181   2.645  0.9093 -0.4255 -1.3608
 2541SOL     OW19081   3.642   3.759   4.892 -0.4882 -0.4836 -0.0727
 2541SOL    HW119082   3.729   3.736   4.858 -0.0958  0.9250 -0.0285
 2541SOL    HW219083   3.661   3.775   4.984 -1.3917  2.9501 -0.4595
 2542SOL     OW19084   2.277   3.029   6.514 -0.1637 -0.2146 -0.6114
 2542SOL    HW119085   2.353   3.056   6.462 -0.1222  1.1372  0.1751
 2542SOL    HW219086   2.282   3.071   6.599 -4.4728 -0.8107 -0.0409
 2543SOL     OW19087   1.004   1.516   8.549 -0.1147 -0.3938 -0.4834
 2543SOL    HW119088   1.042   1.483   8.631 -1.2533 -1.0689 -0.2285
 2543SOL    HW219089   1.061   1.590   8.530  0.5161 -0.7620 -0.0223
 2544SOL     OW19090   2.595   0.044   9.131 -0.1919 -0.0137 -0.1498
 2544SOL    HW119091   2.616   4.679   9.147 -2.5783 -0.3294  1.2254
 2544SOL    HW219092   2.681   0.079   9.151 -1.2970  1.5168  1.9255
 2545SOL     OW19093   4.337   1.626   5.488  0.1749 -1.2094 -0.4666
 2545SOL    HW119094   4.310   1.555   5.546 -1.1689 -0.8398 -0.6203
 2545SOL    HW219095   4.324   1.595   5.398  1.1088 -0.4666 -0.8579
 2546SOL     OW19096   0.815   2.534  17.464 -0.0997 -0.4084 -0.4655
 2546SOL    HW119097   0.729   2.573  17.444  0.5276 -0.0012 -2.4035
 2546SOL    HW219098   0.791   2.449  17.500 -0.1769 -1.3746 -2.7987
 2547SOL     OW19099   1.429   0.391   6.727  0.0907  1.2819 -0.5260
 2547SOL    HW119100   1.342   0.373   6.762  0.2998 -0.0664 -0.7081
 2547SOL    HW219101   1.468   0.304   6.720 -1.0622  0.6905  0.4166
 2548SOL     OW19102   4.633   3.262  17.470  0.0263  0.2022 -0.2809
 2548SOL    HW119103   4.665   3.317  17.542 -0.0434  3.0304 -2.4220
 2548SOL    HW219104   4.538   3.277  17.477  0.2078  0.6709  1.4366
 2549SOL     OW19105   3.771   3.574  14.639  0.4381  0.1385  0.3596
 2549SOL    HW119106   3.809   3.601  14.723  0.4203  1.4240 -0.0432
 2549SOL    HW219107   3.842   3.534  14.590 -1.3238  0.2333 -2.2268
 2550SOL     OW19108   0.518   3.690  10.262 -0.0943 -0.3718  0.1007
 2550SOL    HW119109   0.459   3.741  10.207 -1.3716  0.1060  1.9312
 2550SOL    HW219110   0.452   3.651  10.320  0.2379  1.5351  1.7443
 2551SOL     OW19111   3.358   3.204   0.625  0.0428  0.0221 -0.1119
 2551SOL    HW119112   3.346   3.125   0.571  1.5963 -0.7165  0.6362
 2551SOL    HW219113   3.447   3.196   0.658 -0.7794 -0.9122  1.8796
 2552SOL     OW19114   1.502   1.431   5.450 -0.0153  0.3644  0.6410
 2552SOL    HW119115   1.468   1.506   5.401 -0.6913 -0.8372 -0.7122
 2552SOL    HW219116   1.522   1.491   5.522  1.8166  0.8203 -0.2546
 2553SOL     OW19117   3.230   0.392  16.719  0.0591  0.0353 -0.1443
 2553SOL    HW119118   3.211   0.304  16.686 -2.5977  0.8837 -0.8895
 2553SOL    HW219119   3.150   0.423  16.762 -0.5049 -1.5532 -0.0545
 2554SOL     OW19120   0.886   2.580   4.895  0.1385  0.2909 -0.1993
 2554SOL    HW119121   0.815   2.564   4.833 -1.0750 -0.7275  1.4706
 2554SOL    HW219122   0.836   2.600   4.974  2.4131  1.5274  0.9504
 2555SOL     OW19123   2.500   2.493   8.241 -0.0330 -0.8223  0.1281
 2555SOL    HW119124   2.471   2.488   8.332  0.6613 -0.3458  0.3790
 2555SOL    HW219125   2.594   2.475   8.247 -0.0699 -0.3963  1.8357
 2556SOL     OW19126   4.716   1.963   7.708 -0.5330  0.1056  0.0933
 2556SOL    HW119127   0.033   1.899   7.652 -0.9038 -1.5030  1.6540
 2556SOL    HW219128   4.625   1.967   7.678  0.6712  0.6258 -3.3896
 2557SOL     OW19129   1.161   2.153   9.574  0.1951 -0.0234  0.5108
 2557SOL    HW119130   1.100   2.107   9.517  1.6097  2.9290 -3.3871
 2557SOL    HW219131   1.205   2.207   9.509 -1.3753 -0.5768 -0.9877
 2558SOL     OW19132   2.678   1.222   6.409  0.1184 -0.1698  0.4115
 2558SOL    HW119133   2.769   1.205   6.385 -0.4393 -0.9660 -1.1792
 2558SOL    HW219134   2.692   1.314   6.430 -0.7965 -0.1107  0.7828
 2559SOL     OW19135   3.329   1.765   2.972 -0.4306  0.0167 -0.0963
 2559SOL    HW119136   3.235   1.756   2.961 -0.2560  0.0318 -1.6042
 2559SOL    HW219137   3.337   1.777   3.067 -2.1227 -1.7076  0.2805
 2560SOL     OW19138   3.138   4.262   6.454 -0.3635  0.2107 -0.8938
 2560SOL    HW119139   3.187   4.275   6.373  0.6384 -1.6486 -0.5975
 2560SOL    HW219140   3.166   4.172   6.471 -1.1169  0.3421  0.9696
 2561SOL     OW19141   2.190   0.340   7.531 -0.5435  0.0115 -1.1856
 2561SOL    HW119142   2.279   0.340   7.494 -0.0283  4.3103  0.1165
 2561SOL    HW219143   2.158   0.389   7.455  1.4123  0.5708 -1.6546
 2562SOL     OW19144   3.489   1.419   8.589  0.0611  0.3529  0.5526
 2562SOL    HW119145   3.556   1.486   8.606 -0.4408  0.5588  1.6750
 2562SOL    HW219146   3.538   1.346   8.627  0.4231  0.3928  0.1595
 2563SOL     OW19147   3.278   3.335   3.638 -0.0531 -0.0472  1.0358
 2563SOL    HW119148   3.270   3.418   3.687 -0.2661  1.1020 -0.9593
 2563SOL    HW219149   3.331   3.362   3.563 -0.1459 -0.0490  0.9692
 2564SOL     OW19150   2.593   0.814   5.663 -0.2892 -0.1885 -0.2376
 2564SOL    HW119151   2.522   0.809   5.728 -0.5977 -0.3024 -0.5839
 2564SOL    HW219152   2.543   0.834   5.584 -0.8730 -1.8300 -0.2845
 2565SOL     OW19153   1.930   0.485   6.107  0.4425  0.4940  0.0978
 2565SOL    HW119154   1.987   0.495   6.184  0.4029  0.1781  0.1699
 2565SOL    HW219155   1.890   0.401   6.128  0.6681 -0.2279 -2.4182
 2566SOL     OW19156   3.392   2.257   6.752 -0.1440  0.1527  0.0363
 2566SOL    HW119157   3.387   2.289   6.842 -3.1299  0.2260 -0.1686
 2566SOL    HW219158   3.483   2.277   6.728 -0.3936  0.5831 -0.5447
 2567SOL     OW19159   2.593   2.993   2.654  0.2475 -0.2080 -0.1727
 2567SOL    HW119160   2.634   3.075   2.682 -0.5686 -0.5089  1.8629
 2567SOL    HW219161   2.583   3.005   2.559 -2.0998 -0.8267 -0.0125
 2568SOL     OW19162   1.075   4.588   8.090  0.2035 -0.0955  0.1799
 2568SOL    HW119163   1.064   4.643   8.012 -1.0266 -1.6366 -0.7209
 2568SOL    HW219164   1.039   4.505   8.059  0.6317 -0.5807  0.9981
 2569SOL     OW19165   3.375   0.430   1.173 -0.3340 -0.6061  0.3878
 2569SOL    HW119166   3.317   0.415   1.248 -1.2680  0.8676 -0.0515
 2569SOL    HW219167   3.375   0.524   1.156  3.4511 -0.9063 -1.3218
 2570SOL     OW19168   1.611   0.597   8.451  0.0595  0.2179  0.3237
 2570SOL    HW119169   1.707   0.605   8.449  0.0459  0.9359  2.1369
 2570SOL    HW219170   1.597   0.504   8.434  1.7268  0.4364 -2.3021
 2571SOL     OW19171   4.336   3.250   6.888  0.4357  0.0363  0.0059
 2571SOL    HW119172   4.316   3.280   6.800 -0.8357  1.9551  0.9381
 2571SOL    HW219173   4.393   3.315   6.928  0.7464 -1.7846  2.5560
 2572SOL     OW19174   1.386   2.217   7.004  0.0310 -0.6672 -0.2506
 2572SOL    HW119175   1.371   2.301   7.047 -3.2096 -2.3728  1.9975
 2572SOL    HW219176   1.411   2.159   7.077 -0.0304  0.1430  0.4170
 2573SOL     OW19177   0.695   2.407   5.906  0.4722  0.2762 -0.0457
 2573SOL    HW119178   0.755   2.375   5.838 -0.2202  3.7408 -2.3140
 2573SOL    HW219179   0.621   2.347   5.895  0.0354  0.6487  0.8855
 2574SOL     OW19180   2.630   4.656  11.616 -0.2985  0.2302  0.0457
 2574SOL    HW119181   2.718   4.636  11.647  0.4420 -0.7015 -2.6545
 2574SOL    HW219182   2.620   4.724  11.683  0.2410  2.6636 -2.3482
 2575SOL     OW19183   3.558   2.639   7.220  0.7483 -0.6120  0.2737
 2575SOL    HW119184   3.522   2.658   7.134 -0.1718 -0.7798  0.6212
 2575SOL    HW219185   3.569   2.544   7.218 -1.2721 -0.7911 -2.0133
 2576SOL     OW19186   1.938   0.825   4.907  0.0086  0.1601 -0.3250
 2576SOL    HW119187   2.026   0.864   4.910  0.0011  0.1477  0.1602
 2576SOL    HW219188   1.913   0.807   4.998 -0.2024  0.9686 -0.2223
 2577SOL     OW19189   2.873   3.657  14.796  0.5459  0.1466  0.1448
 2577SOL    HW119190   2.895   3.711  14.872 -0.7549 -0.4913  0.9742
 2577SOL    HW219191   2.802   3.600  14.825  1.0042 -1.6366 -2.2585
 2578SOL     OW19192   0.682   1.216  16.268  0.6554 -0.0376  0.3048
 2578SOL    HW119193   0.594   1.235  16.235  1.9024  0.1896 -2.9146
 2578SOL    HW219194   0.709   1.305  16.289  1.1160 -0.3632  1.0913
 2579SOL     OW19195   1.954   2.336  10.957  0.1621 -0.3498 -0.3262
 2579SOL    HW119196   1.943   2.243  10.971  1.2334 -0.3419  0.6229
 2579SOL    HW219197   2.030   2.369  11.005  0.9244 -1.0197 -1.0580
 2580SOL     OW19198   0.361   1.262   5.125 -0.8975 -0.1297  0.3274
 2580SOL    HW119199   0.308   1.318   5.068  0.5751  0.9214  0.0110
 2580SOL    HW219200   0.405   1.203   5.064  1.9069  1.4896  0.8085
 2581SOL     OW19201   4.447   3.097  10.226 -0.1818 -0.1979 -0.3883
 2581SOL    HW119202   4.370   3.148  10.251  0.2659 -0.3415  1.2799
 2581SOL    HW219203   4.512   3.167  10.229 -0.5319  0.1676 -1.6067
 2582SOL     OW19204   2.004   2.419  17.169  0.0323  0.2427 -0.0468
 2582SOL    HW119205   2.031   2.403  17.259 -0.6945 -0.8511 -0.0270
 2582SOL    HW219206   1.952   2.499  17.169  0.0924  0.2673  2.9422
 2583SOL     OW19207   1.673   0.314   0.190 -0.0873 -0.5073  0.2021
 2583SOL    HW119208   1.602   0.352   0.137  0.6646 -1.0569 -1.1989
 2583SOL    HW219209   1.735   0.382   0.164 -2.2520  1.0194 -1.0218
 2584SOL     OW19210   2.213   2.414   8.192 -0.4019  0.2696 -0.5013
 2584SOL    HW119211   2.258   2.494   8.163  1.4080 -0.9940 -1.1870
 2584SOL    HW219212   2.180   2.439   8.279  3.3170  2.2925  0.3481
 2585SOL     OW19213   3.445   2.652   6.955  0.0597 -0.4429  0.3174
 2585SOL    HW119214   3.366   2.704   6.967  0.5147  0.0500  1.1776
 2585SOL    HW219215   3.483   2.684   6.874  0.8678 -1.8172  0.1481
 2586SOL     OW19216   3.156   3.995   6.208  0.0353 -0.1250 -0.1134
 2586SOL    HW119217   3.086   4.008   6.144 -1.2607 -1.8733  0.9582
 2586SOL    HW219218   3.118   4.016   6.294 -0.2428 -1.7205  0.1548
 2587SOL     OW19219   4.671   1.525   8.513  0.5995  0.1973 -0.6440
 2587SOL    HW119220   4.608   1.464   8.551 -1.2624  2.6206  0.2086
 2587SOL    HW219221   4.674   1.593   8.581  0.9431 -1.1078  0.6528
 2588SOL     OW19222   2.847   3.345   7.299  0.7157  0.0138  0.1576
 2588SOL    HW119223   2.900   3.402   7.243  0.4106  0.6394  0.4994
 2588SOL    HW219224   2.912   3.295   7.349  1.8173 -0.4324 -1.7178
 2589SOL     OW19225   4.317   4.218   3.632 -0.3037  0.1632  0.7044
 2589SOL    HW119226   4.394   4.237   3.578 -0.9124 -0.6328 -0.4260
 2589SOL    HW219227   4.240   4.252   3.586  1.7461  0.9861 -2.1553
 2590SOL     OW19228   2.604   3.530   2.239 -0.6065 -0.5161 -0.0771
 2590SOL    HW119229   2.564   3.615   2.222 -0.3715 -0.2884  0.4977
 2590SOL    HW219230   2.661   3.531   2.162 -1.6925 -0.0968 -0.8674
 2591SOL     OW19231   1.204   0.713   3.525  0.0711 -0.3987  0.2002
 2591SOL    HW119232   1.167   0.637   3.479 -1.0302  0.5712 -0.5027
 2591SOL    HW219233   1.121   0.757   3.544  0.3733 -0.7779  2.3602
 2592SOL     OW19234   2.845   3.998  14.905 -0.1786  0.0784  0.1585
 2592SOL    HW119235   2.872   3.910  14.929  0.1693 -0.6730 -2.9412
 2592SOL    HW219236   2.794   4.015  14.984 -1.0378  2.0682 -0.8138
 2593SOL     OW19237   0.823   3.844   7.883  0.2296 -0.2245  0.1452
 2593SOL    HW119238   0.880   3.773   7.912  0.5193  0.8648  2.2312
 2593SOL    HW219239   0.802   3.821   7.792  0.6659 -0.8668  0.2100
 2594SOL     OW19240   3.628   3.185   0.676 -0.1901  0.3096 -0.0660
 2594SOL    HW119241   3.642   3.094   0.650  0.2444  0.1575  0.7156
 2594SOL    HW219242   3.712   3.217   0.643 -0.0107  1.0988  1.1732
 2595SOL     OW19243   2.874   3.379   2.677  0.4543  0.2541  0.1349
 2595SOL    HW119244   2.834   3.399   2.593 -2.3808  0.4845  1.5088
 2595SOL    HW219245   2.855   3.285   2.676 -1.0846  0.5585  0.7998
 2596SOL     OW19246   2.093   0.932   2.876 -0.2162  0.3665  0.3670
 2596SOL    HW119247   2.138   0.908   2.957 -0.4411 -1.8901 -0.1627
 2596SOL    HW219248   2.148   0.998   2.834  0.0598  0.1057  0.3122
 2597SOL     OW19249   3.335   0.172   6.897  0.1539  0.3130 -0.1920
 2597SOL    HW119250   3.367   0.155   6.986  0.2852 -1.7327 -0.6132
 2597SOL    HW219251   3.268   0.104   6.900 -0.8818  1.3032 -0.9687
 2598SOL     OW19252   2.954   3.452  10.141 -0.1612  0.0957  0.0342
 2598SOL    HW119253   2.924   3.541  10.124  0.2932  0.0072 -1.2043
 2598SOL    HW219254   3.038   3.459  10.186 -0.9867  3.7098  1.0061
 2599SOL     OW19255   2.619   0.965  13.968 -0.3662 -0.6584 -0.5611
 2599SOL    HW119256   2.537   0.982  14.015  0.9942 -1.1551  1.9749
 2599SOL    HW219257   2.581   0.947  13.882 -2.5666  0.4187  0.1773
 2600SOL     OW19258   2.848   4.198   7.551 -0.3345  0.1123  0.5993
 2600SOL    HW119259   2.808   4.193   7.638 -0.5811  0.2390  0.4962
 2600SOL    HW219260   2.845   4.104   7.532  1.0071  0.2451 -0.2885
 2601SOL     OW19261   2.722   2.710  16.530 -0.0043  0.1917  0.4218
 2601SOL    HW119262   2.683   2.658  16.600 -0.6149 -1.5092 -1.1913
 2601SOL    HW219263   2.714   2.798  16.567  0.8187  0.4209  0.0553
 2602SOL     OW19264   1.532   1.453   3.491  0.0732 -0.1345  0.6894
 2602SOL    HW119265   1.563   1.422   3.575  0.4017 -1.1304  0.2002
 2602SOL    HW219266   1.439   1.444   3.509 -0.4298 -0.1842 -1.8494
 2603SOL     OW19267   4.137   2.287  10.021 -0.4576  0.6938  0.4182
 2603SOL    HW119268   4.052   2.278  10.063  0.1153  2.4088  1.9554
 2603SOL    HW219269   4.180   2.347  10.082 -0.8649 -0.4501  1.8452
 2604SOL     OW19270   2.421   4.027  16.267  0.3477  0.1363 -0.1431
 2604SOL    HW119271   2.372   4.045  16.187 -0.2446 -0.2416  0.1302
 2604SOL    HW219272   2.455   4.113  16.290 -0.7560  0.4152  0.4462
 2605SOL     OW19273   1.587   4.011   5.951 -0.0193  0.2157 -0.0140
 2605SOL    HW119274   1.591   4.068   5.874  0.8007  0.6628  0.3552
 2605SOL    HW219275   1.679   4.006   5.976  0.2140  1.2107 -0.6653
 2606SOL     OW19276   2.347   1.195   6.868 -0.6244 -0.4756  0.2053
 2606SOL    HW119277   2.380   1.284   6.876  2.1237 -1.3335 -1.5125
 2606SOL    HW219278   2.367   1.168   6.778 -0.9162 -3.4538  1.0143
 2607SOL     OW19279   3.240   2.190   3.646 -0.3466 -0.2387  0.0025
 2607SOL    HW119280   3.300   2.154   3.711  1.3785  2.3053 -0.1625
 2607SOL    HW219281   3.298   2.180   3.571 -1.2519  1.6481 -0.9836
 2608SOL     OW19282   0.875   3.257  15.258 -0.2047 -0.1496 -0.4793
 2608SOL    HW119283   0.875   3.213  15.343  0.8665 -0.5390 -0.6799
 2608SOL    HW219284   0.791   3.246  15.214 -0.9116  2.0592  0.2767
 2609SOL     OW19285   0.116   1.767   8.722  0.1479 -0.1869 -0.1491
 2609SOL    HW119286   0.066   1.839   8.685 -0.7501 -0.7023  0.0811
 2609SOL    HW219287   0.203   1.809   8.726  1.0925 -2.0851 -0.7144
 2610SOL     OW19288   2.731   3.070   6.994 -0.1141  0.4346  0.7070
 2610SOL    HW119289   2.706   3.161   7.005  1.4630  0.8112  1.1236
 2610SOL    HW219290   2.789   3.047   7.066  0.1073 -0.7569  0.1515
 2611SOL     OW19291   3.042   4.582   8.469 -0.5548 -0.6716  0.2800
 2611SOL    HW119292   3.109   4.644   8.439 -0.4553 -0.5550  0.7429
 2611SOL    HW219293   3.082   4.548   8.549  1.6234 -1.5544 -1.1582
 2612SOL     OW19294   0.302   2.093   2.808  0.2665  0.0429  0.4988
 2612SOL    HW119295   0.231   2.069   2.868 -0.3013 -0.3112 -0.3231
 2612SOL    HW219296   0.340   2.005   2.802  0.6429  0.3371 -1.5083
 2613SOL     OW19297   2.395   3.790   5.585  0.1333 -0.2649  0.3234
 2613SOL    HW119298   2.461   3.767   5.651 -1.5645 -2.1996  1.3522
 2613SOL    HW219299   2.349   3.866   5.621  1.2169  0.5815 -0.0834
 2614SOL     OW19300   2.727   4.428   7.921 -0.0556 -0.0253 -0.0966
 2614SOL    HW119301   2.812   4.449   7.882  0.5879 -3.6301 -0.6656
 2614SOL    HW219302   2.716   4.512   7.966  0.9457  0.2331 -0.3246
 2615SOL     OW19303   1.222   4.052  11.700 -0.0367 -0.0091  0.2233
 2615SOL    HW119304   1.153   3.986  11.702  1.5572 -1.6386  1.5622
 2615SOL    HW219305   1.239   4.055  11.606  0.6475  1.1863  0.3878
 2616SOL     OW19306   1.106   2.813   5.137 -0.1113  0.2512 -0.3582
 2616SOL    HW119307   1.045   2.885   5.120  0.2692  0.3958 -1.0808
 2616SOL    HW219308   1.190   2.857   5.128  1.6279 -2.0228  4.6321
 2617SOL     OW19309   3.770   0.256  10.814  0.7968 -0.1938 -0.4503
 2617SOL    HW119310   3.725   0.181  10.854 -0.5169 -1.1475 -3.6344
 2617SOL    HW219311   3.787   0.218  10.727 -0.1858 -1.6621 -0.0064
 2618SOL     OW19312   2.510   4.070  16.799  0.4110 -0.3399 -0.3240
 2618SOL    HW119313   2.429   4.055  16.846  0.8240 -0.6296  0.2908
 2618SOL    HW219314   2.476   4.051  16.711  2.1116 -1.4078 -0.7511
 2619SOL     OW19315   0.077   2.917   0.400 -0.5295  0.3647 -0.3179
 2619SOL    HW119316   0.055   2.962   0.318  0.6320 -1.8316 -1.8419
 2619SOL    HW219317   0.122   2.990   0.442 -1.1876 -0.4383  1.7827
 2620SOL     OW19318   3.412   0.499   2.695  0.4291  0.3802  0.3410
 2620SOL    HW119319   3.338   0.494   2.634  1.0481 -1.2762 -0.2854
 2620SOL    HW219320   3.401   0.424   2.753 -2.2425  0.9906  0.6213
 2621SOL     OW19321   0.038   0.473  14.546 -0.1722 -0.1760 -0.5401
 2621SOL    HW119322   0.063   0.521  14.468 -0.5283  2.1883  0.7902
 2621SOL    HW219323   0.028   0.388  14.503  1.1658 -0.4559 -0.3016
 2622SOL     OW19324   1.931   0.333   8.086 -0.3473 -0.1133  0.1899
 2622SOL    HW119325   1.866   0.270   8.117 -1.9583  1.4929  0.0706
 2622SOL    HW219326   1.989   0.342   8.162 -1.9954 -0.8316  1.5147
 2623SOL     OW19327   1.807   0.203  11.653 -0.4866 -1.0954  0.4311
 2623SOL    HW119328   1.751   0.281  11.656  1.6950  0.5142 -0.6594
 2623SOL    HW219329   1.884   0.243  11.612 -0.0567 -1.1604  1.1694
 2624SOL     OW19330   1.024   4.313  17.504  0.1105 -0.3533  0.2731
 2624SOL    HW119331   0.947   4.313  17.561  1.1279  0.8064  1.6552
 2624SOL    HW219332   0.977   4.311  17.421  1.1256 -1.5675 -0.2566
 2625SOL     OW19333   1.174   3.232  10.211  0.7122 -0.3635  0.3336
 2625SOL    HW119334   1.094   3.184  10.193  1.1299 -1.9743  2.6568
 2625SOL    HW219335   1.138   3.288  10.280 -1.7608  0.3095 -1.5088
 2626SOL     OW19336   1.453   3.704   5.980 -0.0081  0.2209 -0.3440
 2626SOL    HW119337   1.487   3.616   5.995 -0.4206 -0.2261 -2.0702
 2626SOL    HW219338   1.429   3.706   5.887  3.0964 -1.5453 -1.1797
 2627SOL     OW19339   3.760   1.568   8.946  0.3738 -0.0082 -0.5714
 2627SOL    HW119340   3.820   1.642   8.936  2.5530 -1.2486  3.3997
 2627SOL    HW219341   3.820   1.500   8.977 -0.4166 -0.6019 -0.3515
 2628SOL     OW19342   4.255   1.779   1.145  0.2730  0.2878  0.1905
 2628SOL    HW119343   4.335   1.749   1.101  0.2288 -0.6371  0.7526
 2628SOL    HW219344   4.299   1.828   1.215 -2.5115 -1.1574  2.9335
 2629SOL     OW19345   0.545   0.573   5.439 -0.2415  0.6659 -0.2563
 2629SOL    HW119346   0.546   0.616   5.354  0.2943 -0.4321 -0.8088
 2629SOL    HW219347   0.479   0.627   5.482  1.3255  1.6279  0.9346
 2630SOL     OW19348   2.006   2.431   7.901 -0.0385 -0.3627  0.2314
 2630SOL    HW119349   2.100   2.428   7.883  0.2891 -0.0602  1.8946
 2630SOL    HW219350   2.003   2.410   7.994 -0.5599  0.1834  0.3370
 2631SOL     OW19351   3.552   1.402   4.577  0.5052  0.1803  0.2974
 2631SOL    HW119352   3.510   1.486   4.593  0.8717  0.0852  1.7747
 2631SOL    HW219353   3.488   1.344   4.617 -0.1518  1.0851  0.5394
 2632SOL     OW19354   0.884   1.320   9.499 -0.1407  0.5844 -0.0301
 2632SOL    HW119355   0.934   1.380   9.445  1.6016  1.4172  2.4794
 2632SOL    HW219356   0.869   1.382   9.571  0.1789 -1.7699  2.0801
 2633SOL     OW19357   4.123   4.097   3.421  0.3169  0.0692 -0.0850
 2633SOL    HW119358   4.146   4.187   3.399  0.5290 -0.0682 -0.4387
 2633SOL    HW219359   4.034   4.098   3.385  0.2517 -0.3392  0.0606
 2634SOL     OW19360   1.607   2.410   8.277 -0.4021  0.1605  0.3560
 2634SOL    HW119361   1.657   2.469   8.221  0.5449 -0.4184  0.5971
 2634SOL    HW219362   1.612   2.329   8.225 -1.6607 -0.1403  0.7081
 2635SOL     OW19363   3.062   0.184   3.008 -0.7294  0.7507 -0.3270
 2635SOL    HW119364   2.997   0.154   3.072 -0.1889 -2.1590 -1.1216
 2635SOL    HW219365   3.007   0.191   2.930  0.5035  0.2944 -1.2384
 2636SOL     OW19366   1.117   3.745   8.832 -0.5406  0.0754 -0.3006
 2636SOL    HW119367   1.178   3.671   8.834 -0.0226  0.5265  0.2868
 2636SOL    HW219368   1.166   3.823   8.856  1.1961 -0.5175 -1.8569
 2637SOL     OW19369   2.482   4.025   8.115  0.1259  0.0187 -0.2953
 2637SOL    HW119370   2.543   3.972   8.064  0.0444  0.4634 -0.8520
 2637SOL    HW219371   2.523   4.108   8.091 -0.8325  0.3108 -0.9340
 2638SOL     OW19372   2.514   1.434   6.189  0.0975 -0.1271 -0.4172
 2638SOL    HW119373   2.459   1.416   6.266 -0.1331 -1.5628 -0.9108
 2638SOL    HW219374   2.590   1.478   6.226 -0.3314 -0.2583  0.6271
 2639SOL     OW19375   0.863   4.339   9.754 -0.0674 -0.1255  0.1443
 2639SOL    HW119376   0.939   4.381   9.796  0.6254  0.8194 -2.0708
 2639SOL    HW219377   0.828   4.277   9.818  0.8460  0.1744  0.9388
 2640SOL     OW19378   4.359   2.914  11.840  0.2705 -0.2497  0.3924
 2640SOL    HW119379   4.409   2.921  11.758  1.7396 -0.6055  1.2499
 2640SOL    HW219380   4.411   2.973  11.896  1.2399 -0.8622  0.1401
 2641SOL     OW19381   0.742   3.158   2.303 -0.4056 -0.4364 -0.1992
 2641SOL    HW119382   0.735   3.126   2.393  2.0092  0.2253  0.2187
 2641SOL    HW219383   0.752   3.251   2.322 -0.4901 -0.4048 -0.3036
 2642SOL     OW19384   2.247   4.486   5.853  0.4479  0.1516  0.8126
 2642SOL    HW119385   2.154   4.500   5.832  0.3576 -1.6924  0.0215
 2642SOL    HW219386   2.287   4.567   5.885  2.7876 -1.0023  0.7997
 2643SOL     OW19387   1.947   1.430   2.008  0.0900 -0.1347 -0.2456
 2643SOL    HW119388   2.020   1.377   2.042 -1.2321 -1.0380  1.1757
 2643SOL    HW219389   1.997   1.497   1.962  0.4374  0.8893  1.6153
 2644SOL     OW19390   4.227   2.774   7.264  0.1193 -0.1176  0.0009
 2644SOL    HW119391   4.153   2.792   7.323  1.2655 -0.0850  1.4241
 2644SOL    HW219392   4.271   2.859   7.264 -0.0975 -0.0052  0.2419
 2645SOL     OW19393   2.441   3.819   1.852  0.0612  0.2187  0.3649
 2645SOL    HW119394   2.406   3.793   1.767  2.3854 -2.0561  0.1067
 2645SOL    HW219395   2.515   3.877   1.830  0.7467 -0.7859  0.0396
 2646SOL     OW19396   3.712   0.425  11.783  0.2088  0.4048  0.2377
 2646SOL    HW119397   3.754   0.408  11.868 -1.0006  0.4506  0.8438
 2646SOL    HW219398   3.661   0.346  11.765 -1.9472  1.9979 -0.5486
 2647SOL     OW19399   1.134   4.508   7.168  0.0409 -0.3309  0.2362
 2647SOL    HW119400   1.102   4.465   7.248  1.5264 -1.5809  0.1483
 2647SOL    HW219401   1.152   4.435   7.108  0.5590  0.2110 -0.2691
 2648SOL     OW19402   0.805   0.214  10.557 -0.2887  0.6179  0.0318
 2648SOL    HW119403   0.876   0.277  10.547  1.3818 -1.2753 -0.1197
 2648SOL    HW219404   0.774   0.237  10.645 -3.7063  1.3442 -1.3735
 2649SOL     OW19405   4.312   3.122   6.612  0.4023 -0.5589  0.5326
 2649SOL    HW119406   4.382   3.172   6.571  0.2806 -0.4613  0.4436
 2649SOL    HW219407   4.353   3.076   6.685  1.0816 -0.1770  0.3869
 2650SOL     OW19408   0.318   0.321  10.127 -0.1218 -0.5405  0.3839
 2650SOL    HW119409   0.251   0.373  10.171  1.0272  2.0172 -0.8743
 2650SOL    HW219410   0.395   0.374  10.148 -0.5242  0.8199 -1.5055
 2651SOL     OW19411   3.843   0.668  12.014  0.1693 -0.2834 -0.2002
 2651SOL    HW119412   3.894   0.592  11.988  0.6428  0.5052 -1.5290
 2651SOL    HW219413   3.775   0.627  12.068  0.6747  1.1858  1.5883
 2652SOL     OW19414   1.345   1.972   5.605  0.0885  0.2089 -0.2039
 2652SOL    HW119415   1.325   2.029   5.679 -0.3766 -1.1882  0.7562
 2652SOL    HW219416   1.421   2.012   5.564 -0.4360 -0.4225 -1.7982
 2653SOL     OW19417   1.832   2.283   2.424  0.7640 -0.1671 -0.3341
 2653SOL    HW119418   1.810   2.202   2.469  0.1924  0.6149  0.7848
 2653SOL    HW219419   1.754   2.296   2.370  0.1996  1.0968  0.7862
 2654SOL     OW19420   0.020   4.415   7.969 -0.1888  0.2386  0.3033
 2654SOL    HW119421   4.666   4.371   7.995 -0.3483 -0.1423 -0.8581
 2654SOL    HW219422   4.704   4.491   7.929 -0.0849  0.8649  1.3661
 2655SOL     OW19423   3.751   2.900   7.032 -0.0094 -0.3539  0.6027
 2655SOL    HW119424   3.694   2.845   6.979  0.7390  1.0967 -1.7022
 2655SOL    HW219425   3.820   2.939   6.979 -0.5922 -0.7190 -0.4235
 2656SOL     OW19426   2.215   3.453   6.598 -0.5692  0.0983  0.1383
 2656SOL    HW119427   2.157   3.438   6.673  0.0687  2.2300  1.0569
 2656SOL    HW219428   2.206   3.366   6.560  0.5607 -0.8363  2.0297
 2657SOL     OW19429   1.569   4.674   1.085  0.2371  0.0938  0.5194
 2657SOL    HW119430   1.630   0.009   1.044 -0.1640  0.2754  0.2004
 2657SOL    HW219431   1.487   4.719   1.065  0.0505 -0.8254 -0.7828
 2658SOL     OW19432   0.001   1.762   4.331 -0.0645  0.1505 -0.2996
 2658SOL    HW119433   4.675   1.741   4.408  1.0733  1.5362  0.8743
 2658SOL    HW219434   4.717   1.687   4.272  1.2946 -1.4050  1.4116
 2659SOL     OW19435   0.011   2.107   6.626 -0.7563 -0.0134  0.1877
 2659SOL    HW119436   0.089   2.139   6.579 -2.2115  1.4904 -1.2176
 2659SOL    HW219437   4.663   2.131   6.571  0.9280  2.6873 -0.9356
 2660SOL     OW19438   4.227   4.604   2.804  0.4353  0.3168 -0.3401
 2660SOL    HW119439   4.224   4.695   2.774  0.0194  0.3406 -0.2368
 2660SOL    HW219440   4.155   4.558   2.760 -1.3009  0.9422  1.8912
 2661SOL     OW19441   0.195   3.521   8.714  0.1032 -0.5966 -0.5535
 2661SOL    HW119442   0.221   3.438   8.675  0.5761 -1.1025  0.8109
 2661SOL    HW219443   0.271   3.571   8.745 -0.4857 -0.6270  0.9770
 2662SOL     OW19444   3.811   4.615  16.206  0.3106  0.6958 -0.3235
 2662SOL    HW119445   3.719   4.630  16.231  1.1580 -1.3429  3.9545
 2662SOL    HW219446   3.789   4.543  16.146 -1.6813  1.8290 -0.9632
 2663SOL     OW19447   1.702   4.051   3.526 -0.1480  0.1101 -0.1776
 2663SOL    HW119448   1.779   4.105   3.509  0.0024  0.1178  0.5275
 2663SOL    HW219449   1.735   3.962   3.518 -1.0478 -0.3204  0.9253
 2664SOL     OW19450   2.811   2.776   9.403 -0.9188 -0.2732 -0.3567
 2664SOL    HW119451   2.717   2.757   9.409 -0.5380 -2.3548 -1.0579
 2664SOL    HW219452   2.812   2.869   9.427 -0.4481 -0.4136  0.1565
 2665SOL     OW19453   1.384   0.600  12.329 -0.1302  0.6133  0.3768
 2665SOL    HW119454   1.315   0.541  12.360  1.7276 -2.1888 -0.7295
 2665SOL    HW219455   1.452   0.533  12.322 -0.4119  0.2411  1.1597
 2666SOL     OW19456   1.602   3.717  13.761  0.1680  0.1465 -0.4919
 2666SOL    HW119457   1.567   3.767  13.834  0.6986 -0.9496  0.5179
 2666SOL    HW219458   1.590   3.624  13.780  1.4179 -0.2809 -1.8338
 2667SOL     OW19459   2.127   3.965   8.451  0.5869 -0.0306 -0.0333
 2667SOL    HW119460   2.168   4.031   8.507  1.4411 -0.4206 -0.1901
 2667SOL    HW219461   2.200   3.910   8.421  1.1954  0.5290  0.4225
 2668SOL     OW19462   0.539   0.530  12.957 -0.7751  0.0370  0.2187
 2668SOL    HW119463   0.465   0.590  12.960  1.0638  2.2744  0.3803
 2668SOL    HW219464   0.606   0.572  12.903 -0.3135 -1.2333 -0.2239
 2669SOL     OW19465   0.240   2.222   6.534 -0.1727 -0.0390  0.6891
 2669SOL    HW119466   0.329   2.259   6.533 -0.9768  1.9186  1.3147
 2669SOL    HW219467   0.251   2.159   6.462  0.8911  0.6907  0.2046
 2670SOL     OW19468   2.896   4.667   8.211 -0.0915  0.4176  0.3612
 2670SOL    HW119469   2.941   4.675   8.295  1.7833 -0.8440 -0.5348
 2670SOL    HW219470   2.869   4.575   8.214 -0.6358  0.5337 -0.9252
 2671SOL     OW19471   2.279   3.224  15.617 -0.1277 -0.0264  0.3372
 2671SOL    HW119472   2.191   3.191  15.598 -0.6155  2.0457 -0.9155
 2671SOL    HW219473   2.313   3.276  15.544 -0.7409 -0.8930 -0.5709
 2672SOL     OW19474   1.679   2.346   7.656 -0.1422 -0.1691 -0.1954
 2672SOL    HW119475   1.619   2.397   7.710  1.4639  0.2669  1.1765
 2672SOL    HW219476   1.689   2.405   7.581 -1.6986  2.1873  1.4284
 2673SOL     OW19477   3.880   1.345   4.946  0.0030 -0.2818 -0.1705
 2673SOL    HW119478   3.800   1.387   4.914  0.4670 -0.7435 -1.9468
 2673SOL    HW219479   3.893   1.280   4.877 -1.0924 -0.0085 -0.6349
 2674SOL     OW19480   4.125   4.145   8.294 -0.7635 -0.1734 -0.3265
 2674SOL    HW119481   4.100   4.131   8.386 -0.7473  0.7196 -0.1855
 2674SOL    HW219482   4.154   4.236   8.304  1.2490 -0.9798  1.2236
 2675SOL     OW19483   0.409   1.551   8.606 -0.6172 -0.1631 -0.2699
 2675SOL    HW119484   0.339   1.554   8.540 -0.3606  0.7819 -0.5015
 2675SOL    HW219485   0.358   1.565   8.687 -3.0498  1.0700 -2.0010
 2676SOL     OW19486   2.407   4.541   7.955  0.3773  0.2907  0.4556
 2676SOL    HW119487   2.490   4.586   7.969  1.0014 -1.0150  1.0137
 2676SOL    HW219488   2.360   4.527   8.037 -2.3870 -1.5503 -1.4117
 2677SOL     OW19489   2.937   2.349   4.493  0.6210 -0.2930 -0.9410
 2677SOL    HW119490   2.842   2.352   4.487  0.6339  0.9194 -0.6869
 2677SOL    HW219491   2.956   2.416   4.427 -0.3686  0.5681 -0.3491
 2678SOL     OW19492   2.239   4.338  13.769 -0.3136 -0.0030 -0.2423
 2678SOL    HW119493   2.234   4.433  13.776 -0.0935  0.0588 -0.9375
 2678SOL    HW219494   2.334   4.326  13.762 -0.4548 -0.7797 -0.8561
 2679SOL     OW19495   3.298   4.091   0.053  0.2401  0.5080  0.1068
 2679SOL    HW119496   3.386   4.128   0.047  0.3294  0.5242  1.5799
 2679SOL    HW219497   3.264   4.140  17.685 -0.7372 -0.6931 -0.2375
 2680SOL     OW19498   4.391   1.927   4.874  1.0238 -0.3120  0.7912
 2680SOL    HW119499   4.378   1.883   4.958  2.2692  1.8061  2.0717
 2680SOL    HW219500   4.368   2.014   4.906 -1.6169 -1.3478  1.7549
 2681SOL     OW19501   3.998   3.435   8.560  0.1071  0.1131  0.5222
 2681SOL    HW119502   4.060   3.432   8.633 -1.0826  0.6003  1.5686
 2681SOL    HW219503   3.973   3.343   8.565 -2.0732  0.5968 -1.8402
 2682SOL     OW19504   0.142   3.008  14.980  0.1727 -0.3209  0.0950
 2682SOL    HW119505   0.100   2.923  14.994  2.2898 -0.6299  4.3648
 2682SOL    HW219506   0.095   3.059  15.046  0.7295 -0.7972  0.8629
 2683SOL     OW19507   0.316   2.472   3.411  0.2352 -0.0202  0.7970
 2683SOL    HW119508   0.324   2.548   3.354 -0.7307  0.3962  1.2272
 2683SOL    HW219509   0.396   2.423   3.390  0.5459  0.5637  0.6269
 2684SOL     OW19510   4.281   1.690   9.327 -0.1464 -0.0996 -0.3265
 2684SOL    HW119511   4.349   1.703   9.394 -1.4559  0.3988  0.9110
 2684SOL    HW219512   4.299   1.599   9.302  0.7958  0.3522 -1.2676
 2685SOL     OW19513   2.515   0.834   9.763 -0.1673  0.2490 -0.1259
 2685SOL    HW119514   2.459   0.779   9.709  0.7750 -0.5484 -0.2802
 2685SOL    HW219515   2.460   0.836   9.842  0.0397 -2.2483  0.0733
 2686SOL     OW19516   3.976   1.899  15.226 -0.1369 -0.5117  0.4762
 2686SOL    HW119517   3.951   1.822  15.175 -0.0027 -0.8949  0.9826
 2686SOL    HW219518   3.921   1.964  15.183 -0.9300  0.6310  3.2068
 2687SOL     OW19519   4.081   4.389   1.380  0.2632 -0.3395 -0.5567
 2687SOL    HW119520   3.991   4.411   1.354  0.8653  0.5961 -1.8503
 2687SOL    HW219521   4.122   4.453   1.322  1.6310 -1.0748 -0.3889
 2688SOL     OW19522   3.828   0.333   3.242 -0.1570 -0.1850 -0.2820
 2688SOL    HW119523   3.812   0.370   3.155  0.6630 -1.8860 -1.1500
 2688SOL    HW219524   3.807   0.244   3.211  0.2665 -0.7119  0.9652
 2689SOL     OW19525   2.335   2.938   3.594  0.2175 -0.6920 -0.0865
 2689SOL    HW119526   2.389   2.864   3.621 -0.5902 -1.8083 -1.4799
 2689SOL    HW219527   2.340   2.990   3.674 -0.3626  1.0080 -1.1588
 2690SOL     OW19528   2.265   4.009   1.600 -0.4902 -0.0449 -0.7268
 2690SOL    HW119529   2.182   3.984   1.642 -0.1891  0.2658  0.0472
 2690SOL    HW219530   2.249   4.102   1.589  1.5491  0.2013 -1.4857
 2691SOL     OW19531   2.213   4.229   3.634 -0.3431  0.7996 -0.6508
 2691SOL    HW119532   2.157   4.281   3.692 -1.0375 -0.3410 -0.2957
 2691SOL    HW219533   2.270   4.183   3.696  1.0365  0.7398 -1.9608
 2692SOL     OW19534   3.569   0.749   2.714  0.2869 -0.2143 -0.5481
 2692SOL    HW119535   3.500   0.683   2.709 -1.3194  1.3042  1.3293
 2692SOL    HW219536   3.546   0.809   2.643  2.1783  0.4634 -0.5907
 2693SOL     OW19537   2.956   1.207   3.532  0.2394 -0.1574  0.0700
 2693SOL    HW119538   3.034   1.259   3.551 -0.6343  1.0746  0.2977
 2693SOL    HW219539   2.993   1.119   3.531 -0.2279 -0.3550  0.0283
 2694SOL     OW19540   1.694   1.645   2.154 -0.7406 -0.0867  0.0459
 2694SOL    HW119541   1.770   1.703   2.156 -1.1067  0.3891 -0.0448
 2694SOL    HW219542   1.659   1.666   2.068 -1.4729 -1.6050 -0.0312
 2695SOL     OW19543   2.392   3.434   4.106 -0.3919  0.5373 -0.6992
 2695SOL    HW119544   2.355   3.351   4.135 -0.7714  0.9829  0.0792
 2695SOL    HW219545   2.429   3.411   4.020  1.2257  0.7739 -0.0674
 2696SOL     OW19546   0.964   3.828   4.285  0.5983  0.6582 -0.1367
 2696SOL    HW119547   0.974   3.850   4.193 -0.4036 -0.6870 -0.5566
 2696SOL    HW219548   1.054   3.824   4.318  0.5496 -0.4958 -0.1597
 2697SOL     OW19549   1.951   0.864   6.871 -0.0474  0.2348  0.5463
 2697SOL    HW119550   2.021   0.921   6.839  1.6917 -2.4231 -0.3689
 2697SOL    HW219551   1.932   0.907   6.954  0.5034 -1.5695  1.6179
 2698SOL     OW19552   0.310   4.411  15.798  0.3643  0.2383 -0.4704
 2698SOL    HW119553   0.349   4.459  15.725  0.7733 -0.0415 -0.4342
 2698SOL    HW219554   0.308   4.470  15.873 -1.8649  1.7249 -1.6635
 2699SOL     OW19555   4.489   1.062   9.391 -0.4039 -0.1313 -0.0605
 2699SOL    HW119556   4.428   1.014   9.334 -0.9426  0.5296 -0.0441
 2699SOL    HW219557   4.509   1.139   9.338  2.8697 -1.6254 -0.9788
 2700SOL     OW19558   1.397   0.150   8.188  0.4057  0.0712 -0.2993
 2700SOL    HW119559   1.334   0.196   8.244 -1.0586 -0.5445 -1.4494
 2700SOL    HW219560   1.373   0.058   8.200 -2.0322  0.7210 -0.3211
 2701SOL     OW19561   2.120   1.599   5.992  0.1869  0.5461 -0.2516
 2701SOL    HW119562   2.165   1.515   6.004 -0.4465  0.0854 -1.0673
 2701SOL    HW219563   2.159   1.648   6.064  1.9827  1.5931 -1.9398
 2702SOL     OW19564   3.525   0.945   6.831  0.4792  0.2601 -0.4118
 2702SOL    HW119565   3.504   0.922   6.740 -0.5302 -0.5837  0.0404
 2702SOL    HW219566   3.573   1.025   6.812  1.1619 -0.2429 -0.8184
 2703SOL     OW19567   4.680   3.258   7.462  0.5687  0.4610 -0.3116
 2703SOL    HW119568   4.596   3.251   7.417  0.4193  3.9339 -0.5960
 2703SOL    HW219569   4.653   3.201   7.533  0.8303 -0.5388 -1.0029
 2704SOL     OW19570   1.835   2.883   2.693  0.3256 -0.0796 -0.0510
 2704SOL    HW119571   1.879   2.888   2.777  0.6050  0.3417 -0.2212
 2704SOL    HW219572   1.901   2.827   2.653  0.9795 -0.5828  1.7757
 2705SOL     OW19573   0.592   3.303  16.887  0.1861 -0.6138 -0.1132
 2705SOL    HW119574   0.546   3.385  16.870  2.0872  0.5934  0.5625
 2705SOL    HW219575   0.522   3.237  16.886 -0.0200 -0.3759 -1.4476
 2706SOL     OW19576   3.078   1.516   2.639 -0.2003  0.0308 -0.0728
 2706SOL    HW119577   3.114   1.591   2.592 -0.0887 -0.1297 -0.2429
 2706SOL    HW219578   3.116   1.452   2.578 -2.4763 -0.5317 -0.8921
 2707SOL     OW19579   1.584   2.307   4.225 -0.5201  0.4098 -0.2356
 2707SOL    HW119580   1.492   2.318   4.204 -0.1404 -0.4426 -2.3441
 2707SOL    HW219581   1.604   2.266   4.141 -2.7775  1.7055 -1.4109
 2708SOL     OW19582   3.224   2.953   8.358 -0.5459 -0.1519  0.0301
 2708SOL    HW119583   3.216   2.946   8.453  2.2827 -1.9781  0.1348
 2708SOL    HW219584   3.223   3.048   8.351 -0.3227 -0.2406 -1.2622
 2709SOL     OW19585   3.979   3.636   5.513  0.2335  0.6283  0.1201
 2709SOL    HW119586   3.964   3.696   5.587 -2.5701 -0.6506  0.5875
 2709SOL    HW219587   4.052   3.685   5.474  1.8309 -1.6490  0.2637
 2710SOL     OW19588   2.332   0.118   1.920  0.3618  0.2188  0.2169
 2710SOL    HW119589   2.349   0.188   1.984 -2.7770  1.6169 -0.4708
 2710SOL    HW219590   2.421   0.084   1.913 -0.3366 -1.2436 -1.4010
 2711SOL     OW19591   1.824   0.767   2.312  0.2706  0.5451  0.2277
 2711SOL    HW119592   1.763   0.694   2.323 -0.7662  1.3710 -0.0515
 2711SOL    HW219593   1.783   0.833   2.367 -2.8032 -1.4007  0.2733
 2712SOL     OW19594   0.634   1.225  16.787  0.4405 -0.3922  0.1834
 2712SOL    HW119595   0.555   1.267  16.820 -0.0324  0.6585 -2.3099
 2712SOL    HW219596   0.598   1.153  16.736  0.8179 -0.5083  0.0775
 2713SOL     OW19597   2.495   1.540  13.418 -0.0924 -0.5960  0.0231
 2713SOL    HW119598   2.435   1.472  13.447  0.3193 -1.2357 -0.6077
 2713SOL    HW219599   2.494   1.605  13.488 -1.0094 -1.3555  0.7166
 2714SOL     OW19600   3.967   3.020   7.646  0.0172 -0.3136  0.2154
 2714SOL    HW119601   4.010   3.101   7.675 -0.6142  1.0944 -2.8299
 2714SOL    HW219602   3.934   2.976   7.724 -0.8343  0.4667  0.2883
 2715SOL     OW19603   0.741   2.267   7.796 -0.2123 -0.1296 -0.7597
 2715SOL    HW119604   0.699   2.346   7.762 -0.2977  0.9905  1.9463
 2715SOL    HW219605   0.662   2.214   7.797 -1.0480  1.1237 -0.4499
 2716SOL     OW19606   0.119   3.567   7.162 -0.1446  0.1101 -0.0821
 2716SOL    HW119607   0.190   3.560   7.098  1.0014 -2.8073  1.4893
 2716SOL    HW219608   0.044   3.588   7.107  1.3108 -0.5324 -2.3378
 2717SOL     OW19609   1.006   1.569   3.523 -0.3383  0.2945 -0.2509
 2717SOL    HW119610   1.013   1.553   3.617 -0.0572  2.8442  0.1383
 2717SOL    HW219611   0.963   1.492   3.485 -0.0842 -0.2829  0.6351
 2718SOL     OW19612   4.509   1.296   6.973  0.1968  0.3631  0.2135
 2718SOL    HW119613   4.550   1.285   7.059  1.1921  2.1046 -0.0611
 2718SOL    HW219614   4.416   1.291   6.996 -0.6898 -1.5745 -3.8147
 2719SOL     OW19615   1.527   0.075  13.563 -0.2428  0.3070 -0.2045
 2719SOL    HW119616   1.618   0.101  13.551  0.7079 -2.8637  0.0586
 2719SOL    HW219617   1.477   0.156  13.569 -0.3802  0.3694 -1.9681
 2720SOL     OW19618   2.161   1.885   8.574  0.0461  0.3401  0.3308
 2720SOL    HW119619   2.125   1.850   8.492  0.2760 -0.5096  0.5885
 2720SOL    HW219620   2.204   1.809   8.613 -1.0651 -0.6873 -0.4496
 2721SOL     OW19621   1.279   0.765  10.742  0.1689  0.5227  0.7234
 2721SOL    HW119622   1.259   0.723  10.826  1.2213 -1.6141 -0.1008
 2721SOL    HW219623   1.314   0.689  10.696 -1.1019  1.0360 -1.0972
 2722SOL     OW19624   1.212   4.708  17.215  0.4111 -0.2283  0.1288
 2722SOL    HW119625   1.121   0.012  17.218  0.5802  0.3929 -1.5568
 2722SOL    HW219626   1.234   4.714  17.308 -1.8193  0.9001  0.5727
 2723SOL     OW19627   3.437   0.654   3.697 -0.4569 -0.0277  0.2401
 2723SOL    HW119628   3.530   0.638   3.687 -0.9228 -1.5472 -1.8119
 2723SOL    HW219629   3.400   0.566   3.711  0.2416 -0.1468  1.3248
 2724SOL     OW19630   2.128   4.612   6.264  0.1202 -0.3135 -0.5377
 2724SOL    HW119631   2.192   4.681   6.282  1.2313 -1.0041 -1.8719
 2724SOL    HW219632   2.180   4.533   6.280  1.1606  0.9528  2.2055
 2725SOL     OW19633   1.443   0.959   5.603 -0.2000 -0.2054  0.4736
 2725SOL    HW119634   1.424   0.932   5.693  3.1894 -2.2422  0.6046
 2725SOL    HW219635   1.480   0.876   5.571  0.2719  0.6052 -1.0801
 2726SOL     OW19636   2.447   0.244  15.737 -0.4476 -0.3204  0.0723
 2726SOL    HW119637   2.542   0.255  15.745 -0.4749 -0.5495  0.7625
 2726SOL    HW219638   2.446   0.158  15.696  1.6414 -0.8065  1.0462
 2727SOL     OW19639   3.116   3.735   3.857  0.0318 -0.2871 -0.3948
 2727SOL    HW119640   3.048   3.801   3.871 -0.5221 -0.8613 -0.3378
 2727SOL    HW219641   3.189   3.796   3.849  0.0780  0.2525  4.1380
 2728SOL     OW19642   0.967   0.465   3.983 -0.3816  0.7133 -0.5231
 2728SOL    HW119643   1.050   0.489   4.025 -1.4408  4.3970 -0.5662
 2728SOL    HW219644   0.915   0.464   4.063  2.3285 -0.9625  1.2224
 2729SOL     OW19645   1.542   1.778  13.181  0.0609  0.7161 -0.2975
 2729SOL    HW119646   1.630   1.763  13.145  0.7438 -0.0065  1.6947
 2729SOL    HW219647   1.569   1.833  13.254 -1.2401  1.5913 -0.4687
 2730SOL     OW19648   4.557   0.041  16.782 -0.0553 -0.5552 -0.2362
 2730SOL    HW119649   4.550   4.674  16.800  1.2954 -1.5786 -5.0048
 2730SOL    HW219650   4.574   0.049  16.688 -3.0279 -1.9562 -0.8959
 2731SOL     OW19651   2.906   3.948   8.285  0.3425  0.0227 -0.3823
 2731SOL    HW119652   2.905   3.954   8.190  1.8953  0.2132 -0.3866
 2731SOL    HW219653   3.000   3.933   8.299 -0.1845 -1.8801  1.1613
 2732SOL     OW19654   3.561   0.693  16.793 -0.5029  0.2589  0.2540
 2732SOL    HW119655   3.612   0.765  16.757 -0.0538 -0.5609 -0.7566
 2732SOL    HW219656   3.555   0.726  16.882 -0.5768 -0.7345  0.6263
 2733SOL     OW19657   4.677   0.118  17.557  0.9100 -0.7879  1.1452
 2733SOL    HW119658   4.598   0.125  17.610 -0.1039 -2.0026 -0.2157
 2733SOL    HW219659   0.022   0.158  17.606  0.4163  0.1551  1.1037
 2734SOL     OW19660   1.897   1.867   5.253  0.4748 -0.0414 -0.1033
 2734SOL    HW119661   1.864   1.954   5.231 -1.2478 -0.1690  1.9091
 2734SOL    HW219662   1.932   1.832   5.172  0.0554 -0.9353  0.0986
 2735SOL     OW19663   2.321   1.144  12.174 -0.1103 -0.2687  0.2584
 2735SOL    HW119664   2.277   1.064  12.146  2.2886 -1.0204 -1.3974
 2735SOL    HW219665   2.290   1.205  12.107  0.6080  3.2406  3.1365
 2736SOL     OW19666   0.496   1.327  14.086  0.4386  0.5602 -0.1656
 2736SOL    HW119667   0.458   1.414  14.097 -2.1304 -0.2257 -2.9413
 2736SOL    HW219668   0.420   1.271  14.071  0.5141  0.8335 -1.6045
 2737SOL     OW19669   0.123   1.221   4.747  0.0306  0.2552 -0.0594
 2737SOL    HW119670   0.094   1.291   4.689 -1.8357 -1.7305 -1.5009
 2737SOL    HW219671   0.156   1.157   4.684 -0.3215 -0.3154  0.3387
 2738SOL     OW19672   0.095   3.418  15.140 -0.2279 -0.0104  0.5525
 2738SOL    HW119673   0.162   3.357  15.167  1.2125  1.6927  0.8254
 2738SOL    HW219674   0.105   3.417  15.045  0.3805 -1.1556  0.6430
 2739SOL     OW19675   0.951   3.368   4.708 -0.4045 -0.3510  0.3477
 2739SOL    HW119676   0.990   3.395   4.625  1.4874  1.8196  1.9457
 2739SOL    HW219677   0.920   3.449   4.748 -0.4095 -0.2091  0.0532
 2740SOL     OW19678   2.872   4.099   5.771 -0.2475 -0.8077 -0.4581
 2740SOL    HW119679   2.825   4.169   5.725 -0.8586  0.8184  2.6220
 2740SOL    HW219680   2.851   4.020   5.722 -0.7346 -0.7771 -0.2981
 2741SOL     OW19681   2.665   2.792   4.133 -0.5002 -0.1924 -0.4904
 2741SOL    HW119682   2.721   2.826   4.064  0.9017 -1.3681  0.0676
 2741SOL    HW219683   2.705   2.829   4.212 -1.0944 -1.9775  0.6281
 2742SOL     OW19684   3.303   4.045   6.457  0.1532  0.1187 -0.5181
 2742SOL    HW119685   3.365   4.005   6.396  0.1854  1.8983 -1.6457
 2742SOL    HW219686   3.323   3.996   6.536  1.7838  0.6743 -0.5853
 2743SOL     OW19687   2.582   0.586   6.361 -0.2772  0.1329  0.4412
 2743SOL    HW119688   2.595   0.527   6.286  0.7722  0.8986  0.0160
 2743SOL    HW219689   2.669   0.591   6.400  1.0562  1.2432 -2.6728
 2744SOL     OW19690   2.794   4.185  15.951 -0.4371  0.1718 -0.7152
 2744SOL    HW119691   2.713   4.222  15.915  0.3185  0.6388 -1.9162
 2744SOL    HW219692   2.831   4.140  15.875  0.8475 -1.1705  0.7213
 2745SOL     OW19693   3.252   3.052  10.972  0.4091 -0.1412 -0.6279
 2745SOL    HW119694   3.298   3.134  10.989  0.7060 -0.3069 -0.6235
 2745SOL    HW219695   3.160   3.072  10.987  0.5567  0.0503 -0.0113
 2746SOL     OW19696   0.384   4.429   8.299 -0.1292 -0.7209  0.2118
 2746SOL    HW119697   0.403   4.519   8.326  0.2038  0.1924 -3.1193
 2746SOL    HW219698   0.371   4.444   8.206  1.1870  1.1435  0.3151
 2747SOL     OW19699   2.386   2.463   3.917 -0.1666 -0.1758 -0.6482
 2747SOL    HW119700   2.367   2.373   3.945  0.3137  0.9248  3.2333
 2747SOL    HW219701   2.365   2.461   3.824  1.2351  0.1101 -0.9663
 2748SOL     OW19702   1.125   0.479   3.424 -0.3137 -0.2846 -0.1845
 2748SOL    HW119703   1.128   0.426   3.344  1.2197 -0.0284 -0.3111
 2748SOL    HW219704   1.041   0.458   3.465  0.2418 -1.2834  0.4466
 2749SOL     OW19705   2.667   4.106   2.428  0.3865 -0.3627 -0.0053
 2749SOL    HW119706   2.746   4.072   2.470  1.4951 -0.6707 -2.3257
 2749SOL    HW219707   2.661   4.194   2.465  1.9850  0.2447 -1.2158
 2750SOL     OW19708   1.380   4.603   8.205 -0.6823  0.0319 -0.3152
 2750SOL    HW119709   1.319   4.566   8.141 -2.0947  1.3467  0.2516
 2750SOL    HW219710   1.354   4.541   8.274  1.1795 -1.6337 -1.1197
 2751SOL     OW19711   1.499   0.044  16.111  0.1730  0.0804 -0.6190
 2751SOL    HW119712   1.572   4.723  16.152 -0.1399 -0.0503 -0.2199
 2751SOL    HW219713   1.509   0.122  16.166  1.7808 -2.1507  2.2606
 2752SOL     OW19714   2.226   0.103   0.642 -0.1473  0.3636 -0.4921
 2752SOL    HW119715   2.159   0.085   0.576 -1.3277 -0.1910  0.8462
 2752SOL    HW219716   2.171   0.075   0.716  1.1274  2.1844  1.1587
 2753SOL     OW19717   3.609   2.835   6.532 -0.4578  0.2869  0.6294
 2753SOL    HW119718   3.647   2.860   6.448  2.3586  1.7775  2.3624
 2753SOL    HW219719   3.621   2.920   6.575 -2.5739  0.6793  0.4517
 2754SOL     OW19720   1.850   1.154   8.492  0.0755  0.1736  0.7905
 2754SOL    HW119721   1.758   1.174   8.476 -0.2167 -0.7285  1.3483
 2754SOL    HW219722   1.848   1.062   8.517 -0.2290  0.7007  2.6820
 2755SOL     OW19723   3.063   4.007  14.722 -0.1748 -0.0772 -0.0171
 2755SOL    HW119724   2.977   3.980  14.756  1.3083 -1.2272  2.8054
 2755SOL    HW219725   3.095   4.054  14.799  1.0067 -1.5095  0.3726
 2756SOL     OW19726   3.879   0.126  10.374 -0.0044  0.1900 -0.5164
 2756SOL    HW119727   3.852   0.216  10.355 -2.1901 -0.2288  0.5959
 2756SOL    HW219728   3.836   0.083  10.301  1.4526 -2.9378  0.4947
 2757SOL     OW19729   0.947   2.247   4.487  0.2931  0.9577 -0.1451
 2757SOL    HW119730   1.031   2.244   4.533 -0.5270 -2.0305  1.1515
 2757SOL    HW219731   0.919   2.336   4.508  1.0654  0.7780  1.6456
 2758SOL     OW19732   3.397   2.598   7.448 -0.4159 -0.2219 -0.0483
 2758SOL    HW119733   3.368   2.689   7.445 -0.0384 -0.0750  0.6707
 2758SOL    HW219734   3.467   2.604   7.382  0.3488 -0.7749  0.7166
 2759SOL     OW19735   2.592   1.254  11.366 -0.1128  0.1948 -0.9703
 2759SOL    HW119736   2.577   1.303  11.447 -2.9550  0.2111 -1.5113
 2759SOL    HW219737   2.583   1.324  11.301  2.3090  1.7972  0.4293
 2760SOL     OW19738   1.622   2.343   4.707  0.0811  1.0393  0.6941
 2760SOL    HW119739   1.556   2.353   4.776  1.0465 -1.0359  1.9210
 2760SOL    HW219740   1.562   2.320   4.637  1.3470 -1.5848  0.4629
 2761SOL     OW19741   0.433   1.750   3.223 -0.6333  0.6345  0.1311
 2761SOL    HW119742   0.513   1.758   3.276 -1.2751  1.1785  1.0336
 2761SOL    HW219743   0.413   1.843   3.214 -0.4541  0.5996 -0.5824
 2762SOL     OW19744   0.578   3.822   7.673 -0.5734 -0.4766 -0.2421
 2762SOL    HW119745   0.504   3.852   7.724 -0.5041  0.6062 -0.7622
 2762SOL    HW219746   0.530   3.821   7.590  0.1749  1.6689 -0.7259
 2763SOL     OW19747   1.157   1.837  16.016  0.1209  0.5128  0.2734
 2763SOL    HW119748   1.083   1.888  15.984  0.5618 -1.5242 -3.9724
 2763SOL    HW219749   1.132   1.750  15.985 -0.3979  0.0230  2.0252
 2764SOL     OW19750   0.887   2.777   9.176  0.0059  0.4797 -0.3107
 2764SOL    HW119751   0.849   2.852   9.130  1.3998  0.2785 -1.8148
 2764SOL    HW219752   0.810   2.731   9.210 -0.6818  1.3945 -0.6138
 2765SOL     OW19753   4.399   0.024   5.454 -0.6305 -0.3426 -0.0202
 2765SOL    HW119754   4.377   0.078   5.530 -1.5178 -2.4970  1.2458
 2765SOL    HW219755   4.436   4.679   5.506  0.0603  0.6178  0.8261
 2766SOL     OW19756   2.896   2.231   6.042  0.2661  0.1958 -0.0282
 2766SOL    HW119757   2.921   2.230   5.949 -2.1248 -0.9256 -0.6451
 2766SOL    HW219758   2.804   2.205   6.037 -0.7381  3.6466  0.8652
 2767SOL     OW19759   1.572   2.698  15.452 -0.0831  0.1249  0.2188
 2767SOL    HW119760   1.588   2.779  15.403 -1.1020  0.0012 -0.3055
 2767SOL    HW219761   1.646   2.646  15.420 -1.5974 -1.3976 -0.7608
 2768SOL     OW19762   1.940   1.435  17.562  0.5556 -0.4244 -0.4460
 2768SOL    HW119763   1.971   1.523  17.587  0.9953 -0.8972  0.6544
 2768SOL    HW219764   1.850   1.465  17.547  0.9060  0.9294  0.0960
 2769SOL     OW19765   3.967   0.244  16.237  0.1594  0.2211 -0.0239
 2769SOL    HW119766   4.041   0.304  16.226  1.0139 -0.9102 -0.4581
 2769SOL    HW219767   3.914   0.284  16.305 -0.1500 -0.3501  0.0688
 2770SOL     OW19768   1.893   0.688   6.576  0.0926  0.2017  0.1369
 2770SOL    HW119769   1.883   0.670   6.669  2.6339 -1.5583  0.0683
 2770SOL    HW219770   1.815   0.740   6.559 -1.4231 -2.0193  0.2795
 2771SOL     OW19771   2.465   4.159   1.834  0.3569 -0.0394  0.3955
 2771SOL    HW119772   2.468   4.246   1.874  0.6919 -0.1539  0.6193
 2771SOL    HW219773   2.420   4.189   1.755  0.7688 -1.2908 -0.3137
 2772SOL     OW19774   1.614   3.118   2.022  0.2935  0.4197  0.0314
 2772SOL    HW119775   1.523   3.099   2.045 -0.0192  0.3889 -1.2251
 2772SOL    HW219776   1.628   3.052   1.955 -1.2346  0.5433 -0.4113
 2773SOL     OW19777   0.647   0.464   2.080 -1.4385  0.2161  0.4763
 2773SOL    HW119778   0.649   0.437   1.989  5.1313  1.6256  0.2494
 2773SOL    HW219779   0.574   0.412   2.114  1.2672 -2.4189  2.2096
 2774SOL     OW19780   4.217   0.505   7.675  0.3970 -0.1344  0.2046
 2774SOL    HW119781   4.188   0.585   7.630  0.5391 -0.0725  0.2242
 2774SOL    HW219782   4.188   0.519   7.765  1.4639 -0.9615  0.6652
 2775SOL     OW19783   2.361   2.258   6.384 -0.1977  0.1923 -0.0106
 2775SOL    HW119784   2.406   2.291   6.462 -0.7002  0.9084 -0.0259
 2775SOL    HW219785   2.282   2.311   6.379  1.2371  2.3408 -0.2547
 2776SOL     OW19786   3.259   2.939   2.684 -0.6756 -0.2220  0.7087
 2776SOL    HW119787   3.262   2.904   2.595  1.6951  0.2164  0.6089
 2776SOL    HW219788   3.307   3.021   2.670 -4.4412  1.8175 -0.1074
 2777SOL     OW19789   3.745   2.719   4.955  0.7692  0.5458 -0.1942
 2777SOL    HW119790   3.816   2.678   4.907 -0.3301 -1.0262 -0.4795
 2777SOL    HW219791   3.662   2.673   4.940  0.6667  0.2449  1.3099
 2778SOL     OW19792   2.570   2.487  13.929  0.3948  0.3667 -0.1673
 2778SOL    HW119793   2.562   2.492  13.834  0.4192  1.9371 -0.0887
 2778SOL    HW219794   2.666   2.489  13.932  0.3450  1.8679  0.5790
 2779SOL     OW19795   4.650   0.720   8.091 -0.0744  0.2241 -0.0736
 2779SOL    HW119796   4.582   0.700   8.156 -0.9122 -1.0556 -1.3511
 2779SOL    HW219797   4.653   0.815   8.084  1.2295  0.2327  0.5648
 2780SOL     OW19798   2.965   0.343  13.351  0.0430 -0.0525 -0.0153
 2780SOL    HW119799   2.872   0.321  13.359 -0.5725  2.8138  0.3836
 2780SOL    HW219800   2.957   0.421  13.297 -1.1731 -0.9864 -1.1962
 2781SOL     OW19801   1.957   3.384  13.186  0.0602 -0.1538 -0.9630
 2781SOL    HW119802   2.032   3.397  13.128  2.1492  0.8168  1.9816
 2781SOL    HW219803   1.998   3.341  13.261  0.7414  1.9620 -0.1454
 2782SOL     OW19804   4.462   0.557   5.509 -0.2101  0.0728 -0.4529
 2782SOL    HW119805   4.417   0.494   5.453 -1.5088  0.7648 -0.2012
 2782SOL    HW219806   4.386   0.591   5.557  1.2685  1.2238  1.0620
 2783SOL     OW19807   2.431   2.392   9.287  0.4335 -0.2076 -0.3632
 2783SOL    HW119808   2.366   2.336   9.329  0.7837  1.7426  2.8464
 2783SOL    HW219809   2.384   2.475   9.291 -0.1170 -0.6122  1.8254
 2784SOL     OW19810   3.557   3.720   7.379 -0.0780 -0.3929  0.2094
 2784SOL    HW119811   3.530   3.708   7.469  0.7118  1.1545  0.6524
 2784SOL    HW219812   3.589   3.810   7.385 -1.3148  0.0118  0.5460
 2785SOL     OW19813   0.633   1.737   4.934  0.0217  0.0138  0.0776
 2785SOL    HW119814   0.698   1.804   4.954 -1.0072  0.6150  1.3797
 2785SOL    HW219815   0.656   1.676   5.004  2.6065  0.9247  0.0403
 2786SOL     OW19816   3.860   3.244   3.304 -0.4686  0.1538 -0.4146
 2786SOL    HW119817   3.791   3.272   3.244 -0.8756 -2.2499 -1.1066
 2786SOL    HW219818   3.858   3.309   3.373 -0.7103 -2.4019  2.0059
 2787SOL     OW19819   3.738   4.232   5.599  0.1428  0.2290  0.2134
 2787SOL    HW119820   3.665   4.280   5.638  0.3693  0.4099  0.4128
 2787SOL    HW219821   3.703   4.150   5.564  2.3051 -0.6450  0.0900
 2788SOL     OW19822   4.597   0.326  16.615 -0.0803 -0.1733 -0.8079
 2788SOL    HW119823   4.588   0.368  16.701  0.4306 -1.1771 -0.2704
 2788SOL    HW219824   4.521   0.351  16.561 -1.1084  0.6595  1.0180
 2789SOL     OW19825   4.556   1.083   8.451  0.5685  0.6236  0.3160
 2789SOL    HW119826   4.527   1.038   8.531  0.7187 -0.8665 -0.4786
 2789SOL    HW219827   4.649   1.088   8.470  0.0501  1.3750  2.7395
 2790SOL     OW19828   2.300   0.360   2.211 -0.0911  0.4539  0.3431
 2790SOL    HW119829   2.358   0.412   2.267  2.4416 -1.0539 -0.8335
 2790SOL    HW219830   2.332   0.375   2.121 -1.2890  0.1332 -0.1317
 2791SOL     OW19831   1.503   1.389   0.996  0.3699 -0.2106  0.3446
 2791SOL    HW119832   1.590   1.425   1.014  1.2064 -1.8784 -0.3430
 2791SOL    HW219833   1.453   1.471   0.999 -1.3387 -1.2637  0.7925
 2792SOL     OW19834   0.115   2.383   6.285  0.0147 -0.0978 -0.7099
 2792SOL    HW119835   0.035   2.388   6.233  1.0639  1.6329 -2.1458
 2792SOL    HW219836   0.117   2.294   6.320  1.1263  0.4360  0.6032
 2793SOL     OW19837   0.364   0.957   3.045 -0.0012  0.4778 -0.4285
 2793SOL    HW119838   0.331   0.872   3.074 -1.2093 -0.4518 -4.4972
 2793SOL    HW219839   0.374   0.940   2.951  1.3202 -1.3382  0.0344
 2794SOL     OW19840   4.162   1.558   1.926  0.2153  0.1141  0.1534
 2794SOL    HW119841   4.253   1.529   1.927  0.1461 -0.0476  3.3868
 2794SOL    HW219842   4.164   1.652   1.945  2.9241  0.2383 -0.6762
 2795SOL     OW19843   0.082   0.116  16.087 -0.3914 -0.0156 -0.6465
 2795SOL    HW119844   0.149   0.068  16.136 -1.6640 -1.8048 -0.6392
 2795SOL    HW219845   0.137   0.183  16.045  2.3754 -1.7225  0.2174
 2796SOL     OW19846   0.686   2.222   4.150 -0.2511 -0.4839  0.1960
 2796SOL    HW119847   0.594   2.232   4.127 -0.0796  1.9723  0.6231
 2796SOL    HW219848   0.721   2.214   4.061 -1.5800  1.4565 -0.4771
 2797SOL     OW19849   3.904   0.782   4.061  0.4897  0.0002 -0.4221
 2797SOL    HW119850   3.858   0.838   3.999  1.8456 -0.3192 -1.7125
 2797SOL    HW219851   3.843   0.798   4.133 -0.5991 -0.2695 -1.2940
 2798SOL     OW19852   3.030   0.460   3.457 -0.2065  0.0222  0.0270
 2798SOL    HW119853   2.955   0.520   3.460  1.5661  2.1227  1.5480
 2798SOL    HW219854   3.049   0.471   3.364  0.1104  1.8574  0.3070
 2799SOL     OW19855   3.580   1.171   4.315  0.2158  0.6109  0.1072
 2799SOL    HW119856   3.525   1.098   4.287  1.4058  0.4175 -1.7547
 2799SOL    HW219857   3.515   1.241   4.328  0.0375  0.1212  1.7756
 2800SOL     OW19858   4.019   3.649   3.812 -0.3688  0.3154  0.2170
 2800SOL    HW119859   4.057   3.654   3.724  2.5292 -1.0298  1.3646
 2800SOL    HW219860   4.056   3.726   3.855 -0.4756 -0.3920  1.6021
 2801SOL     OW19861   3.708   3.976   3.045  0.6027  0.1397 -0.5134
 2801SOL    HW119862   3.690   3.888   3.015 -0.7239  0.2104  0.0573
 2801SOL    HW219863   3.796   3.975   3.081 -0.5056 -1.5900  2.1476
 2802SOL     OW19864   0.554   2.022   8.907 -0.5846 -0.4501  0.7177
 2802SOL    HW119865   0.540   2.110   8.871  0.0278  0.5851  3.0021
 2802SOL    HW219866   0.590   2.051   8.991  0.4941 -1.0769  0.4626
 2803SOL     OW19867   3.528   1.951   3.941 -0.1533 -0.1218 -0.2861
 2803SOL    HW119868   3.555   1.869   3.900 -2.3375 -1.9866  2.0084
 2803SOL    HW219869   3.442   1.964   3.899  0.2401 -0.2106 -1.1093
 2804SOL     OW19870   1.755   4.521   6.713  0.3961 -0.1066 -0.7350
 2804SOL    HW119871   1.817   4.588   6.742  1.3899 -0.6924 -1.5310
 2804SOL    HW219872   1.793   4.442   6.751 -2.1595 -0.2957  1.4177
 2805SOL     OW19873   4.582   2.184   6.380 -0.0009 -0.0250 -0.0852
 2805SOL    HW119874   4.608   2.147   6.295 -1.9069  3.5768 -2.2485
 2805SOL    HW219875   4.492   2.156   6.394 -0.9445  1.5301 -2.9307
 2806SOL     OW19876   2.098   4.416   8.021 -0.1316 -0.1923  0.1557
 2806SOL    HW119877   2.108   4.511   8.020  0.8242 -0.2929 -1.2032
 2806SOL    HW219878   2.102   4.397   8.114  0.7518  1.6123  0.4803
 2807SOL     OW19879   4.222   1.057   7.034  0.2561 -0.5935 -0.4244
 2807SOL    HW119880   4.256   1.145   7.045 -0.2395 -0.4485 -0.0502
 2807SOL    HW219881   4.244   1.048   6.941 -0.0953  0.9468 -0.6662
 2808SOL     OW19882   3.912   3.833   2.702  0.7828 -0.1414  0.2068
 2808SOL    HW119883   3.908   3.903   2.636 -0.1399 -0.0652  0.3509
 2808SOL    HW219884   3.822   3.810   2.724  0.6550  0.1945  0.0335
 2809SOL     OW19885   3.808   1.246   8.204  0.2892 -0.6622  0.4415
 2809SOL    HW119886   3.716   1.229   8.224  0.1957 -1.8231 -0.9689
 2809SOL    HW219887   3.842   1.209   8.286  1.0757 -0.6545  0.1143
 2810SOL     OW19888   4.218   3.848   6.438 -0.6852  0.7310 -0.3506
 2810SOL    HW119889   4.297   3.881   6.396 -1.7678 -0.0654 -3.0515
 2810SOL    HW219890   4.177   3.813   6.359 -0.6557 -2.4440  1.0729
 2811SOL     OW19891   3.862   3.658   8.585  0.1022  0.0839  0.4676
 2811SOL    HW119892   3.924   3.727   8.563 -0.7038  0.9666  0.9604
 2811SOL    HW219893   3.910   3.576   8.577 -0.9735 -0.4457 -0.6444
 2812SOL     OW19894   2.641   3.947   2.954 -0.4190 -0.5663 -0.2863
 2812SOL    HW119895   2.596   3.989   2.880  1.2493  0.2257 -0.8607
 2812SOL    HW219896   2.590   3.974   3.030 -2.2522  1.4637 -2.2021
 2813SOL     OW19897   1.968   2.058   6.296 -0.5516 -0.5282 -0.1688
 2813SOL    HW119898   1.953   2.125   6.363  1.5279 -2.8606  2.5772
 2813SOL    HW219899   1.998   2.118   6.228 -1.4239 -0.0664 -0.1478
 2814SOL     OW19900   2.762   2.949  14.662 -0.1544 -0.1468 -0.2061
 2814SOL    HW119901   2.701   3.018  14.686  2.1431  1.8151 -0.0311
 2814SOL    HW219902   2.698   2.878  14.659 -1.4421  1.0375 -0.1420
 2815SOL     OW19903   4.264   2.865   0.118  0.5655  0.2705 -0.0642
 2815SOL    HW119904   4.356   2.846   0.139  0.2817 -1.4532 -0.3799
 2815SOL    HW219905   4.242   2.929   0.186  0.3700  1.4829 -1.2855
 2816SOL     OW19906   1.835   3.557   9.913  0.3404  0.2951  0.1339
 2816SOL    HW119907   1.841   3.544  10.008  2.5348 -2.3446 -0.3631
 2816SOL    HW219908   1.882   3.478   9.884  1.0200  1.4310 -1.8751
 2817SOL     OW19909   1.039   1.556   1.911 -0.3295 -0.1267  0.7316
 2817SOL    HW119910   1.053   1.600   1.995  0.5020 -1.2934  1.2024
 2817SOL    HW219911   0.980   1.616   1.865 -2.2691 -1.4807  1.4544
 2818SOL     OW19912   0.839   3.304   8.982  0.3199  0.4548  0.4162
 2818SOL    HW119913   0.891   3.339   8.909 -0.2765 -0.3763 -0.4192
 2818SOL    HW219914   0.832   3.381   9.038 -1.8952 -0.1480  0.9696
 2819SOL     OW19915   0.023   0.581   7.878 -0.9206  0.2806 -0.1839
 2819SOL    HW119916   4.685   0.514   7.858 -0.0798 -0.1089 -1.6292
 2819SOL    HW219917   4.714   0.620   7.958  2.6817  1.2856  0.9411
 2820SOL     OW19918   1.162   3.676   7.687 -0.5987  0.0734  0.7665
 2820SOL    HW119919   1.190   3.711   7.772 -2.4469 -0.5585  1.6513
 2820SOL    HW219920   1.245   3.643   7.651 -1.0942 -0.2921 -0.0420
 2821SOL     OW19921   4.064   0.900   8.277  0.2275  0.2445 -0.1089
 2821SOL    HW119922   3.977   0.914   8.315 -0.5381 -0.5717 -1.5792
 2821SOL    HW219923   4.117   0.964   8.325 -0.4463  0.8169 -0.1336
 2822SOL     OW19924   0.279   2.182   6.087  0.7614 -0.2595  0.2463
 2822SOL    HW119925   0.275   2.270   6.048  1.2829 -0.6891 -0.7440
 2822SOL    HW219926   0.301   2.130   6.011 -0.2164 -0.2346 -0.0564
 2823SOL     OW19927   2.648   1.502   2.808 -0.0365  0.0148 -1.5238
 2823SOL    HW119928   2.661   1.535   2.719  0.6282 -0.0500 -1.4538
 2823SOL    HW219929   2.733   1.518   2.850 -1.0518 -0.4799  0.7270
 2824SOL     OW19930   0.944   2.673   8.605 -0.4913  0.3146 -0.4936
 2824SOL    HW119931   0.925   2.657   8.697  0.1125 -0.4285 -0.5012
 2824SOL    HW219932   1.039   2.674   8.606 -0.4866  0.5750 -0.9786
 2825SOL     OW19933   1.735   3.439   4.548  0.5497 -0.0780  0.4260
 2825SOL    HW119934   1.777   3.356   4.572 -1.3338 -1.2997 -0.5149
 2825SOL    HW219935   1.812   3.487   4.518  0.7094  0.2078  1.2902
 2826SOL     OW19936   1.577   1.334   9.265  0.1277 -0.3428 -0.4287
 2826SOL    HW119937   1.618   1.247   9.267  0.9169 -0.0287 -2.7354
 2826SOL    HW219938   1.501   1.312   9.318 -0.0319 -1.0477 -0.9375
 2827SOL     OW19939   4.712   1.604   3.014 -0.4758 -0.2418 -0.1121
 2827SOL    HW119940   4.659   1.526   3.032  0.5666 -0.9944 -0.3617
 2827SOL    HW219941   0.072   1.564   3.011  0.0662  0.9686 -0.5998
 2828SOL     OW19942   2.406   3.842  16.066 -0.1252  0.2006  0.4590
 2828SOL    HW119943   2.330   3.789  16.090 -3.4125  4.0629 -1.4008
 2828SOL    HW219944   2.433   3.876  16.151 -0.0091 -0.7690  0.8176
 2829SOL     OW19945   4.580   4.196   2.805  0.1510 -0.2371  0.2555
 2829SOL    HW119946   4.646   4.264   2.790 -1.5995  1.2894 -0.5620
 2829SOL    HW219947   4.561   4.171   2.714  3.0854 -1.0380 -0.1360
 2830SOL     OW19948   1.685   2.044   8.677 -0.3553  0.0371  0.2542
 2830SOL    HW119949   1.700   2.131   8.639  1.4054  0.0191  0.9236
 2830SOL    HW219950   1.768   1.999   8.661 -0.0867  0.3248  0.8203
 2831SOL     OW19951   3.079   2.499  13.556 -0.9317 -0.1124  0.6270
 2831SOL    HW119952   3.102   2.423  13.504 -2.3028  0.1543 -0.3837
 2831SOL    HW219953   3.164   2.512  13.597 -1.2101  1.9125  0.6027
 2832SOL     OW19954   3.576   3.703   4.128 -0.2428  0.3899 -0.0517
 2832SOL    HW119955   3.666   3.727   4.148 -1.7254  2.9287  3.4450
 2832SOL    HW219956   3.571   3.734   4.038 -1.2807 -0.7446 -0.3894
 2833SOL     OW19957   4.460   2.442   6.696  0.4358  0.2920  0.0891
 2833SOL    HW119958   4.543   2.482   6.669  2.0451 -1.8772  1.7662
 2833SOL    HW219959   4.436   2.507   6.762 -0.7215 -0.1592  0.1120
 2834SOL     OW19960   1.075   3.480   6.057 -0.0813  0.3976  0.0589
 2834SOL    HW119961   0.990   3.436   6.062  0.6439 -1.0355 -0.2043
 2834SOL    HW219962   1.077   3.506   5.966 -1.1289  0.4711  0.0561
 2835SOL     OW19963   3.260   1.131   8.663 -0.2548  0.1105 -0.0394
 2835SOL    HW119964   3.239   1.224   8.661 -2.3868 -0.3949 -0.4343
 2835SOL    HW219965   3.188   1.094   8.713 -0.1348 -0.2557 -0.1348
 2836SOL     OW19966   4.522   4.211   3.963  0.5394  0.1460 -0.0006
 2836SOL    HW119967   4.568   4.289   3.994  1.9789 -0.6407 -0.1499
 2836SOL    HW219968   4.430   4.233   3.957  0.8557  1.1791 -1.1181
 2837SOL     OW19969   3.272   3.866  14.162 -0.2991 -0.0337 -0.3771
 2837SOL    HW119970   3.290   3.773  14.167  2.0559  0.3811 -1.2637
 2837SOL    HW219971   3.267   3.895  14.253  1.1815 -1.2019  0.0674
 2838SOL     OW19972   2.163   0.149   8.703  0.2477 -0.2738 -0.5130
 2838SOL    HW119973   2.184   0.057   8.685 -0.6252 -0.7011  0.7216
 2838SOL    HW219974   2.180   0.154   8.797  3.1296 -0.1027 -1.0191
 2839SOL     OW19975   4.232   3.833   1.808  0.2162 -0.1657 -0.1778
 2839SOL    HW119976   4.274   3.872   1.884 -0.7667 -1.4615  1.0175
 2839SOL    HW219977   4.251   3.739   1.816 -0.6313 -0.2643  0.6037
 2840SOL     OW19978   2.370   4.223   7.567 -0.3488 -0.0473  0.0487
 2840SOL    HW119979   2.445   4.169   7.594  0.1890 -0.6714 -2.6147
 2840SOL    HW219980   2.335   4.254   7.650  0.9011  0.3219  0.4351
 2841SOL     OW19981   1.232   4.392   1.481  0.0092  0.0104 -0.1598
 2841SOL    HW119982   1.178   4.321   1.445  1.9630 -1.8360  0.5400
 2841SOL    HW219983   1.274   4.428   1.403 -0.3224 -0.4603 -0.5590
 2842SOL     OW19984   0.278   1.783  16.637 -0.4606  0.7409 -0.3744
 2842SOL    HW119985   0.199   1.781  16.692 -0.9746  3.4451 -0.9946
 2842SOL    HW219986   0.342   1.759  16.704 -0.5384  0.0378 -0.5618
 2843SOL     OW19987   4.373   1.400   1.897 -0.8339 -0.2118  0.3655
 2843SOL    HW119988   4.441   1.353   1.945  0.7230  1.3926 -0.2920
 2843SOL    HW219989   4.361   1.346   1.819 -1.2367  1.0338 -0.4248
 2844SOL     OW19990   4.465   0.235   4.470 -0.6513  0.0265 -0.3970
 2844SOL    HW119991   4.444   0.275   4.554  2.0133 -1.1392  0.8441
 2844SOL    HW219992   4.543   0.189   4.501 -1.2226 -1.6072 -1.3739
 2845SOL     OW19993   0.461   0.716   5.212  0.3742 -0.0875 -0.2259
 2845SOL    HW119994   0.376   0.761   5.221  0.3038 -0.2613 -0.0212
 2845SOL    HW219995   0.464   0.693   5.119  1.0340  1.3497 -0.5569
 2846SOL     OW19996   2.316   1.685   7.761  0.0231  0.4230  0.3031
 2846SOL    HW119997   2.249   1.650   7.702 -0.4293  0.2253  0.9434
 2846SOL    HW219998   2.271   1.764   7.792 -0.8601  0.2550 -0.5394
 2847SOL     OW19999   0.345   3.430   0.886  0.2013  0.3507  0.1060
 2847SOL    HW120000   0.344   3.383   0.802  3.5217  1.5374 -0.6111
 2847SOL    HW220001   0.428   3.390   0.910 -0.2097 -0.6773 -0.1932
 2848SOL     OW20002   1.115   0.361   6.079 -0.1641 -0.3916  0.7148
 2848SOL    HW120003   1.064   0.439   6.059  0.9006  0.3136  0.7313
 2848SOL    HW220004   1.139   0.379   6.170  1.3099  0.2695  0.1991
 2849SOL     OW20005   3.224   2.831   2.431 -0.2701 -0.1414  0.3519
 2849SOL    HW120006   3.181   2.866   2.352  1.0243  1.7802  0.5229
 2849SOL    HW220007   3.308   2.800   2.399 -0.1187 -0.5637  1.1610
 2850SOL     OW20008   2.711   2.628   1.497 -0.5205  0.0091  0.4292
 2850SOL    HW120009   2.689   2.535   1.500  0.1762 -0.2022 -0.9627
 2850SOL    HW220010   2.737   2.645   1.588 -1.3578  1.0106  0.4789
 2851SOL     OW20011   3.825   4.505   0.610  0.3760 -0.0948  0.1337
 2851SOL    HW120012   3.814   4.411   0.605  2.7462 -0.4007  0.6271
 2851SOL    HW220013   3.819   4.518   0.705  1.9940 -1.1747  0.3745
 2852SOL     OW20014   2.223   3.980   3.089 -0.0038  0.2999  0.4106
 2852SOL    HW120015   2.141   4.024   3.111  0.5988  2.2229 -1.1392
 2852SOL    HW220016   2.288   4.032   3.137  0.2655 -0.2922  0.6873
 2853SOL     OW20017   1.637   2.552   3.116  0.3257 -0.1401  0.6766
 2853SOL    HW120018   1.708   2.521   3.172  0.2041  1.0817  1.5219
 2853SOL    HW220019   1.688   2.604   3.054 -1.7184  0.0044 -0.8745
 2854SOL     OW20020   0.664   2.321   6.268  0.4427 -0.3952  0.2329
 2854SOL    HW120021   0.741   2.266   6.256  0.3611 -0.5319  0.3291
 2854SOL    HW220022   0.695   2.411   6.280 -1.2242  0.2081 -0.0745
 2855SOL     OW20023   2.367   1.803  17.580  0.5350  0.5867  0.0421
 2855SOL    HW120024   2.332   1.830  17.495 -0.5222  0.6684  0.5060
 2855SOL    HW220025   2.458   1.828  17.568  0.8071 -0.7516 -0.7290
 2856SOL     OW20026   2.721   1.937   3.318  0.2652 -0.0672  0.1639
 2856SOL    HW120027   2.813   1.915   3.305 -0.1056 -1.7134  0.2671
 2856SOL    HW220028   2.706   1.987   3.238  0.1265  1.5181  1.1880
 2857SOL     OW20029   4.463   0.703   8.264 -0.4726 -0.0284  0.7162
 2857SOL    HW120030   4.521   0.723   8.338 -0.2843 -2.0056  1.1171
 2857SOL    HW220031   4.418   0.624   8.293 -1.4887  0.8927  1.6340
 2858SOL     OW20032   2.576   0.104   2.931 -0.4981 -0.2627  0.1031
 2858SOL    HW120033   2.572   0.141   2.843 -1.0016  0.2297  0.3339
 2858SOL    HW220034   2.504   0.159   2.962 -0.7098 -0.4659 -0.0285
 2859SOL     OW20035   3.555   3.427   9.450  0.0809  0.1115  0.5250
 2859SOL    HW120036   3.516   3.393   9.531  0.8542  0.9591  1.2494
 2859SOL    HW220037   3.522   3.516   9.455 -3.3858 -1.1403  0.1703
 2860SOL     OW20038   1.358   3.292   7.163 -0.6959 -0.0271 -0.5938
 2860SOL    HW120039   1.342   3.202   7.192  0.3626  0.2741  0.9650
 2860SOL    HW220040   1.419   3.277   7.091 -1.2639  0.6274 -1.2064
 2861SOL     OW20041   2.748   0.077  12.392  0.4275  0.3668 -0.2319
 2861SOL    HW120042   2.681   0.023  12.434  0.5562 -1.6800 -2.6415
 2861SOL    HW220043   2.697   0.102  12.315 -0.4892 -0.3847  0.1414
 2862SOL     OW20044   3.252   2.148   2.356 -0.0340  0.1346  0.2716
 2862SOL    HW120045   3.238   2.243   2.365  0.8696  0.2460  0.5008
 2862SOL    HW220046   3.329   2.144   2.299  0.6583 -0.5094  1.2612
 2863SOL     OW20047   0.636   1.612   6.034 -0.3520  0.6585 -0.2861
 2863SOL    HW120048   0.694   1.624   5.959  1.8686 -3.8345  0.6969
 2863SOL    HW220049   0.643   1.517   6.035 -0.9721  0.6217  1.0171
 2864SOL     OW20050   0.992   4.611   5.762  0.6730  0.5320  0.2806
 2864SOL    HW120051   1.085   4.612   5.786  0.5538  0.2787  0.7516
 2864SOL    HW220052   0.972   4.703   5.744 -0.8462  0.3188  0.9271
 2865SOL     OW20053   3.913   4.226  14.028  0.4872  0.3229  0.1800
 2865SOL    HW120054   3.911   4.321  14.036  2.4560  0.3820  0.0109
 2865SOL    HW220055   3.879   4.227  13.939  0.6385 -0.5611  0.1065
 2866SOL     OW20056   3.380   3.497   0.497  0.0823  0.6273 -0.2425
 2866SOL    HW120057   3.341   3.421   0.541 -2.7880  0.5906 -2.9143
 2866SOL    HW220058   3.300   3.527   0.455 -1.0691 -1.5952  0.3397
 2867SOL     OW20059   3.285   2.360  15.209  0.0489  0.7527  0.2364
 2867SOL    HW120060   3.271   2.436  15.266  1.1091  1.3641 -0.3080
 2867SOL    HW220061   3.197   2.347  15.173  0.8055 -0.5294 -1.1100
 2868SOL     OW20062   0.448   1.711  10.014  0.2426  0.3677  0.2148
 2868SOL    HW120063   0.471   1.630   9.969  0.0036 -0.0448  0.8223
 2868SOL    HW220064   0.507   1.710  10.089 -0.4779  0.3002  0.7811
 2869SOL     OW20065   3.964   1.589   6.440 -0.2767 -0.1678  0.4283
 2869SOL    HW120066   3.946   1.568   6.348  0.6721 -2.0077  0.6754
 2869SOL    HW220067   4.057   1.611   6.439  0.1011 -1.7678  1.0290
 2870SOL     OW20068   1.046   1.006   1.350 -0.1600  0.3278  0.4090
 2870SOL    HW120069   1.069   0.927   1.301 -0.2773  0.3693  0.2852
 2870SOL    HW220070   0.962   1.027   1.308  0.3129  1.6657  0.1260
 2871SOL     OW20071   0.016   1.467   2.110  0.6469 -0.0649 -0.4984
 2871SOL    HW120072   0.024   1.457   2.015 -0.9007 -3.3364 -0.2699
 2871SOL    HW220073   0.085   1.405   2.135 -2.7507 -2.5362  2.6542
 2872SOL     OW20074   0.740   4.262   1.972 -0.5058 -0.5809  0.2209
 2872SOL    HW120075   0.734   4.226   2.060 -0.8970  2.5273  1.4600
 2872SOL    HW220076   0.648   4.285   1.961 -0.0007  1.2954 -0.0467
 2873SOL     OW20077   0.791   0.718  17.256  0.3374  0.5029 -0.3957
 2873SOL    HW120078   0.751   0.649  17.309 -1.1114  1.3627 -0.3725
 2873SOL    HW220079   0.832   0.667  17.186  0.5523 -3.0405  2.2853
 2874SOL     OW20080   3.990   1.892   7.886  0.1730 -0.1306 -0.5306
 2874SOL    HW120081   4.075   1.911   7.845  0.2202 -2.1016 -1.3428
 2874SOL    HW220082   3.990   1.797   7.903 -1.4319  0.0995  0.7252
 2875SOL     OW20083   1.343   2.021   4.350  0.1274 -0.0545 -0.0907
 2875SOL    HW120084   1.381   1.990   4.267  1.3165  1.4659 -0.1128
 2875SOL    HW220085   1.276   1.953   4.357  0.2336 -0.4251 -2.5432
 2876SOL     OW20086   0.558   0.082   9.673 -0.8096 -0.2407  0.2969
 2876SOL    HW120087   0.527   0.169   9.646  4.2439  1.4077 -0.1165
 2876SOL    HW220088   0.514   0.066   9.757 -0.1121  0.9758  0.8900
 2877SOL     OW20089   3.309   3.822   7.539  0.2971 -0.2594  0.0881
 2877SOL    HW120090   3.377   3.765   7.576  2.1976  0.3527 -2.4390
 2877SOL    HW220091   3.269   3.863   7.615 -2.6886 -0.7898 -1.2262
 2878SOL     OW20092   1.024   0.284   2.955 -0.6137  0.3827 -0.4691
 2878SOL    HW120093   0.976   0.202   2.963 -0.4602  0.3934  0.6322
 2878SOL    HW220094   1.115   0.262   2.934 -0.5886  2.2946 -2.3910
 2879SOL     OW20095   2.740   1.131   6.066  0.6145  0.3047 -0.3664
 2879SOL    HW120096   2.724   1.144   5.973 -0.6710  1.4345  0.0165
 2879SOL    HW220097   2.786   1.212   6.087  0.5423  0.5548 -1.1616
 2880SOL     OW20098   2.987   2.299   6.278 -0.6597 -0.7617  0.0617
 2880SOL    HW120099   3.063   2.305   6.220 -2.3375 -1.2059 -2.1956
 2880SOL    HW220100   2.934   2.266   6.205 -1.6256  1.0556 -0.0601
 2881SOL     OW20101   3.752   1.437   7.209  0.2107  0.1138 -0.3136
 2881SOL    HW120102   3.773   1.445   7.116  1.7485 -0.0152  0.0268
 2881SOL    HW220103   3.684   1.501   7.228  1.2836  1.5822 -1.4470
 2882SOL     OW20104   3.785   3.896   7.210 -0.1654  0.7886 -0.3286
 2882SOL    HW120105   3.804   3.803   7.224 -1.3354  0.4425 -1.0851
 2882SOL    HW220106   3.761   3.915   7.300 -0.7676  3.2343 -1.0214
 2883SOL     OW20107   4.425   3.292   3.209  0.1827  0.0046  0.3030
 2883SOL    HW120108   4.450   3.336   3.290  0.8565 -1.4854  0.9012
 2883SOL    HW220109   4.396   3.207   3.244  0.8245  0.9618  3.1473
 2884SOL     OW20110   0.157   3.776   5.012 -0.4279  0.8034  0.5509
 2884SOL    HW120111   0.172   3.871   5.011  4.6244 -0.0494 -0.0115
 2884SOL    HW220112   0.235   3.746   5.058  0.3534 -0.8695 -1.8419
 2885SOL     OW20113   4.401   4.537   5.661  0.1243  0.0192  1.0541
 2885SOL    HW120114   4.356   4.461   5.697 -1.1374  0.4574  0.3892
 2885SOL    HW220115   4.384   4.599   5.732 -1.5863  0.1211  0.5417
 2886SOL     OW20116   1.737   3.640   5.619 -0.7195 -0.0642 -0.4096
 2886SOL    HW120117   1.722   3.734   5.608  0.4181  0.1886  0.1831
 2886SOL    HW220118   1.760   3.654   5.711  1.9112 -0.0302 -1.0831
 2887SOL     OW20119   0.965   3.839  12.713 -0.2831  0.2645  0.1684
 2887SOL    HW120120   0.929   3.788  12.642  0.0171 -1.6300  1.3820
 2887SOL    HW220121   1.058   3.816  12.715 -0.0181  1.2994  0.0595
 2888SOL     OW20122   0.999   0.137   6.195 -0.3415 -0.5495  0.1936
 2888SOL    HW120123   0.904   0.136   6.182 -0.5099 -1.0341  1.5401
 2888SOL    HW220124   1.019   0.215   6.143  0.5543  1.8583  4.1250
 2889SOL     OW20125   0.372   3.002   1.946 -0.4388  0.6026  0.5561
 2889SOL    HW120126   0.463   2.974   1.956 -0.6618 -0.8572 -1.4402
 2889SOL    HW220127   0.355   2.999   1.852 -1.1428  1.0827  0.6674
 2890SOL     OW20128   2.196   2.437  11.498 -0.0928  0.5408 -0.5926
 2890SOL    HW120129   2.145   2.392  11.431  3.7164 -3.4918 -0.7161
 2890SOL    HW220130   2.257   2.497  11.456  1.0727 -0.8336 -0.8591
 2891SOL     OW20131   1.606   2.891  11.108  0.4497 -1.2371 -0.3396
 2891SOL    HW120132   1.565   2.809  11.134  0.2089 -0.6360  1.1503
 2891SOL    HW220133   1.556   2.964  11.145 -0.4032 -1.6213 -0.7336
 2892SOL     OW20134   3.666   2.789   2.031  0.5111 -0.5726  0.2425
 2892SOL    HW120135   3.573   2.803   2.013  1.1178 -0.4414 -2.8368
 2892SOL    HW220136   3.682   2.695   2.022  0.1295 -0.5889 -0.2729
 2893SOL     OW20137   1.710   4.662   3.588  0.6170 -0.5849  0.0849
 2893SOL    HW120138   1.753   4.596   3.533 -0.3673  0.7526 -2.3181
 2893SOL    HW220139   1.760   4.656   3.669 -0.8369  0.6613  1.0767
 2894SOL     OW20140   2.546   1.276   4.309 -0.2890 -0.2512  0.5916
 2894SOL    HW120141   2.540   1.252   4.217 -0.0532 -2.1022  1.0604
 2894SOL    HW220142   2.456   1.275   4.342  0.2771  2.5813  2.2850
 2895SOL     OW20143   1.751   1.513   9.411  0.2290 -0.5811 -0.6800
 2895SOL    HW120144   1.719   1.423   9.422 -0.7649 -0.0247  1.0368
 2895SOL    HW220145   1.836   1.485   9.377  0.2957  0.8956 -1.6703
 2896SOL     OW20146   2.296   1.696   7.466  0.1472 -0.4344 -0.5421
 2896SOL    HW120147   2.320   1.604   7.475 -0.2057 -0.5075 -0.3383
 2896SOL    HW220148   2.209   1.675   7.433 -0.1782  2.5162 -1.5760
 2897SOL     OW20149   1.818   2.034   3.926 -0.1133  0.4933  0.3632
 2897SOL    HW120150   1.738   1.982   3.917  1.0022 -1.1872  0.3141
 2897SOL    HW220151   1.888   1.989   3.971  0.0133  0.7561  0.4292
 2898SOL     OW20152   4.189   4.484   6.699 -0.1675 -0.3436 -0.3239
 2898SOL    HW120153   4.211   4.422   6.630 -1.4804  0.0125 -1.0739
 2898SOL    HW220154   4.249   4.449   6.764  0.1576  0.9948  0.1053
 2899SOL     OW20155   3.633   2.326  11.815  0.3396  0.1971  0.3782
 2899SOL    HW120156   3.588   2.316  11.899 -1.2635 -1.0207 -0.6155
 2899SOL    HW220157   3.713   2.278  11.837  0.0497 -0.0547  0.8955
 2900SOL     OW20158   0.794   4.156  10.445  0.4405  0.1625 -0.0614
 2900SOL    HW120159   0.768   4.179  10.534  1.1799  1.0024 -0.0671
 2900SOL    HW220160   0.876   4.205  10.438 -0.2034  1.2289 -0.0477
 2901SOL     OW20161   0.648   2.376   2.211  0.1009  0.2277  0.1454
 2901SOL    HW120162   0.619   2.439   2.278  1.6289 -0.8674  1.8418
 2901SOL    HW220163   0.670   2.302   2.267 -0.1697  1.0520  1.3460
 2902SOL     OW20164   3.088   3.816   2.503  0.3590  0.5274 -0.9310
 2902SOL    HW120165   3.154   3.763   2.458 -0.3773 -1.4644  0.2968
 2902SOL    HW220166   3.080   3.763   2.583  3.4830  1.9724  0.3330
 2903SOL     OW20167   3.834   2.337  10.909 -0.1688  0.0680 -0.0557
 2903SOL    HW120168   3.830   2.279  10.833  0.8908  0.0039 -0.0589
 2903SOL    HW220169   3.830   2.427  10.877 -0.7169  0.5727  1.4737
 2904SOL     OW20170   4.223   2.409   4.197  0.7606 -0.2463  0.1633
 2904SOL    HW120171   4.185   2.339   4.144  0.1056  0.0052  0.3063
 2904SOL    HW220172   4.284   2.449   4.134  2.7561 -4.2177 -0.4426
 2905SOL     OW20173   1.768   0.197  13.513  0.2403  0.2449  0.5460
 2905SOL    HW120174   1.841   0.243  13.553 -0.2683  0.2943  1.4233
 2905SOL    HW220175   1.815   0.135  13.457 -0.3456 -0.6291  1.0018
 2906SOL     OW20176   4.323   2.612   5.664  0.0998  0.1125  0.1276
 2906SOL    HW120177   4.290   2.525   5.689 -0.0429  0.1844  0.1895
 2906SOL    HW220178   4.237   2.651   5.645 -0.7429 -1.5092  0.5797
 2907SOL     OW20179   3.810   1.179  16.776 -0.7743 -0.4407 -0.1035
 2907SOL    HW120180   3.745   1.180  16.847  2.0884  1.2414  2.5408
 2907SOL    HW220181   3.776   1.112  16.718 -3.1977  0.0287  0.7801
 2908SOL     OW20182   2.931   2.842   5.100  0.0828  0.1146  0.0263
 2908SOL    HW120183   2.854   2.880   5.057 -1.2901 -2.3790  0.2617
 2908SOL    HW220184   2.997   2.909   5.082  1.3105 -1.3641 -0.8927
 2909SOL     OW20185   2.864   2.143   2.334  0.0582  0.5854  0.4762
 2909SOL    HW120186   2.876   2.183   2.248  0.0676 -0.2682  0.0768
 2909SOL    HW220187   2.779   2.101   2.318  0.5982 -1.9113  4.1969
 2910SOL     OW20188   1.201   2.352   0.698 -0.6861 -0.0236 -0.4700
 2910SOL    HW120189   1.185   2.426   0.756 -0.1417 -1.5040  1.5752
 2910SOL    HW220190   1.273   2.397   0.654 -0.4369 -0.2441 -0.2902
 2911SOL     OW20191   4.149   3.247  11.104  0.5644 -0.2350  0.0432
 2911SOL    HW120192   4.125   3.155  11.117  0.9183 -0.4454 -0.7727
 2911SOL    HW220193   4.235   3.243  11.063  0.7964  0.2909  0.4858
 2912SOL     OW20194   1.095   0.768   8.814  1.1555 -0.2729 -0.1486
 2912SOL    HW120195   1.160   0.802   8.876 -1.0069  0.0023  1.9599
 2912SOL    HW220196   1.078   0.681   8.849  0.8835  0.2343  0.9824
 2913SOL     OW20197   1.175   3.115   9.135 -0.2026  0.6641 -0.2642
 2913SOL    HW120198   1.104   3.060   9.168  0.4335 -0.9428 -1.5427
 2913SOL    HW220199   1.246   3.075   9.186  0.5637  0.7355 -1.2745
 2914SOL     OW20200   3.854   3.204  17.061 -0.5715 -0.1741  0.1700
 2914SOL    HW120201   3.837   3.297  17.077  0.2217  0.2568 -1.4620
 2914SOL    HW220202   3.780   3.177  17.007 -0.7919 -0.3878  0.5746
 2915SOL     OW20203   4.444   1.306   7.776 -0.6826 -0.2963 -0.1303
 2915SOL    HW120204   4.465   1.222   7.817 -0.7233  0.3879  1.2807
 2915SOL    HW220205   4.348   1.301   7.771 -0.8338  2.4352 -0.1470
 2916SOL     OW20206   2.043   1.191   1.787 -0.4487  0.3049 -0.0855
 2916SOL    HW120207   2.080   1.278   1.775 -0.0390  0.1838  0.2671
 2916SOL    HW220208   1.949   1.202   1.774 -0.8407 -2.5803  0.1305
 2917SOL     OW20209   3.761   1.967   9.138  0.4356 -0.0772 -0.0079
 2917SOL    HW120210   3.725   1.934   9.056 -2.0847  0.7030  0.7787
 2917SOL    HW220211   3.851   1.995   9.123 -1.2365  3.7630 -2.8691
 2918SOL     OW20212   3.744   2.262  11.166  0.1409  0.4667 -0.0323
 2918SOL    HW120213   3.695   2.183  11.141 -0.8342  1.2296 -0.5209
 2918SOL    HW220214   3.801   2.280  11.091  1.6002 -0.6036  0.8132
 2919SOL     OW20215   1.534   3.260   9.123 -0.5138  0.1425  0.2496
 2919SOL    HW120216   1.623   3.227   9.124 -1.0618 -1.2744  1.9531
 2919SOL    HW220217   1.489   3.186   9.083  0.8930 -0.7260  0.2927
 2920SOL     OW20218   0.452   2.507  17.245  0.4708  0.2735 -0.4841
 2920SOL    HW120219   0.468   2.553  17.327 -0.7222  1.8412 -1.1305
 2920SOL    HW220220   0.370   2.548  17.219 -0.5351  0.5752  3.1476
 2921SOL     OW20221   2.370   4.437   8.382 -0.6498  0.3437 -0.0155
 2921SOL    HW120222   2.409   4.386   8.453 -0.4462 -1.0946 -1.1573
 2921SOL    HW220223   2.311   4.368   8.354  0.4021 -1.1673  1.5062
 2922SOL     OW20224   0.367   1.883   7.849 -0.7099  0.1712  0.2499
 2922SOL    HW120225   0.282   1.893   7.808 -0.0580  0.6204 -0.9825
 2922SOL    HW220226   0.406   1.822   7.787 -1.0344 -0.9402  1.1305
 2923SOL     OW20227   2.425   1.240   1.711 -0.2166 -0.0599  0.2081
 2923SOL    HW120228   2.381   1.173   1.764  2.4854 -3.3842 -1.7892
 2923SOL    HW220229   2.422   1.196   1.627 -2.0891  1.4433 -0.5144
 2924SOL     OW20230   1.952   2.457   3.739 -0.0590 -0.6686 -0.8874
 2924SOL    HW120231   1.991   2.370   3.744  1.3368 -0.0795 -1.3815
 2924SOL    HW220232   2.002   2.506   3.674  0.8199  0.9727  1.0183
 2925SOL     OW20233   0.914   1.496   7.053  0.4683  0.1549  0.2700
 2925SOL    HW120234   0.826   1.504   7.017  1.7912  1.1445 -2.7618
 2925SOL    HW220235   0.942   1.587   7.045 -0.1218  0.4053  1.0717
 2926SOL     OW20236   4.334   1.626   4.964  0.1444  0.2604 -0.4323
 2926SOL    HW120237   4.366   1.535   4.964 -2.4860 -0.6546 -0.1647
 2926SOL    HW220238   4.384   1.659   4.889 -0.6457  1.1075 -0.5854
 2927SOL     OW20239   0.601   0.507   9.530  0.6762  0.3193  0.8284
 2927SOL    HW120240   0.590   0.462   9.446  1.0232  1.0855  0.3755
 2927SOL    HW220241   0.647   0.584   9.495 -0.9567  1.2193  0.6249
 2928SOL     OW20242   0.855   1.044  16.113  0.5828 -0.0436  0.6013
 2928SOL    HW120243   0.808   1.114  16.158 -0.9101 -1.0679  0.6363
 2928SOL    HW220244   0.920   1.039  16.183 -0.7491  0.6203  1.8771
 2929SOL     OW20245   3.760   1.046   6.522 -0.5313 -0.2535 -0.3907
 2929SOL    HW120246   3.804   0.981   6.576 -1.2314 -1.2584 -1.0222
 2929SOL    HW220247   3.707   1.093   6.587 -0.9414 -2.0990  0.5968
 2930SOL     OW20248   4.344   2.894   3.499 -0.3108 -0.3280  0.1450
 2930SOL    HW120249   4.331   2.823   3.437  0.6932 -1.0309  0.7460
 2930SOL    HW220250   4.422   2.861   3.543  0.3438  0.3679 -0.5016
 2931SOL     OW20251   2.093   3.832  10.883 -0.1788  0.3267  0.4771
 2931SOL    HW120252   2.140   3.777  10.946 -3.3324 -2.9990 -0.0335
 2931SOL    HW220253   2.007   3.833  10.926 -0.6026  0.7541 -0.3698
 2932SOL     OW20254   2.038   4.047   8.217  0.1614 -0.1881 -0.1651
 2932SOL    HW120255   2.126   4.081   8.200  0.1703  0.0289  0.3130
 2932SOL    HW220256   2.053   4.001   8.300  1.9771 -2.0043 -1.4845
 2933SOL     OW20257   2.181   2.171   5.234 -0.0662 -0.6921 -0.1536
 2933SOL    HW120258   2.100   2.158   5.185 -1.3662  0.8590  1.5778
 2933SOL    HW220259   2.179   2.256   5.277  0.2932  0.4362 -2.3538
 2934SOL     OW20260   3.149   4.558   7.650 -0.2669  0.5679 -0.1343
 2934SOL    HW120261   3.213   4.510   7.702 -3.5147 -1.9853  1.5161
 2934SOL    HW220262   3.212   4.618   7.611  0.7156  1.0607  2.2078
 2935SOL     OW20263   2.646   2.874   6.085 -0.4927 -0.5132  0.3905
 2935SOL    HW120264   2.716   2.938   6.073  0.9771 -1.9069  1.5571
 2935SOL    HW220265   2.615   2.859   5.995 -0.6902  2.7721 -0.1026
 2936SOL     OW20266   0.765   3.364   5.782 -0.5157  0.1906 -0.3235
 2936SOL    HW120267   0.740   3.343   5.872  0.7201 -4.3050 -1.0091
 2936SOL    HW220268   0.751   3.458   5.777 -0.9937  0.1096 -0.5405
 2937SOL     OW20269   2.575   1.462  11.190  0.3284 -0.8380 -0.5822
 2937SOL    HW120270   2.647   1.521  11.166 -0.2080  0.6072  1.3195
 2937SOL    HW220271   2.500   1.510  11.156  1.6444  2.3238  0.9538
 2938SOL     OW20272   0.415   2.882   3.529 -0.1607  0.5395  0.3318
 2938SOL    HW120273   0.398   2.790   3.550  0.4343  0.5438  0.8367
 2938SOL    HW220274   0.471   2.905   3.603 -0.4854  1.7571  0.1899
 2939SOL     OW20275   1.401   4.557   7.755  0.0424  0.2611  0.0363
 2939SOL    HW120276   1.495   4.566   7.746 -0.1142  0.6055 -1.1792
 2939SOL    HW220277   1.374   4.649   7.751  1.7920  0.7052 -1.2897
 2940SOL     OW20278   3.948   1.604   2.234  0.3596 -0.3440 -0.5114
 2940SOL    HW120279   3.993   1.679   2.195 -0.2173 -0.0072 -0.5248
 2940SOL    HW220280   3.877   1.649   2.280  0.3508  0.6220 -1.4686
 2941SOL     OW20281   1.569   0.246   5.821 -0.0798 -0.2993  0.1070
 2941SOL    HW120282   1.474   0.239   5.831 -0.1337  0.8134  0.3189
 2941SOL    HW220283   1.598   0.183   5.887 -3.0130 -0.7265  0.9949
 2942SOL     OW20284   4.094   0.735   3.786 -0.1801  0.0899  0.0410
 2942SOL    HW120285   4.081   0.652   3.832  0.2499 -1.5833 -2.8786
 2942SOL    HW220286   4.188   0.735   3.768 -0.5548  0.3546 -1.9295
 2943SOL     OW20287   3.284   1.893   8.455  0.2596 -0.5222  0.0483
 2943SOL    HW120288   3.339   1.955   8.503 -0.2660 -0.2132  0.2582
 2943SOL    HW220289   3.242   1.842   8.525 -0.3619 -1.3521 -0.9238
 2944SOL     OW20290   0.098   0.421  16.221  0.6682 -0.0506 -0.1730
 2944SOL    HW120291   0.120   0.452  16.134  1.9252  1.3816  0.6665
 2944SOL    HW220292   0.018   0.470  16.240 -0.2287 -1.7721  0.5014
 2945SOL     OW20293   1.225   0.564   8.508  0.2335 -0.1331 -0.5739
 2945SOL    HW120294   1.155   0.507   8.538  1.1834  0.5288  2.8964
 2945SOL    HW220295   1.256   0.612   8.585  1.3585 -1.6146 -0.1079
 2946SOL     OW20296   0.129   3.952   5.528 -0.7526  0.0634  0.7365
 2946SOL    HW120297   0.139   4.037   5.572 -0.3319 -1.2334  3.1283
 2946SOL    HW220298   0.039   3.968   5.499 -0.5267 -1.2473 -0.6520
 2947SOL     OW20299   1.832   3.240   7.371  0.0724  0.2996 -0.5400
 2947SOL    HW120300   1.926   3.224   7.370 -0.3314 -1.9810 -0.5284
 2947SOL    HW220301   1.816   3.255   7.278 -1.1824  1.5896 -0.1090
 2948SOL     OW20302   1.278   1.757  13.133  0.0945  0.3054 -0.4918
 2948SOL    HW120303   1.285   1.666  13.161  2.9981  0.5357 -0.4884
 2948SOL    HW220304   1.360   1.798  13.161  0.1653 -0.3705  0.2761
 2949SOL     OW20305   1.485   0.606  10.994 -0.3686  0.2455 -0.2686
 2949SOL    HW120306   1.392   0.627  10.989 -0.4639 -0.1501 -0.0948
 2949SOL    HW220307   1.484   0.527  11.047  0.9078  0.2771 -0.1981
 2950SOL     OW20308   1.265   0.100   1.294  0.0006 -0.0980  0.1697
 2950SOL    HW120309   1.270   0.006   1.278  1.0125 -0.2595  1.4760
 2950SOL    HW220310   1.251   0.120   1.201 -1.0436  0.1435  0.3859
 2951SOL     OW20311   2.533   3.072  12.114 -0.0827  0.3566 -0.0538
 2951SOL    HW120312   2.585   3.117  12.048  1.7546 -0.0991  1.0807
 2951SOL    HW220313   2.598   3.043  12.178 -0.6532  0.1085  0.4134
 2952SOL     OW20314   4.429   0.945  15.356 -0.1547 -0.8779  0.3374
 2952SOL    HW120315   4.482   0.999  15.298 -1.6440  1.3242  1.0404
 2952SOL    HW220316   4.437   0.996  15.437  0.9240 -1.1659  0.4132
 2953SOL     OW20317   2.453   2.138  14.352  0.7255 -0.3213 -0.0878
 2953SOL    HW120318   2.493   2.167  14.433  2.9742 -1.8628 -0.6511
 2953SOL    HW220319   2.359   2.151  14.366  0.5559 -1.0991 -0.5072
 2954SOL     OW20320   3.046   0.218   9.883 -0.1638 -0.2898  0.1804
 2954SOL    HW120321   3.008   0.286   9.939 -1.0615  0.2735 -1.0935
 2954SOL    HW220322   2.978   0.217   9.815 -0.5810  1.8408  0.5447
 2955SOL     OW20323   1.124   2.544  16.501  0.2466 -0.2082  0.1832
 2955SOL    HW120324   1.107   2.589  16.419  1.8520 -0.8549 -0.5027
 2955SOL    HW220325   1.193   2.602  16.533  0.8784  0.5137 -2.5472
 2956SOL     OW20326   0.323   4.603   2.191 -0.0807 -0.4618 -0.1044
 2956SOL    HW120327   0.381   4.677   2.206 -0.6277 -0.1626  0.5275
 2956SOL    HW220328   0.277   4.630   2.112  2.6608  0.8118 -1.2737
 2957SOL     OW20329   2.144   1.547   3.548  0.0099  0.4052 -0.0527
 2957SOL    HW120330   2.107   1.492   3.480 -0.0914 -0.5649  0.7818
 2957SOL    HW220331   2.228   1.576   3.512  0.2144  1.4973  1.3017
 2958SOL     OW20332   0.749   0.226   8.611  0.6673 -0.3226  0.2809
 2958SOL    HW120333   0.805   0.299   8.585 -1.1840  1.0933  0.3637
 2958SOL    HW220334   0.773   0.158   8.548 -0.3245  0.0985 -0.5405
 2959SOL     OW20335   4.036   4.567   5.602 -0.4155 -0.2451 -0.1365
 2959SOL    HW120336   4.071   4.491   5.648 -2.4307 -1.2148 -0.2328
 2959SOL    HW220337   4.021   4.622   5.679 -0.8949  0.1770 -0.5283
 2960SOL     OW20338   0.893   3.835   5.204  0.4658 -0.0990 -0.1517
 2960SOL    HW120339   0.861   3.777   5.273 -2.5052  0.2013 -1.3030
 2960SOL    HW220340   0.968   3.782   5.175  0.6670 -0.3017  0.7363
 2961SOL     OW20341   0.797   1.497   2.772  0.4982  0.6347  0.3469
 2961SOL    HW120342   0.809   1.569   2.834 -1.8305 -0.4014  1.9990
 2961SOL    HW220343   0.840   1.525   2.691  0.3380 -1.0727 -0.3326
 2962SOL     OW20344   3.334   2.694   2.823  0.3560 -0.1300 -0.2008
 2962SOL    HW120345   3.370   2.766   2.772  0.8820 -0.8677 -0.8782
 2962SOL    HW220346   3.267   2.740   2.872  0.9676 -3.9296  4.2415
 2963SOL     OW20347   0.528   0.875   6.160 -0.0579  0.1278  0.2041
 2963SOL    HW120348   0.441   0.867   6.121  0.6175 -1.7025 -0.9170
 2963SOL    HW220349   0.518   0.819   6.237 -1.4870 -1.5458 -1.1836
 2964SOL     OW20350   3.794   3.025   8.819  0.9004 -0.0318 -0.2949
 2964SOL    HW120351   3.774   3.113   8.789  1.0015 -0.6512 -2.1966
 2964SOL    HW220352   3.703   2.995   8.819  1.2083 -0.9800  0.4965
 2965SOL     OW20353   3.612   1.759   3.621  0.1852 -0.7250 -0.7076
 2965SOL    HW120354   3.656   1.830   3.575 -0.5337  1.8678  2.5575
 2965SOL    HW220355   3.663   1.680   3.602 -0.7266 -1.3649 -0.4877
 2966SOL     OW20356   3.913   1.698   0.088  0.0745  0.2027  0.5007
 2966SOL    HW120357   3.966   1.763   0.042  0.7461  0.9776  2.3450
 2966SOL    HW220358   3.891   1.753   0.163 -0.5081  2.5165 -1.3597
 2967SOL     OW20359   1.308   4.377   3.271  0.2213  0.2656  0.3905
 2967SOL    HW120360   1.353   4.332   3.199  1.2327  1.5300  0.2280
 2967SOL    HW220361   1.257   4.307   3.311  0.4972 -0.5606 -0.7073
 2968SOL     OW20362   3.558   1.660   1.240 -0.4580  0.3026 -0.6778
 2968SOL    HW120363   3.577   1.738   1.293 -1.3349  0.9631 -1.3418
 2968SOL    HW220364   3.485   1.687   1.185 -0.5923  0.1881 -0.5538
 2969SOL     OW20365   0.851   2.987   0.751  0.1770 -0.4629 -0.3087
 2969SOL    HW120366   0.889   3.064   0.792 -0.3623 -0.5936  0.4529
 2969SOL    HW220367   0.776   3.030   0.709  1.6131 -0.7970 -3.1699
 2970SOL     OW20368   1.450   0.098   6.729 -0.5783 -0.8489  0.0425
 2970SOL    HW120369   1.412   0.022   6.773  1.2142 -0.7805  1.7056
 2970SOL    HW220370   1.545   0.085   6.735 -0.3297  0.2322 -1.2888
 2971SOL     OW20371   0.789   1.098   9.642 -0.5649 -0.1216  0.1342
 2971SOL    HW120372   0.842   1.168   9.605 -0.8915  0.0720  0.0390
 2971SOL    HW220373   0.848   1.026   9.666  0.5387 -0.1429 -2.6796
 2972SOL     OW20374   0.832   4.696   6.785  0.6282 -0.3585 -0.3195
 2972SOL    HW120375   0.790   0.014   6.859  0.5507 -0.4827 -0.2877
 2972SOL    HW220376   0.854   0.045   6.732 -1.6640  0.1196 -0.5704
 2973SOL     OW20377   2.453   2.233   5.635  0.0562  0.8785 -0.6523
 2973SOL    HW120378   2.361   2.243   5.658  0.1422 -0.8136  0.4291
 2973SOL    HW220379   2.474   2.154   5.685 -0.4346  1.3577  0.3103
 2974SOL     OW20380   3.326   1.641   9.071  0.1402 -0.1418  0.1776
 2974SOL    HW120381   3.263   1.666   9.139 -0.8133 -1.2567 -0.2921
 2974SOL    HW220382   3.406   1.659   9.120  0.5322  0.8302 -0.7944
 2975SOL     OW20383   3.016   3.817  11.802  0.5181 -0.3455  0.1124
 2975SOL    HW120384   3.064   3.887  11.758  0.5089 -0.6735 -0.4185
 2975SOL    HW220385   3.031   3.737  11.751 -1.7352  0.5281 -1.9509
 2976SOL     OW20386   0.768   0.738   8.767  0.1581  0.0630  0.1665
 2976SOL    HW120387   0.739   0.828   8.751  0.7150 -0.0051 -1.2887
 2976SOL    HW220388   0.839   0.753   8.829 -1.6880  2.1730  1.7631
 2977SOL     OW20389   0.822   0.841   7.030  0.0815  0.2805 -0.9028
 2977SOL    HW120390   0.764   0.887   7.090 -0.9694 -1.1665 -0.8214
 2977SOL    HW220391   0.816   0.898   6.953 -1.0002  1.2652 -0.0867
 2978SOL     OW20392   2.718   2.929  15.833  0.2413  0.0219  0.6737
 2978SOL    HW120393   2.779   2.931  15.907  0.9958 -1.4898  0.0901
 2978SOL    HW220394   2.760   2.858  15.784  0.4552  0.0140  0.8685
 2979SOL     OW20395   1.645   1.841   4.541 -0.1086  0.0898 -0.3331
 2979SOL    HW120396   1.736   1.852   4.512  0.1378  0.3124  0.5169
 2979SOL    HW220397   1.637   1.762   4.488 -1.2782 -0.8602  1.2674
 2980SOL     OW20398   0.517   0.225  13.873  0.2429  0.4012  0.0933
 2980SOL    HW120399   0.437   0.208  13.824  1.5968 -2.3188 -1.1502
 2980SOL    HW220400   0.487   0.281  13.945 -1.2305 -0.6749  0.3409
 2981SOL     OW20401   3.678   4.520   5.769  0.0481  1.0462 -0.0594
 2981SOL    HW120402   3.652   4.464   5.843  0.4117 -0.1066 -0.7973
 2981SOL    HW220403   3.629   4.487   5.694 -1.8064 -0.4123  1.7642
 2982SOL     OW20404   4.347   4.567   8.711  0.4442 -0.3482  0.0457
 2982SOL    HW120405   4.259   4.541   8.683  1.4456 -0.8675 -2.6609
 2982SOL    HW220406   4.399   4.576   8.630  0.8766  0.6099  0.4284
 2983SOL     OW20407   3.512   4.176   6.039 -0.2429 -0.2898 -0.7282
 2983SOL    HW120408   3.589   4.215   6.081 -1.8238  1.6688  0.3569
 2983SOL    HW220409   3.477   4.245   5.983  2.1514  0.6677 -1.0585
 2984SOL     OW20410   3.656   1.356   2.188 -0.4827 -0.7016 -0.0850
 2984SOL    HW120411   3.629   1.395   2.105  3.2871 -0.3626 -1.1301
 2984SOL    HW220412   3.608   1.411   2.250 -0.4936  1.0342 -1.6121
 2985SOL     OW20413   2.899   2.221   8.089  0.1658  0.2392  0.0811
 2985SOL    HW120414   2.821   2.203   8.035  1.3953  0.3726 -1.7583
 2985SOL    HW220415   2.894   2.139   8.139  2.1908  1.3622  2.1148
 2986SOL     OW20416   4.560   0.479  16.311  0.1748  0.1691  0.0079
 2986SOL    HW120417   4.491   0.469  16.377  0.7833  1.5103  0.8440
 2986SOL    HW220418   4.539   0.566  16.278  0.3864 -0.1140 -0.8703
 2987SOL     OW20419   3.503   0.381   6.782  0.1904 -0.0004 -0.1245
 2987SOL    HW120420   3.445   0.315   6.820 -0.2010  1.1205  1.2233
 2987SOL    HW220421   3.524   0.429   6.863 -1.2829 -0.6346  0.6365
 2988SOL     OW20422   0.304   1.576   7.567 -0.1058  0.3870  0.8218
 2988SOL    HW120423   0.356   1.574   7.486  1.7025  0.5242  1.9648
 2988SOL    HW220424   0.255   1.495   7.555  0.7743 -0.2153  1.2426
 2989SOL     OW20425   0.700   1.146   4.764 -0.1176  0.0829 -0.4423
 2989SOL    HW120426   0.612   1.131   4.730 -0.5284  0.9997  0.2425
 2989SOL    HW220427   0.706   1.074   4.828 -0.5589  2.5711  2.4092
 2990SOL     OW20428   1.470   3.415  17.246 -0.2893  0.0591 -0.2109
 2990SOL    HW120429   1.430   3.481  17.302 -0.4494 -1.2157  1.1574
 2990SOL    HW220430   1.536   3.379  17.305  1.2965  3.4761  0.1218
 2991SOL     OW20431   4.201   4.117   0.030  0.0189  0.3345 -0.1182
 2991SOL    HW120432   4.198   4.108  17.643 -1.8325  0.8854 -0.1025
 2991SOL    HW220433   4.139   4.188   0.047 -0.9172 -1.3278  3.3387
 2992SOL     OW20434   2.469   4.104   4.101 -0.1521  0.2812 -0.5224
 2992SOL    HW120435   2.426   4.040   4.157  2.3848 -1.2381 -0.3317
 2992SOL    HW220436   2.474   4.185   4.152  0.2840  1.6179 -2.7035
 2993SOL     OW20437   0.834   3.193   7.506  0.2669 -0.1893  0.3146
 2993SOL    HW120438   0.877   3.268   7.464  1.5915 -2.2566 -2.0671
 2993SOL    HW220439   0.784   3.231   7.578 -2.8434 -0.3804 -1.7181
 2994SOL     OW20440   2.992   3.623  15.370  0.2719 -0.1069 -0.4591
 2994SOL    HW120441   2.909   3.578  15.356  0.9168 -1.3937 -0.0807
 2994SOL    HW220442   2.983   3.707  15.324  2.3275 -0.5128 -1.6072
 2995SOL     OW20443   2.895   2.640  11.430  0.3112 -0.3198 -0.1958
 2995SOL    HW120444   2.965   2.621  11.368 -0.1209  0.1529 -0.8288
 2995SOL    HW220445   2.929   2.641  11.519  1.3083  0.4731 -0.5873
 2996SOL     OW20446   3.983   0.176   7.494  0.4863 -0.1376 -0.0076
 2996SOL    HW120447   3.888   0.184   7.504  0.7078 -0.4821  2.5867
 2996SOL    HW220448   3.996   0.171   7.400 -3.3873 -0.4413 -0.5563
 2997SOL     OW20449   1.118   0.040   4.506 -0.2429 -0.3373  0.1192
 2997SOL    HW120450   1.186   4.711   4.544  0.5960 -0.3936 -1.4940
 2997SOL    HW220451   1.163   0.109   4.457 -2.0915  0.6685 -0.1916
 2998SOL     OW20452   3.413   2.149   3.040  0.3239 -0.2195  0.9415
 2998SOL    HW120453   3.483   2.085   3.048  0.2080 -0.6290 -1.3044
 2998SOL    HW220454   3.367   2.109   2.966  0.4796  0.5950  0.3994
 2999SOL     OW20455   2.386   0.403   4.955 -0.2395  0.6495  0.6622
 2999SOL    HW120456   2.352   0.377   4.870  0.6405 -0.3273  0.6018
 2999SOL    HW220457   2.313   0.376   5.012 -2.0176 -0.0599 -1.9680
 3000SOL     OW20458   4.091   1.638   8.692  0.0908  0.0640  0.5336
 3000SOL    HW120459   4.061   1.723   8.659  1.3132 -0.3377 -1.6103
 3000SOL    HW220460   4.080   1.674   8.780  1.2508  0.2428  0.6181
 3001SOL     OW20461   0.246   1.242   9.803  0.1109  0.0368  0.3737
 3001SOL    HW120462   0.151   1.257   9.805  0.0070 -0.0956 -2.8991
 3001SOL    HW220463   0.245   1.148   9.788  3.8659 -0.2968  2.3762
 3002SOL     OW20464   1.388   0.096   1.660 -0.3604  0.3597  0.7526
 3002SOL    HW120465   1.326   0.025   1.675 -0.8277  0.9942  1.8264
 3002SOL    HW220466   1.436   0.105   1.742  0.2197  0.8641  0.3585
 3003SOL     OW20467   4.726   0.559   3.184 -0.7065 -0.3457 -0.0076
 3003SOL    HW120468   0.057   0.563   3.108 -2.9875  1.4327 -1.6466
 3003SOL    HW220469   0.052   0.621   3.235  0.3312 -1.7665  0.6610
 3004SOL     OW20470   3.087   4.082  15.982 -0.0392 -0.0975 -0.3000
 3004SOL    HW120471   3.083   4.170  15.944  1.8525 -0.7962 -2.1425
 3004SOL    HW220472   3.126   4.106  16.066  1.1523 -0.2507 -0.8001
 3005SOL     OW20473   3.102   1.087   6.709  0.2844 -0.1583 -0.3625
 3005SOL    HW120474   3.106   1.099   6.804  3.6958 -1.5562 -0.3403
 3005SOL    HW220475   3.109   1.178   6.680 -0.7957  0.9780  2.8702
 3006SOL     OW20476   0.827   3.722   6.977 -0.0487  0.5224 -0.1762
 3006SOL    HW120477   0.786   3.806   6.955  0.3079  0.6289 -0.4196
 3006SOL    HW220478   0.796   3.717   7.068  2.0897  2.8687  0.6880
 3007SOL     OW20479   3.564   2.866  15.611  0.2192 -0.2675 -0.0751
 3007SOL    HW120480   3.585   2.960  15.613 -0.8886  0.0002 -0.9614
 3007SOL    HW220481   3.554   2.843  15.519  0.5501  1.1080 -0.4582
 3008SOL     OW20482   1.961   0.479  17.372 -0.3691 -0.5785  0.2388
 3008SOL    HW120483   2.028   0.545  17.356  1.8795 -3.2387 -1.4029
 3008SOL    HW220484   1.987   0.405  17.316 -1.8615 -2.1468  1.6451
 3009SOL     OW20485   2.973   3.237   6.809 -0.0900 -0.4093  0.5209
 3009SOL    HW120486   2.933   3.320   6.780  2.6575  1.0496  0.9155
 3009SOL    HW220487   2.985   3.189   6.727  0.6155 -0.9573  0.9558
 3010SOL     OW20488   2.597   2.864   5.085 -0.2031 -0.0960  0.3782
 3010SOL    HW120489   2.571   2.868   5.178 -0.5813 -1.4016  0.3288
 3010SOL    HW220490   2.509   2.864   5.048 -0.4894 -0.8756  1.0584
 3011SOL     OW20491   3.211   1.561   5.652 -0.1126 -0.7600 -0.7335
 3011SOL    HW120492   3.271   1.559   5.726  0.4969 -1.5395 -1.2505
 3011SOL    HW220493   3.187   1.471   5.672  0.8333 -1.3335 -2.2296
 3012SOL     OW20494   0.952   0.976  17.482  0.0654  0.0708 -0.0303
 3012SOL    HW120495   0.944   0.885  17.511  2.0353 -0.1589 -0.2099
 3012SOL    HW220496   0.945   0.958  17.388 -0.0954  2.8284 -0.5674
 3013SOL     OW20497   4.106   2.251   7.895  0.0322 -0.6651 -0.2036
 3013SOL    HW120498   4.054   2.229   7.817 -0.3790 -0.1281 -0.0818
 3013SOL    HW220499   4.180   2.190   7.886  0.3581 -0.7237  3.0020
 3014SOL     OW20500   1.916   3.152  15.220  0.7341 -0.0559  0.1846
 3014SOL    HW120501   1.926   3.219  15.153  0.4507 -0.0522  0.1470
 3014SOL    HW220502   1.823   3.129  15.214  1.2902 -2.9686  2.3500
 3015SOL     OW20503   1.901   0.873   1.864  0.8638 -0.0057  0.3477
 3015SOL    HW120504   1.807   0.858   1.873  1.2049 -1.8631  0.7653
 3015SOL    HW220505   1.916   0.844   1.774  1.5106  1.4486 -0.0139
 3016SOL     OW20506   3.457   0.809   5.931  0.3792 -0.0473  0.3402
 3016SOL    HW120507   3.531   0.773   5.978  0.2054 -0.8998 -0.0432
 3016SOL    HW220508   3.399   0.844   5.999  0.5533  0.0084  0.4575
 3017SOL     OW20509   3.660   0.537  17.069 -0.4826  0.1498 -0.4285
 3017SOL    HW120510   3.601   0.612  17.076  0.5139  0.9701 -0.7784
 3017SOL    HW220511   3.663   0.504  17.159 -0.4390  2.7484  0.5123
 3018SOL     OW20512   0.191   0.945  12.894  0.3676 -0.5869 -0.2546
 3018SOL    HW120513   0.186   0.924  12.801  1.1979 -1.4288 -0.1118
 3018SOL    HW220514   0.199   1.040  12.896 -0.8468 -0.4956  0.2555
 3019SOL     OW20515   3.632   2.803   8.540 -0.0820 -0.3484  0.3460
 3019SOL    HW120516   3.615   2.800   8.634 -1.0234 -0.4342  0.1718
 3019SOL    HW220517   3.722   2.834   8.540  0.3590 -1.6574 -1.1636
 3020SOL     OW20518   0.394   4.579   6.107 -0.0290 -0.1577  0.2448
 3020SOL    HW120519   0.408   4.491   6.072 -2.9361 -1.5710  2.6398
 3020SOL    HW220520   0.332   4.564   6.178 -0.2278 -0.3021  0.0405
 3021SOL     OW20521   2.334   0.583   3.023  0.0024 -0.2639  0.3268
 3021SOL    HW120522   2.262   0.555   2.966 -0.1123 -0.0157  0.3505
 3021SOL    HW220523   2.401   0.598   2.956  0.4554 -3.3339  0.1033
 3022SOL     OW20524   0.576   4.567  10.590 -0.0033 -0.3587 -0.3319
 3022SOL    HW120525   0.503   4.570  10.529  0.0776 -1.5005 -0.4741
 3022SOL    HW220526   0.644   4.599  10.531  0.0995  1.5907  0.8119
 3023SOL     OW20527   4.034   1.936  12.395 -0.7588 -0.0770 -0.2432
 3023SOL    HW120528   4.023   2.016  12.448 -0.4666 -0.1852 -0.0192
 3023SOL    HW220529   4.128   1.945  12.378 -0.7198 -2.3329 -1.1562
 3024SOL     OW20530   4.502   0.624   6.680  0.4282  0.2698 -0.6273
 3024SOL    HW120531   4.446   0.684   6.730 -1.0267 -0.8357 -0.9364
 3024SOL    HW220532   4.523   0.684   6.608  0.5333  1.1126  0.1116
 3025SOL     OW20533   1.782   1.932   5.897 -0.2932 -0.2072  0.3893
 3025SOL    HW120534   1.762   1.858   5.954  0.9166 -0.8492 -0.0064
 3025SOL    HW220535   1.743   1.909   5.813  2.0781  0.4244 -0.8691
 3026SOL     OW20536   3.973   2.789   4.543 -0.0146 -0.3122  0.1567
 3026SOL    HW120537   3.937   2.878   4.549 -1.9480 -1.0282 -0.9340
 3026SOL    HW220538   3.982   2.761   4.634 -1.4690 -0.2376  0.3325
 3027SOL     OW20539   3.076   0.307   2.627 -0.4081 -0.1894 -0.3221
 3027SOL    HW120540   3.107   0.217   2.635  0.8286  0.4228  1.8180
 3027SOL    HW220541   2.997   0.300   2.681  1.6836 -1.1460  2.6092
 3028SOL     OW20542   3.280   3.082   1.645  0.2292  0.3071  0.2738
 3028SOL    HW120543   3.246   3.151   1.588 -2.1012 -0.1788  1.0589
 3028SOL    HW220544   3.282   3.124   1.732  1.9179  0.5362  0.1266
 3029SOL     OW20545   0.039   3.518   3.419 -0.2717 -0.0413 -0.5616
 3029SOL    HW120546   0.037   3.503   3.513 -0.5321 -0.0002 -0.5617
 3029SOL    HW220547   0.092   3.597   3.416 -0.2400 -0.0683 -0.7398
 3030SOL     OW20548   1.236   4.634   3.336  0.2463  0.0446 -0.6134
 3030SOL    HW120549   1.278   4.554   3.305  0.6949 -0.5964  1.6068
 3030SOL    HW220550   1.281   4.653   3.418 -0.1395 -2.3959  0.1444
 3031SOL     OW20551   3.906   4.389   3.168  0.0410 -0.0745  0.3283
 3031SOL    HW120552   3.955   4.351   3.094  0.4691  2.2849 -0.6028
 3031SOL    HW220553   3.971   4.455   3.192 -0.8195  0.1130  2.0973
 3032SOL     OW20554   4.258   0.038  15.780 -0.3781  0.1978  0.1933
 3032SOL    HW120555   4.226   0.080  15.700 -1.8429 -0.3200  0.5133
 3032SOL    HW220556   4.297   0.117  15.816  3.0965 -1.5438  0.2888
 3033SOL     OW20557   1.609   1.122   1.009  0.1449  0.0331 -0.0347
 3033SOL    HW120558   1.573   1.198   0.963  0.6216 -0.3291 -0.9947
 3033SOL    HW220559   1.536   1.104   1.069 -1.7329 -0.5422 -2.4594
 3034SOL     OW20560   4.418   2.015   4.508 -0.6584 -0.3130  0.0168
 3034SOL    HW120561   4.343   2.074   4.510  0.8860  1.6121  1.0279
 3034SOL    HW220562   4.373   1.932   4.525  0.7409 -0.6056  2.3446
 3035SOL     OW20563   1.426   0.853   2.103  0.1760 -0.3252  0.3754
 3035SOL    HW120564   1.358   0.907   2.143  0.0075  0.8444 -1.4833
 3035SOL    HW220565   1.378   0.826   2.024 -0.0353  1.9247 -0.2774
 3036SOL     OW20566   2.165   0.975   4.963  0.5895 -0.2730  0.0549
 3036SOL    HW120567   2.220   0.969   4.885  1.2625  1.0370  0.4193
 3036SOL    HW220568   2.203   1.050   5.010 -2.0903  1.0890  0.0675
 3037SOL     OW20569   2.472   2.783   6.603 -0.4318 -0.2531 -0.4004
 3037SOL    HW120570   2.557   2.739   6.600  1.2092  2.8756 -0.2083
 3037SOL    HW220571   2.498   2.875   6.601  0.1324 -0.3769  1.0784
 3038SOL     OW20572   3.188   2.885   7.141  0.6045 -0.2436 -0.2443
 3038SOL    HW120573   3.220   2.862   7.228 -0.9697 -2.1622 -0.1665
 3038SOL    HW220574   3.263   2.931   7.104  0.9589 -0.3302  0.3685
 3039SOL     OW20575   0.596   0.484   2.402 -0.7215  0.4849  0.3941
 3039SOL    HW120576   0.667   0.522   2.351 -1.0401 -0.5668 -0.8295
 3039SOL    HW220577   0.610   0.396   2.368  0.6997  0.7577  0.2906
 3040SOL     OW20578   3.791   2.548   2.665  0.4800 -0.3266  0.4188
 3040SOL    HW120579   3.821   2.629   2.707  1.6336 -0.9734  0.8475
 3040SOL    HW220580   3.882   2.519   2.652 -0.3097 -0.5416 -4.5528
 3041SOL     OW20581   1.574   1.143   7.595  0.1923 -0.3295  0.3338
 3041SOL    HW120582   1.514   1.135   7.521  0.5643 -3.3071  0.3220
 3041SOL    HW220583   1.658   1.125   7.554  0.9789 -0.5466  2.0652
 3042SOL     OW20584   2.390   2.599   2.919 -0.0585  0.2118  0.1895
 3042SOL    HW120585   2.442   2.558   2.849  1.8423  0.9732  1.1397
 3042SOL    HW220586   2.414   2.539   2.990  2.7681 -0.3254 -1.2162
 3043SOL     OW20587   0.876   2.146   1.238 -0.7453  0.4588 -0.4193
 3043SOL    HW120588   0.898   2.160   1.146  0.1807 -0.1375 -0.2889
 3043SOL    HW220589   0.794   2.100   1.219 -0.8687  0.3335  0.4180
 3044SOL     OW20590   0.106   0.670  14.832  0.3007 -0.1264  0.1334
 3044SOL    HW120591   0.121   0.748  14.778  1.1877 -0.7440 -0.5075
 3044SOL    HW220592   0.133   0.707  14.916 -1.3550 -2.0202  1.4783
 3045SOL     OW20593   3.774   0.213   5.527 -0.2263 -0.1005  0.5958
 3045SOL    HW120594   3.745   0.129   5.560 -0.4360 -1.1359 -2.2289
 3045SOL    HW220595   3.746   0.267   5.601  0.4592  0.3992  0.4867
 3046SOL     OW20596   1.854   2.084   3.565  0.4293 -0.1215  0.0130
 3046SOL    HW120597   1.784   2.132   3.522  0.1653  0.9968  1.7138
 3046SOL    HW220598   1.924   2.093   3.500  0.3771 -0.5773 -0.1084
 3047SOL     OW20599   1.373   2.983   8.016  0.0513 -0.9698 -0.1561
 3047SOL    HW120600   1.327   2.899   8.010 -2.3005  0.2188  1.1767
 3047SOL    HW220601   1.340   3.026   7.938 -1.5316 -1.7255  0.0905
 3048SOL     OW20602   0.894   0.237  10.022 -0.1649  0.7867  0.0833
 3048SOL    HW120603   0.862   0.162  10.072  1.5583 -0.1260 -0.1773
 3048SOL    HW220604   0.917   0.304  10.086 -0.0380 -0.0006  0.8632
 3049SOL     OW20605   0.394   3.841   8.606 -0.6292 -0.2171 -0.6376
 3049SOL    HW120606   0.411   3.747   8.615  0.6411 -0.1521 -2.3022
 3049SOL    HW220607   0.367   3.858   8.696 -1.0309 -1.7790 -0.4568
 3050SOL     OW20608   1.081   3.411   4.454  0.5094  0.5265 -0.2922
 3050SOL    HW120609   1.162   3.450   4.423 -0.5576  2.3675 -0.7863
 3050SOL    HW220610   1.115   3.340   4.508  0.1737  0.6209  0.0502
 3051SOL     OW20611   2.819   2.288  12.378  0.2148  0.5078 -0.1997
 3051SOL    HW120612   2.899   2.339  12.364  0.6187  0.7449  3.1053
 3051SOL    HW220613   2.796   2.253  12.292 -3.2755  1.1183  0.4943
 3052SOL     OW20614   2.119   0.367  11.724 -0.1788  0.0975 -0.1026
 3052SOL    HW120615   2.196   0.425  11.729  2.1700 -3.2580  2.8875
 3052SOL    HW220616   2.116   0.337  11.634 -0.2857  0.7260 -0.3072
 3053SOL     OW20617   0.114   1.730   4.593 -0.2059 -0.0840 -0.6566
 3053SOL    HW120618   0.130   1.800   4.530 -0.6936 -0.3037 -1.0279
 3053SOL    HW220619   0.074   1.773   4.668  0.1538 -2.3083  0.8142
 3054SOL     OW20620   2.536   3.301  16.070 -0.2231 -0.1778  0.3278
 3054SOL    HW120621   2.519   3.327  15.979 -0.8569 -0.3805  0.3836
 3054SOL    HW220622   2.625   3.327  16.091  0.1786 -1.3092  0.0382
 3055SOL     OW20623   1.464   3.477  13.890  0.0756  0.1358 -0.3759
 3055SOL    HW120624   1.389   3.536  13.897  1.1887  1.6076 -0.9521
 3055SOL    HW220625   1.421   3.394  13.913  1.1753  0.8189  4.2443
 3056SOL     OW20626   1.419   0.455   2.654  0.1410  0.3319  0.1599
 3056SOL    HW120627   1.470   0.374   2.654 -0.1762  0.1239 -1.9373
 3056SOL    HW220628   1.401   0.468   2.561  1.0140  1.9181  0.2122
 3057SOL     OW20629   4.583   2.679   5.771  0.2215 -0.4321  0.0689
 3057SOL    HW120630   4.565   2.639   5.856  0.1752 -0.2258  0.1574
 3057SOL    HW220631   4.505   2.651   5.723  1.9929 -3.3131 -1.1275
 3058SOL     OW20632   4.633   2.743  14.301 -0.8409 -0.2289  0.5209
 3058SOL    HW120633   4.708   2.687  14.280 -0.3623  0.2544  0.9580
 3058SOL    HW220634   4.679   2.805  14.356  1.3851 -1.0334 -0.4519
 3059SOL     OW20635   4.561   0.076  14.484 -0.2885 -0.2339 -0.6123
 3059SOL    HW120636   4.645   0.104  14.448 -0.8423  1.2306 -0.7262
 3059SOL    HW220637   4.536   4.724  14.434 -0.2829 -0.4450 -0.2851
 3060SOL     OW20638   3.651   4.264   7.824  0.1236  0.3119 -0.4541
 3060SOL    HW120639   3.681   4.177   7.848  0.0435  0.6028  0.7564
 3060SOL    HW220640   3.735   4.295   7.791  0.8869 -0.4912  0.7194
 3061SOL     OW20641   4.340   1.465   3.523 -0.4160  0.0852  0.2390
 3061SOL    HW120642   4.297   1.380   3.533  0.4754 -0.3239  0.6177
 3061SOL    HW220643   4.270   1.530   3.534  0.1952  0.2914  2.8143
 3062SOL     OW20644   0.518   4.166   6.183  0.5339  0.8243  0.2649
 3062SOL    HW120645   0.506   4.214   6.265  0.2671  0.6181  0.3495
 3062SOL    HW220646   0.613   4.177   6.181  0.6895 -0.4682  0.2218
 3063SOL     OW20647   3.774   1.286   0.223 -0.0986  0.0725  0.4446
 3063SOL    HW120648   3.860   1.272   0.263  0.0877 -1.6454 -0.5576
 3063SOL    HW220649   3.748   1.365   0.270  1.6853  1.8798 -1.6278
 3064SOL     OW20650   3.750   4.726   7.306  0.1258 -0.2816 -0.4290
 3064SOL    HW120651   3.719   0.066   7.367  0.3973 -0.6679  0.1428
 3064SOL    HW220652   3.830   0.037   7.272  0.0721  1.1778  1.0178
 3065SOL     OW20653   3.893   2.590  15.572  0.1745 -0.6588 -0.6562
 3065SOL    HW120654   3.929   2.621  15.489  0.8917  0.0757 -0.0673
 3065SOL    HW220655   3.971   2.574  15.624  0.0576 -1.5349 -0.7522
 3066SOL     OW20656   1.306   3.838  13.865 -0.8856 -0.1638 -0.3299
 3066SOL    HW120657   1.326   3.824  13.957 -0.7421  2.0598 -0.0249
 3066SOL    HW220658   1.318   3.933  13.864 -0.4501 -0.1782  2.8855
 3067SOL     OW20659   3.682   0.354   2.337  0.0612 -0.1496  0.0416
 3067SOL    HW120660   3.610   0.315   2.287 -0.3303  1.2236 -0.4417
 3067SOL    HW220661   3.633   0.428   2.371  0.6581  0.4041 -0.3159
 3068SOL     OW20662   1.167   3.079   0.531 -0.2133 -0.3284 -0.0636
 3068SOL    HW120663   1.113   3.029   0.470  0.6685  1.5212 -2.3500
 3068SOL    HW220664   1.191   3.017   0.600 -0.4337 -0.0567  0.2545
 3069SOL     OW20665   3.136   0.605  12.348 -1.0374  0.7704  0.2994
 3069SOL    HW120666   3.089   0.550  12.411 -0.2753 -1.0341 -0.7146
 3069SOL    HW220667   3.092   0.582  12.267  0.0390 -0.0881 -0.0376
 3070SOL     OW20668   2.090   1.489  11.814  0.4750 -0.0922  0.5219
 3070SOL    HW120669   2.077   1.581  11.834  1.8107 -0.6245  3.8362
 3070SOL    HW220670   2.032   1.484  11.738  2.1307 -2.4258 -0.6106
 3071SOL     OW20671   3.210   0.830   7.045  0.3872  0.2767  0.3503
 3071SOL    HW120672   3.222   0.769   7.117  0.5539  1.0509  0.9811
 3071SOL    HW220673   3.117   0.817   7.025  1.3398  0.9418 -4.5968
 3072SOL     OW20674   0.772   1.640  17.576 -0.4585 -0.2205 -0.3780
 3072SOL    HW120675   0.768   1.686  17.660 -0.2889 -1.8524  0.5231
 3072SOL    HW220676   0.850   1.584  17.572  0.3375  0.7534  1.2462
 3073SOL     OW20677   3.383   2.175  15.445  0.1478 -0.5527  0.3421
 3073SOL    HW120678   3.365   2.200  15.354  3.5064 -1.6576 -0.6160
 3073SOL    HW220679   3.384   2.255  15.498 -0.2843 -1.0217  1.0635
 3074SOL     OW20680   0.871   3.247   6.714  0.1228 -0.4031 -0.3430
 3074SOL    HW120681   0.819   3.306   6.769 -1.1491 -0.5486 -1.3797
 3074SOL    HW220682   0.803   3.181   6.697 -0.7713 -0.5146  3.5429
 3075SOL     OW20683   2.566   0.676   2.876 -0.7023 -0.8058 -0.5028
 3075SOL    HW120684   2.647   0.720   2.851  1.3032 -3.3124  1.7256
 3075SOL    HW220685   2.504   0.707   2.809 -1.0675 -1.6488 -0.5596
 3076SOL     OW20686   2.771   2.044   5.457 -0.2992  0.5259  0.1637
 3076SOL    HW120687   2.716   2.086   5.523  0.3249  0.3195  0.8211
 3076SOL    HW220688   2.722   2.063   5.377  1.5052  0.8810 -0.8618
 3077SOL     OW20689   2.690   0.579   5.766 -0.2394 -1.1123 -0.1357
 3077SOL    HW120690   2.667   0.662   5.723 -2.1220 -0.6361  1.7536
 3077SOL    HW220691   2.742   0.539   5.697  0.1720  0.3513 -0.6813
 3078SOL     OW20692   4.131   1.312   1.220  0.3867 -0.0361 -0.2768
 3078SOL    HW120693   4.071   1.308   1.145  0.1028 -0.3551 -0.0323
 3078SOL    HW220694   4.113   1.228   1.263  0.8650 -0.8271 -1.6147
 3079SOL     OW20695   0.795   2.491   8.452 -0.3477 -0.5668 -0.1496
 3079SOL    HW120696   0.843   2.545   8.514  1.5619 -1.2941 -1.0164
 3079SOL    HW220697   0.873   2.452   8.413  0.2506  1.1138 -0.6327
 3080SOL     OW20698   3.042   4.281   2.389  0.0161 -0.0214  0.2152
 3080SOL    HW120699   3.047   4.371   2.421 -0.9206 -0.8671  2.7276
 3080SOL    HW220700   3.129   4.252   2.360  0.6452  1.8087  0.2482
 3081SOL     OW20701   2.547   1.315   5.061 -0.5795 -0.2204 -0.3895
 3081SOL    HW120702   2.463   1.268   5.056 -0.6772 -0.3692  2.3803
 3081SOL    HW220703   2.522   1.404   5.084  1.4902  0.6364 -1.4321
 3082SOL     OW20704   0.342   3.078  13.660  0.4033  0.1159 -0.1712
 3082SOL    HW120705   0.295   3.161  13.654 -1.3259 -0.7780  1.0036
 3082SOL    HW220706   0.432   3.109  13.656  1.2340 -2.5317 -1.3191
 3083SOL     OW20707   2.467   1.489   4.574  0.1901 -0.4003 -0.1213
 3083SOL    HW120708   2.420   1.505   4.492 -0.8559 -0.7926  0.3974
 3083SOL    HW220709   2.514   1.571   4.582 -1.0101  0.3856 -1.1289
 3084SOL     OW20710   1.504   3.141  10.062 -1.0202  0.3325 -0.4688
 3084SOL    HW120711   1.588   3.139  10.015 -1.4338 -1.3837 -1.1428
 3084SOL    HW220712   1.477   3.050  10.074 -0.6841  0.1964 -0.7307
 3085SOL     OW20713   2.368   2.475   6.610  0.1329 -0.9188  0.2375
 3085SOL    HW120714   2.282   2.432   6.610 -0.0701 -0.5025 -1.8308
 3085SOL    HW220715   2.362   2.507   6.520 -0.7660 -0.4774  0.4621
 3086SOL     OW20716   4.015   2.290   0.007 -0.6202 -0.3101 -0.5080
 3086SOL    HW120717   3.926   2.256  17.702 -0.0024 -1.7709 -0.9298
 3086SOL    HW220718   4.040   2.229   0.076  0.2226  1.8771  1.1334
 3087SOL     OW20719   1.762   1.525   0.986  0.5422 -0.5524 -0.0554
 3087SOL    HW120720   1.843   1.542   1.035  0.2208 -0.9435  0.6137
 3087SOL    HW220721   1.765   1.595   0.921  1.0220 -1.0059 -0.5192
 3088SOL     OW20722   2.566   4.722   6.126 -0.2352 -0.4455  0.2942
 3088SOL    HW120723   2.500   0.025   6.063  2.7841  0.6778 -2.3137
 3088SOL    HW220724   2.575   0.073   6.181 -0.3413 -0.2219 -0.0067
 3089SOL     OW20725   3.483   4.566   4.322  0.9423 -0.0726 -0.2244
 3089SOL    HW120726   3.562   4.618   4.311  0.6741  0.8319  2.1795
 3089SOL    HW220727   3.486   4.517   4.240  2.9236 -0.5616  0.1501
 3090SOL     OW20728   1.766   4.093  12.934  0.6688  0.1276  0.6484
 3090SOL    HW120729   1.850   4.114  12.973  1.3537 -1.0465 -0.1946
 3090SOL    HW220730   1.803   4.074  12.848  0.1775 -0.3158  0.5325
 3091SOL     OW20731   0.306   1.616   2.816  0.5045 -0.3258 -0.4343
 3091SOL    HW120732   0.371   1.635   2.748  0.5991  3.0942  0.5894
 3091SOL    HW220733   0.220   1.639   2.781 -0.1428 -2.2570 -0.1237
 3092SOL     OW20734   3.975   1.441  10.647  0.0462  0.3223  0.1136
 3092SOL    HW120735   3.905   1.441  10.582  0.5048  0.9033 -0.3776
 3092SOL    HW220736   4.049   1.439  10.587 -0.3944  0.9696 -0.4583
 3093SOL     OW20737   2.441   0.474   8.850  0.5227  0.1221  0.3197
 3093SOL    HW120738   2.362   0.527   8.863 -0.2564 -0.7691 -0.7548
 3093SOL    HW220739   2.469   0.493   8.939  0.2266 -4.6635  1.3981
 3094SOL     OW20740   1.679   2.376  16.571 -0.1342  0.0478  0.5446
 3094SOL    HW120741   1.735   2.338  16.639 -0.7853  1.7314  2.0253
 3094SOL    HW220742   1.627   2.296  16.565 -2.1118  1.4621 -1.2576
 3095SOL     OW20743   3.963   3.263  10.810 -0.1383  0.3887 -1.3393
 3095SOL    HW120744   4.029   3.193  10.805  0.0574  0.6115 -1.8736
 3095SOL    HW220745   4.015   3.337  10.841  0.3289 -0.9684  1.1304
 3096SOL     OW20746   0.256   1.722   2.184  0.2574 -1.1294  0.0925
 3096SOL    HW120747   0.308   1.671   2.247  1.1328  0.9697  1.0405
 3096SOL    HW220748   0.169   1.682   2.195  0.3893 -1.5300 -0.2982
 3097SOL     OW20749   2.588   0.886  11.890 -0.6081 -0.3572 -0.2332
 3097SOL    HW120750   2.645   0.846  11.955  0.6394 -1.2429 -1.8692
 3097SOL    HW220751   2.631   0.852  11.812 -2.0517  0.4691 -1.4023
 3098SOL     OW20752   4.571   4.156  10.674 -0.0803 -0.4208 -0.0753
 3098SOL    HW120753   4.599   4.166  10.583  1.4432 -1.3770  0.2830
 3098SOL    HW220754   4.652   4.112  10.700  0.9145  0.8929 -0.8958
 3099SOL     OW20755   4.496   0.118   2.665  0.6636  0.6956  0.4911
 3099SOL    HW120756   4.438   0.186   2.698  0.3046  0.1264  1.0466
 3099SOL    HW220757   4.524   0.084   2.750  0.3480 -1.8337 -0.4103
 3100SOL     OW20758   0.854   0.926  13.216 -0.3652 -0.7720  0.4715
 3100SOL    HW120759   0.889   0.870  13.148  2.7531 -0.1793  1.6065
 3100SOL    HW220760   0.858   0.871  13.294 -0.7457 -2.4112 -0.6833
 3101SOL     OW20761   3.512   3.218   6.272  0.3446  0.0471 -0.2619
 3101SOL    HW120762   3.464   3.210   6.354  2.3294  1.1506  1.0129
 3101SOL    HW220763   3.460   3.166   6.210 -0.3043  0.5044 -0.0979
 3102SOL     OW20764   3.102   1.937  11.477  0.0584 -0.1173  0.0518
 3102SOL    HW120765   3.046   1.959  11.403  1.0011 -2.5533 -1.3825
 3102SOL    HW220766   3.183   1.922  11.427 -0.2278 -0.8809 -0.1759
 3103SOL     OW20767   1.693   4.476  10.538  0.6244 -0.1221  0.1022
 3103SOL    HW120768   1.742   4.547  10.498 -0.1864 -0.2440 -1.1316
 3103SOL    HW220769   1.623   4.466  10.473 -1.3765  0.3754  2.1908
 3104SOL     OW20770   0.696   4.522   4.122 -0.6992 -0.3275 -0.0739
 3104SOL    HW120771   0.754   4.466   4.174 -1.9697  0.3980  2.0941
 3104SOL    HW220772   0.723   4.491   4.035  1.0435 -0.0689  0.3821
 3105SOL     OW20773   3.982   3.162   8.543 -0.1245  0.2104  0.4520
 3105SOL    HW120774   3.943   3.094   8.598 -0.3225  1.1917  1.5195
 3105SOL    HW220775   4.048   3.106   8.503  0.4593 -0.6868  2.6660
 3106SOL     OW20776   0.551   0.503   6.016  0.1147 -0.0944  0.3043
 3106SOL    HW120777   0.538   0.578   5.959  0.5483  0.3015  0.7185
 3106SOL    HW220778   0.476   0.446   6.005  1.1584 -1.8531  2.1900
 3107SOL     OW20779   3.675   3.976   7.439  0.1414  0.2723 -0.4400
 3107SOL    HW120780   3.737   3.998   7.509  1.2426 -3.0274 -0.3482
 3107SOL    HW220781   3.663   4.067   7.415 -1.3717  0.4283  0.9205
 3108SOL     OW20782   0.154   1.396   6.104 -0.2350  0.5946  0.3863
 3108SOL    HW120783   0.077   1.433   6.146 -0.6705  0.0224  0.1058
 3108SOL    HW220784   0.225   1.441   6.150 -0.7527 -0.8982  2.6342
 3109SOL     OW20785   3.063   0.656   2.707 -0.1482  0.0227  0.2551
 3109SOL    HW120786   3.113   0.738   2.714 -0.1459  0.2422 -2.3130
 3109SOL    HW220787   3.084   0.644   2.615  0.0432  0.9132  0.1775
 3110SOL     OW20788   1.129   1.604   2.190 -0.3700  0.2178 -0.2981
 3110SOL    HW120789   1.214   1.617   2.231 -1.1308 -0.4199  1.5062
 3110SOL    HW220790   1.098   1.538   2.252  1.3984 -0.4512 -0.1213
 3111SOL     OW20791   2.652   0.481   3.485  0.3320  0.1259 -0.0276
 3111SOL    HW120792   2.712   0.546   3.447  0.1050  0.8828  0.9222
 3111SOL    HW220793   2.634   0.418   3.415  1.0826  0.7082 -0.7382
 3112SOL     OW20794   2.568   2.877  11.885 -0.6165  0.5869 -0.6831
 3112SOL    HW120795   2.644   2.864  11.827 -0.6486  1.4445 -0.9201
 3112SOL    HW220796   2.609   2.915  11.963  0.1011 -1.0136 -0.2776
 3113SOL     OW20797   3.284   0.657   9.296  0.1196  0.0984  0.6651
 3113SOL    HW120798   3.189   0.644   9.307 -0.0217 -0.1082 -0.7320
 3113SOL    HW220799   3.305   0.588   9.233 -3.9047 -0.4814 -0.0810
 3114SOL     OW20800   3.807   3.153  10.572 -0.3684  0.3108  0.1594
 3114SOL    HW120801   3.855   3.224  10.615  0.2175 -0.4678  0.7734
 3114SOL    HW220802   3.723   3.151  10.617 -0.8469  1.8996 -0.6565
 3115SOL     OW20803   3.300   1.692   1.600  0.0579 -0.6127  0.1283
 3115SOL    HW120804   3.299   1.787   1.610 -1.2318 -0.6377  0.2993
 3115SOL    HW220805   3.215   1.681   1.558  1.5278 -0.6457 -2.7884
 3116SOL     OW20806   0.738   3.978   9.103 -0.8093 -0.2564 -0.1452
 3116SOL    HW120807   0.679   3.948   9.034  0.0168  0.3815 -1.1244
 3116SOL    HW220808   0.790   3.900   9.122 -2.0217 -0.8642  0.6434
 3117SOL     OW20809   2.555   2.510   4.644  0.1418  0.1699  0.2513
 3117SOL    HW120810   2.576   2.439   4.583 -0.7027  1.4209 -1.5088
 3117SOL    HW220811   2.595   2.588   4.606  3.5989 -0.7806  1.9317
 3118SOL     OW20812   3.604   0.767   3.082  0.1547 -0.3117 -0.4285
 3118SOL    HW120813   3.537   0.826   3.114  1.4676 -0.5300  2.6909
 3118SOL    HW220814   3.563   0.683   3.060 -0.5525 -0.6184  2.1257
 3119SOL     OW20815   0.165   4.467  17.607 -0.1327  0.5261  0.0576
 3119SOL    HW120816   0.238   4.416  17.642 -0.9587  0.7691  2.0916
 3119SOL    HW220817   0.173   4.430  17.519 -0.9269  1.7723 -0.5378
 3120SOL     OW20818   3.098   4.337   4.309  0.0117  0.2215  0.4985
 3120SOL    HW120819   3.027   4.278   4.284  0.6010  0.4689 -1.8276
 3120SOL    HW220820   3.169   4.274   4.322 -0.9194 -0.6821  1.2060
 3121SOL     OW20821   2.254   0.303  15.548  0.7367  0.0629 -0.7627
 3121SOL    HW120822   2.249   0.389  15.589 -1.0469 -0.3291 -0.1430
 3121SOL    HW220823   2.323   0.270  15.606  0.0201 -0.5069 -0.2236
 3122SOL     OW20824   3.169   4.411   7.184 -0.0325  0.0364 -0.0202
 3122SOL    HW120825   3.112   4.356   7.131  0.1472 -0.7324  0.5841
 3122SOL    HW220826   3.166   4.378   7.274 -0.3009 -0.7287 -0.3205
 3123SOL     OW20827   0.691   3.138  12.855  0.5663  0.4467  0.1662
 3123SOL    HW120828   0.633   3.114  12.927 -0.5937 -2.8927 -1.8558
 3123SOL    HW220829   0.712   3.225  12.888  3.7438  0.1238 -1.0162
 3124SOL     OW20830   3.487   2.949  12.264  0.1863  0.7676  0.2633
 3124SOL    HW120831   3.521   2.917  12.347 -0.7958  1.7307  1.0381
 3124SOL    HW220832   3.408   2.896  12.273  1.7838 -1.7641 -0.7533
 3125SOL     OW20833   2.640   3.811   4.553  0.1376 -0.1649  0.2827
 3125SOL    HW120834   2.664   3.722   4.526  1.1884  0.5361 -1.0569
 3125SOL    HW220835   2.720   3.842   4.594  0.1283  1.3412 -0.8525
 3126SOL     OW20836   0.276   3.521  17.154  0.2910 -0.5839  0.2765
 3126SOL    HW120837   0.369   3.517  17.174  0.0444  0.2179  1.5460
 3126SOL    HW220838   0.275   3.601  17.101  0.0789 -0.8300 -0.0961
 3127SOL     OW20839   4.519   3.594   5.265  0.6984 -0.1358  0.0900
 3127SOL    HW120840   4.496   3.632   5.349  1.0623 -0.5199  0.3656
 3127SOL    HW220841   4.444   3.619   5.211  0.4580 -0.4730  0.2690
 3128SOL     OW20842   2.050   1.830  16.218  0.2016 -0.2180  0.2932
 3128SOL    HW120843   2.034   1.827  16.123  0.2437  0.3785  0.2638
 3128SOL    HW220844   2.069   1.922  16.238 -3.2807  0.7156 -0.6362
 3129SOL     OW20845   1.812   3.677  15.728  0.5204  0.4563  0.4419
 3129SOL    HW120846   1.721   3.651  15.713  0.8009 -1.5733  2.1334
 3129SOL    HW220847   1.853   3.593  15.749 -0.8362 -0.5154 -0.8286
 3130SOL     OW20848   3.014   0.931  14.800  0.4768 -0.8015 -0.0476
 3130SOL    HW120849   3.081   0.969  14.857 -0.8811 -1.3226  1.8872
 3130SOL    HW220850   2.992   1.008  14.748 -0.6999 -1.3840 -0.4084
 3131SOL     OW20851   1.967   2.631   3.261  0.4299 -0.3895 -0.1281
 3131SOL    HW120852   1.929   2.710   3.223  0.2516 -1.0259 -1.2885
 3131SOL    HW220853   2.062   2.638   3.254  0.3543  1.5475  0.7327
 3132SOL     OW20854   2.217   0.835   1.887  0.0037  0.0201 -0.2261
 3132SOL    HW120855   2.229   0.863   1.977 -0.5799  0.2901 -0.2297
 3132SOL    HW220856   2.135   0.882   1.875 -0.3629 -0.2906  1.0488
 3133SOL     OW20857   2.001   0.635   2.930 -0.6685  0.4446  0.3475
 3133SOL    HW120858   2.021   0.689   3.006  0.7123 -0.5943  0.7346
 3133SOL    HW220859   1.913   0.605   2.952 -2.0097  2.7853 -1.8380
 3134SOL     OW20860   3.833   3.761   4.118 -0.3866  0.0218  0.0416
 3134SOL    HW120861   3.888   3.713   4.055 -0.5642 -1.6864  1.1669
 3134SOL    HW220862   3.898   3.804   4.174 -0.5329  2.3088 -1.5788
 3135SOL     OW20863   4.682   1.246   9.787  0.4410  0.5131  0.2181
 3135SOL    HW120864   4.636   1.294   9.856 -0.3082 -1.5428  1.1509
 3135SOL    HW220865   4.702   1.165   9.834 -3.0368 -0.8171 -0.6160
 3136SOL     OW20866   1.852   1.026   1.051 -0.1502 -0.2675 -0.0902
 3136SOL    HW120867   1.764   1.045   1.019  0.4133  0.8008 -1.0260
 3136SOL    HW220868   1.891   1.113   1.059  0.9169 -0.5786 -1.8846
 3137SOL     OW20869   4.354   1.326   8.193  0.3591 -0.2735 -0.2094
 3137SOL    HW120870   4.438   1.341   8.150  0.2416 -3.4212 -1.5260
 3137SOL    HW220871   4.328   1.417   8.205 -0.2884 -0.1954 -2.2542
 3138SOL     OW20872   3.199   0.755   0.660 -0.0854  0.2644  0.1154
 3138SOL    HW120873   3.210   0.683   0.723 -1.8464  0.3264  0.4885
 3138SOL    HW220874   3.292   0.766   0.643  0.0530 -1.0066  0.0084
 3139SOL     OW20875   1.043   0.490   1.619 -0.4733 -0.0147  0.8036
 3139SOL    HW120876   1.059   0.517   1.529 -1.4788 -1.4400  0.1814
 3139SOL    HW220877   0.950   0.514   1.617 -1.2105 -2.7284  1.3096
 3140SOL     OW20878   1.875   2.808   8.568 -0.6880  0.2847 -0.9355
 3140SOL    HW120879   1.970   2.815   8.574 -0.7336 -1.1106  1.3042
 3140SOL    HW220880   1.852   2.898   8.546 -0.9280  0.3336 -0.4820
 3141SOL     OW20881   1.938   0.106   4.643 -0.3608 -0.3698 -0.0511
 3141SOL    HW120882   2.018   0.064   4.675  1.4216  0.6618 -3.1553
 3141SOL    HW220883   1.957   0.199   4.645  0.6775 -0.6225  1.4495
 3142SOL     OW20884   1.678   1.868   5.646  0.2834  0.3487  0.5443
 3142SOL    HW120885   1.619   1.876   5.572 -1.6255  0.2879  2.0644
 3142SOL    HW220886   1.749   1.818   5.605 -0.5275 -0.3767  0.0201
 3143SOL     OW20887   1.948   2.862   2.970 -0.5482 -0.2768 -0.0736
 3143SOL    HW120888   2.036   2.847   3.003  0.9499 -0.2913 -4.0533
 3143SOL    HW220889   1.926   2.953   2.990  0.8289  0.2508 -0.9316
 3144SOL     OW20890   4.612   0.379   8.156  1.0955  0.4211 -0.0141
 3144SOL    HW120891   4.520   0.357   8.166  1.1590  0.5423  0.8494
 3144SOL    HW220892   4.634   0.337   8.240  0.1730  1.1653  0.5934
 3145SOL     OW20893   3.719   2.846  15.981  0.1150 -0.6829 -0.0913
 3145SOL    HW120894   3.683   2.762  16.007 -0.7941  0.5312  2.5236
 3145SOL    HW220895   3.759   2.825  15.896 -2.5005 -3.3266 -0.6639
 3146SOL     OW20896   2.062   4.630  16.884  0.4023  0.2909  0.2318
 3146SOL    HW120897   2.125   4.635  16.812  0.1805  0.4916  0.0533
 3146SOL    HW220898   2.126   4.640  16.954  1.8998 -1.3230 -0.8947
 3147SOL     OW20899   4.642   1.774   3.329 -0.0021  0.4615  0.0073
 3147SOL    HW120900   4.586   1.808   3.259  0.1845  2.9060  1.0402
 3147SOL    HW220901   4.629   1.854   3.381 -1.8554 -0.0822  0.3877
 3148SOL     OW20902   1.846   1.067   7.148  0.6644 -1.0300 -0.1034
 3148SOL    HW120903   1.868   0.980   7.182  2.8555 -0.2320  0.5267
 3148SOL    HW220904   1.751   1.062   7.143  0.7268 -1.3721 -0.9702
 3149SOL     OW20905   4.233   3.028   6.352  0.5536 -0.5860 -0.0878
 3149SOL    HW120906   4.142   3.021   6.382  1.0251  0.4816  1.5495
 3149SOL    HW220907   4.271   3.052   6.436  1.2746  1.4977 -1.0100
 3150SOL     OW20908   1.592   1.608   0.379 -0.2263 -0.4928 -0.1085
 3150SOL    HW120909   1.657   1.541   0.357  1.0710  0.7650 -0.0881
 3150SOL    HW220910   1.645   1.680   0.411 -1.5244 -0.0677  1.0751
 3151SOL     OW20911   1.710   0.085   2.055  0.5065  0.1872  0.5384
 3151SOL    HW120912   1.778   0.147   2.029  1.1016 -1.1503 -1.0883
 3151SOL    HW220913   1.760   0.003   2.057 -0.9380 -0.6699  1.4149
 3152SOL     OW20914   3.413   2.420   3.794 -0.2599 -0.5867  0.3350
 3152SOL    HW120915   3.462   2.495   3.829  0.9668 -0.6030 -1.3421
 3152SOL    HW220916   3.348   2.422   3.864 -0.8184  1.7368 -0.2536
 3153SOL     OW20917   3.089   4.090   0.693  0.0170 -0.5744 -0.5703
 3153SOL    HW120918   3.063   4.051   0.610  0.9607 -0.6047 -0.8491
 3153SOL    HW220919   3.093   4.010   0.745  1.6114 -0.7519 -0.9634
 3154SOL     OW20920   1.967   2.230   8.798 -0.0763  0.0518  0.4271
 3154SOL    HW120921   2.042   2.253   8.853 -0.9762 -1.6640  2.3723
 3154SOL    HW220922   1.924   2.166   8.854  1.5178 -0.2414  1.3080
 3155SOL     OW20923   0.067   2.822   8.759 -0.6166  0.7411  0.6685
 3155SOL    HW120924   0.038   2.879   8.831 -1.0137 -1.2234  2.0842
 3155SOL    HW220925   0.140   2.783   8.806 -1.3148 -0.7411  0.5291
 3156SOL     OW20926   3.880   3.282   2.078 -0.6420  0.2558 -0.0316
 3156SOL    HW120927   3.894   3.190   2.053  0.3987  0.9199 -1.9216
 3156SOL    HW220928   3.879   3.292   2.173 -2.0392  0.3485 -0.0479
 3157SOL     OW20929   4.022   1.618  14.197  0.0289  0.0277  0.9895
 3157SOL    HW120930   4.109   1.624  14.236  0.2427 -1.6263  0.7672
 3157SOL    HW220931   3.984   1.704  14.180  0.8985  0.1353 -0.4321
 3158SOL     OW20932   4.127   4.660   2.026 -0.1399  0.3896  0.0631
 3158SOL    HW120933   4.220   4.652   2.046 -0.3364  2.4312  1.8067
 3158SOL    HW220934   4.104   4.578   1.983  1.3354  0.0563 -0.0839
 3159SOL     OW20935   0.893   3.621   4.823 -0.2414  0.4159 -0.3638
 3159SOL    HW120936   0.827   3.678   4.783 -0.7083 -1.2344 -1.9631
 3159SOL    HW220937   0.946   3.675   4.881 -1.6564  0.9969  0.3885
 3160SOL     OW20938   1.058   0.547   6.639  0.5302  0.4978  0.1072
 3160SOL    HW120939   0.996   0.523   6.571  0.1528  0.6349  0.3979
 3160SOL    HW220940   1.096   0.465   6.669  0.2945  0.7427  1.0845
 3161SOL     OW20941   3.775   0.009   4.739  0.7511 -0.3292 -0.1543
 3161SOL    HW120942   3.691   4.690   4.736  0.2959  0.5692 -1.0828
 3161SOL    HW220943   3.748   0.082   4.684 -0.2840 -0.7184 -0.1581
 3162SOL     OW20944   3.537   3.302   1.817 -0.6675  0.5715  0.2971
 3162SOL    HW120945   3.517   3.209   1.825  1.3625  0.3431  2.7117
 3162SOL    HW220946   3.633   3.306   1.812 -0.7359  1.8770  0.0420
 3163SOL     OW20947   0.874   1.373   5.568  0.0216 -0.3509 -0.1898
 3163SOL    HW120948   0.880   1.436   5.496  1.1321  0.0972  0.2971
 3163SOL    HW220949   0.846   1.300   5.513 -0.8661  0.9802 -1.5350
 3164SOL     OW20950   3.094   4.355   0.414 -0.2664  0.2504 -0.0974
 3164SOL    HW120951   3.083   4.412   0.338 -3.0541 -0.3772 -0.1551
 3164SOL    HW220952   3.185   4.333   0.396 -0.3252  0.0141 -0.1062
 3165SOL     OW20953   2.362   3.604   4.796  0.6073  0.6592  0.3651
 3165SOL    HW120954   2.454   3.578   4.796 -0.1310 -1.8459 -0.1572
 3165SOL    HW220955   2.315   3.525   4.823  1.2859 -0.7852 -2.7393
 3166SOL     OW20956   3.158   4.546  16.949 -0.3428  0.7893  0.2715
 3166SOL    HW120957   3.087   4.596  16.908 -0.7951  0.4631  0.6635
 3166SOL    HW220958   3.229   4.605  16.925  0.1819  1.1180  2.6273
 3167SOL     OW20959   3.300   1.973   5.480 -0.2295 -0.1813 -0.5814
 3167SOL    HW120960   3.275   1.910   5.548 -3.1215 -1.9247 -3.2519
 3167SOL    HW220961   3.221   1.977   5.426 -1.3522 -0.9331  0.9891
 3168SOL     OW20962   4.517   3.681   6.515  0.5847 -0.7021 -0.7491
 3168SOL    HW120963   4.581   3.611   6.523  2.3022  0.7278 -2.0021
 3168SOL    HW220964   4.456   3.648   6.448  1.6650  0.4547 -2.2994
 3169SOL     OW20965   3.934   2.262   2.145 -0.2129  0.3135  0.4078
 3169SOL    HW120966   3.947   2.169   2.164  3.6526  0.9191  0.7621
 3169SOL    HW220967   3.840   2.271   2.136  0.0335  1.1712 -1.4043
 3170SOL     OW20968   2.522   2.029  13.954 -0.3638 -0.1616  0.9167
 3170SOL    HW120969   2.447   2.079  13.987  1.2485  1.7421  1.7235
 3170SOL    HW220970   2.585   2.100  13.942 -0.2735 -0.1813  1.2655
 3171SOL     OW20971   3.762   2.735  15.750 -0.1051 -0.5766  0.2200
 3171SOL    HW120972   3.801   2.692  15.674  0.3779  1.6893 -0.8251
 3171SOL    HW220973   3.702   2.795  15.706  2.4770  1.4699 -0.5227
 3172SOL     OW20974   3.695   2.129   4.805 -0.0628 -0.2014 -0.1112
 3172SOL    HW120975   3.681   2.071   4.729 -1.5857 -2.2436  1.7056
 3172SOL    HW220976   3.784   2.154   4.779 -0.6673  0.4947 -1.5476
 3173SOL     OW20977   1.128   1.351   5.245 -0.6608  0.1863 -0.1124
 3173SOL    HW120978   1.158   1.429   5.293  0.7659 -0.2516 -0.3017
 3173SOL    HW220979   1.206   1.330   5.193 -0.1798  0.1825  0.6066
 3174SOL     OW20980   0.713   3.427   6.875 -0.1558  0.1059 -0.1561
 3174SOL    HW120981   0.655   3.454   6.946 -1.9600 -0.6559 -1.3489
 3174SOL    HW220982   0.655   3.444   6.800  2.0069 -1.3406 -2.1632
 3175SOL     OW20983   0.865   3.753   8.711 -0.1639 -0.1726 -0.1913
 3175SOL    HW120984   0.806   3.791   8.776  3.4775  2.6763  1.4077
 3175SOL    HW220985   0.951   3.758   8.753  0.2936  0.6610 -1.2262
 3176SOL     OW20986   1.596   2.296  12.789  0.0040  0.1945  0.0290
 3176SOL    HW120987   1.607   2.301  12.694  0.5038 -3.7276 -0.1307
 3176SOL    HW220988   1.558   2.210  12.810 -2.2559  1.2793  0.3133
 3177SOL     OW20989   2.588   0.376  10.434 -0.1857 -0.2972 -0.1498
 3177SOL    HW120990   2.626   0.464  10.440  2.0857 -1.1509 -1.8877
 3177SOL    HW220991   2.507   0.387  10.484 -0.2406 -3.4168  0.4137
 3178SOL     OW20992   0.723   3.607   8.263 -0.0699 -0.1869  0.1599
 3178SOL    HW120993   0.808   3.617   8.220 -1.0901 -0.1045 -1.7846
 3178SOL    HW220994   0.669   3.657   8.203  1.4144 -1.6923 -2.4113
 3179SOL     OW20995   2.347   1.994   5.996 -0.1915  0.3011  0.1001
 3179SOL    HW120996   2.258   1.960   6.008 -0.3912  0.6184 -0.4605
 3179SOL    HW220997   2.396   1.938   6.056 -0.3472 -0.9632 -0.9492
 3180SOL     OW20998   3.571   1.003   7.106 -0.8801  0.0072 -1.0873
 3180SOL    HW120999   3.558   0.929   7.047 -0.2080 -0.6484 -0.4138
 3180SOL    HW221000   3.487   1.048   7.096 -2.1644 -2.1510 -0.0442
 3181SOL     OW21001   2.038   1.729   3.075 -0.3117 -0.0092  0.2934
 3181SOL    HW121002   1.960   1.765   3.032  1.1924  1.0705 -1.5225
 3181SOL    HW221003   2.013   1.637   3.061  0.6592 -0.1086 -0.6979
 3182SOL     OW21004   0.737   0.864  14.471 -0.2771  0.0419  0.1449
 3182SOL    HW121005   0.806   0.929  14.462 -0.3145 -0.0692 -0.9212
 3182SOL    HW221006   0.712   0.854  14.379  0.7951 -1.1656 -0.0221
 3183SOL     OW21007   4.552   1.700   8.669 -0.1394  0.3737  0.5745
 3183SOL    HW121008   4.591   1.743   8.745 -2.7592  1.6677  1.1772
 3183SOL    HW221009   4.495   1.766   8.628  1.2231  1.2117  0.0107
 3184SOL     OW21010   3.348   0.698   1.350  0.0717  0.0011 -0.0237
 3184SOL    HW121011   3.253   0.696   1.349  0.0225  1.3513  1.1733
 3184SOL    HW221012   3.364   0.735   1.263 -1.6599  1.5032  0.2898
 3185SOL     OW21013   1.352   1.687   1.975 -0.6828  0.2789 -0.1924
 3185SOL    HW121014   1.292   1.744   2.023 -1.0888  0.5170 -0.9871
 3185SOL    HW221015   1.288   1.616   1.964 -2.3376  1.6060  0.9232
 3186SOL     OW21016   3.974   0.953   6.989 -0.4525  0.3531 -0.6433
 3186SOL    HW121017   3.914   0.997   7.050 -0.6212 -0.8144  0.0324
 3186SOL    HW221018   4.058   0.988   7.016 -0.0656 -0.8765 -0.2325
 3187SOL     OW21019   3.965   1.357  14.247  0.1490 -0.0688  0.1260
 3187SOL    HW121020   3.987   1.450  14.245 -0.5073  0.1117  1.4284
 3187SOL    HW221021   4.005   1.325  14.167 -0.9770 -2.5003  0.5365
 3188SOL     OW21022   3.178   0.154  16.327 -0.2773  0.5626  1.0870
 3188SOL    HW121023   3.252   0.113  16.283  0.8576  1.1477  2.4920
 3188SOL    HW221024   3.104   0.123  16.274 -1.1479  1.4176  1.7800
 3189SOL     OW21025   4.622   0.225   0.319  0.0193 -0.2897 -0.3318
 3189SOL    HW121026   4.700   0.187   0.278 -1.0056 -2.4320 -0.2823
 3189SOL    HW221027   4.651   0.259   0.403  0.6767 -0.7533 -0.3685
 3190SOL     OW21028   3.453   1.663   7.758 -0.0595 -0.4794 -0.4749
 3190SOL    HW121029   3.535   1.671   7.806 -1.8060  1.1364  2.2409
 3190SOL    HW221030   3.454   1.568   7.743 -2.1172 -0.4436 -0.8463
 3191SOL     OW21031   0.073   3.639   6.042 -0.0631 -0.5645 -0.2764
 3191SOL    HW121032   0.065   3.604   6.131  0.9666 -1.0398 -0.3721
 3191SOL    HW221033   0.121   3.718   6.062 -1.5622  0.2578  0.0980
 3192SOL     OW21034   3.562   3.049   1.882 -0.3606 -0.3382  0.0442
 3192SOL    HW121035   3.509   2.979   1.919  0.1099  1.7612  4.6101
 3192SOL    HW221036   3.653   3.027   1.904  0.1183  1.3827 -0.2358
 3193SOL     OW21037   0.090   0.586   3.478 -0.2328  0.4241  0.0558
 3193SOL    HW121038   0.020   0.652   3.483 -0.5852  0.0399  0.2346
 3193SOL    HW221039   0.077   0.540   3.561  0.2944  0.1519 -0.0128
 3194SOL     OW21040   2.982   2.896   4.147  0.4968 -0.2957  0.2461
 3194SOL    HW121041   2.918   2.923   4.081  1.1695  1.3251  0.2611
 3194SOL    HW221042   3.068   2.933   4.126 -0.0267  0.6820 -0.1686
 3195SOL     OW21043   3.405   2.650  11.472  0.5830 -0.4011 -0.2200
 3195SOL    HW121044   3.390   2.726  11.528 -0.3382  0.2383 -1.3658
 3195SOL    HW221045   3.395   2.578  11.534 -1.2326  0.5270  0.5433
 3196SOL     OW21046   4.448   1.840   9.964 -0.2376 -0.1240 -0.1492
 3196SOL    HW121047   4.471   1.770  10.026  0.9471 -0.4953 -1.0069
 3196SOL    HW221048   4.534   1.854   9.924 -0.4581  1.4446 -0.0510
 3197SOL     OW21049   3.387   2.370  14.372  0.1084 -0.2984 -0.0943
 3197SOL    HW121050   3.395   2.431  14.445  0.1383 -1.9365  1.2589
 3197SOL    HW221051   3.383   2.289  14.421 -1.0478  0.0276  0.3327
 3198SOL     OW21052   1.451   0.133   8.960 -0.4822  0.9010  0.0884
 3198SOL    HW121053   1.495   0.166   8.882  0.1043 -2.0653 -0.8527
 3198SOL    HW221054   1.446   0.041   8.933 -1.8954  0.8680  0.4220
 3199SOL     OW21055   3.280   1.803   4.497 -0.1186 -0.5943 -0.3115
 3199SOL    HW121056   3.199   1.813   4.546 -1.2301  0.9578 -2.4790
 3199SOL    HW221057   3.282   1.711   4.469  0.9427 -0.2809 -1.2846
 3200SOL     OW21058   2.931   0.240   7.363 -0.7647 -0.2450 -0.6543
 3200SOL    HW121059   2.950   0.164   7.417 -1.3923 -0.1475 -0.2965
 3200SOL    HW221060   2.856   0.277   7.410 -0.9152 -0.3505 -0.8125
 3201SOL     OW21061   1.614   3.522   7.835  0.7573  0.7000 -0.0356
 3201SOL    HW121062   1.551   3.450   7.830  2.5498 -1.0083  1.6326
 3201SOL    HW221063   1.693   3.487   7.794  1.3538  1.2953  0.6151
 3202SOL     OW21064   2.643   3.431   3.549  0.5524  0.3988 -0.0302
 3202SOL    HW121065   2.683   3.363   3.494  0.2441  0.1090  0.1050
 3202SOL    HW221066   2.679   3.413   3.636  1.0600 -0.7868 -0.4778
 3203SOL     OW21067   4.508   0.786  14.993 -0.0549  0.0849 -0.2242
 3203SOL    HW121068   4.459   0.732  15.055  1.5378 -2.1555 -0.9222
 3203SOL    HW221069   4.586   0.814  15.043 -0.6294  3.0658 -1.0101
 3204SOL     OW21070   2.030   3.522   5.732  0.0364  0.0372 -0.2646
 3204SOL    HW121071   2.015   3.613   5.707 -0.8106  0.3584  1.3721
 3204SOL    HW221072   2.080   3.496   5.655 -1.4957  1.1246 -1.6384
 3205SOL     OW21073   0.328   3.308   0.566  0.1982 -0.0040  0.3959
 3205SOL    HW121074   0.414   3.347   0.581  0.0313  0.3104  0.5297
 3205SOL    HW221075   0.299   3.350   0.485  4.0074  1.5518 -0.1549
 3206SOL     OW21076   2.108   3.021   2.436  0.7109 -0.2015 -0.1540
 3206SOL    HW121077   2.132   3.102   2.391 -0.6696 -1.7720 -3.7089
 3206SOL    HW221078   2.057   3.052   2.511 -0.3284 -2.2301 -0.0216
 3207SOL     OW21079   3.173   1.570   0.012  0.3060  0.3773  0.1176
 3207SOL    HW121080   3.239   1.536   0.074  1.0576 -2.4203 -2.1968
 3207SOL    HW221081   3.165   1.660   0.041  1.1570  0.1093  1.1838
 3208SOL     OW21082   3.865   2.085   5.658  0.1278 -0.0944  0.3027
 3208SOL    HW121083   3.811   2.012   5.629 -0.8451  1.5688 -1.9850
 3208SOL    HW221084   3.836   2.160   5.606  1.5378 -0.3743 -0.8771
 3209SOL     OW21085   4.080   1.504   5.089 -0.1750  0.4343 -0.2694
 3209SOL    HW121086   4.152   1.537   5.035  1.9287 -2.2991  0.8852
 3209SOL    HW221087   4.040   1.458   5.014 -1.6094 -0.9784  1.3688
 3210SOL     OW21088   2.510   1.794  15.073  0.9592  0.5991  0.1800
 3210SOL    HW121089   2.599   1.800  15.109  1.2065  1.4733 -0.5791
 3210SOL    HW221090   2.531   1.719  15.017 -2.8865  0.2516 -0.8011
 3211SOL     OW21091   3.712   4.393  14.598 -0.3495  0.7899  0.1234
 3211SOL    HW121092   3.788   4.418  14.652 -0.3754 -1.0223  1.0030
 3211SOL    HW221093   3.741   4.410  14.508 -0.7337  1.4745  0.1322
 3212SOL     OW21094   0.894   0.225  15.232 -0.2971 -0.1410 -0.0215
 3212SOL    HW121095   0.850   0.146  15.199 -0.7771  0.3354 -0.5171
 3212SOL    HW221096   0.865   0.295  15.173  3.0085  0.1251 -1.3705
 3213SOL     OW21097   3.022   3.205   3.611 -0.5067  0.0217  0.1446
 3213SOL    HW121098   3.060   3.243   3.532 -0.6272  0.5859  0.3618
 3213SOL    HW221099   2.967   3.137   3.571 -0.4917 -0.1171  0.3604
 3214SOL     OW21100   0.626   0.626  13.441  0.3659 -0.7114  0.1883
 3214SOL    HW121101   0.542   0.671  13.429  0.6805 -0.4614 -1.0952
 3214SOL    HW221102   0.596   0.546  13.484 -0.7481 -0.7456 -0.6708
 3215SOL     OW21103   3.648   2.646   2.426 -0.0866 -0.1320 -0.0254
 3215SOL    HW121104   3.731   2.621   2.384 -0.5083 -2.9280  0.7861
 3215SOL    HW221105   3.669   2.618   2.515 -0.6288 -1.1502 -0.2069
 3216SOL     OW21106   4.600   2.182   6.100 -0.1327 -0.4783  0.1679
 3216SOL    HW121107   4.514   2.190   6.140  0.2475  1.3597  0.6013
 3216SOL    HW221108   4.589   2.114   6.032 -2.3314  0.2707 -0.2181
 3217SOL     OW21109   0.838   4.371   6.251  0.4456  0.0086 -0.0183
 3217SOL    HW121110   0.813   4.442   6.311  2.3166 -0.3932  1.2325
 3217SOL    HW221111   0.849   4.408   6.164  0.0203 -1.8557 -0.8475
 3218SOL     OW21112   2.351   3.737   5.326 -0.1498 -0.1866 -0.1820
 3218SOL    HW121113   2.372   3.790   5.403 -1.3463  0.2100 -0.1268
 3218SOL    HW221114   2.256   3.748   5.319 -0.1396  0.7458  1.1278
 3219SOL     OW21115   4.170   1.340   7.310  0.1582  0.2169  0.1007
 3219SOL    HW121116   4.090   1.320   7.359  0.6198 -2.5300 -0.2873
 3219SOL    HW221117   4.243   1.324   7.370  0.8617 -0.1192 -0.8459
 3220SOL     OW21118   2.722   2.353   6.968  0.4239  0.0154 -0.0909
 3220SOL    HW121119   2.691   2.416   6.903  0.7984  0.8076  0.5010
 3220SOL    HW221120   2.647   2.346   7.026 -1.3562  0.2263 -2.3429
 3221SOL     OW21121   3.525   0.542   0.278  0.0743  0.1435 -0.4362
 3221SOL    HW121122   3.573   0.522   0.358 -1.4147  2.0096  0.9419
 3221SOL    HW221123   3.509   0.636   0.293  1.2062  0.2534  0.0986
 3222SOL     OW21124   3.319   1.135   5.751  0.8128 -0.0918  0.0472
 3222SOL    HW121125   3.288   1.119   5.662 -2.1743 -1.1983  1.3093
 3222SOL    HW221126   3.387   1.069   5.767 -0.9764 -1.6726  1.0489
 3223SOL     OW21127   4.604   3.229   7.179 -0.5163  0.7173  0.4089
 3223SOL    HW121128   4.686   3.256   7.137  0.1237 -3.4505 -1.0733
 3223SOL    HW221129   4.635   3.152   7.228 -0.7733  0.4982  0.2251
 3224SOL     OW21130   3.333   3.796  11.365 -0.3966 -0.5254  0.5438
 3224SOL    HW121131   3.379   3.714  11.382 -1.2839 -0.6842  2.1766
 3224SOL    HW221132   3.406   3.856  11.351 -0.2795 -1.2068 -1.7724
 3225SOL     OW21133   0.946   1.108  11.143 -0.3310  0.2954  0.8528
 3225SOL    HW121134   0.935   1.045  11.071  1.4561 -1.7109  2.3403
 3225SOL    HW221135   1.020   1.159  11.108  0.3020 -0.5087  1.0298
 3226SOL     OW21136   0.418   1.166  10.740 -0.0698  0.8317  0.3680
 3226SOL    HW121137   0.418   1.201  10.829  0.9133  1.2872  0.1762
 3226SOL    HW221138   0.354   1.095  10.753 -0.3935  1.0848  0.1464
 3227SOL     OW21139   0.430   0.936   3.852 -0.7979 -0.2555  0.4699
 3227SOL    HW121140   0.362   1.004   3.860  0.5186  1.2756 -1.6027
 3227SOL    HW221141   0.482   0.957   3.930 -0.2192 -0.7600  0.2121
 3228SOL     OW21142   2.973   3.153  13.775 -0.2265  0.8424  0.5346
 3228SOL    HW121143   2.972   3.126  13.866  1.4225 -1.5282 -0.1603
 3228SOL    HW221144   3.003   3.074  13.730 -0.9528 -0.2925  2.0487
 3229SOL     OW21145   3.927   1.883  14.161  0.1913  0.4316 -0.1501
 3229SOL    HW121146   3.839   1.898  14.196  0.0255 -2.4192  0.7086
 3229SOL    HW221147   3.971   1.968  14.167 -1.7396  1.4194 -0.1776
 3230SOL     OW21148   1.453   4.495   4.105  0.0275  0.4912 -0.3810
 3230SOL    HW121149   1.460   4.405   4.137 -1.0422  0.1436 -1.1207
 3230SOL    HW221150   1.423   4.482   4.015  0.4172 -4.5508  0.2265
 3231SOL     OW21151   2.540   4.180   6.677 -0.2412 -0.3293  0.5124
 3231SOL    HW121152   2.486   4.126   6.620  0.8152  0.3111 -1.0847
 3231SOL    HW221153   2.619   4.125   6.674 -2.0399 -2.8953  0.0300
 3232SOL     OW21154   0.691   2.992   6.176 -0.6926  0.0817 -0.1401
 3232SOL    HW121155   0.727   2.914   6.219  0.3654  1.4522  1.4262
 3232SOL    HW221156   0.709   2.960   6.087 -2.1838  0.9795 -0.7641
 3233SOL     OW21157   3.892   3.425  12.699 -0.7826  0.1647  0.8682
 3233SOL    HW121158   3.817   3.462  12.653 -0.7517 -1.0408 -0.1472
 3233SOL    HW221159   3.956   3.489  12.668  1.5168 -1.0902  2.9460
 3234SOL     OW21160   1.703   1.594   7.114  0.2308  0.1207 -0.7720
 3234SOL    HW121161   1.699   1.666   7.051  1.5871  0.7981 -0.0664
 3234SOL    HW221162   1.623   1.603   7.165  0.3950 -0.6931 -0.3708
 3235SOL     OW21163   3.654   4.447   4.134  0.9445 -0.0112 -0.0756
 3235SOL    HW121164   3.709   4.483   4.204 -1.2609  1.5853  0.8275
 3235SOL    HW221165   3.690   4.358   4.133 -2.3934 -1.4063  3.5735
 3236SOL     OW21166   2.277   0.405   5.963 -0.5186 -0.0349  0.6440
 3236SOL    HW121167   2.200   0.348   5.961 -1.4010  1.1043  1.8673
 3236SOL    HW221168   2.256   0.451   5.881 -1.3338 -1.2168  0.1952
 3237SOL     OW21169   3.133   2.044   8.033 -0.2846  0.4380  0.1724
 3237SOL    HW121170   3.070   2.112   8.057 -0.3082  1.5298 -3.0635
 3237SOL    HW221171   3.192   2.057   8.107  0.9706 -1.0325 -0.5641
 3238SOL     OW21172   1.797   2.123   2.095  0.0407 -0.7886  0.2976
 3238SOL    HW121173   1.857   2.058   2.059 -0.5434 -1.4170  0.4642
 3238SOL    HW221174   1.724   2.070   2.126 -0.5175 -0.3405 -0.2569
 3239SOL     OW21175   1.508   2.195   8.120 -0.2836 -0.7858 -0.2193
 3239SOL    HW121176   1.426   2.146   8.129 -1.7319  1.6435 -0.2551
 3239SOL    HW221177   1.543   2.152   8.042  1.7697  0.8816 -0.2224
 3240SOL     OW21178   4.068   2.654  14.518 -0.1469  0.3837 -0.6877
 3240SOL    HW121179   4.114   2.580  14.478 -1.7682 -0.4564 -1.0333
 3240SOL    HW221180   4.129   2.726  14.511  0.8681 -0.3855  0.2166
 3241SOL     OW21181   0.686   2.477   4.739 -0.0336  0.4460 -0.2836
 3241SOL    HW121182   0.702   2.513   4.652  1.3466 -0.3797 -0.3728
 3241SOL    HW221183   0.590   2.471   4.747 -0.1655  1.9221 -0.8617
 3242SOL     OW21184   1.920   2.089  17.401  0.2145 -0.1837  0.3106
 3242SOL    HW121185   1.924   2.081  17.306  1.4908 -0.6352  0.3976
 3242SOL    HW221186   1.955   2.175  17.423  0.3831  0.0803 -1.0136
 3243SOL     OW21187   4.466   2.276   7.779 -0.0325 -0.7718  0.3236
 3243SOL    HW121188   4.546   2.228   7.755 -1.0161 -1.7383 -1.0325
 3243SOL    HW221189   4.416   2.207   7.823 -0.8667 -0.3566  0.0293
 3244SOL     OW21190   2.361   2.188   3.998  0.0250  0.4371 -0.4033
 3244SOL    HW121191   2.336   2.121   3.934  1.3454 -1.1664  0.7847
 3244SOL    HW221192   2.318   2.157   4.077  1.1555  1.9893  0.8064
 3245SOL     OW21193   3.417   1.325   5.950 -0.4731  0.0864  0.1084
 3245SOL    HW121194   3.409   1.263   5.877  0.4547 -1.1958  1.1107
 3245SOL    HW221195   3.450   1.404   5.908 -0.5984 -0.9332 -1.9515
 3246SOL     OW21196   0.275   2.777   0.513  0.2484 -0.5718 -0.1480
 3246SOL    HW121197   0.194   2.799   0.466  0.9920  0.5650 -0.9081
 3246SOL    HW221198   0.242   2.721   0.583 -1.5943  0.5884 -0.0844
 3247SOL     OW21199   4.498   2.925  15.038 -0.4284  0.4141  0.1395
 3247SOL    HW121200   4.477   3.017  15.048 -0.0845  0.4226  0.7722
 3247SOL    HW221201   4.505   2.916  14.943 -0.8780 -0.2099  0.1634
 3248SOL     OW21202   0.739   2.499  14.868  0.0897 -0.6323 -0.5613
 3248SOL    HW121203   0.769   2.413  14.899  0.8953 -0.1762 -0.0807
 3248SOL    HW221204   0.726   2.490  14.774  1.6367  1.9351 -1.0299
 3249SOL     OW21205   4.421   1.711   4.435 -0.4156  0.0411  0.2828
 3249SOL    HW121206   4.327   1.693   4.436  0.0806 -2.6460 -1.9722
 3249SOL    HW221207   4.441   1.720   4.341  0.3523 -3.7520  0.0967
 3250SOL     OW21208   1.289   0.526   7.128 -0.2676  0.4911 -0.6602
 3250SOL    HW121209   1.365   0.544   7.184 -0.8399  0.7957  0.0115
 3250SOL    HW221210   1.246   0.448   7.162 -3.0836  1.2277 -2.5576
 3251SOL     OW21211   2.274   0.171   6.223  0.1035  0.3168  0.1005
 3251SOL    HW121212   2.281   0.185   6.129  1.4447 -1.8074 -0.1255
 3251SOL    HW221213   2.354   0.125   6.249  1.0095  1.2475 -1.0324
 3252SOL     OW21214   0.256   2.610   8.477 -0.3510  0.0701  0.4475
 3252SOL    HW121215   0.225   2.611   8.568  0.6509 -1.8472  0.7993
 3252SOL    HW221216   0.226   2.697   8.450  0.4213  0.3542  0.4771
 3253SOL     OW21217   1.314   4.703   9.165  0.3861  0.2513 -0.2658
 3253SOL    HW121218   1.247   4.640   9.139 -1.4109  2.0786 -0.0130
 3253SOL    HW221219   1.309   0.038   9.092 -0.5412  0.3693 -0.0929
 3254SOL     OW21220   1.886   3.253   6.112 -0.3858  0.0312 -0.1948
 3254SOL    HW121221   1.943   3.217   6.180 -0.4533  0.0861 -0.1082
 3254SOL    HW221222   1.923   3.329   6.066 -1.0530  0.3696 -0.1729
 3255SOL     OW21223   4.455   1.800  16.670  0.4400 -0.0760 -0.0725
 3255SOL    HW121224   4.494   1.722  16.708 -0.8335  0.6824  2.8136
 3255SOL    HW221225   4.363   1.782  16.689 -0.2057  1.6970 -1.4594
 3256SOL     OW21226   4.084   1.525   9.049  0.0257 -0.7555 -0.5199
 3256SOL    HW121227   4.087   1.613   9.087 -0.9134 -1.1046  0.3571
 3256SOL    HW221228   4.165   1.525   8.998  0.5028  2.0622  0.2359
 3257SOL     OW21229   3.050   1.106   3.197 -0.3412 -0.5265  0.0714
 3257SOL    HW121230   3.100   1.180   3.164 -0.7390 -0.4438 -0.3446
 3257SOL    HW221231   3.120   1.070   3.251  0.0694 -1.8148 -1.3317
 3258SOL     OW21232   0.281   1.787   6.379  0.6284  0.3866 -0.1462
 3258SOL    HW121233   0.207   1.736   6.412 -0.2387  0.5339 -1.8142
 3258SOL    HW221234   0.314   1.740   6.302 -1.0630 -2.1203  0.6853
 3259SOL     OW21235   1.493   0.791   8.066 -0.7499 -0.1298  0.3139
 3259SOL    HW121236   1.447   0.763   8.145  2.9789 -3.0564  1.3901
 3259SOL    HW221237   1.524   0.877   8.096  1.9622 -1.1094  0.3398
 3260SOL     OW21238   2.089   4.201   6.831  0.0330  0.6757  0.3315
 3260SOL    HW121239   2.104   4.107   6.819  1.3948  0.5127  3.3318
 3260SOL    HW221240   2.085   4.238   6.743 -5.2769 -0.1836  0.1930
 3261SOL     OW21241   3.242   2.202   4.277 -0.1420  0.5375  0.6787
 3261SOL    HW121242   3.307   2.189   4.346 -0.0034  0.1763  0.4832
 3261SOL    HW221243   3.205   2.286   4.303 -0.1620  0.9648 -0.7331
 3262SOL     OW21244   0.839   3.900  10.839  0.1425 -0.1120 -0.2830
 3262SOL    HW121245   0.745   3.889  10.825 -0.0438 -1.5479  2.0654
 3262SOL    HW221246   0.868   3.809  10.850  2.3518  0.6958  0.6145
 3263SOL     OW21247   2.785   2.272  14.499 -0.1676 -1.2527  0.2805
 3263SOL    HW121248   2.880   2.284  14.502 -0.4124  0.0066  3.2052
 3263SOL    HW221249   2.778   2.235  14.411 -0.8391 -2.3767  0.8119
 3264SOL     OW21250   1.336   3.726  17.099 -0.0938 -0.1425  0.3438
 3264SOL    HW121251   1.369   3.674  17.026  0.1719 -0.5697  0.7685
 3264SOL    HW221252   1.397   3.799  17.090 -1.6560  0.9027 -1.6705
 3265SOL     OW21253   2.396   2.891   0.764  0.1110 -0.0803  0.1814
 3265SOL    HW121254   2.380   2.958   0.698 -0.9070 -0.7510 -0.2546
 3265SOL    HW221255   2.335   2.917   0.833  0.7510 -0.6699  0.9789
 3266SOL     OW21256   0.835   0.328   2.513  0.4893  0.1707 -0.3284
 3266SOL    HW121257   0.808   0.276   2.438  0.1237  0.7637 -0.6116
 3266SOL    HW221258   0.930   0.330   2.502  0.4609 -1.7731 -0.9096
 3267SOL     OW21259   0.231   1.457   4.412  0.2539  0.2456 -0.0389
 3267SOL    HW121260   0.298   1.521   4.387 -0.2097  0.8433  0.2581
 3267SOL    HW221261   0.166   1.483   4.347  2.1446 -0.7006 -2.3120
 3268SOL     OW21262   3.311   4.407  16.352  0.4573  0.0122  0.7544
 3268SOL    HW121263   3.263   4.335  16.313  1.5030 -0.4020  0.2153
 3268SOL    HW221264   3.258   4.422  16.430  0.0749 -0.2713  0.5507
 3269SOL     OW21265   3.383   2.097   0.877  0.5422 -0.4384  0.0315
 3269SOL    HW121266   3.365   2.190   0.872  0.4508 -0.5575 -1.8352
 3269SOL    HW221267   3.459   2.102   0.936  1.3049 -0.0512 -0.9976
 3270SOL     OW21268   1.289   1.978   8.829  0.0072 -0.1069 -0.2620
 3270SOL    HW121269   1.278   2.073   8.825  0.6554  0.1064  3.3664
 3270SOL    HW221270   1.208   1.957   8.784  0.6016  1.2800 -2.0011
 3271SOL     OW21271   1.659   1.925  11.063 -0.3845  0.2019  0.4502
 3271SOL    HW121272   1.720   1.971  11.005 -0.3429 -0.2578  0.1345
 3271SOL    HW221273   1.671   1.977  11.143  3.1749  0.9478 -0.5735
 3272SOL     OW21274   1.389   0.420   2.383  0.5931  0.0246 -0.4914
 3272SOL    HW121275   1.424   0.342   2.339  0.5439 -0.4513  0.3072
 3272SOL    HW221276   1.395   0.489   2.318  0.5224 -0.8883 -1.4721
 3273SOL     OW21277   0.671   1.664   0.365  0.3214 -0.1411  0.4319
 3273SOL    HW121278   0.688   1.574   0.339 -1.0540 -0.4205  0.4876
 3273SOL    HW221279   0.605   1.655   0.434 -0.3912 -0.8783 -0.3439
 3274SOL     OW21280   0.066   3.112   3.248 -0.1786  0.0265 -0.1466
 3274SOL    HW121281   0.085   3.204   3.231  1.9364 -0.0023  1.9542
 3274SOL    HW221282   0.016   3.091   3.169 -1.2546  0.2921  0.4556
 3275SOL     OW21283   4.396   0.073   7.754  0.1156  0.6602 -0.3823
 3275SOL    HW121284   4.353   0.127   7.688  3.7932  0.8999 -2.5520
 3275SOL    HW221285   4.476   0.125   7.756  0.6328 -0.0766 -2.1783
 3276SOL     OW21286   0.887   3.670  16.122  1.0048 -0.8261 -0.3703
 3276SOL    HW121287   0.895   3.576  16.139 -0.6342 -0.5124  2.1995
 3276SOL    HW221288   0.962   3.691  16.068  1.1607  0.2587  0.2711
 3277SOL     OW21289   4.657   1.493   9.087 -0.1022 -0.4125 -0.3360
 3277SOL    HW121290   0.006   1.532   9.132 -1.4251  0.5230  1.0924
 3277SOL    HW221291   4.684   1.512   8.997 -0.8072  1.0247 -0.2454
 3278SOL     OW21292   1.602   0.464  16.570 -0.6139 -0.0989 -0.3724
 3278SOL    HW121293   1.632   0.552  16.547  0.0480  0.3799  2.3067
 3278SOL    HW221294   1.572   0.481  16.660  0.9282 -0.5551  0.2284
 3279SOL     OW21295   2.213   1.917   5.409 -0.3836  0.3546  0.4380
 3279SOL    HW121296   2.222   2.005   5.371  2.5540 -0.2192 -0.1559
 3279SOL    HW221297   2.215   1.929   5.504 -1.7400 -2.0981  0.7624
 3280SOL     OW21298   4.240   0.240   7.626 -0.1894  0.4359 -0.0734
 3280SOL    HW121299   4.221   0.329   7.657 -0.2368  0.4882 -0.2581
 3280SOL    HW221300   4.156   0.198   7.612  0.4418  0.3360 -3.3943
 3281SOL     OW21301   4.431   3.335   2.559  0.7119 -0.5476 -0.9589
 3281SOL    HW121302   4.452   3.410   2.503  1.5436  0.0501  0.1610
 3281SOL    HW221303   4.336   3.339   2.573  1.0642  1.5468  0.7740
 3282SOL     OW21304   4.292   2.979   4.353  0.1093 -0.6890  0.1385
 3282SOL    HW121305   4.302   2.884   4.365  1.4248 -0.9759 -3.0682
 3282SOL    HW221306   4.272   2.985   4.260 -0.6965  1.9249  0.5018
 3283SOL     OW21307   2.229   4.541  10.184 -0.6683  0.0911  0.3157
 3283SOL    HW121308   2.314   4.556  10.227 -0.6288 -0.9413  0.6074
 3283SOL    HW221309   2.196   4.464  10.231  0.0758 -0.5998 -0.2720
 3284SOL     OW21310   0.710   0.195   7.275  0.0241  0.3326 -0.1292
 3284SOL    HW121311   0.616   0.186   7.261  0.0843 -0.3664 -0.1174
 3284SOL    HW221312   0.715   0.290   7.273 -2.6974  0.4741 -0.6892
 3285SOL     OW21313   0.944   0.373   6.454  0.1735 -0.1283  0.5767
 3285SOL    HW121314   1.033   0.385   6.421  0.3143  1.1415  1.4029
 3285SOL    HW221315   0.885   0.411   6.388 -2.2746 -2.4804  1.4227
 3286SOL     OW21316   0.238   2.233   2.566  0.1205 -0.4843  0.1328
 3286SOL    HW121317   0.274   2.203   2.649  1.8928  2.3170  0.3947
 3286SOL    HW221318   0.197   2.315   2.593 -0.3101  0.0554 -2.0912
 3287SOL     OW21319   3.911   1.780   8.897 -0.0994  0.8119  0.0064
 3287SOL    HW121320   3.984   1.784   8.959 -0.7333 -1.7033  0.9185
 3287SOL    HW221321   3.902   1.874   8.881  2.0507  0.7345 -1.7042
 3288SOL     OW21322   1.642   1.110   3.874 -0.1272  0.6419  0.7413
 3288SOL    HW121323   1.640   1.014   3.875  1.2815  0.5645 -3.7109
 3288SOL    HW221324   1.559   1.131   3.915  0.1633 -1.1563  2.2668
 3289SOL     OW21325   1.348   3.919   8.849 -0.6488 -0.1246  0.3828
 3289SOL    HW121326   1.297   3.979   8.903 -2.0336 -0.3272 -0.6690
 3289SOL    HW221327   1.422   3.896   8.905 -0.2705 -1.6438 -0.7370
 3290SOL     OW21328   3.760   3.400  11.932  0.6174 -0.0978 -0.3500
 3290SOL    HW121329   3.714   3.427  11.852  1.7094 -0.5964 -1.1425
 3290SOL    HW221330   3.793   3.482  11.967  0.4049 -1.0403  2.0273
 3291SOL     OW21331   0.385   1.924  12.093 -0.0191 -0.1339  0.4504
 3291SOL    HW121332   0.447   1.918  12.166 -1.3956 -1.3233  1.5316
 3291SOL    HW221333   0.380   2.019  12.082 -0.1991 -0.1832  0.1317
 3292SOL     OW21334   0.170   3.420   4.013  0.4364  0.3181 -0.0724
 3292SOL    HW121335   0.237   3.489   4.013  1.4120 -0.6151 -0.7204
 3292SOL    HW221336   0.220   3.345   4.047  0.8409  2.3281  3.6738
 3293SOL     OW21337   3.582   1.907   6.219  0.0481  0.1837  0.3327
 3293SOL    HW121338   3.535   1.827   6.245 -0.4435 -0.3247 -2.0284
 3293SOL    HW221339   3.518   1.934   6.153  0.3756  0.9162  0.3236
 3294SOL     OW21340   2.725   1.467   6.471 -0.1101  0.3434  0.5051
 3294SOL    HW121341   2.666   1.496   6.541  0.2245  2.6117 -0.1382
 3294SOL    HW221342   2.813   1.494   6.498 -0.7639  3.5793 -0.6393
 3295SOL     OW21343   2.511   0.239   8.692 -0.0383  0.9056  0.6480
 3295SOL    HW121344   2.500   0.322   8.739  0.3154  1.6027 -0.5050
 3295SOL    HW221345   2.531   0.175   8.761 -2.7290 -0.2445  0.3561
 3296SOL     OW21346   4.395   3.831   0.699 -0.0624 -0.4014  0.1814
 3296SOL    HW121347   4.435   3.917   0.710  1.1814 -0.5607 -2.9212
 3296SOL    HW221348   4.465   3.793   0.751 -0.0712 -0.9515 -0.2094
 3297SOL     OW21349   3.129   1.117   7.349  0.8239  0.0111 -0.2369
 3297SOL    HW121350   3.043   1.132   7.309  0.3196  0.4654  1.0140
 3297SOL    HW221351   3.112   1.037   7.399  1.3508  1.4554  2.2858
 3298SOL     OW21352   2.044   2.328   6.921  0.1757  0.7946 -0.0932
 3298SOL    HW121353   2.102   2.253   6.906 -0.0501  0.8910 -1.4129
 3298SOL    HW221354   1.961   2.301   6.884  0.4793  0.4665 -0.5333
 3299SOL     OW21355   0.460   1.088   8.099 -0.1574 -0.6101  0.0932
 3299SOL    HW121356   0.530   1.151   8.083 -1.0918  0.1238 -1.0677
 3299SOL    HW221357   0.412   1.132   8.169 -1.8875  1.1103 -2.2004
 3300SOL     OW21358   2.788   0.448   6.003  0.0831  0.2935  0.0865
 3300SOL    HW121359   2.785   0.485   5.915  0.7010 -0.4516 -0.2472
 3300SOL    HW221360   2.790   0.354   5.982  1.6768  0.6171 -1.1787
 3301SOL     OW21361   2.696   0.616   7.482  0.1520  0.1935 -0.4536
 3301SOL    HW121362   2.726   0.651   7.399  0.8645  0.3061 -0.1517
 3301SOL    HW221363   2.779   0.594   7.525 -0.3078  0.2279  0.4555
 3302SOL     OW21364   4.183   0.963  16.808 -0.0507  0.3353  0.1764
 3302SOL    HW121365   4.207   1.001  16.724  3.8661 -0.5897  0.8782
 3302SOL    HW221366   4.143   1.034  16.859  2.2902  1.5664  0.2790
 3303SOL     OW21367   0.664   0.324   9.911  0.4298 -0.3297 -0.4061
 3303SOL    HW121368   0.739   0.287   9.957 -0.9388 -3.2737 -0.5635
 3303SOL    HW221369   0.637   0.387   9.978  2.8990  0.1583  0.1363
 3304SOL     OW21370   0.917   2.057   1.686  0.1880  0.2562 -0.1038
 3304SOL    HW121371   0.831   2.096   1.671  0.5615  1.0919 -0.0819
 3304SOL    HW221372   0.940   2.031   1.597 -0.1355  1.4946 -0.5450
 3305SOL     OW21373   0.903   3.608   0.080 -0.3972  0.2477  0.3994
 3305SOL    HW121374   0.850   3.530   0.095 -1.0856 -0.0421 -3.6517
 3305SOL    HW221375   0.858   3.672   0.136 -1.9623 -0.5552  0.0496
 3306SOL     OW21376   0.364   3.513   5.014 -0.2441  0.3232  0.6803
 3306SOL    HW121377   0.292   3.452   5.025 -0.2238 -0.1352 -1.7009
 3306SOL    HW221378   0.354   3.565   5.094 -0.5077 -0.0998  0.9205
 3307SOL     OW21379   2.535   2.686  17.033  0.1927  0.0518  0.2364
 3307SOL    HW121380   2.525   2.742  17.110  2.7993  0.6671  0.1465
 3307SOL    HW221381   2.480   2.718  16.961  1.9519  2.3916 -0.0574
 3308SOL     OW21382   3.516   1.105   2.042  0.4700  0.1879  0.0883
 3308SOL    HW121383   3.485   1.016   2.062  0.1636 -0.2894 -2.4285
 3308SOL    HW221384   3.611   1.111   2.050  0.8711 -2.0258 -2.8410
 3309SOL     OW21385   2.493   0.496  15.088  0.6730  0.4579  0.5025
 3309SOL    HW121386   2.449   0.465  15.009  2.4327 -1.0725  0.1115
 3309SOL    HW221387   2.499   0.418  15.144 -3.0749  0.1593  0.5023
 3310SOL     OW21388   0.934   3.004  13.105  0.6409 -0.4535  0.0495
 3310SOL    HW121389   0.905   2.912  13.097 -2.2975  0.4199  0.6105
 3310SOL    HW221390   0.996   3.010  13.033 -0.9965 -0.0909 -1.3449
 3311SOL     OW21391   1.732   4.239  10.666 -0.4845 -0.6875 -0.3592
 3311SOL    HW121392   1.737   4.213  10.574  1.5434 -0.7342 -0.2475
 3311SOL    HW221393   1.729   4.333  10.646  0.4818 -0.4255  0.6821
 3312SOL     OW21394   1.852   4.201   8.870 -0.2480  0.1603 -0.3443
 3312SOL    HW121395   1.934   4.247   8.891  0.6587 -1.4922 -0.2012
 3312SOL    HW221396   1.845   4.147   8.949 -1.2431 -0.0037 -0.5437
 3313SOL     OW21397   1.777   3.523  13.684  0.4990 -0.0748  0.0704
 3313SOL    HW121398   1.782   3.528  13.780  0.5931 -0.1398  0.0691
 3313SOL    HW221399   1.759   3.431  13.664  0.3670 -0.1888  0.7100
 3314SOL     OW21400   0.710   4.378  12.920  0.6038  0.3823  0.6003
 3314SOL    HW121401   0.660   4.420  12.850 -1.8454 -2.9576  0.3691
 3314SOL    HW221402   0.749   4.457  12.958 -0.5302  0.7611  0.9792
 3315SOL     OW21403   1.332   2.907   4.741 -0.0655  0.2530  0.2905
 3315SOL    HW121404   1.311   2.907   4.648 -1.9568 -1.6945  0.7197
 3315SOL    HW221405   1.255   2.862   4.777 -0.7409 -0.1531 -1.6712
 3316SOL     OW21406   4.195   1.010   2.442 -0.5693 -0.2667  0.7005
 3316SOL    HW121407   4.110   1.051   2.423  0.0695  1.6372  1.9902
 3316SOL    HW221408   4.235   1.048   2.364 -1.2562  0.9049  0.9126
 3317SOL     OW21409   3.453   2.590   8.888 -0.3973 -0.4649  0.8068
 3317SOL    HW121410   3.510   2.665   8.899  0.6115 -1.2801  1.0874
 3317SOL    HW221411   3.484   2.525   8.951 -0.8738  1.1001  2.6693
 3318SOL     OW21412   3.268   2.434  13.231  0.0540 -0.7260  0.0392
 3318SOL    HW121413   3.347   2.382  13.244 -0.8364 -2.1535 -0.2823
 3318SOL    HW221414   3.197   2.379  13.263 -0.2594 -0.4492 -0.1736
 3319SOL     OW21415   1.056   3.938   7.088  0.0136  0.4215  0.2578
 3319SOL    HW121416   1.096   3.851   7.097  0.2731  0.4685 -0.4520
 3319SOL    HW221417   1.107   3.997   7.143 -0.0467  2.3120 -1.6926
 3320SOL     OW21418   2.370   3.171  10.322  0.3870 -0.1751 -0.0908
 3320SOL    HW121419   2.382   3.127  10.406 -0.4346 -1.6252 -0.7283
 3320SOL    HW221420   2.369   3.100  10.257 -1.1151 -1.3045  1.1402
 3321SOL     OW21421   3.540   3.924   7.771 -0.2302  0.5860 -0.2692
 3321SOL    HW121422   3.620   3.952   7.816 -1.0418 -0.1388  1.6491
 3321SOL    HW221423   3.561   3.845   7.720 -1.4719  0.7590 -1.0281
 3322SOL     OW21424   0.677   3.767   3.671 -0.0771  0.4894  0.7835
 3322SOL    HW121425   0.673   3.723   3.585 -2.0034 -0.7046  1.4851
 3322SOL    HW221426   0.598   3.821   3.669  0.1231  0.8433  3.0720
 3323SOL     OW21427   0.073   2.493   3.232  0.0161  0.2454 -0.0566
 3323SOL    HW121428   0.162   2.498   3.266  0.5223 -0.8278 -1.2758
 3323SOL    HW221429   0.038   2.582   3.229  1.1368  0.7290  1.0510
 3324SOL     OW21430   4.035   2.165   6.328 -0.1478  0.4910  0.6273
 3324SOL    HW121431   3.945   2.190   6.349 -0.4578  0.3801 -0.6038
 3324SOL    HW221432   4.037   2.079   6.370  2.1510 -0.6450 -1.7966
 3325SOL     OW21433   3.941   3.480   2.366 -0.8108 -0.0881  0.2958
 3325SOL    HW121434   3.937   3.385   2.368 -3.4055 -0.0419 -2.1503
 3325SOL    HW221435   3.981   3.490   2.452 -1.1177  3.0134  0.0972
 3326SOL     OW21436   3.893   3.709  15.345 -0.0026  0.2577  0.4441
 3326SOL    HW121437   3.861   3.748  15.426 -0.8931  2.8498 -1.1320
 3326SOL    HW221438   3.871   3.617  15.359  0.3880  0.0623 -0.2157
 3327SOL     OW21439   2.154   3.085   7.831 -0.1756 -0.0840  0.1066
 3327SOL    HW121440   2.234   3.075   7.882 -1.0448 -0.8515  1.3186
 3327SOL    HW221441   2.120   3.156   7.886 -1.8725 -0.8933  0.0775
 3328SOL     OW21442   3.085   2.127   0.702 -0.0861  0.6557  0.5005
 3328SOL    HW121443   3.065   2.078   0.781 -0.5962 -0.8157 -0.5227
 3328SOL    HW221444   3.022   2.094   0.637  1.0306 -1.1601  0.3361
 3329SOL     OW21445   1.496   4.325   1.992  0.2655 -0.0430  0.1487
 3329SOL    HW121446   1.551   4.296   2.064 -0.6297 -1.5238  0.2216
 3329SOL    HW221447   1.414   4.351   2.035 -0.2842 -1.0544 -0.2978
 3330SOL     OW21448   0.160   3.841   4.075 -1.0823  0.0024  0.6529
 3330SOL    HW121449   0.131   3.913   4.130 -0.2823 -0.5332  1.7802
 3330SOL    HW221450   0.199   3.780   4.138 -1.3449 -0.7056  0.1396
 3331SOL     OW21451   0.729   2.122   9.179 -0.1871 -0.4382 -0.4396
 3331SOL    HW121452   0.668   2.143   9.251 -0.1559 -1.4542 -0.1117
 3331SOL    HW221453   0.810   2.115   9.229 -0.7179  1.1474  0.6526
 3332SOL     OW21454   3.403   0.342  10.162  0.0073 -0.4713  0.1763
 3332SOL    HW121455   3.492   0.360  10.191 -0.0012 -0.6891  0.3403
 3332SOL    HW221456   3.352   0.352  10.243 -0.3829 -1.2098  0.0247
 3333SOL     OW21457   1.058   4.042   3.103  0.2452 -0.1335 -0.2601
 3333SOL    HW121458   0.992   3.975   3.084 -0.5249  0.2849  0.9493
 3333SOL    HW221459   1.117   3.983   3.151  1.2972  2.3719  1.4971
 3334SOL     OW21460   4.294   3.879   3.298  0.2439  0.8224 -0.4297
 3334SOL    HW121461   4.237   3.949   3.329 -1.9892 -0.4565 -1.6990
 3334SOL    HW221462   4.232   3.827   3.247 -0.6074  1.1505  0.2759
 3335SOL     OW21463   3.653   2.611   8.309  0.1367 -0.6894 -0.6140
 3335SOL    HW121464   3.642   2.670   8.382 -0.3464 -0.6077 -0.7567
 3335SOL    HW221465   3.742   2.576   8.314  0.6003  0.6426  0.4169
 3336SOL     OW21466   3.507   3.071   8.833 -0.0363  0.1781  0.1620
 3336SOL    HW121467   3.504   3.136   8.903 -3.7625  0.3519 -0.1332
 3336SOL    HW221468   3.441   3.017   8.877  0.7307 -1.5274 -0.7984
 3337SOL     OW21469   2.168   1.924   3.262  0.4382  0.5200  0.1266
 3337SOL    HW121470   2.122   2.007   3.250 -0.1263  0.4575  1.8408
 3337SOL    HW221471   2.099   1.859   3.276  0.5026  0.8155  1.8683
 3338SOL     OW21472   4.477   1.185   2.187 -1.0604  0.7377  0.1356
 3338SOL    HW121473   4.505   1.193   2.096  0.4519 -3.0991  0.2568
 3338SOL    HW221474   4.558   1.190   2.236 -0.1145 -0.3560 -1.3159
 3339SOL     OW21475   2.698   4.527   3.463  0.1482 -0.1760 -0.7435
 3339SOL    HW121476   2.695   4.544   3.557  0.1271 -0.6047 -0.6664
 3339SOL    HW221477   2.793   4.532   3.449 -0.1254  2.2797 -1.8291
 3340SOL     OW21478   2.304   4.630   7.279 -0.1765 -0.4704  0.0929
 3340SOL    HW121479   2.370   4.658   7.343 -0.5134 -1.3499  0.8150
 3340SOL    HW221480   2.315   4.535   7.280 -2.3420 -0.7000  1.3560
 3341SOL     OW21481   2.333   3.563   2.633  0.2850 -0.0585  0.7813
 3341SOL    HW121482   2.406   3.625   2.625  0.3860 -0.3964 -0.9412
 3341SOL    HW221483   2.262   3.603   2.583  0.2048 -0.5451  0.5015
 3342SOL     OW21484   1.740   3.611   2.971 -0.1181  0.0959  0.4357
 3342SOL    HW121485   1.836   3.605   2.962 -0.0489  0.8881  0.6248
 3342SOL    HW221486   1.729   3.528   2.926 -1.9488  0.0670  0.9656
 3343SOL     OW21487   0.326   4.289   8.579 -0.3201 -0.8596 -0.4785
 3343SOL    HW121488   0.329   4.309   8.486  2.9245 -4.0521 -1.0547
 3343SOL    HW221489   0.234   4.310   8.598  0.1985  0.8189  0.2132
 3344SOL     OW21490   1.130   3.854   8.368  0.4547  0.2003 -0.2198
 3344SOL    HW121491   1.096   3.870   8.456  0.9921  1.3018 -0.2094
 3344SOL    HW221492   1.085   3.773   8.343  1.2661  0.3441 -2.1419
 3345SOL     OW21493   1.125   0.159   8.765 -0.2298  0.2804 -0.5208
 3345SOL    HW121494   1.103   0.076   8.807  0.0411  0.4313 -0.0857
 3345SOL    HW221495   1.146   0.212   8.842  0.5575 -2.4920  1.2013
 3346SOL     OW21496   3.517   0.822   4.203  0.3410  0.4201 -0.3095
 3346SOL    HW121497   3.488   0.739   4.243  1.0071  1.0176  1.3872
 3346SOL    HW221498   3.532   0.786   4.115 -0.1746  1.8049 -0.9534
 3347SOL     OW21499   4.563   3.534   5.935  0.2193 -0.2582  0.0160
 3347SOL    HW121500   4.521   3.530   6.020 -1.4026 -0.7775 -0.8072
 3347SOL    HW221501   4.653   3.561   5.956  0.9735 -0.5278 -2.8055
 3348SOL     OW21502   2.570   0.718   6.858  0.0769 -0.4087  0.3092
 3348SOL    HW121503   2.582   0.782   6.789 -0.4734  1.3265  1.8308
 3348SOL    HW221504   2.537   0.776   6.927 -0.5271 -0.1286 -0.2207
 3349SOL     OW21505   3.457   0.202   7.663  0.1020  0.5710 -0.2605
 3349SOL    HW121506   3.363   0.217   7.650  0.0320 -0.3317 -0.8094
 3349SOL    HW221507   3.474   0.260   7.737  0.2609  0.9564 -0.5980
 3350SOL     OW21508   3.267   2.456   7.245 -0.1551  0.2057 -0.7826
 3350SOL    HW121509   3.221   2.535   7.216  0.9423  1.8242  1.8274
 3350SOL    HW221510   3.305   2.484   7.329 -0.3103 -0.2074 -0.5779
 3351SOL     OW21511   1.132   0.071  14.389  0.0590  0.1705 -0.2611
 3351SOL    HW121512   1.098   0.022  14.464 -1.0986 -0.5419 -1.2574
 3351SOL    HW221513   1.226   0.055  14.389 -0.5502 -3.3192 -1.5185
 3352SOL     OW21514   0.719   0.537   4.835 -0.3362 -0.1086 -0.4332
 3352SOL    HW121515   0.669   0.499   4.762  0.1888  1.6392 -1.7170
 3352SOL    HW221516   0.729   0.456   4.885  0.7435  0.9495  1.0523
 3353SOL     OW21517   2.537   0.857   1.909  0.1219 -1.2104  0.3809
 3353SOL    HW121518   2.591   0.934   1.890 -0.4518 -1.5861 -2.8659
 3353SOL    HW221519   2.517   0.826   1.821 -0.1982 -0.4565  0.1909
 3354SOL     OW21520   1.673   0.090  17.545 -0.2357 -0.4977  0.1385
 3354SOL    HW121521   1.696   0.032  17.617 -0.1807  1.1730  1.4636
 3354SOL    HW221522   1.756   0.137  17.549  0.0277 -1.0059  0.5540
 3355SOL     OW21523   0.973   1.828   1.884 -0.1973 -0.0930 -0.1141
 3355SOL    HW121524   0.943   1.917   1.865  0.8763  0.7953  2.2765
 3355SOL    HW221525   0.980   1.803   1.792 -1.2133 -0.3829 -0.1132
 3356SOL     OW21526   4.553   2.428   3.434 -0.0844  0.5625  0.8312
 3356SOL    HW121527   4.469   2.415   3.479 -1.0769 -0.9321 -1.4804
 3356SOL    HW221528   4.548   2.521   3.412  0.9026  0.3634 -0.2289
 3357SOL     OW21529   0.137   2.445  13.657  0.3741 -0.0671  0.1118
 3357SOL    HW121530   0.050   2.449  13.697 -0.1850  1.7926 -1.2859
 3357SOL    HW221531   0.173   2.362  13.688  0.1595  0.0244  0.6097
 3358SOL     OW21532   0.435   3.351   4.687  0.0690 -0.6391 -0.3271
 3358SOL    HW121533   0.516   3.310   4.718  0.6153 -0.3365 -1.3417
 3358SOL    HW221534   0.390   3.282   4.639  0.1452 -0.0126 -1.2998
 3359SOL     OW21535   1.725   1.819   0.488  0.3404 -0.1869 -0.1387
 3359SOL    HW121536   1.695   1.896   0.439 -0.1979 -0.8301 -0.8296
 3359SOL    HW221537   1.821   1.817   0.484  0.4261 -0.7979  2.2900
 3360SOL     OW21538   2.664   3.587   9.624  0.0514 -0.1211 -0.1118
 3360SOL    HW121539   2.587   3.635   9.655  0.4208  1.5411 -1.7407
 3360SOL    HW221540   2.737   3.641   9.654 -0.5723  1.0628 -0.7485
 3361SOL     OW21541   3.481   2.617  10.354  0.3919  0.6618 -0.3290
 3361SOL    HW121542   3.569   2.643  10.380  1.2034 -0.0296 -2.4077
 3361SOL    HW221543   3.432   2.584  10.430  2.1252 -2.0849 -0.3924
 3362SOL     OW21544   2.357   1.429   8.857 -0.1104 -0.0098 -0.2219
 3362SOL    HW121545   2.270   1.469   8.849  0.0665  0.2075 -1.0869
 3362SOL    HW221546   2.414   1.496   8.892 -0.9043  1.1552 -1.1678
 3363SOL     OW21547   1.583   1.294   8.875  0.4632  0.2308 -0.3835
 3363SOL    HW121548   1.592   1.228   8.806  3.0135  0.5107 -0.3334
 3363SOL    HW221549   1.542   1.360   8.819  0.1022 -0.3925 -0.8642
 3364SOL     OW21550   4.660   3.357   8.322  0.5488  0.2389 -0.0980
 3364SOL    HW121551   4.726   3.406   8.274  3.7943  0.1817  4.2085
 3364SOL    HW221552   4.711   3.279   8.347  1.0321 -0.2322 -2.5422
 3365SOL     OW21553   1.373   3.261  13.073 -0.3482 -0.2705 -0.0501
 3365SOL    HW121554   1.453   3.224  13.035 -0.7743 -0.3245 -0.8950
 3365SOL    HW221555   1.396   3.354  13.069 -1.2265 -0.1493 -2.2725
 3366SOL     OW21556   1.999   1.247  11.290 -0.5655 -0.2500  0.6491
 3366SOL    HW121557   1.921   1.302  11.292  0.8480  1.8399 -0.8590
 3366SOL    HW221558   2.050   1.295  11.355 -0.4732 -2.1775  1.9722
 3367SOL     OW21559   3.295   0.189   1.735 -0.4312  0.0430  0.1744
 3367SOL    HW121560   3.364   0.138   1.778  0.6071  0.3079 -1.1882
 3367SOL    HW221561   3.226   0.183   1.801 -3.2436 -2.9757 -3.0296
 3368SOL     OW21562   3.127   3.224   4.636  0.1975 -0.0195  0.0809
 3368SOL    HW121563   3.050   3.263   4.678 -2.6107 -2.5107 -2.8098
 3368SOL    HW221564   3.147   3.294   4.574 -0.3092 -0.2087 -0.2911
 3369SOL     OW21565   3.562   1.957   8.191  0.0087 -0.4631 -0.3279
 3369SOL    HW121566   3.561   2.027   8.125 -1.1710 -0.0843  0.0911
 3369SOL    HW221567   3.599   2.005   8.265 -2.0261  4.6954 -2.6080
 3370SOL     OW21568   4.265   0.342  10.687 -0.0202 -0.0459  0.1778
 3370SOL    HW121569   4.209   0.327  10.763 -1.7919  2.4479 -0.6531
 3370SOL    HW221570   4.286   0.254  10.654 -1.3881  0.6563 -2.5348
 3371SOL     OW21571   3.088   4.502  12.513  0.5845 -0.1231 -0.1088
 3371SOL    HW121572   3.175   4.477  12.484 -0.3949 -2.0766 -1.3155
 3371SOL    HW221573   3.086   4.597  12.530  2.0872 -0.1773  0.3921
 3372SOL     OW21574   0.434   4.138   2.214  0.3326  0.2026  0.5586
 3372SOL    HW121575   0.455   4.213   2.159 -1.3318  0.4756  0.3135
 3372SOL    HW221576   0.520   4.107   2.244  0.3583 -0.7296 -0.4608
 3373SOL     OW21577   0.688   4.336  16.747  0.3302  0.1430 -1.3938
 3373SOL    HW121578   0.663   4.345  16.656  1.7421  0.1886 -1.7822
 3373SOL    HW221579   0.752   4.265  16.748 -0.9560 -0.9851  0.6137
 3374SOL     OW21580   4.087   3.713   3.226  0.4458  0.0052  0.0395
 3374SOL    HW121581   4.057   3.742   3.140  1.8749 -2.2555 -1.2224
 3374SOL    HW221582   4.015   3.668   3.271  1.5159 -3.3565 -1.6481
 3375SOL     OW21583   0.019   4.403   9.407 -0.3036 -0.0801  0.1016
 3375SOL    HW121584   4.678   4.463   9.437  0.9142  1.7538 -0.8276
 3375SOL    HW221585   0.074   4.449   9.344 -1.4819  2.4313  0.9159
 3376SOL     OW21586   1.792   1.895   8.067 -0.4946 -0.1433 -0.2358
 3376SOL    HW121587   1.849   1.957   8.111  0.2761 -0.2164 -1.1222
 3376SOL    HW221588   1.718   1.947   8.034  1.8059  0.4372 -4.4796
 3377SOL     OW21589   2.662   3.091   8.954  0.4635  0.4854 -0.5786
 3377SOL    HW121590   2.693   3.028   9.018 -1.3389  0.8280  0.6663
 3377SOL    HW221591   2.645   3.173   9.002  0.7651  1.2868 -1.8348
 3378SOL     OW21592   3.301   1.337   4.083  0.4232 -0.1293  0.0967
 3378SOL    HW121593   3.281   1.245   4.066 -3.2697  0.6340  0.3239
 3378SOL    HW221594   3.388   1.341   4.042 -0.7675  3.7602 -2.0812
 3379SOL     OW21595   0.157   0.183  11.964  0.2876 -0.3366 -0.5641
 3379SOL    HW121596   0.101   0.243  11.915  0.8496  0.5267 -0.1562
 3379SOL    HW221597   0.226   0.165  11.900  0.6262 -2.2457  0.3197
 3380SOL     OW21598   0.663   3.456  12.083  0.5647  0.2070 -0.1318
 3380SOL    HW121599   0.625   3.457  11.995 -0.9149 -0.9636  0.4876
 3380SOL    HW221600   0.590   3.420  12.133 -0.2678  2.2056  0.0962
 3381SOL     OW21601   3.204   0.050   8.311  0.2161 -0.8529 -0.0526
 3381SOL    HW121602   3.147   0.123   8.336  2.1170  0.1202  1.4500
 3381SOL    HW221603   3.276   0.058   8.373 -0.0214  1.2169 -0.0352
 3382SOL     OW21604   1.216   1.481   9.468  0.5292  0.5645  0.2231
 3382SOL    HW121605   1.296   1.532   9.479  0.5888  0.7013 -0.8605
 3382SOL    HW221606   1.141   1.530   9.503 -0.6231 -0.7561 -0.3997
 3383SOL     OW21607   1.590   4.377  12.900 -0.1998 -0.4868  0.0638
 3383SOL    HW121608   1.571   4.438  12.971  1.9019 -1.1768  1.2201
 3383SOL    HW221609   1.648   4.320  12.950  2.4661  0.8585 -1.5039
 3384SOL     OW21610   0.155   0.170   9.198 -0.2579  0.3822  0.3319
 3384SOL    HW121611   0.220   0.182   9.266 -0.9746  1.1776  0.8763
 3384SOL    HW221612   0.203   0.144   9.119 -0.0698  0.4985  0.4077
 3385SOL     OW21613   4.723   2.228   2.768 -0.0479  0.2746 -0.0718
 3385SOL    HW121614   4.645   2.283   2.777 -0.4301  0.0966 -2.3962
 3385SOL    HW221615   0.018   2.222   2.861 -3.2942  2.8095  0.8449
 3386SOL     OW21616   1.607   3.552   1.674 -0.0268  0.2891  0.0713
 3386SOL    HW121617   1.578   3.634   1.635 -0.2746  0.5042  0.7000
 3386SOL    HW221618   1.695   3.573   1.705  0.2000 -1.6293  0.7243
 3387SOL     OW21619   4.605   3.721   5.668 -0.3204 -0.7279  0.3972
 3387SOL    HW121620   4.565   3.658   5.608 -1.3995 -0.2665  0.6345
 3387SOL    HW221621   4.676   3.669   5.704  0.0146 -1.2682 -1.0474
 3388SOL     OW21622   0.094   4.159   6.788 -0.2236  0.0543  0.5241
 3388SOL    HW121623   0.189   4.150   6.803  0.0217 -0.0133 -1.0224
 3388SOL    HW221624   0.054   4.101   6.853 -1.1668  1.0101  0.7780
 3389SOL     OW21625   3.464   2.204  15.100 -0.3048  0.0301 -0.4110
 3389SOL    HW121626   3.488   2.257  15.024  0.0986  3.5483  2.1483
 3389SOL    HW221627   3.384   2.243  15.133 -1.0119 -1.7798 -0.0056
 3390SOL     OW21628   2.104   1.010  16.566 -0.2709  0.1599 -0.2032
 3390SOL    HW121629   2.153   0.938  16.525 -0.1015 -0.2874  0.7723
 3390SOL    HW221630   2.138   1.012  16.656  1.6158 -1.7688 -0.8809
 3391SOL     OW21631   2.423   1.624   4.341 -0.6867  0.1440  0.4416
 3391SOL    HW121632   2.514   1.625   4.311 -1.5516 -1.5749 -2.2306
 3391SOL    HW221633   2.383   1.691   4.285 -1.3134 -0.8222 -0.2762
 3392SOL     OW21634   0.057   4.432  15.605 -0.1867  0.3038  0.3385
 3392SOL    HW121635   0.144   4.409  15.571 -1.0767 -0.5661 -1.3436
 3392SOL    HW221636   0.054   4.524  15.580  0.2768 -0.4615 -2.6082
 3393SOL     OW21637   1.159   1.572   1.232 -0.1087  0.1260  0.3578
 3393SOL    HW121638   1.251   1.581   1.256 -0.3752 -1.3893  1.8679
 3393SOL    HW221639   1.119   1.560   1.318 -1.7848 -1.5284 -0.6553
 3394SOL     OW21640   4.116   2.127   9.802 -0.2479  0.0472  0.1860
 3394SOL    HW121641   4.136   2.178   9.881  0.5634 -2.4533  1.6109
 3394SOL    HW221642   4.031   2.169   9.787  0.5250  0.0783 -3.8463
 3395SOL     OW21643   1.017   0.469  15.360 -0.6979 -0.2786  0.1009
 3395SOL    HW121644   0.951   0.489  15.293 -0.1205  2.2650  0.3158
 3395SOL    HW221645   1.085   0.530  15.331 -0.0869 -0.8266  0.3794
 3396SOL     OW21646   3.235   1.767   7.876  0.0836  0.6873  0.4730
 3396SOL    HW121647   3.303   1.724   7.823 -1.6257 -0.4741 -0.7845
 3396SOL    HW221648   3.286   1.789   7.954  0.3324  1.6139  0.0475
 3397SOL     OW21649   3.725   2.652   1.706  0.5721  0.2397  0.6432
 3397SOL    HW121650   3.713   2.619   1.617 -1.6737 -0.1692  1.0954
 3397SOL    HW221651   3.659   2.722   1.702 -0.4212 -0.7782 -0.6708
 3398SOL     OW21652   0.415   1.985   5.945 -0.0984 -0.0226  0.1593
 3398SOL    HW121653   0.475   2.049   5.984  0.0192  0.0826 -0.1917
 3398SOL    HW221654   0.482   1.923   5.914 -0.3896 -0.5687  0.6219
 3399SOL     OW21655   0.896   2.374   2.714 -0.2793  0.3562  0.1292
 3399SOL    HW121656   0.919   2.357   2.623 -0.5851  0.2928  0.0622
 3399SOL    HW221657   0.933   2.296   2.756  1.5805 -0.6558 -3.4200
 3400SOL     OW21658   2.853   0.429   3.019  0.4424 -0.2216 -0.0202
 3400SOL    HW121659   2.904   0.455   3.097  0.9655 -0.7342 -0.1910
 3400SOL    HW221660   2.762   0.431   3.048  1.0461  2.7435  1.7696
 3401SOL     OW21661   0.468   3.724   5.834 -0.0562 -0.1254  0.3072
 3401SOL    HW121662   0.398   3.700   5.773 -1.0942  0.8633  1.1289
 3401SOL    HW221663   0.447   3.662   5.904  2.0621 -2.1201 -0.8342
 3402SOL     OW21664   2.881   4.039  12.666 -0.4704 -0.1361 -0.0030
 3402SOL    HW121665   2.887   3.949  12.698 -2.5037  0.6244  2.5148
 3402SOL    HW221666   2.953   4.044  12.602 -0.8904  2.6473 -0.2136
 3403SOL     OW21667   3.504   0.510   7.054  0.3730 -0.1434  0.3887
 3403SOL    HW121668   3.413   0.500   7.081  0.5242 -0.2676  0.8513
 3403SOL    HW221669   3.559   0.478   7.125 -0.0693 -1.8343 -0.0181
 3404SOL     OW21670   3.668   2.041  15.191 -0.2116 -0.7605  0.5952
 3404SOL    HW121671   3.635   1.991  15.266 -0.7291 -0.2641  0.6945
 3404SOL    HW221672   3.593   2.100  15.182  0.0643 -0.8065 -1.9077
 3405SOL     OW21673   0.987   1.798   3.782  0.2334 -0.3454 -0.1768
 3405SOL    HW121674   1.077   1.817   3.811  0.6336 -2.8557  0.2209
 3405SOL    HW221675   0.977   1.703   3.785  0.4813 -0.3754 -0.3071
 3406SOL     OW21676   1.624   3.065  15.095  0.3364 -0.1912 -0.0070
 3406SOL    HW121677   1.613   3.038  15.003 -5.1735 -1.8694  1.1121
 3406SOL    HW221678   1.607   3.159  15.098  0.0939 -0.2024 -0.9753
 3407SOL     OW21679   2.182   2.554  11.898  0.1900 -0.7866 -0.6886
 3407SOL    HW121680   2.105   2.610  11.887 -0.6263 -1.4917  1.3656
 3407SOL    HW221681   2.249   2.617  11.924  0.5555 -0.6000 -2.0726
 3408SOL     OW21682   2.890   0.449   7.088  0.1930  0.3208 -0.0129
 3408SOL    HW121683   2.982   0.421   7.087  0.0128 -0.2569 -0.4419
 3408SOL    HW221684   2.834   0.375   7.111  0.4252 -0.0495 -0.6310
 3409SOL     OW21685   2.113   1.666   4.226  0.7258 -0.4112 -0.3722
 3409SOL    HW121686   2.086   1.693   4.313 -1.6235  1.2810 -1.6217
 3409SOL    HW221687   2.180   1.730   4.202  2.4305 -2.5881 -1.4416
 3410SOL     OW21688   4.237   2.454   9.789  0.6248 -0.1460  0.2413
 3410SOL    HW121689   4.164   2.448   9.851 -1.2866 -0.6394 -2.0027
 3410SOL    HW221690   4.278   2.368   9.798  2.6222  0.7608 -0.2307
 3411SOL     OW21691   3.273   0.828   2.739 -0.1390 -0.5028  0.1851
 3411SOL    HW121692   3.365   0.836   2.714 -0.8495  0.8744 -1.9947
 3411SOL    HW221693   3.277   0.862   2.829 -0.1086 -1.4320  0.5368
 3412SOL     OW21694   4.365   0.914   8.077  0.2645 -0.3139 -0.0136
 3412SOL    HW121695   4.291   0.903   8.018 -0.0118  0.4637  0.1883
 3412SOL    HW221696   4.371   0.839   8.136  0.4618  1.2735  2.0122
 3413SOL     OW21697   3.576   1.208   1.783  0.4304 -0.2186 -0.3862
 3413SOL    HW121698   3.549   1.155   1.858  0.0193 -2.9204 -2.4547
 3413SOL    HW221699   3.667   1.182   1.776  0.6665  0.4244  0.3110
 3414SOL     OW21700   1.095   0.963  10.923 -0.1066  0.5206 -0.0651
 3414SOL    HW121701   1.129   1.045  10.961  0.2217  0.4522 -0.2103
 3414SOL    HW221702   1.146   0.895  10.966 -2.1543 -1.4644 -0.8148
 3415SOL     OW21703   0.032   3.905  17.527  0.3862  0.3110 -0.3213
 3415SOL    HW121704   4.721   3.839  17.469  3.5029 -2.0969  0.3886
 3415SOL    HW221705   0.106   3.919  17.468  0.3714 -0.2371 -0.4683
 3416SOL     OW21706   3.690   0.507   4.647  0.1166  0.0854  0.3073
 3416SOL    HW121707   3.716   0.517   4.555 -0.1437 -1.7537  0.0375
 3416SOL    HW221708   3.599   0.480   4.635 -0.3852  0.1907  3.8560
 3417SOL     OW21709   0.139   3.359   3.222  0.5754  0.1173  0.3349
 3417SOL    HW121710   0.072   3.404   3.274  1.2147 -0.4188  1.6204
 3417SOL    HW221711   0.133   3.400   3.136 -1.7639 -0.9417 -0.0063
 3418SOL     OW21712   2.571   0.845   6.593  0.1074 -0.4720  0.1987
 3418SOL    HW121713   2.528   0.891   6.521  0.6654  0.1858  0.2847
 3418SOL    HW221714   2.663   0.856   6.569  0.5744 -1.0970  1.6901
 3419SOL     OW21715   4.582   4.593  12.807 -0.2838  0.0178 -0.4649
 3419SOL    HW121716   4.580   4.670  12.865 -1.0592  2.2585 -3.4802
 3419SOL    HW221717   4.671   4.606  12.776  0.6650 -3.1297  0.9333
 3420SOL     OW21718   4.604   3.926   8.296 -0.6630  0.0465  0.6529
 3420SOL    HW121719   4.649   3.984   8.357  1.3044 -0.8891  0.1336
 3420SOL    HW221720   4.513   3.941   8.318 -2.0671 -2.8265 -3.1356
 3421SOL     OW21721   1.170   4.449  12.299  0.4082  0.0135 -0.3181
 3421SOL    HW121722   1.224   4.433  12.376 -1.6546  0.8412  1.3294
 3421SOL    HW221723   1.136   4.366  12.266 -2.1109  1.1876 -0.6857
 3422SOL     OW21724   2.793   3.362  10.809 -0.7665 -0.3826  0.6372
 3422SOL    HW121725   2.708   3.362  10.766 -0.3000 -2.3922 -0.2778
 3422SOL    HW221726   2.843   3.402  10.738 -0.2434 -0.0290  1.2005
 3423SOL     OW21727   0.035   4.679   4.241 -0.6821  0.0334 -0.2008
 3423SOL    HW121728   0.004   4.700   4.153 -0.7011 -2.0077 -0.6985
 3423SOL    HW221729   0.112   0.009   4.247 -0.4932 -0.5545  2.9535
 3424SOL     OW21730   1.872   0.387  10.051 -0.0617 -0.5306  0.6403
 3424SOL    HW121731   1.870   0.410  10.144  2.8079  1.9200  0.0989
 3424SOL    HW221732   1.781   0.362  10.032  0.0358  0.9680 -1.6970
 3425SOL     OW21733   2.505   0.674  13.071  0.0393  0.2645  0.1333
 3425SOL    HW121734   2.516   0.664  12.977  1.6164  1.6805  0.1708
 3425SOL    HW221735   2.412   0.683  13.093 -0.8910  0.0183 -3.7380
 3426SOL     OW21736   0.237   0.923   8.022 -0.6867  0.2741 -0.4246
 3426SOL    HW121737   0.198   0.978   7.954  1.1487 -0.4438 -2.0859
 3426SOL    HW221738   0.327   0.905   7.993  0.0012  0.6635  1.4910
 3427SOL     OW21739   3.560   1.444   6.891  0.1665 -0.1927 -0.0536
 3427SOL    HW121740   3.470   1.429   6.919  0.2055 -0.5788 -0.1372
 3427SOL    HW221741   3.545   1.516   6.830 -0.1306 -0.7587 -0.6465
 3428SOL     OW21742   1.852   3.576   7.353  0.2720 -0.4793  0.1017
 3428SOL    HW121743   1.839   3.671   7.359 -0.6878 -0.5969 -0.1244
 3428SOL    HW221744   1.784   3.548   7.414 -0.4075  1.4168  0.1975
 3429SOL     OW21745   0.102   2.759  15.096  0.3378  0.3491  0.8958
 3429SOL    HW121746   0.020   2.719  15.125  0.8032 -1.1261  0.1665
 3429SOL    HW221747   0.130   2.806  15.174  2.1063 -0.4706  0.7452
 3430SOL     OW21748   0.785   3.670   7.661  0.5050 -0.1144 -0.2890
 3430SOL    HW121749   0.708   3.727   7.654  1.0872  0.5025 -1.5150
 3430SOL    HW221750   0.837   3.713   7.594  0.5182  0.1319 -0.1186
 3431SOL     OW21751   2.828   1.799   2.059 -0.1035 -0.0471  0.4809
 3431SOL    HW121752   2.761   1.787   1.992  0.8685 -1.9773 -0.1503
 3431SOL    HW221753   2.769   1.809   2.134 -0.6864  1.7821 -0.2241
 3432SOL     OW21754   1.247   3.569   0.653  0.1610 -0.0502 -0.0525
 3432SOL    HW121755   1.244   3.635   0.583 -1.1570  0.6691  0.6938
 3432SOL    HW221756   1.281   3.492   0.608  0.6585 -0.4212  0.9575
 3433SOL     OW21757   1.739   0.244   8.466  0.1506 -0.1274 -0.6343
 3433SOL    HW121758   1.666   0.277   8.414 -0.1611  0.9868  0.5356
 3433SOL    HW221759   1.797   0.197   8.406 -1.3009  0.7785 -2.7255
 3434SOL     OW21760   4.671   0.371   2.465  0.0070  0.2386  0.9173
 3434SOL    HW121761   4.725   0.309   2.515  2.0868  1.1954 -0.1484
 3434SOL    HW221762   4.675   0.447   2.523 -1.1751  0.7569  0.3197
 3435SOL     OW21763   0.966   3.637   1.895 -0.2721  0.0762 -0.0364
 3435SOL    HW121764   0.973   3.549   1.859 -0.2097 -0.8775  2.2606
 3435SOL    HW221765   0.919   3.616   1.976 -1.9589  1.8153 -0.5554
 3436SOL     OW21766   3.714   0.178  15.993 -0.1095 -0.1869  0.5799
 3436SOL    HW121767   3.705   0.110  16.059  0.7876 -0.6844  0.1915
 3436SOL    HW221768   3.710   0.258  16.045  1.9929  0.6064 -0.4543
 3437SOL     OW21769   4.112   3.325  16.271 -0.6379 -0.2431 -0.1520
 3437SOL    HW121770   4.122   3.273  16.351 -0.7313 -1.3521 -0.8628
 3437SOL    HW221771   4.092   3.264  16.200 -0.4534 -0.5883  0.0959
 3438SOL     OW21772   2.583   0.788   3.120  0.2784  0.1686  0.8239
 3438SOL    HW121773   2.548   0.875   3.105  0.2231 -0.1080 -0.6734
 3438SOL    HW221774   2.561   0.741   3.039 -1.1953  1.0152  0.7378
 3439SOL     OW21775   3.037   0.987  15.732 -0.2234  0.1527  0.0945
 3439SOL    HW121776   3.073   0.918  15.676 -0.7184 -1.1711  1.3956
 3439SOL    HW221777   2.942   0.972  15.732 -0.2444  0.3080  1.0728
 3440SOL     OW21778   4.250   0.793   6.633  0.1065  0.4854  0.6400
 3440SOL    HW121779   4.184   0.724   6.645  1.9729 -1.6017 -0.8864
 3440SOL    HW221780   4.263   0.783   6.539  1.9568 -0.3093  0.9810
 3441SOL     OW21781   4.140   0.692   2.614 -0.0364 -0.5774  0.1261
 3441SOL    HW121782   4.072   0.636   2.577 -1.3877 -0.6665  2.7636
 3441SOL    HW221783   4.091   0.761   2.660  0.3319 -0.2182 -0.0250
 3442SOL     OW21784   0.305   1.515   8.148 -0.0978 -0.1532 -0.3802
 3442SOL    HW121785   0.221   1.501   8.192 -0.6539  1.7337 -0.8857
 3442SOL    HW221786   0.286   1.509   8.054  1.9597 -0.4212 -0.7911
 3443SOL     OW21787   2.040   3.614   7.954  0.4547 -0.2741  0.0830
 3443SOL    HW121788   2.046   3.688   8.015  0.9286 -1.3620  1.3327
 3443SOL    HW221789   1.960   3.626   7.903  0.1656 -0.2006  0.5503
 3444SOL     OW21790   0.051   0.669   1.858 -0.2081 -0.2771  0.5289
 3444SOL    HW121791   0.072   0.745   1.805 -1.0746 -0.7669 -0.5175
 3444SOL    HW221792   0.050   0.704   1.947  2.0140 -1.1570  0.9311
 3445SOL     OW21793   3.257   2.315   5.366 -0.0210  0.4260 -0.5380
 3445SOL    HW121794   3.181   2.368   5.343  1.2760  2.1121 -0.9197
 3445SOL    HW221795   3.249   2.247   5.300  0.6743  0.1686 -0.3530
 3446SOL     OW21796   2.601   2.128   7.450 -0.5839 -0.3764 -0.3390
 3446SOL    HW121797   2.630   2.092   7.534 -1.7634  0.4369  0.4280
 3446SOL    HW221798   2.687   2.153   7.416 -0.4616 -2.5652 -1.5759
 3447SOL     OW21799   4.333   0.382  12.790 -0.4438  0.0273 -0.2554
 3447SOL    HW121800   4.281   0.305  12.769  0.1129  0.4603 -3.2358
 3447SOL    HW221801   4.360   0.358  12.879  1.3120  1.5210 -0.3896
 3448SOL     OW21802   1.333   3.075   8.281  0.2072 -0.3431  0.1674
 3448SOL    HW121803   1.370   3.059   8.195 -1.2642  1.3486 -0.7780
 3448SOL    HW221804   1.405   3.039   8.333  1.8359  0.4374 -1.5591
 3449SOL     OW21805   1.498   2.341   2.495 -0.6589 -0.0397 -0.0402
 3449SOL    HW121806   1.505   2.433   2.519 -0.9545 -0.4000  1.4236
 3449SOL    HW221807   1.534   2.348   2.406  1.0208  1.3899  0.7536
 3450SOL     OW21808   1.037   2.466  14.815  0.0180  0.0661 -0.0397
 3450SOL    HW121809   0.970   2.523  14.851  0.8544  0.7733  0.3953
 3450SOL    HW221810   1.013   2.446  14.724 -0.1570  1.6161 -0.3324
 3451SOL     OW21811   1.836   2.173   4.653 -0.6798 -0.2034  0.3660
 3451SOL    HW121812   1.754   2.210   4.686 -1.3594 -1.0000 -0.4168
 3451SOL    HW221813   1.801   2.128   4.575 -1.2670  1.0607 -0.0997
 3452SOL     OW21814   3.203   3.486   2.925  0.1321 -0.4758  0.3455
 3452SOL    HW121815   3.195   3.449   3.013 -0.7223 -1.3488 -0.0991
 3452SOL    HW221816   3.149   3.564   2.939  0.4792 -0.4892  1.8009
 3453SOL     OW21817   3.912   3.387   6.796  0.2047  0.2281  0.1275
 3453SOL    HW121818   3.968   3.335   6.739  0.4323  1.4443 -0.7682
 3453SOL    HW221819   3.969   3.451   6.839  0.7947  0.6390 -1.2521
 3454SOL     OW21820   1.306   3.940  12.802 -1.0340  0.5984  0.2877
 3454SOL    HW121821   1.385   3.893  12.829  0.4669  1.2082 -3.0317
 3454SOL    HW221822   1.261   3.863  12.768 -0.0593  0.0291  0.2664
 3455SOL     OW21823   4.678   1.125   7.571  0.2307 -0.2147 -0.3902
 3455SOL    HW121824   4.653   1.058   7.635  1.7041  1.4574  1.9532
 3455SOL    HW221825   4.705   1.069   7.499 -0.5153 -0.4104 -0.5091
 3456SOL     OW21826   0.603   3.209   9.275  0.0365 -0.0544  0.2982
 3456SOL    HW121827   0.643   3.266   9.340  2.1824 -3.1568  1.7356
 3456SOL    HW221828   0.511   3.235   9.281  0.3483  1.5054 -2.1326
 3457SOL     OW21829   3.959   0.591   3.373  0.8387 -0.0691  0.3538
 3457SOL    HW121830   3.914   0.672   3.348  1.2155 -1.0452 -3.4778
 3457SOL    HW221831   3.890   0.540   3.416  1.1644 -1.2753 -0.5493
 3458SOL     OW21832   4.304   1.290  11.184  0.3580  0.6955  0.6114
 3458SOL    HW121833   4.289   1.245  11.267  0.5629  0.6618  0.6319
 3458SOL    HW221834   4.354   1.369  11.202  1.5812 -0.3865  1.9340
 3459SOL     OW21835   1.568   4.494   3.369 -0.3553 -0.6350  0.0460
 3459SOL    HW121836   1.586   4.581   3.333  2.6913 -0.3254  2.3508
 3459SOL    HW221837   1.477   4.479   3.345 -0.5123 -1.5209  1.2527
 3460SOL     OW21838   0.090   3.055   2.133  0.0067 -0.8112 -0.6038
 3460SOL    HW121839   0.093   3.106   2.214  0.4892  0.1474 -1.2167
 3460SOL    HW221840   0.149   3.111   2.081 -0.8045 -0.2795 -0.9630
 3461SOL     OW21841   3.366   1.255   4.713 -0.3874  0.3666  0.1507
 3461SOL    HW121842   3.315   1.289   4.786  1.3744  0.2192  1.4505
 3461SOL    HW221843   3.353   1.160   4.725 -1.8342  0.1448 -3.2758
 3462SOL     OW21844   0.909   1.083   1.706 -0.1549 -0.3800 -0.2444
 3462SOL    HW121845   0.837   1.086   1.643 -0.4724 -0.6857  0.1030
 3462SOL    HW221846   0.908   0.992   1.735  2.9057 -1.1690 -2.6072
 3463SOL     OW21847   3.308   2.936   0.877  0.0274  0.5401  0.3768
 3463SOL    HW121848   3.337   2.986   0.952  1.1487 -1.2397  1.1364
 3463SOL    HW221849   3.385   2.881   0.859 -1.5394 -2.1959  2.0084
 3464SOL     OW21850   1.480   3.448   8.320  0.2335 -0.4764  0.5111
 3464SOL    HW121851   1.429   3.415   8.394  1.8309 -0.0204  1.7982
 3464SOL    HW221852   1.567   3.465   8.355 -0.0143 -0.7392  1.2522
 3465SOL     OW21853   3.807   1.428   6.943  0.0815  0.4843  0.2143
 3465SOL    HW121854   3.828   1.521   6.947 -3.1778  1.1840  0.7642
 3465SOL    HW221855   3.713   1.416   6.932 -0.1464  1.2922  1.2734
 3466SOL     OW21856   3.855   2.539  14.735  0.1594 -0.5543  0.2090
 3466SOL    HW121857   3.917   2.600  14.697 -0.6217  0.0633 -0.0801
 3466SOL    HW221858   3.815   2.490  14.663 -1.6459 -2.2089  2.3122
 3467SOL     OW21859   2.839   4.035   2.014 -0.1968 -0.0845 -0.9739
 3467SOL    HW121860   2.891   4.103   2.055  0.9327 -2.1798  1.1069
 3467SOL    HW221861   2.906   3.989   1.963  1.3848  1.2261 -0.0675
 3468SOL     OW21862   4.051   4.103   7.394 -0.3095  0.3641 -0.3459
 3468SOL    HW121863   3.979   4.157   7.427 -0.8674 -1.7192  1.8531
 3468SOL    HW221864   4.132   4.137   7.432 -0.5704 -0.2023  0.7187
 3469SOL     OW21865   3.320   1.878   7.055  0.3174 -0.5760 -0.3283
 3469SOL    HW121866   3.335   1.784   7.047  2.2886 -0.0464 -3.0111
 3469SOL    HW221867   3.371   1.896   7.134 -0.2809  0.9519 -0.2911
 3470SOL     OW21868   0.526   1.434   9.366 -0.1155 -0.3165  0.2324
 3470SOL    HW121869   0.523   1.522   9.405 -1.4110  0.1724 -0.9912
 3470SOL    HW221870   0.559   1.380   9.438  0.0867  0.2037  0.5325
 3471SOL     OW21871   3.045   4.584   6.641  0.0928  0.2177 -0.3921
 3471SOL    HW121872   2.993   4.665   6.638 -1.5273 -0.7855  0.6383
 3471SOL    HW221873   3.061   4.563   6.549  0.4508  2.7499 -0.9097
 3472SOL     OW21874   3.697   2.719   8.869  0.6428 -0.4436  0.0204
 3472SOL    HW121875   3.708   2.751   8.958 -1.0728  1.0849 -0.3161
 3472SOL    HW221876   3.788   2.694   8.854  0.3199 -1.0768 -0.8977
 3473SOL     OW21877   3.314   1.114   7.086 -0.0416  0.4695  0.2789
 3473SOL    HW121878   3.270   1.039   7.045 -2.0801  0.5963  2.2318
 3473SOL    HW221879   3.275   1.106   7.173 -1.0744  2.1671 -0.0427
 3474SOL     OW21880   1.860   4.476   2.684  0.2544  0.6333  0.1429
 3474SOL    HW121881   1.861   4.387   2.648 -1.4791  0.7705 -0.2390
 3474SOL    HW221882   1.946   4.468   2.724  1.3497  1.4901 -2.0608
 3475SOL     OW21883   3.046   4.410   4.555  0.5603  0.1621 -0.1222
 3475SOL    HW121884   3.068   4.371   4.471  1.8326 -1.5831  1.0113
 3475SOL    HW221885   3.125   4.459   4.575  1.3612 -0.3864 -1.9434
 3476SOL     OW21886   0.031   1.878   1.426  0.5063 -0.2011 -0.1251
 3476SOL    HW121887   4.675   1.836   1.446 -0.3734  1.7354  0.3203
 3476SOL    HW221888   0.070   1.894   1.512 -0.0933 -0.0341  0.1145
 3477SOL     OW21889   4.211   2.869  17.542  0.1683  0.0575 -0.2513
 3477SOL    HW121890   4.260   2.930  17.487  1.9006  0.3382  1.6059
 3477SOL    HW221891   4.240   2.904  17.627 -2.0297 -1.8625  1.2907
 3478SOL     OW21892   4.481   1.615   4.696 -0.7631  0.0956 -0.5553
 3478SOL    HW121893   4.416   1.652   4.635 -1.6144 -1.8709 -0.8272
 3478SOL    HW221894   4.564   1.658   4.677 -0.1282 -0.6997  0.4853
 3479SOL     OW21895   2.704   1.061   5.458  0.3223  0.0800  0.3383
 3479SOL    HW121896   2.695   1.136   5.399 -1.6040 -0.6198 -0.2611
 3479SOL    HW221897   2.614   1.029   5.451  0.5038 -1.0723  3.2259
 3480SOL     OW21898   2.161   1.076   7.021  0.2514  0.2200 -0.0935
 3480SOL    HW121899   2.227   1.107   6.959 -1.9695 -1.2847 -3.2298
 3480SOL    HW221900   2.202   1.095   7.105  0.4316 -0.0975 -0.1112
 3481SOL     OW21901   3.303   1.707   3.718  0.0972  0.1109  0.1864
 3481SOL    HW121902   3.294   1.783   3.775  0.8045  0.6884 -0.4667
 3481SOL    HW221903   3.361   1.736   3.648 -0.3467  0.7349  0.0793
 3482SOL     OW21904   0.548   4.457   7.473  0.3842 -0.2474 -0.2061
 3482SOL    HW121905   0.614   4.428   7.410  0.9366 -0.3374  0.4225
 3482SOL    HW221906   0.490   4.381   7.477 -0.0491  0.2213  2.2031
 3483SOL     OW21907   3.343   2.137   1.302  0.1869 -0.1070 -0.5272
 3483SOL    HW121908   3.350   2.196   1.377  0.6009  1.2203 -1.6175
 3483SOL    HW221909   3.308   2.197   1.236 -3.8882 -0.7544  1.0437
 3484SOL     OW21910   0.142   4.466   2.330 -0.1051  0.3592 -0.2733
 3484SOL    HW121911   0.088   4.542   2.348 -0.5147 -0.1897  0.7987
 3484SOL    HW221912   0.207   4.507   2.273  0.3355 -0.2244 -0.1851
 3485SOL     OW21913   3.757   2.870  10.171 -0.2572 -0.3565  0.1292
 3485SOL    HW121914   3.801   2.842  10.091 -0.7315 -1.8093  0.3776
 3485SOL    HW221915   3.675   2.825  10.155 -2.0324  2.4711  1.2496
 3486SOL     OW21916   2.648   0.932   7.304  0.4696 -0.1284  0.4137
 3486SOL    HW121917   2.687   0.851   7.272  0.0670  0.3034 -1.1595
 3486SOL    HW221918   2.600   0.983   7.238 -1.1302  0.2044  1.8274
 3487SOL     OW21919   3.123   0.205   4.290 -0.0047 -0.2686  0.6099
 3487SOL    HW121920   3.109   0.293   4.323  0.2831  0.5084 -1.3380
 3487SOL    HW221921   3.036   0.189   4.254 -0.0621  4.4300 -1.2911
 3488SOL     OW21922   0.907   0.602  15.962  0.3854  0.2219  0.3979
 3488SOL    HW121923   0.952   0.669  15.910  0.7993  0.5891  1.2373
 3488SOL    HW221924   0.829   0.643  15.998 -0.0292  1.2126 -1.6096
 3489SOL     OW21925   1.813   1.391   2.294 -0.3401  0.2247  0.2787
 3489SOL    HW121926   1.795   1.311   2.245  0.9528 -0.1435  0.4274
 3489SOL    HW221927   1.873   1.433   2.232  0.9147 -1.6926  0.2003
 3490SOL     OW21928   2.206   3.475   3.707  0.1262 -0.1998 -0.7097
 3490SOL    HW121929   2.278   3.502   3.764  0.0345  1.7606 -1.5099
 3490SOL    HW221930   2.141   3.437   3.766  0.0236  0.8660 -0.1214
 3491SOL     OW21931   3.223   4.193   5.462 -0.2255 -0.5087  0.4727
 3491SOL    HW121932   3.204   4.202   5.556  2.0318  1.0524  0.7928
 3491SOL    HW221933   3.150   4.142   5.427  0.8774 -0.7932 -1.3849
 3492SOL     OW21934   3.706   2.996   4.949 -0.1053  0.0010  0.3468
 3492SOL    HW121935   3.706   2.900   4.955  2.9488  0.0075  0.4149
 3492SOL    HW221936   3.683   3.014   4.857 -1.8194  0.0734  0.7770
 3493SOL     OW21937   0.469   3.070   2.932 -0.0247 -0.1016  0.1275
 3493SOL    HW121938   0.533   3.107   2.993 -1.2727  1.1544  0.6938
 3493SOL    HW221939   0.408   3.144   2.932 -0.6470 -0.6212 -1.0574
 3494SOL     OW21940   4.018   3.844   0.915 -0.4764 -0.2954 -0.6818
 3494SOL    HW121941   4.013   3.769   0.973 -1.3089  1.5075  1.5608
 3494SOL    HW221942   3.942   3.898   0.935  0.2359  0.8674 -1.0794
 3495SOL     OW21943   0.965   4.161   5.474 -0.3938 -0.1521 -0.1051
 3495SOL    HW121944   1.028   4.205   5.417 -0.8223 -0.5062 -0.8574
 3495SOL    HW221945   0.886   4.184   5.425 -0.5601  1.7259  1.0389
 3496SOL     OW21946   4.447   1.810   7.960  0.0290 -0.7269 -0.3269
 3496SOL    HW121947   4.501   1.756   7.901 -1.0908  0.0836 -2.0793
 3496SOL    HW221948   4.374   1.749   7.974 -0.0890 -0.9402 -1.7787
 3497SOL     OW21949   2.847   2.932   4.674  0.2826  0.1823 -0.0944
 3497SOL    HW121950   2.920   2.938   4.611  0.9667 -0.3130  0.6603
 3497SOL    HW221951   2.773   2.915   4.615  1.4770 -0.7106 -1.3490
 3498SOL     OW21952   3.091   2.156  15.985 -0.0703 -0.0360  0.3965
 3498SOL    HW121953   3.102   2.170  15.891 -1.3798  0.1762  0.2672
 3498SOL    HW221954   3.185   2.154  16.003  0.4150 -0.0242 -2.1012
 3499SOL     OW21955   2.245   3.822  10.622 -0.3385 -0.1962  0.0813
 3499SOL    HW121956   2.202   3.737  10.612 -0.3777 -0.3410  1.4407
 3499SOL    HW221957   2.199   3.849  10.702  0.6914 -1.5413  1.1374
 3500SOL     OW21958   2.001   3.255   5.224 -0.6733  0.1608 -0.0801
 3500SOL    HW121959   1.924   3.272   5.170 -1.8548 -1.1667  1.1784
 3500SOL    HW221960   2.058   3.315   5.178 -0.4624 -0.4360 -0.5985
 3501SOL     OW21961   2.934   3.185   4.345  0.0194 -0.5151  0.6262
 3501SOL    HW121962   2.949   3.200   4.252 -0.4834 -1.4163  0.4025
 3501SOL    HW221963   3.027   3.194   4.368  0.6487 -2.3515 -1.2495
 3502SOL     OW21964   0.162   0.725  13.107 -0.2041  0.3274  0.3977
 3502SOL    HW121965   0.231   0.784  13.075  0.6352 -0.5722  0.5354
 3502SOL    HW221966   0.127   0.767  13.186  0.3819  1.9927 -0.2314
 3503SOL     OW21967   0.866   0.256  17.369 -0.4200 -0.5340 -0.1369
 3503SOL    HW121968   0.958   0.249  17.394  0.0309  1.5484 -1.1787
 3503SOL    HW221969   0.857   0.351  17.375 -0.0830 -0.3517 -2.4278
 3504SOL     OW21970   0.218   3.691   5.498 -0.2071  1.0266  0.4376
 3504SOL    HW121971   0.201   3.784   5.509 -0.4514  1.0928 -0.5285
 3504SOL    HW221972   0.186   3.667   5.411  0.6667 -1.7633  0.8898
 3505SOL     OW21973   0.927   1.887   5.391 -0.1737 -0.1084 -0.0609
 3505SOL    HW121974   0.990   1.815   5.387 -0.5046 -0.3732 -0.5410
 3505SOL    HW221975   0.989   1.950   5.353 -0.3016 -0.7030 -1.2651
 3506SOL     OW21976   3.780   0.768   9.175  0.2788  0.3089 -0.3039
 3506SOL    HW121977   3.823   0.838   9.126  0.9152  0.0364 -0.1423
 3506SOL    HW221978   3.706   0.755   9.116 -1.7095 -1.1822  2.5418
 3507SOL     OW21979   1.523   3.215   2.763  0.3347 -0.4642  0.0192
 3507SOL    HW121980   1.433   3.242   2.747 -0.4263 -0.5480  4.0762
 3507SOL    HW221981   1.553   3.188   2.676 -0.0482  2.9842 -1.1739
 3508SOL     OW21982   1.814   2.449   6.127  0.0534  0.4885  0.4819
 3508SOL    HW121983   1.851   2.373   6.081  1.8105  0.2749  2.1959
 3508SOL    HW221984   1.846   2.514   6.065  0.7589  1.1077  1.4923
 3509SOL     OW21985   0.153   2.318   9.337 -0.3753  0.4999 -0.2610
 3509SOL    HW121986   0.116   2.299   9.423 -0.2533 -1.8309 -0.7247
 3509SOL    HW221987   0.232   2.366   9.362 -0.1958 -1.3086  2.6702
 3510SOL     OW21988   0.723   3.279   5.432  0.0985  0.2355  0.2712
 3510SOL    HW121989   0.676   3.362   5.425  0.6865  0.5505  0.0905
 3510SOL    HW221990   0.801   3.310   5.478 -0.0291 -0.8294  1.2184
 3511SOL     OW21991   1.333   0.778   5.342 -0.1771 -0.1709 -0.6247
 3511SOL    HW121992   1.278   0.833   5.398  0.9138 -0.5442  0.8027
 3511SOL    HW221993   1.266   0.749   5.280  1.3867 -2.4679 -1.2431
 3512SOL     OW21994   0.269   3.469   6.928  0.7538 -0.2596 -0.2001
 3512SOL    HW121995   0.311   3.464   6.842 -0.8881  1.0870 -1.0814
 3512SOL    HW221996   0.345   3.475   6.986  1.2452  1.3182 -1.0029
 3513SOL     OW21997   4.003   1.608  12.377 -0.1833  0.6383  0.2265
 3513SOL    HW121998   4.086   1.570  12.406 -0.1907 -0.1314 -0.7854
 3513SOL    HW221999   3.955   1.526  12.366 -1.8374  1.3270  2.3281
 3514SOL     OW22000   1.447   1.200   5.211 -0.7644 -0.5452  0.1989
 3514SOL    HW122001   1.523   1.164   5.163  0.3428 -0.3641  1.8149
 3514SOL    HW222002   1.492   1.279   5.241 -0.8192  0.0584 -1.3341
 3515SOL     OW22003   4.644   3.127   8.671 -0.1953 -0.2362  0.5312
 3515SOL    HW122004   4.714   3.131   8.606  1.1475  0.6240  2.0294
 3515SOL    HW222005   4.577   3.088   8.615 -1.9188  0.2943  2.2191
 3516SOL     OW22006   0.391   1.444   6.383 -0.2279 -0.0215 -0.2922
 3516SOL    HW122007   0.451   1.462   6.455 -0.9827 -2.6724  0.9819
 3516SOL    HW222008   0.311   1.428   6.432  0.3942  1.8201  1.2923
 3517SOL     OW22009   1.473   1.301  13.722  0.0511  0.2546  0.0139
 3517SOL    HW122010   1.456   1.393  13.743 -1.3083  0.0681 -0.3236
 3517SOL    HW222011   1.399   1.253  13.758 -0.0803  0.7302  0.3678
 3518SOL     OW22012   0.506   4.596   4.869  0.2693  0.4742 -0.1284
 3518SOL    HW122013   0.484   4.581   4.961 -0.6156 -1.7335 -0.6952
 3518SOL    HW222014   0.423   4.580   4.824 -0.4830  1.7516  0.7836
 3519SOL     OW22015   2.402   3.080  13.406 -0.5883 -0.7623  0.3549
 3519SOL    HW122016   2.399   3.120  13.492 -0.6299 -1.0429  0.4821
 3519SOL    HW222017   2.418   3.160  13.355  1.4461 -0.2222  1.8712
 3520SOL     OW22018   4.504   0.181   6.018 -0.4087 -0.0561  0.2909
 3520SOL    HW122019   4.589   0.192   6.060 -0.4516 -1.3185  0.6923
 3520SOL    HW222020   4.453   0.148   6.092 -2.7608  0.3412 -1.1437
 3521SOL     OW22021   3.012   0.646   4.075 -0.3439  0.5431  0.0625
 3521SOL    HW122022   2.952   0.615   4.007 -0.7952  0.6700  0.3996
 3521SOL    HW222023   3.096   0.621   4.037 -1.0951  2.2828 -2.7428
 3522SOL     OW22024   3.040   4.525   0.612  0.0498 -0.2757 -0.1351
 3522SOL    HW122025   3.056   4.456   0.548  0.8891 -1.2254  1.1086
 3522SOL    HW222026   3.062   4.471   0.687  0.1904  1.0583  0.7805
 3523SOL     OW22027   3.818   1.753   5.831  0.0789 -0.0365 -0.5305
 3523SOL    HW122028   3.722   1.754   5.823  0.0496 -0.0169 -0.1810
 3523SOL    HW222029   3.835   1.662   5.853  0.0180 -0.3594 -1.8468
 3524SOL     OW22030   1.780   0.161  11.939 -0.1660  0.0924  0.0591
 3524SOL    HW122031   1.819   0.174  11.853 -1.2573  0.2522 -0.4125
 3524SOL    HW222032   1.834   0.217  11.995 -0.1990 -1.3789  1.5660
 3525SOL     OW22033   1.833   3.287   4.018  0.1630 -0.0465 -0.0141
 3525SOL    HW122034   1.761   3.339   4.054 -1.5086 -1.9710 -0.5848
 3525SOL    HW222035   1.788   3.216   3.972  3.0117 -1.2993 -0.9038
 3526SOL     OW22036   1.501   0.316   4.661  0.3898 -0.2795  0.4110
 3526SOL    HW122037   1.422   0.286   4.705 -1.1732  0.9960 -1.5114
 3526SOL    HW222038   1.572   0.270   4.706  0.0325 -1.1338  0.0984
 3527SOL     OW22039   4.704   1.650   2.306  0.6500 -0.0662 -0.1981
 3527SOL    HW122040   0.032   1.609   2.375  0.9067  2.0269  0.8288
 3527SOL    HW222041   4.714   1.578   2.244  2.6655  0.8369 -0.9263
 3528SOL     OW22042   0.360   2.520   6.186 -0.0611 -0.0841 -0.6901
 3528SOL    HW122043   0.299   2.469   6.239  2.5558 -1.3202  1.1559
 3528SOL    HW222044   0.305   2.528   6.108 -1.5712 -2.1275  0.1686
 3529SOL     OW22045   3.459   3.531  11.476  0.1504  0.1129 -0.3786
 3529SOL    HW122046   3.521   3.518  11.405  0.3478  3.1992 -0.7559
 3529SOL    HW222047   3.428   3.440  11.483  0.0788  0.2679  1.3372
 3530SOL     OW22048   1.996   0.474   3.755  0.5905  0.7353 -0.2297
 3530SOL    HW122049   2.007   0.558   3.710  2.7267  0.8013  0.4129
 3530SOL    HW222050   2.086   0.442   3.761 -0.1611 -0.9348  2.3961
 3531SOL     OW22051   2.079   4.180   5.766  0.0794  0.3707 -0.1803
 3531SOL    HW122052   2.035   4.264   5.756  0.9081  0.7345 -0.7424
 3531SOL    HW222053   2.129   4.193   5.847 -2.6809  1.2119  1.3984
 3532SOL     OW22054   0.145   2.612  13.911  0.1188  0.2018  0.3597
 3532SOL    HW122055   0.178   2.542  13.965  0.3141 -1.1315 -1.4818
 3532SOL    HW222056   0.146   2.569  13.825 -0.4149  1.2194 -0.1710
 3533SOL     OW22057   0.635   2.946  16.426 -0.0691  0.2202  0.2080
 3533SOL    HW122058   0.635   2.863  16.378 -1.8167  0.6792 -0.5873
 3533SOL    HW222059   0.687   2.926  16.504  0.8977  0.5561 -0.3491
 3534SOL     OW22060   1.997   3.333   2.646 -0.3483 -0.2728  0.0168
 3534SOL    HW122061   1.904   3.314   2.659 -1.0322  1.4114 -2.4547
 3534SOL    HW222062   2.019   3.241   2.659  1.1742 -0.1146 -1.5302
 3535SOL     OW22063   4.641   2.488  11.889 -0.1575 -0.2683 -0.0316
 3535SOL    HW122064   4.655   2.426  11.818  0.4240 -0.1353 -0.0320
 3535SOL    HW222065   4.576   2.552  11.860 -1.2488 -0.8403  1.1439
 3536SOL     OW22066   2.030   0.267   6.321 -0.6093  0.1849  0.3526
 3536SOL    HW122067   2.120   0.246   6.299  0.1329  2.5547  1.1277
 3536SOL    HW222068   2.035   0.359   6.346 -0.6490  0.2109  0.2665
 3537SOL     OW22069   3.407   2.841   2.011 -0.3596  0.6095 -0.2846
 3537SOL    HW122070   3.352   2.766   1.988 -0.0998  0.1304  0.6472
 3537SOL    HW222071   3.337   2.897   2.044 -1.1256 -1.1615  1.0556
 3538SOL     OW22072   1.064   2.036  11.596  0.4196 -0.4411  0.5221
 3538SOL    HW122073   1.064   2.018  11.690 -1.0443 -0.7762  0.4620
 3538SOL    HW222074   1.057   1.950  11.554 -1.0949  0.4509 -1.0735
 3539SOL     OW22075   3.071   2.655   2.684  0.3034  0.0832  0.2504
 3539SOL    HW122076   3.161   2.681   2.703 -0.2708  2.1611  0.1829
 3539SOL    HW222077   3.026   2.702   2.754 -1.0175  1.4893 -1.5265
 3540SOL     OW22078   3.707   3.726   0.653  0.0022  0.2149  0.0889
 3540SOL    HW122079   3.705   3.662   0.724 -0.0131 -0.7052 -0.7381
 3540SOL    HW222080   3.688   3.656   0.590 -0.2533  0.6421 -0.3123
 3541SOL     OW22081   3.175   2.985   8.034 -0.2685 -0.3089 -0.0849
 3541SOL    HW122082   3.160   2.922   8.104  3.9442  0.5712  1.5683
 3541SOL    HW222083   3.087   3.001   7.998 -0.0812  1.1296  0.1120
 3542SOL     OW22084   0.063   3.974  13.786 -0.2559  0.0492 -0.4560
 3542SOL    HW122085   4.710   3.921  13.791  0.1394 -0.4736  0.2608
 3542SOL    HW222086   0.019   4.058  13.772  0.0224  0.4905  1.3303
 3543SOL     OW22087   4.360   0.920   4.986  0.1978 -0.4251  0.0512
 3543SOL    HW122088   4.276   0.901   5.029  0.7437 -0.3286  1.1430
 3543SOL    HW222089   4.330   0.937   4.897 -0.6326 -0.6337  0.2819
 3544SOL     OW22090   2.575   2.591   5.285 -0.2245 -0.1297 -0.0494
 3544SOL    HW122091   2.548   2.525   5.349 -0.1003 -1.7139 -1.6290
 3544SOL    HW222092   2.506   2.583   5.219 -0.3128  3.8414 -0.4487
 3545SOL     OW22093   4.478   3.776   1.724  0.3783 -0.0043 -0.3330
 3545SOL    HW122094   4.424   3.699   1.709 -1.0399  0.5865  1.9304
 3545SOL    HW222095   4.418   3.850   1.719  1.9123  1.3023  0.4602
 3546SOL     OW22096   2.863   3.412   7.594  0.9945 -0.3022 -0.3986
 3546SOL    HW122097   2.904   3.328   7.574 -1.6051 -1.6764 -0.0143
 3546SOL    HW222098   2.770   3.400   7.574  1.0229 -1.2333  0.0022
 3547SOL     OW22099   2.216   2.101   9.161 -0.1681  0.5082  0.3732
 3547SOL    HW122100   2.285   2.035   9.164 -1.0821 -0.5303 -1.4174
 3547SOL    HW222101   2.217   2.138   9.249  0.7918  0.2534  0.4701
 3548SOL     OW22102   1.828   4.311  12.733  0.4871  0.1374  0.4085
 3548SOL    HW122103   1.886   4.331  12.806 -0.7659 -0.5287  1.5723
 3548SOL    HW222104   1.744   4.340  12.767 -0.4858 -0.8069 -1.1789
 3549SOL     OW22105   3.678   3.072   4.701 -0.0719  0.2945  0.3384
 3549SOL    HW122106   3.633   3.077   4.616  1.0963 -0.0254 -0.2918
 3549SOL    HW222107   3.767   3.090   4.670 -0.5793 -0.3153 -1.5053
 3550SOL     OW22108   2.155   0.372  14.549  0.6133  0.0171 -0.3202
 3550SOL    HW122109   2.161   0.323  14.631 -1.0243  2.7903  1.4622
 3550SOL    HW222110   2.119   0.458  14.569  0.2320  0.3854 -2.5270
 3551SOL     OW22111   3.606   3.902   2.431 -0.1987 -0.3183 -0.3398
 3551SOL    HW122112   3.590   3.904   2.525  0.2057 -1.3250 -0.2502
 3551SOL    HW222113   3.669   3.830   2.424 -1.5141 -1.6018  1.0927
 3552SOL     OW22114   3.056   0.718   7.925  0.6157 -0.1773 -0.3730
 3552SOL    HW122115   3.035   0.806   7.959 -1.5778 -0.1108 -1.8848
 3552SOL    HW222116   3.021   0.675   8.003 -3.2268  1.8768 -0.9430
 3553SOL     OW22117   3.091   1.601   3.080  0.2572 -0.1681 -0.3798
 3553SOL    HW122118   3.030   1.559   3.019 -0.6210 -1.1602  1.1794
 3553SOL    HW222119   3.127   1.528   3.129  1.0350  0.7402  0.3871
 3554SOL     OW22120   0.589   0.935   9.611 -0.2095  0.0546 -0.5735
 3554SOL    HW122121   0.619   0.909   9.524 -0.1255 -0.7126 -0.3096
 3554SOL    HW222122   0.660   0.996   9.633  0.5660 -1.2937  0.6762
 3555SOL     OW22123   0.499   1.211   3.305 -0.2205  0.0170  0.1719
 3555SOL    HW122124   0.463   1.282   3.359  0.0546 -1.5882  2.4247
 3555SOL    HW222125   0.552   1.263   3.244  1.8539 -2.0483  0.2313
 3556SOL     OW22126   4.090   4.437   3.531  0.2207 -0.0934  0.3510
 3556SOL    HW122127   4.001   4.403   3.525  0.9339 -2.5608  3.8505
 3556SOL    HW222128   4.128   4.397   3.453 -0.9997 -1.6450  0.5560
 3557SOL     OW22129   3.194   0.008   5.133  0.0155  0.4668  0.2906
 3557SOL    HW122130   3.250   0.046   5.201 -0.6347 -1.5570  1.9646
 3557SOL    HW222131   3.201   0.079   5.070 -1.6295  0.3670  0.0044
 3558SOL     OW22132   1.961   0.109   5.423  0.8729 -0.4181  0.2636
 3558SOL    HW122133   2.015   0.184   5.450 -0.6199 -0.0201  2.1778
 3558SOL    HW222134   1.992   0.031   5.470 -0.7568 -0.8953  0.5502
 3559SOL     OW22135   4.597   2.629   2.724  0.0684  0.3186 -0.2670
 3559SOL    HW122136   4.563   2.540   2.737  0.0768 -0.1806 -3.7220
 3559SOL    HW222137   4.640   2.623   2.639  0.4264 -0.0621 -0.0616
 3560SOL     OW22138   1.323   3.841   2.501 -0.9291  0.1251 -0.6808
 3560SOL    HW122139   1.325   3.834   2.406  3.0447 -0.1455 -0.5876
 3560SOL    HW222140   1.238   3.799   2.517 -0.1146 -1.4792 -0.5944
 3561SOL     OW22141   1.749   4.285  10.231 -0.2988 -0.1538 -0.2005
 3561SOL    HW122142   1.829   4.258  10.185  0.3752  0.0106  0.8869
 3561SOL    HW222143   1.769   4.375  10.204 -1.6754  0.4001  0.6725
 3562SOL     OW22144   1.343   3.810   2.233 -0.0595  0.4295  0.5366
 3562SOL    HW122145   1.363   3.728   2.278  0.3823  0.1881 -0.0993
 3562SOL    HW222146   1.364   3.791   2.141 -0.9373  1.0040  0.2165
 3563SOL     OW22147   2.329   1.460   9.654  0.1659 -0.1694 -0.1528
 3563SOL    HW122148   2.303   1.553   9.654  3.4077  0.7395  1.6232
 3563SOL    HW222149   2.253   1.415   9.690 -0.8616  0.8704 -1.0091
 3564SOL     OW22150   0.142   4.691   1.039 -0.3815  0.4359 -0.1889
 3564SOL    HW122151   0.055   4.723   1.017 -1.7284 -2.4660  0.9749
 3564SOL    HW222152   0.153   4.630   0.966  0.4245 -2.0845  2.0369
 3565SOL     OW22153   4.518   4.596   2.843  0.0925  0.6534  0.0122
 3565SOL    HW122154   4.422   4.591   2.842  0.0769  1.7002 -1.9265
 3565SOL    HW222155   4.538   4.564   2.755  0.5838 -0.3002  0.4778
 3566SOL     OW22156   3.355   3.016   4.944 -0.4222  0.6173  0.0743
 3566SOL    HW122157   3.369   2.924   4.967  1.2890  0.1002 -2.9964
 3566SOL    HW222158   3.439   3.040   4.985 -0.0478 -0.3018 -0.1464
 3567SOL     OW22159   3.378   1.074   3.644 -0.2540  0.3503  0.1021
 3567SOL    HW122160   3.361   1.005   3.708 -0.3878 -1.2059 -1.6110
 3567SOL    HW222161   3.473   1.070   3.632 -0.7647  0.6776 -4.3152
 3568SOL     OW22162   3.254   0.635   5.194 -0.5990  0.1567  0.4044
 3568SOL    HW122163   3.264   0.728   5.174  3.2661 -0.5969 -1.1752
 3568SOL    HW222164   3.341   0.607   5.223 -0.6267  0.7172  1.0104
 3569SOL     OW22165   1.901   1.200  17.403 -0.5342 -0.1314  0.0809
 3569SOL    HW122166   1.972   1.152  17.443 -1.4538 -0.4599  1.3194
 3569SOL    HW222167   1.924   1.284  17.444 -2.4860  0.3966  0.1250
 3570SOL     OW22168   4.473   1.528  14.671  0.4334  0.8528  0.4599
 3570SOL    HW122169   4.465   1.564  14.760  0.6916 -1.6284  1.4902
 3570SOL    HW222170   4.435   1.600  14.620 -0.2759  1.3770  1.6989
 3571SOL     OW22171   2.593   2.799   8.617  0.0658  0.2400  0.7378
 3571SOL    HW122172   2.672   2.852   8.629 -1.1137  2.2621 -0.4611
 3571SOL    HW222173   2.609   2.728   8.679 -0.5642 -0.4743  0.0723
 3572SOL     OW22174   1.094   4.109   6.287 -0.2527  0.1534 -0.2606
 3572SOL    HW122175   1.029   4.176   6.306 -0.6114 -0.5405  0.9827
 3572SOL    HW222176   1.143   4.105   6.369 -1.8169 -0.7560  0.6344
 3573SOL     OW22177   0.660   1.348   3.109  0.0854  0.3268 -0.3434
 3573SOL    HW122178   0.587   1.382   3.057  0.1584  0.2509 -0.4938
 3573SOL    HW222179   0.718   1.323   3.038  0.7452 -0.0619  0.3371
 3574SOL     OW22180   4.160   3.668  15.306 -0.4888 -0.2463  0.0593
 3574SOL    HW122181   4.076   3.711  15.321  0.1610  1.6551 -1.7292
 3574SOL    HW222182   4.146   3.599  15.241 -0.4979 -1.0283  0.9014
 3575SOL     OW22183   2.389   2.002   8.833 -0.2346 -0.2606 -0.2618
 3575SOL    HW122184   2.415   1.926   8.780  0.4414 -1.2890  1.5531
 3575SOL    HW222185   2.359   1.949   8.907  0.5723 -0.2948  0.0373
 3576SOL     OW22186   4.172   1.969   7.665  0.9338  0.4774 -0.4519
 3576SOL    HW122187   4.176   1.903   7.596 -1.0494 -1.5310  1.3308
 3576SOL    HW222188   4.107   2.030   7.631  0.1949 -0.3745 -0.6003
 3577SOL     OW22189   0.921   1.980   4.054 -0.1041 -0.4323  0.1047
 3577SOL    HW122190   0.839   1.930   4.049 -1.0457  1.1932 -0.6303
 3577SOL    HW222191   0.975   1.922   3.999  0.5989  1.2335 -0.9590
 3578SOL     OW22192   0.032   3.833   7.257  0.1102 -0.7324  0.5043
 3578SOL    HW122193   4.677   3.788   7.277  1.1001 -2.6823  0.1643
 3578SOL    HW222194   0.068   3.793   7.178 -2.5486  2.5255 -2.3808
 3579SOL     OW22195   2.610   3.844   7.871  0.0532 -0.3764 -0.4670
 3579SOL    HW122196   2.525   3.852   7.829  0.5469  1.1659 -1.1697
 3579SOL    HW222197   2.660   3.799   7.802  0.8222 -1.5645  0.8831
 3580SOL     OW22198   1.846   1.650   4.078  0.3074  0.2190  0.2160
 3580SOL    HW122199   1.855   1.625   4.171 -0.5536 -0.0773  0.2236
 3580SOL    HW222200   1.856   1.565   4.036 -1.1049  1.8404 -3.3203
 3581SOL     OW22201   3.671   0.122   2.669  0.2137  0.1412  0.2028
 3581SOL    HW122202   3.596   0.157   2.621 -0.1287 -0.2997  0.4218
 3581SOL    HW222203   3.694   0.039   2.627  2.9571  0.8974  0.1566
 3582SOL     OW22204   1.890   2.157   5.175 -0.1412  0.3814  0.2259
 3582SOL    HW122205   1.812   2.152   5.120  0.3108  1.3356 -0.5023
 3582SOL    HW222206   1.840   2.174   5.255 -1.4048 -0.5377 -0.3672
 3583SOL     OW22207   4.392   3.639   2.006 -0.0498 -0.3402 -0.1219
 3583SOL    HW122208   4.437   3.696   2.069  4.3941 -0.3840 -3.2059
 3583SOL    HW222209   4.449   3.652   1.930  1.2677  0.1111  0.9299
 3584SOL     OW22210   3.455   3.428   6.605 -0.4538 -0.8152  0.4784
 3584SOL    HW122211   3.367   3.446   6.638 -1.5521  0.5691 -3.1687
 3584SOL    HW222212   3.445   3.381   6.522 -0.8571  0.6937 -0.3261
 3585SOL     OW22213   3.730   3.983   3.736  0.2430 -0.1214  0.1017
 3585SOL    HW122214   3.670   4.029   3.677 -0.6079 -0.0018  1.0481
 3585SOL    HW222215   3.812   3.969   3.690 -0.6531 -0.7843 -1.3060
 3586SOL     OW22216   3.769   4.253   4.755  0.0385 -0.0725  0.1817
 3586SOL    HW122217   3.675   4.233   4.751 -0.5942  1.9150  4.2741
 3586SOL    HW222218   3.779   4.331   4.701  1.2614  0.6280  1.4110
 3587SOL     OW22219   4.265   2.573   0.450  0.0496  0.4215  0.9022
 3587SOL    HW122220   4.274   2.479   0.439  1.1602  0.5145  0.9419
 3587SOL    HW222221   4.184   2.590   0.404  0.6269  2.7863  0.7618
 3588SOL     OW22222   4.166   3.381   9.979 -0.1064  0.1744  0.2041
 3588SOL    HW122223   4.240   3.345   9.930  1.3061  0.8028  1.8175
 3588SOL    HW222224   4.092   3.334   9.942  2.4697 -3.7891  0.0596
 3589SOL     OW22225   0.254   1.811  13.820  0.0119  0.0440  0.6610
 3589SOL    HW122226   0.292   1.724  13.825 -0.4731 -0.1782  0.4531
 3589SOL    HW222227   0.228   1.831  13.910 -1.1106  1.5797 -0.0051
 3590SOL     OW22228   0.994   4.219  14.760  0.3855 -0.2869  0.1154
 3590SOL    HW122229   0.990   4.127  14.735  0.4607 -0.1277 -0.4702
 3590SOL    HW222230   1.085   4.240  14.736 -0.2435 -0.8804 -2.7858
 3591SOL     OW22231   1.372   4.101   5.050  0.5729 -0.4874 -0.1231
 3591SOL    HW122232   1.451   4.154   5.063  0.3401  0.5227 -3.0147
 3591SOL    HW222233   1.334   4.147   4.976  0.0719  0.0063  0.4417
 3592SOL     OW22234   1.048   4.594  10.390  0.3452  0.2653  0.0632
 3592SOL    HW122235   1.113   4.609  10.321  0.7450  1.7427  0.7444
 3592SOL    HW222236   1.011   4.508  10.374 -1.6992  0.7053  2.4274
 3593SOL     OW22237   4.662   0.241  14.691  0.5088  0.5407  0.5482
 3593SOL    HW122238   4.712   0.189  14.753 -0.5008 -1.3630 -0.2209
 3593SOL    HW222239   4.625   0.179  14.628  0.0803  2.2170 -0.8538
 3594SOL     OW22240   4.169   3.311   7.488 -0.2187 -0.5287 -0.5279
 3594SOL    HW122241   4.189   3.342   7.577 -1.1176  0.8129 -0.7940
 3594SOL    HW222242   4.255   3.325   7.450  0.2694  1.3310  1.2664
 3595SOL     OW22243   2.570   0.476   6.943 -0.0585  0.3234  0.0002
 3595SOL    HW122244   2.576   0.569   6.917 -2.0913  0.7809  1.1682
 3595SOL    HW222245   2.659   0.445   6.929 -0.3262  0.3283 -1.7757
 3596SOL     OW22246   3.540   3.943   0.578 -0.0180 -0.1667 -0.1349
 3596SOL    HW122247   3.573   3.993   0.652 -0.2185 -0.2050 -0.0205
 3596SOL    HW222248   3.587   3.859   0.586 -2.9567 -1.6769  1.0491
 3597SOL     OW22249   0.728   0.928  14.181  0.3945 -0.3567  0.2314
 3597SOL    HW122250   0.657   0.911  14.118  1.1781  0.3175 -0.8443
 3597SOL    HW222251   0.739   1.023  14.179 -1.4918 -0.0741  4.3392
 3598SOL     OW22252   4.132   3.571   7.283  0.6446  0.3914 -0.3828
 3598SOL    HW122253   4.213   3.521   7.270 -1.1406 -1.9562 -2.2547
 3598SOL    HW222254   4.149   3.627   7.359 -2.2315  0.6269  0.0851
 3599SOL     OW22255   0.245   0.284   2.624 -0.7639 -0.5142  0.2134
 3599SOL    HW122256   0.338   0.281   2.602 -1.3679 -1.6890 -2.2067
 3599SOL    HW222257   0.199   0.259   2.544 -0.3357  2.4347 -0.9725
 3600SOL     OW22258   3.584   0.897   8.608 -0.3846  0.3805  0.4278
 3600SOL    HW122259   3.493   0.918   8.590  0.2252  1.2100 -1.7182
 3600SOL    HW222260   3.584   0.801   8.606 -1.4664  0.4285 -1.5962
 3601SOL     OW22261   3.518   2.811   4.071  0.4809  0.0948  0.1159
 3601SOL    HW122262   3.547   2.740   4.014 -1.3520 -0.1494 -0.4885
 3601SOL    HW222263   3.493   2.878   4.008 -1.0354  2.2484  3.0409
 3602SOL     OW22264   2.326   3.945  12.340  0.2736  0.0690 -0.4768
 3602SOL    HW122265   2.312   4.039  12.326  0.5281  0.1083 -0.4647
 3602SOL    HW222266   2.421   3.942  12.352  0.2379  1.5730  0.1522
 3603SOL     OW22267   3.195   4.649   1.638 -0.0991 -0.0566  1.1314
 3603SOL    HW122268   3.270   4.592   1.656  1.8238  2.3814  0.8804
 3603SOL    HW222269   3.224   0.003   1.681  0.6071  0.8695 -1.0537
 3604SOL     OW22270   1.488   3.770   1.972 -0.0921  0.7993  0.4998
 3604SOL    HW122271   1.583   3.772   1.984  0.3209 -1.9103 -2.1052
 3604SOL    HW222272   1.465   3.860   1.994 -2.6747  0.3228 -0.1645
 3605SOL     OW22273   0.199   1.039   1.953 -0.3182  0.3746  0.3705
 3605SOL    HW122274   0.194   1.020   1.859 -0.6326 -1.4054  0.7450
 3605SOL    HW222275   0.236   1.127   1.945 -1.8978  0.7871 -2.1335
 3606SOL     OW22276   0.470   2.956   8.452  0.1499  0.3511 -0.5433
 3606SOL    HW122277   0.529   3.031   8.441 -1.3322  1.8011  1.1704
 3606SOL    HW222278   0.463   2.922   8.363 -0.5966  0.7237 -0.6274
 3607SOL     OW22279   4.680   4.414   4.998  0.2699 -0.2231  0.1992
 3607SOL    HW122280   4.645   4.334   5.035  0.0170  0.5322  1.6113
 3607SOL    HW222281   4.665   4.397   4.905  0.5509 -2.0377  0.5024
 3608SOL     OW22282   0.083   4.418  16.085  0.2703  0.1531 -0.2355
 3608SOL    HW122283   0.017   4.400  16.019 -0.8769 -1.3823  1.3335
 3608SOL    HW222284   0.063   4.347  16.146 -0.4613  0.2676 -0.3424
 3609SOL     OW22285   0.093   0.506  12.969  0.3633 -0.2236 -0.3417
 3609SOL    HW122286   0.142   0.569  13.022  1.8083 -1.2793 -0.4222
 3609SOL    HW222287   0.005   0.544  12.969  0.3079 -0.3553 -0.8241
 3610SOL     OW22288   1.072   1.839  16.319  0.7053 -0.1035  0.7213
 3610SOL    HW122289   1.122   1.835  16.237 -0.1331  2.4096  0.0732
 3610SOL    HW222290   1.045   1.931  16.322  1.2053  0.1128 -1.5812
 3611SOL     OW22291   0.196   1.001   2.386  0.1458  0.7860  0.5672
 3611SOL    HW122292   0.193   0.913   2.347 -1.4676  1.6785 -1.2796
 3611SOL    HW222293   0.176   0.982   2.478  1.0163  0.8893  0.7776
 3612SOL     OW22294   2.287   2.092   2.962  0.1648 -0.8207  0.1016
 3612SOL    HW122295   2.296   2.153   2.889 -0.7047 -0.4894  0.2661
 3612SOL    HW222296   2.307   2.142   3.041  0.0060 -0.7935  0.1257
 3613SOL     OW22297   3.126   0.821   1.904  0.4924 -0.3831 -0.3352
 3613SOL    HW122298   3.071   0.810   1.981 -1.8435  0.3857 -1.8957
 3613SOL    HW222299   3.117   0.729   1.880  2.0709 -0.6083 -0.0444
 3614SOL     OW22300   2.940   1.496   2.861  0.2516 -0.1670  0.1763
 3614SOL    HW122301   2.936   1.591   2.849 -0.0648 -0.0947  0.8591
 3614SOL    HW222302   2.989   1.475   2.782 -0.8579  1.2947 -0.8961
 3615SOL     OW22303   3.009   3.720  12.082 -0.5601  0.0971 -0.0271
 3615SOL    HW122304   3.006   3.773  12.002  1.6008 -0.3939 -0.4452
 3615SOL    HW222305   3.100   3.728  12.110 -0.6436 -0.7586  0.4978
 3616SOL     OW22306   2.352   1.067   8.358  0.0417 -0.3642 -0.3035
 3616SOL    HW122307   2.327   1.031   8.273 -0.0666 -0.4425 -0.2372
 3616SOL    HW222308   2.433   1.016   8.365 -0.3771 -0.6515  2.4767
 3617SOL     OW22309   1.186   1.900   2.095  0.0337  0.2428  0.4694
 3617SOL    HW122310   1.266   1.896   2.146  0.3027  3.0627  0.3179
 3617SOL    HW222311   1.149   1.979   2.135 -2.0528  0.1673 -1.2680
 3618SOL     OW22312   4.192   4.198  12.082 -0.4117 -1.1321  0.9483
 3618SOL    HW122313   4.120   4.256  12.107  0.7699  0.2570  1.1010
 3618SOL    HW222314   4.241   4.195  12.163 -0.2853  1.3057  0.9732
 3619SOL     OW22315   0.034   2.304   7.601  0.0592 -0.0960  0.7308
 3619SOL    HW122316   0.116   2.260   7.626  1.1021 -0.7803 -3.8518
 3619SOL    HW222317   0.013   2.230   7.543 -1.1049  0.2834  0.6732
 3620SOL     OW22318   4.459   0.528   5.137  0.1659 -0.3156 -0.5911
 3620SOL    HW122319   4.459   0.488   5.224 -1.2905  0.5474 -0.1778
 3620SOL    HW222320   4.409   0.472   5.077 -0.9068 -0.0499  0.0392
 3621SOL     OW22321   3.942   3.052   6.852 -0.1130  0.5484  0.2641
 3621SOL    HW122322   4.003   3.110   6.807  0.6284 -0.3780  0.0886
 3621SOL    HW222323   3.905   3.108   6.921 -0.3627 -0.5220  1.0051
 3622SOL     OW22324   3.284   3.694   1.329 -0.1663  0.0256 -0.4283
 3622SOL    HW122325   3.307   3.712   1.420 -2.9317  0.1120  0.2604
 3622SOL    HW222326   3.243   3.610   1.349 -0.4337  0.1721 -0.3625
 3623SOL     OW22327   1.622   0.385   3.928 -0.2415  0.2833 -0.0306
 3623SOL    HW122328   1.670   0.388   3.845  0.1084 -1.1478  0.1218
 3623SOL    HW222329   1.540   0.345   3.897  1.0006 -1.1697 -1.4582
 3624SOL     OW22330   1.587   1.565   6.266 -0.4055  0.2447  0.1234
 3624SOL    HW122331   1.609   1.474   6.245  2.2081  0.6680  1.0272
 3624SOL    HW222332   1.617   1.575   6.356 -0.1363  0.2106  0.0398
 3625SOL     OW22333   0.876   3.582   2.144  0.1793  0.3407 -0.0765
 3625SOL    HW122334   0.791   3.611   2.176  0.4843 -0.7623  1.6709
 3625SOL    HW222335   0.912   3.535   2.219  0.3084  0.3074 -0.1599
 3626SOL     OW22336   1.726   4.514   4.993 -0.1445 -0.2185  0.0030
 3626SOL    HW122337   1.752   4.601   5.022  0.2960 -0.1711 -0.5451
 3626SOL    HW222338   1.697   4.533   4.904  0.3147  0.0152 -0.0920
 3627SOL     OW22339   3.126   0.651   4.827  0.1728 -0.1073 -0.3972
 3627SOL    HW122340   3.114   0.725   4.767 -1.4537 -1.5795 -1.9198
 3627SOL    HW222341   3.150   0.579   4.768 -1.5412 -1.6609  0.8222
 3628SOL     OW22342   1.724   2.574   8.091  0.0018  0.4175 -0.3579
 3628SOL    HW122343   1.658   2.572   8.021 -1.3962 -0.0483  0.9538
 3628SOL    HW222344   1.742   2.666   8.109  4.3861 -0.3543 -0.8103
 3629SOL     OW22345   4.132   0.943  17.644  0.0361  0.0374  0.3956
 3629SOL    HW122346   4.037   0.938  17.647 -0.1409  1.7629 -2.0099
 3629SOL    HW222347   4.155   1.001   0.010  0.5815  1.0963 -0.6049
 3630SOL     OW22348   2.066   1.563  15.030 -0.1414  0.0899  0.5359
 3630SOL    HW122349   2.138   1.622  15.051 -0.8222  0.7876  0.9442
 3630SOL    HW222350   2.002   1.629  15.002 -1.0297 -0.9389  0.1731
 3631SOL     OW22351   0.912   4.659  10.066 -0.0184 -0.4683 -0.4256
 3631SOL    HW122352   0.852   4.604  10.116 -0.0870  0.4594  0.5343
 3631SOL    HW222353   0.863   4.663   9.984  0.6078 -1.8388 -0.8548
 3632SOL     OW22354   4.308   2.717   4.465  0.6420 -0.5547  0.5401
 3632SOL    HW122355   4.329   2.760   4.548  0.6125 -2.7816  1.7077
 3632SOL    HW222356   4.231   2.668   4.494 -1.2634  1.6618 -0.7537
 3633SOL     OW22357   0.062   2.746  16.056 -0.0605 -0.2811 -0.4453
 3633SOL    HW122358   0.153   2.766  16.078 -0.6796  0.1978  1.6906
 3633SOL    HW222359   0.078   2.686  15.983 -1.9924 -2.3600  0.8365
 3634SOL     OW22360   1.372   1.076   7.407 -0.4065 -0.3772 -0.1608
 3634SOL    HW122361   1.323   1.146   7.365 -0.5606  0.1325  0.8605
 3634SOL    HW222362   1.421   1.059   7.327  0.7049  1.2843  0.1657
 3635SOL     OW22363   3.508   2.803   8.172  0.3652 -0.2012  0.2119
 3635SOL    HW122364   3.562   2.734   8.210 -0.9474 -1.7449 -0.6893
 3635SOL    HW222365   3.425   2.759   8.155 -0.1940  0.8078  0.3502
 3636SOL     OW22366   3.788   2.634  15.223  0.3395  0.1301  0.2474
 3636SOL    HW122367   3.778   2.564  15.158 -1.2821 -0.1521  0.7926
 3636SOL    HW222368   3.882   2.645  15.238  0.7683  0.5792 -2.9385
 3637SOL     OW22369   3.696   2.611   1.034  0.5173  0.5776 -0.0341
 3637SOL    HW122370   3.664   2.523   1.018 -1.2527  1.3265 -0.6475
 3637SOL    HW222371   3.752   2.622   0.957 -2.8557  0.9931 -2.4051
 3638SOL     OW22372   4.688   4.183  13.244 -0.4127 -0.1768  0.1905
 3638SOL    HW122373   4.652   4.105  13.202 -1.8472  0.7873 -0.3845
 3638SOL    HW222374   0.013   4.223  13.175  0.3083  0.5096  1.1347
 3639SOL     OW22375   1.901   0.722   4.453 -0.1098  0.4721 -0.1089
 3639SOL    HW122376   1.882   0.798   4.397  0.1540 -0.0613 -0.9202
 3639SOL    HW222377   1.975   0.680   4.409 -0.0757  0.7780 -0.3503
 3640SOL     OW22378   2.657   3.735   6.095 -0.2526  0.5384 -0.2620
 3640SOL    HW122379   2.637   3.644   6.117 -0.5665  0.2671 -1.6601
 3640SOL    HW222380   2.669   3.782   6.177  0.0372  0.0518 -0.0222
 3641SOL     OW22381   3.632   3.047  12.566  0.1186 -0.9671 -0.3518
 3641SOL    HW122382   3.568   3.094  12.513 -0.6984 -0.2733  1.2353
 3641SOL    HW222383   3.587   2.968  12.598 -0.2295 -0.4443  0.4349
 3642SOL     OW22384   3.330   2.342   0.903 -0.2838  0.3328 -0.4867
 3642SOL    HW122385   3.272   2.398   0.851  1.8283  2.2319 -0.8220
 3642SOL    HW222386   3.288   2.346   0.989 -3.1126 -1.7549 -1.7793
 3643SOL     OW22387   1.370   1.813   7.614 -0.0747 -0.2017 -0.2683
 3643SOL    HW122388   1.323   1.878   7.666  1.8162  0.4178  0.6909
 3643SOL    HW222389   1.355   1.734   7.664  4.8278 -0.0141  1.4760
 3644SOL     OW22390   3.688   2.889   4.254  0.1693 -0.0175  0.0883
 3644SOL    HW122391   3.642   2.848   4.327 -0.3779  2.4291  1.1364
 3644SOL    HW222392   3.633   2.862   4.181 -0.4954  0.3023  0.4634
 3645SOL     OW22393   3.975   0.134  15.338  0.4622 -0.0029  0.2444
 3645SOL    HW122394   3.942   0.052  15.372  0.3911  0.8327  2.1834
 3645SOL    HW222395   4.045   0.100  15.282  1.1517  0.0709  1.0722
 3646SOL     OW22396   2.190   2.278   8.945 -0.2711 -0.0855 -0.3093
 3646SOL    HW122397   2.212   2.225   9.022  0.9839  0.8254 -0.0501
 3646SOL    HW222398   2.274   2.305   8.910 -0.2415  0.6500  0.3246
 3647SOL     OW22399   3.368   3.517   7.280  0.0667  0.2585 -0.1079
 3647SOL    HW122400   3.356   3.530   7.186 -2.0222  0.0940  0.1430
 3647SOL    HW222401   3.457   3.551   7.288 -0.3294  1.0881  0.6938
 3648SOL     OW22402   2.679   3.804   8.384  0.1895 -0.6263 -0.4152
 3648SOL    HW122403   2.761   3.808   8.335 -0.0579 -2.0765 -0.9255
 3648SOL    HW222404   2.703   3.858   8.460  0.5550 -1.2913 -0.0628
 3649SOL     OW22405   2.321   4.450  12.390  0.0528  0.0042  0.4292
 3649SOL    HW122406   2.405   4.495  12.387 -0.3586  0.6187 -1.8637
 3649SOL    HW222407   2.271   4.509  12.446  0.4220 -0.4981  1.2872
 3650SOL     OW22408   4.326   4.023   5.298  0.1831  0.9683  0.0134
 3650SOL    HW122409   4.315   4.049   5.207 -1.3290  2.4483  0.6118
 3650SOL    HW222410   4.320   4.102   5.352 -0.7300  1.1942 -0.4183
 3651SOL     OW22411   1.527   4.272   3.710 -0.0551  0.3344 -0.1309
 3651SOL    HW122412   1.619   4.298   3.705  0.5056 -1.4330  1.1542
 3651SOL    HW222413   1.516   4.208   3.639  1.8573 -1.7259  1.4187
 3652SOL     OW22414   2.832   4.271   7.134  0.8230 -0.6788 -0.3672
 3652SOL    HW122415   2.854   4.344   7.076  1.5705  0.2438  1.0735
 3652SOL    HW222416   2.756   4.311   7.175  1.8264  0.8483  0.0178
 3653SOL     OW22417   4.650   4.291  16.247  0.4967 -0.1408 -0.4137
 3653SOL    HW122418   4.691   4.346  16.315  1.6027  0.7308 -1.7793
 3653SOL    HW222419   4.670   4.206  16.286  1.5946 -0.4579 -1.6775
 3654SOL     OW22420   1.564   1.190   2.427  0.7837  0.0076 -0.5304
 3654SOL    HW122421   1.497   1.156   2.368  0.2326 -2.3844  1.4468
 3654SOL    HW222422   1.623   1.239   2.370  0.8729  0.2941 -0.1926
 3655SOL     OW22423   2.620   2.067   7.126 -0.0490  0.8107  0.0397
 3655SOL    HW122424   2.640   2.122   7.202  3.4201  0.5778 -0.7115
 3655SOL    HW222425   2.683   2.105   7.065  0.0341 -2.1843 -1.7245
 3656SOL     OW22426   3.801   0.760   4.564  0.1876 -0.0769 -0.0396
 3656SOL    HW122427   3.840   0.796   4.643 -0.2883 -0.9288  0.5796
 3656SOL    HW222428   3.742   0.700   4.608  2.4954 -2.2627  0.0755
 3657SOL     OW22429   1.606   1.001   3.026 -0.3846 -0.1038  0.2656
 3657SOL    HW122430   1.669   1.014   2.955  0.4566 -1.7074  0.7159
 3657SOL    HW222431   1.544   1.072   3.008  0.0861  0.5417  1.1632
 3658SOL     OW22432   0.551   3.197   7.164  0.2817  0.2075 -0.3023
 3658SOL    HW122433   0.468   3.234   7.193  0.8401 -0.6018  2.3093
 3658SOL    HW222434   0.599   3.271   7.200  0.0207  0.2333 -0.0104
 3659SOL     OW22435   2.227   2.387   0.730 -0.9195  0.0886 -0.3261
 3659SOL    HW122436   2.313   2.391   0.771 -1.2218  0.8923  0.2208
 3659SOL    HW222437   2.218   2.467   0.678 -1.1202 -0.2421 -0.8058
 3660SOL     OW22438   2.222   1.920   9.750  0.0299 -0.1074  0.3266
 3660SOL    HW122439   2.222   1.876   9.665 -0.4556 -1.0865  0.8313
 3660SOL    HW222440   2.167   1.858   9.798  1.5425 -1.1258  0.7306
 3661SOL     OW22441   4.185   1.804   5.768  0.1327  0.2184 -0.0890
 3661SOL    HW122442   4.096   1.814   5.736  0.4931  0.4841 -0.9982
 3661SOL    HW222443   4.220   1.893   5.765  0.4642  0.2090  2.8767
 3662SOL     OW22444   1.399   1.936  12.918 -0.2815  0.2146 -0.1643
 3662SOL    HW122445   1.327   1.996  12.898  0.1475  0.9324  0.4517
 3662SOL    HW222446   1.438   1.988  12.988 -0.1334  1.2871 -1.0316
 3663SOL     OW22447   1.075   1.753   9.360 -0.1767  0.1599  0.2677
 3663SOL    HW122448   1.165   1.774   9.333 -0.7267  1.8028 -0.3250
 3663SOL    HW222449   1.034   1.799   9.286 -1.1084 -0.1468  0.5954
 3664SOL     OW22450   0.900   1.045   3.745 -0.0820  0.1054 -0.7996
 3664SOL    HW122451   0.939   1.017   3.662 -0.2376 -0.6974 -0.6066
 3664SOL    HW222452   0.905   0.964   3.795  0.8916  0.4202 -0.3939
 3665SOL     OW22453   3.246   0.774   5.758  0.1158  0.6515  0.4364
 3665SOL    HW122454   3.318   0.778   5.820  1.7961 -1.9258 -1.3192
 3665SOL    HW222455   3.180   0.796   5.824 -1.9359 -1.2916 -0.9331
 3666SOL     OW22456   0.412   3.225  11.973  0.5225 -1.1092 -0.1632
 3666SOL    HW122457   0.419   3.259  12.062  0.3077  1.6655 -1.1944
 3666SOL    HW222458   0.452   3.296  11.923 -3.9885 -0.4053 -2.8036
 3667SOL     OW22459   1.831   3.000   3.927 -0.2731 -0.1031  0.1603
 3667SOL    HW122460   1.899   2.959   3.873 -0.6105  0.8354 -0.9820
 3667SOL    HW222461   1.805   2.935   3.992 -0.3728  0.7039  0.9236
 3668SOL     OW22462   4.653   1.916   2.683 -0.0928 -0.4980  0.4103
 3668SOL    HW122463   4.557   1.922   2.681 -0.2933 -3.2792  1.1819
 3668SOL    HW222464   4.662   2.009   2.702  0.5088 -0.9092  2.1723
 3669SOL     OW22465   2.450   4.363  10.333  0.1093  0.1928  0.2276
 3669SOL    HW122466   2.471   4.350  10.426  0.0321 -1.3181  0.0383
 3669SOL    HW222467   2.468   4.456  10.320 -1.7056  0.3475 -1.1047
 3670SOL     OW22468   2.134   0.980   6.623 -0.1969 -0.0283  0.0679
 3670SOL    HW122469   2.044   0.954   6.605  0.0392 -0.8824  0.1246
 3670SOL    HW222470   2.173   0.897   6.651  2.1802  0.7410 -0.9279
 3671SOL     OW22471   3.898   2.841  17.484  0.2686  0.3471  0.7707
 3671SOL    HW122472   3.985   2.881  17.483  0.5063 -0.1712  0.7729
 3671SOL    HW222473   3.839   2.901  17.438  0.7365  0.7961  0.7550
 3672SOL     OW22474   3.850   4.074   4.381 -0.2794 -0.6144  0.1539
 3672SOL    HW122475   3.856   3.979   4.384 -0.7359 -0.6795 -1.0232
 3672SOL    HW222476   3.940   4.096   4.405  0.4600 -3.4077 -0.1369
 3673SOL     OW22477   4.230   3.475   6.506  0.0305  0.5474 -0.4252
 3673SOL    HW122478   4.151   3.438   6.468  1.3697 -1.0954 -1.5865
 3673SOL    HW222479   4.185   3.530   6.571  0.4555  0.6576 -0.2272
 3674SOL     OW22480   0.821   2.695   8.224 -0.0970 -0.2410  0.3184
 3674SOL    HW122481   0.849   2.605   8.240  0.8485 -0.2906 -1.5961
 3674SOL    HW222482   0.899   2.719   8.175 -1.6133  0.7289 -1.6297
 3675SOL     OW22483   1.618   2.706   8.455  0.4840  0.1282 -0.0740
 3675SOL    HW122484   1.695   2.737   8.504 -2.1444  4.3200  1.4403
 3675SOL    HW222485   1.649   2.733   8.368  0.0866 -1.2361 -0.6299
 3676SOL     OW22486   2.373   1.086   6.607  0.5452 -0.7503  0.5507
 3676SOL    HW122487   2.284   1.053   6.619  0.2778 -0.5606 -0.8431
 3676SOL    HW222488   2.397   1.033   6.530  0.3685 -0.5683  0.3691
 3677SOL     OW22489   1.416   1.808   1.315  0.0211  0.4377 -0.2755
 3677SOL    HW122490   1.496   1.834   1.268 -0.7890  0.2692 -1.7347
 3677SOL    HW222491   1.426   1.846   1.402 -1.0272 -1.4088  0.6193
 3678SOL     OW22492   2.855   0.234  16.329 -0.2106 -0.5395  0.0816
 3678SOL    HW122493   2.892   0.296  16.266 -0.8144 -1.1045 -0.8287
 3678SOL    HW222494   2.870   0.153  16.280 -1.4713 -1.0506  0.5593
 3679SOL     OW22495   3.809   1.033   5.287  0.3947  0.0519  0.0317
 3679SOL    HW122496   3.878   1.077   5.238  0.9865  0.6479  1.4161
 3679SOL    HW222497   3.732   1.072   5.244  1.5955  1.5058 -0.7813
 3680SOL     OW22498   1.182   0.955   3.181  0.4729 -0.0154  0.4556
 3680SOL    HW122499   1.223   0.934   3.098 -0.3215  0.9155 -0.1682
 3680SOL    HW222500   1.148   0.867   3.198 -0.1722 -0.0110 -0.8465
 3681SOL     OW22501   3.804   2.202   7.081  0.3510  0.3355  0.4279
 3681SOL    HW122502   3.893   2.235   7.089  0.5090  0.4257 -1.6103
 3681SOL    HW222503   3.789   2.158   7.164 -0.7990  1.0559  0.6101
 3682SOL     OW22504   0.314   2.269   4.150 -0.5467 -0.0136  0.3048
 3682SOL    HW122505   0.302   2.209   4.224 -0.4154  0.5528  0.7867
 3682SOL    HW222506   0.226   2.262   4.113 -0.0786  1.0540 -0.9977
 3683SOL     OW22507   2.008   4.328   1.040 -0.3649  0.2119 -0.0107
 3683SOL    HW122508   2.050   4.346   1.124 -0.0356 -0.7020  0.0198
 3683SOL    HW222509   2.040   4.403   0.990  1.1809  0.0309  0.7050
 3684SOL     OW22510   0.258   3.705   7.498  0.8862  0.1353  0.4183
 3684SOL    HW122511   0.233   3.708   7.591  0.2002 -1.0667  0.2737
 3684SOL    HW222512   0.216   3.623   7.472 -0.0095  1.0277 -0.8888
 3685SOL     OW22513   2.338   3.393   5.749 -0.4330  0.0697  0.1528
 3685SOL    HW122514   2.302   3.481   5.736 -0.3562  0.0703 -0.0544
 3685SOL    HW222515   2.344   3.400   5.844 -0.0134 -2.1080  0.2945
 3686SOL     OW22516   4.353   2.691   1.458  0.0385 -0.2963 -0.2444
 3686SOL    HW122517   4.361   2.786   1.464  0.7039 -0.3172 -0.8323
 3686SOL    HW222518   4.279   2.680   1.399  1.5571 -0.7527 -2.0842
 3687SOL     OW22519   1.761   4.372  10.981  0.2267  0.1920 -0.0501
 3687SOL    HW122520   1.730   4.300  10.926 -0.0502 -0.1845  0.5973
 3687SOL    HW222521   1.842   4.334  11.017 -0.3846 -1.9394 -0.9027
 3688SOL     OW22522   3.249   3.652   5.747  0.5337  0.5324  0.4530
 3688SOL    HW122523   3.222   3.652   5.655  1.5873 -1.6610  0.1384
 3688SOL    HW222524   3.251   3.743   5.774 -0.5753  0.7938 -0.3346
 3689SOL     OW22525   0.878   4.123   8.006  0.0855  0.0188  0.2234
 3689SOL    HW122526   0.893   4.044   7.954 -2.4407 -0.0882 -0.3623
 3689SOL    HW222527   0.786   4.145   7.988 -0.2273  0.4928  2.3516
 3690SOL     OW22528   4.696   2.579   4.194  0.3567 -0.1935 -0.3044
 3690SOL    HW122529   4.629   2.548   4.256  0.4207  1.9179  0.8398
 3690SOL    HW222530   0.038   2.599   4.258  0.0516  0.9080 -0.3219
 3691SOL     OW22531   0.741   2.710   5.124  0.1155 -0.3608  0.0434
 3691SOL    HW122532   0.726   2.791   5.076  0.2773  1.1339  2.5348
 3691SOL    HW222533   0.736   2.743   5.214  0.8317 -1.2739  0.4213
 3692SOL     OW22534   0.910   1.774   8.885 -0.6196  0.0164 -0.2994
 3692SOL    HW122535   0.833   1.733   8.845  1.2841 -1.3884 -2.4574
 3692SOL    HW222536   0.958   1.805   8.809 -0.0397  0.1186  0.1101
 3693SOL     OW22537   0.456   1.236   6.639  0.4196 -0.0387 -0.0644
 3693SOL    HW122538   0.368   1.269   6.657  0.9527  1.3552 -0.0401
 3693SOL    HW222539   0.447   1.160   6.581 -0.5029 -0.2525  0.3618
 3694SOL     OW22540   2.927   0.227   2.349  0.6182  0.1195  0.4971
 3694SOL    HW122541   2.929   0.320   2.373 -1.3060  0.2352  0.2021
 3694SOL    HW222542   3.012   0.198   2.382  1.6675  0.5485 -1.8105
 3695SOL     OW22543   1.768   4.532   2.176 -0.4139  0.0150 -0.1964
 3695SOL    HW122544   1.862   4.515   2.189 -0.3998 -0.8113 -1.3849
 3695SOL    HW222545   1.728   4.454   2.213  0.8859 -0.4070  0.3266
 3696SOL     OW22546   3.934   3.396   0.651  0.4656  0.3618  0.3180
 3696SOL    HW122547   3.880   3.426   0.577  0.3985 -1.4082 -0.3463
 3696SOL    HW222548   3.928   3.304   0.627 -2.2355  0.7770 -0.5647
 3697SOL     OW22549   2.343   1.699   2.723 -0.0409 -0.5732 -0.3417
 3697SOL    HW122550   2.288   1.645   2.780 -1.1975  1.7552  0.7364
 3697SOL    HW222551   2.347   1.783   2.768  0.2370 -0.9249  0.2893
 3698SOL     OW22552   3.601   0.283   5.255 -0.8858 -0.8306 -0.2999
 3698SOL    HW122553   3.687   0.298   5.293 -1.8170 -0.7058  1.7698
 3698SOL    HW222554   3.560   0.369   5.263  0.7256 -0.1637  0.7282
 3699SOL     OW22555   0.336   1.877   2.507 -0.0633  0.1261 -0.4830
 3699SOL    HW122556   0.241   1.886   2.502  0.3178  3.8610 -0.4466
 3699SOL    HW222557   0.366   1.942   2.444  0.2845  0.4811  0.0561
 3700SOL     OW22558   4.181   1.572   2.928 -0.3758 -0.5590  0.5015
 3700SOL    HW122559   4.274   1.590   2.942 -0.3890  1.1753 -1.7144
 3700SOL    HW222560   4.180   1.479   2.948  0.0169 -0.1605  2.3391
 3701SOL     OW22561   0.298   4.369   7.550 -0.0492  0.1365  0.6507
 3701SOL    HW122562   0.322   4.434   7.616  2.4864 -0.8173  0.6773
 3701SOL    HW222563   0.205   4.364   7.570 -0.1201 -1.0454  0.0413
 3702SOL     OW22564   2.114   0.719   2.690  0.8125 -0.4910  1.0655
 3702SOL    HW122565   2.091   0.797   2.740  1.2827  0.5096 -0.2656
 3702SOL    HW222566   2.081   0.646   2.742  3.2892 -0.8641  2.0980
 3703SOL     OW22567   0.798   0.711  12.539 -0.2227 -0.3500 -0.4510
 3703SOL    HW122568   0.817   0.783  12.599  1.0181 -0.1476 -1.0762
 3703SOL    HW222569   0.726   0.747  12.487 -1.6499 -0.0094  1.7500
 3704SOL     OW22570   2.042   0.921  17.502  0.3040 -0.4415  0.2532
 3704SOL    HW122571   1.993   0.861  17.446 -3.1152  3.4816 -0.9202
 3704SOL    HW222572   1.973   0.955  17.559 -0.5211 -0.4656 -0.7427
 3705SOL     OW22573   4.071   0.585   6.682  0.4429 -0.4930 -0.1351
 3705SOL    HW122574   4.033   0.623   6.761  1.4965  1.0157 -0.3711
 3705SOL    HW222575   4.132   0.520   6.717  0.8410  0.3716  0.7857
 3706SOL     OW22576   1.980   1.609  14.157  0.3677 -0.0574 -0.6309
 3706SOL    HW122577   1.917   1.637  14.090  0.5574 -0.8262 -1.1320
 3706SOL    HW222578   1.952   1.672  14.223  0.3063  1.1281 -1.7841
 3707SOL     OW22579   1.067   2.782   2.265 -0.7758  0.3330 -0.0720
 3707SOL    HW122580   1.045   2.755   2.176 -0.8443 -0.5028  0.2073
 3707SOL    HW222581   0.985   2.830   2.278 -1.6512 -1.3645  0.5454
 3708SOL     OW22582   2.158   1.816   0.145  0.1702 -0.2509  0.3094
 3708SOL    HW122583   2.192   1.867   0.218  0.3525  0.8720 -0.5680
 3708SOL    HW222584   2.168   1.882   0.076 -1.4724  0.5322  0.8349
 3709SOL     OW22585   1.375   2.565   2.980  0.1370  0.1199  0.2207
 3709SOL    HW122586   1.395   2.648   2.937  3.7047 -0.9204 -0.1149
 3709SOL    HW222587   1.454   2.524   2.945 -0.4106  1.4142 -2.5265
 3710SOL     OW22588   2.835   2.964   9.921 -0.1407 -0.3736 -0.3368
 3710SOL    HW122589   2.779   2.912   9.863 -1.8304 -1.9543  2.7536
 3710SOL    HW222590   2.807   3.049   9.888 -3.7197 -1.4905 -0.1212
 3711SOL     OW22591   3.363   3.855   2.642 -0.4342 -0.4349  0.5812
 3711SOL    HW122592   3.347   3.796   2.568 -1.1900  1.5823 -0.8741
 3711SOL    HW222593   3.279   3.897   2.657  0.1596  1.0976 -0.4170
 3712SOL     OW22594   1.443   3.160  17.618 -0.0228 -0.0394 -0.1340
 3712SOL    HW122595   1.409   3.123  17.536 -0.0506 -1.1227  0.3739
 3712SOL    HW222596   1.508   3.224  17.587  0.9960 -0.0521  1.9732
 3713SOL     OW22597   2.944   4.246   2.139 -0.2629 -0.7770 -0.6801
 3713SOL    HW122598   2.915   4.336   2.126 -1.2082 -0.7339  1.9126
 3713SOL    HW222599   2.964   4.240   2.232  0.9450 -0.0219 -0.8885
 3714SOL     OW22600   4.098   2.101  11.541  0.2104 -0.3756 -0.5237
 3714SOL    HW122601   4.061   2.048  11.471 -2.6739  0.4688  0.3642
 3714SOL    HW222602   4.037   2.081  11.612  1.4497 -0.3150  0.5744
 3715SOL     OW22603   4.615   4.209   6.645  0.1349  0.0511 -0.0288
 3715SOL    HW122604   4.591   4.121   6.617 -2.3100  1.1714 -1.4127
 3715SOL    HW222605   4.699   4.191   6.687 -0.4389 -1.1364  0.6017
 3716SOL     OW22606   4.558   1.963  13.880 -0.0751 -0.4422 -0.0065
 3716SOL    HW122607   4.616   1.889  13.894  1.1281  0.6128  0.5545
 3716SOL    HW222608   4.483   1.952  13.939 -0.5393  0.0242 -0.5040
 3717SOL     OW22609   2.133   0.511   2.473 -0.0015 -0.5977 -0.1353
 3717SOL    HW122610   2.139   0.575   2.543 -0.2280  0.2803 -0.9273
 3717SOL    HW222611   2.194   0.442   2.502  0.6308  0.6892  1.5944
 3718SOL     OW22612   2.563   2.838   1.111 -0.2178 -0.8848  0.3536
 3718SOL    HW122613   2.621   2.847   1.035  0.5182  1.4162  1.1725
 3718SOL    HW222614   2.625   2.817   1.181  0.5013  3.0226  0.8826
 3719SOL     OW22615   0.713   0.411  10.759 -0.7730  0.2014  0.2390
 3719SOL    HW122616   0.760   0.458  10.690 -1.2375 -0.2697 -0.3966
 3719SOL    HW222617   0.765   0.431  10.837  1.5037 -0.4463 -1.1118
 3720SOL     OW22618   2.346   3.329  10.015  0.4306  0.7210  0.2622
 3720SOL    HW122619   2.356   3.269  10.090 -0.2728 -0.9110 -0.9408
 3720SOL    HW222620   2.258   3.366  10.025  0.1087  0.0802 -0.1911
 3721SOL     OW22621   1.679   0.900   7.742 -0.2639 -0.3332 -0.3335
 3721SOL    HW122622   1.723   0.922   7.824  2.2883 -0.9511 -1.5498
 3721SOL    HW222623   1.686   0.973   7.680 -2.5998  1.2851  1.2841
 3722SOL     OW22624   2.062   3.288  16.366  0.3787  0.4864  0.0931
 3722SOL    HW122625   2.097   3.317  16.282  0.6110 -0.0887 -0.0080
 3722SOL    HW222626   2.021   3.208  16.333  2.0559 -0.5409  0.4991
 3723SOL     OW22627   1.796   4.551  14.102 -0.4109 -0.3262  0.3231
 3723SOL    HW122628   1.707   4.537  14.069 -0.4624  0.8486 -0.0240
 3723SOL    HW222629   1.799   4.645  14.088  4.0454 -0.9615 -2.9145
 3724SOL     OW22630   0.688   2.520  13.768 -0.0799  0.2189 -0.2151
 3724SOL    HW122631   0.743   2.450  13.731  0.9555  1.6021 -1.2909
 3724SOL    HW222632   0.695   2.596  13.711 -0.2991  1.0686  0.8899
 3725SOL     OW22633   1.640   0.287   8.757  0.5488  0.3676 -0.0611
 3725SOL    HW122634   1.680   0.205   8.788 -2.7705 -0.9254  0.7858
 3725SOL    HW222635   1.666   0.280   8.665  1.1245  0.8285  0.0673
 3726SOL     OW22636   2.610   3.214  11.395  0.5226  0.0480 -0.1602
 3726SOL    HW122637   2.631   3.282  11.332  0.8795 -1.5633 -1.7931
 3726SOL    HW222638   2.694   3.201  11.440 -0.4873 -0.5882  1.5286
 3727SOL     OW22639   2.467   2.709   3.659 -0.3902  0.0340  0.3907
 3727SOL    HW122640   2.559   2.712   3.683 -0.2449 -2.7975  0.2293
 3727SOL    HW222641   2.450   2.631   3.605  0.3786  0.6974 -0.8131
 3728SOL     OW22642   1.865   0.138   1.406 -0.8212  0.8252 -0.0397
 3728SOL    HW122643   1.897   0.063   1.356 -0.7225  1.5123 -1.0225
 3728SOL    HW222644   1.793   0.091   1.449  1.5112 -1.4769  1.2754
 3729SOL     OW22645   4.586   1.063  14.062 -0.5743 -0.3307 -0.1573
 3729SOL    HW122646   4.627   0.977  14.070  0.0766 -0.0659 -0.6502
 3729SOL    HW222647   4.494   1.053  14.085 -0.8829 -0.1333 -1.3267
 3730SOL     OW22648   0.523   4.142   8.188  0.2001 -0.2894  0.1228
 3730SOL    HW122649   0.454   4.208   8.187  1.2555  0.8282  1.1027
 3730SOL    HW222650   0.597   4.199   8.211 -0.0692  0.0480  0.1512
 3731SOL     OW22651   0.626   0.032   1.553  0.1392  0.4346 -0.1555
 3731SOL    HW122652   0.620   4.676   1.504 -1.5153 -0.2603  1.2041
 3731SOL    HW222653   0.541   0.074   1.551 -0.0720 -0.1057 -2.6578
 3732SOL     OW22654   3.185   2.591   5.078  0.5517  0.3609 -0.5962
 3732SOL    HW122655   3.179   2.551   5.165  2.7377  1.8609  0.2347
 3732SOL    HW222656   3.092   2.606   5.061  0.0152 -1.9610  0.2304
 3733SOL     OW22657   4.236   3.574   8.330 -0.4129 -0.0342  0.2228
 3733SOL    HW122658   4.321   3.541   8.360 -1.7898 -1.0206  3.0097
 3733SOL    HW222659   4.202   3.490   8.298  0.0069 -0.4493  0.8558
 3734SOL     OW22660   2.049   3.916  12.275  0.1249 -0.4869  0.5389
 3734SOL    HW122661   2.144   3.916  12.275  0.1309  0.1054  1.0246
 3734SOL    HW222662   2.041   3.941  12.183 -0.4464  0.4761  0.8407
 3735SOL     OW22663   2.624   2.044   2.408  0.0379 -0.4992 -0.1367
 3735SOL    HW122664   2.538   2.083   2.390 -0.4654 -1.8724 -0.6975
 3735SOL    HW222665   2.639   2.102   2.482  0.3790 -1.2778  0.3959
 3736SOL     OW22666   2.882   1.419   7.960 -0.1185 -0.2111  0.3848
 3736SOL    HW122667   2.923   1.491   7.912  0.1005 -0.1513  0.6618
 3736SOL    HW222668   2.826   1.474   8.014 -1.0010  1.3793 -2.1178
 3737SOL     OW22669   4.679   2.683   3.466  0.1953  0.3979  0.1647
 3737SOL    HW122670   4.662   2.701   3.373 -1.6960 -1.7975  0.0787
 3737SOL    HW222671   4.594   2.694   3.508  0.7429  2.5055  0.6998
 3738SOL     OW22672   3.461   2.822  10.160 -0.4564 -0.3620 -0.7471
 3738SOL    HW122673   3.366   2.808  10.153 -0.2566 -1.1546 -1.9188
 3738SOL    HW222674   3.474   2.766  10.236 -0.7486  0.8860  0.2260
 3739SOL     OW22675   3.018   1.319   0.840  0.2946  0.2791 -1.0129
 3739SOL    HW122676   3.081   1.383   0.873 -1.2163  1.9643 -1.3818
 3739SOL    HW222677   2.965   1.303   0.918  2.9658 -1.4023  0.4348
 3740SOL     OW22678   4.598   0.429   6.840 -0.5210  0.2776 -0.0801
 3740SOL    HW122679   4.566   0.493   6.777  1.1564  1.1933  0.0202
 3740SOL    HW222680   4.537   0.355   6.838 -1.0502  0.6218  2.4330
 3741SOL     OW22681   1.138   0.351  13.504  0.1478 -0.8267  0.4827
 3741SOL    HW122682   1.141   0.257  13.483 -0.3377 -1.3522  2.7919
 3741SOL    HW222683   1.228   0.367  13.475 -0.3616 -1.5617 -1.5041
 3742SOL     OW22684   1.416   0.330  13.504  0.0298 -0.3061 -0.6171
 3742SOL    HW122685   1.434   0.322  13.410 -0.0695 -1.8362 -0.4962
 3742SOL    HW222686   1.489   0.382  13.537 -1.4485  1.6780 -0.4542
 3743SOL     OW22687   2.334   0.319   0.426 -0.5052 -0.5141 -0.1964
 3743SOL    HW122688   2.395   0.281   0.489  0.6697 -1.3860 -1.8732
 3743SOL    HW222689   2.280   0.242   0.405 -0.8670 -0.0225 -1.1007
 3744SOL     OW22690   0.340   0.420   9.867 -0.4271 -0.3190  0.1725
 3744SOL    HW122691   0.400   0.480   9.913  0.8846  0.7496 -2.9026
 3744SOL    HW222692   0.307   0.361   9.934  2.5320  0.6915  2.5294
 3745SOL     OW22693   0.813   4.669   0.593 -0.4391 -0.0788 -0.4863
 3745SOL    HW122694   0.871   4.683   0.668 -0.6113  0.4545 -0.4560
 3745SOL    HW222695   0.859   4.704   0.516  1.1760  0.2163  0.6163
 3746SOL     OW22696   2.915   1.317   1.926 -0.5308 -0.1433 -0.3541
 3746SOL    HW122697   2.873   1.333   2.010  0.5223  0.1543  0.1139
 3746SOL    HW222698   2.959   1.233   1.939 -0.0182  0.1508 -0.1802
 3747SOL     OW22699   0.785   0.637   2.270 -0.1011 -0.8489  0.1588
 3747SOL    HW122700   0.759   0.566   2.210 -1.1452 -2.0883  2.0518
 3747SOL    HW222701   0.720   0.707   2.269 -1.0579 -1.7157  0.8051
 3748SOL     OW22702   3.752   3.055  11.490 -0.1282  0.6738 -0.1112
 3748SOL    HW122703   3.814   3.053  11.563 -1.4379  0.2450  1.0079
 3748SOL    HW222704   3.689   2.985  11.508  2.3674 -1.2790  0.9910
 3749SOL     OW22705   4.396   1.974   2.704  0.9349  0.0836  0.3042
 3749SOL    HW122706   4.410   1.971   2.610  0.5242 -1.8368  0.3008
 3749SOL    HW222707   4.303   1.953   2.709  0.8114  0.5986  0.0936
 3750SOL     OW22708   0.214   0.458   9.485  0.0440  0.3789  0.4581
 3750SOL    HW122709   0.231   0.367   9.510 -0.6910  0.7257  2.2040
 3750SOL    HW222710   0.232   0.505   9.566 -2.6793  0.7711  0.8481
 3751SOL     OW22711   0.829   3.557   7.954  0.2910  0.2949  1.0905
 3751SOL    HW122712   0.829   3.500   7.878 -0.5700  2.7839 -0.7792
 3751SOL    HW222713   0.919   3.588   7.945  0.0701  0.3481 -0.9211
 3752SOL     OW22714   3.224   4.030   2.824 -0.0143 -0.0970  0.0833
 3752SOL    HW122715   3.271   4.088   2.884 -1.1600 -0.6422  1.5308
 3752SOL    HW222716   3.223   3.962   2.892  2.4215 -0.9995 -0.7972
 3753SOL     OW22717   4.212   4.074   6.172 -0.3761 -1.2787 -0.8188
 3753SOL    HW122718   4.268   4.151   6.184  0.2808 -1.8284 -0.3319
 3753SOL    HW222719   4.248   4.019   6.242  1.3472  0.6253 -0.2301
 3754SOL     OW22720   1.866   0.777   5.452 -0.2796  0.1544 -0.1682
 3754SOL    HW122721   1.961   0.781   5.447 -0.2762 -1.1256 -1.0291
 3754SOL    HW222722   1.844   0.870   5.447 -2.2338 -0.3007  0.0902
 3755SOL     OW22723   3.866   1.744  11.632  0.1476  0.0932 -0.4502
 3755SOL    HW122724   3.901   1.660  11.663 -1.0646 -1.3590 -2.9944
 3755SOL    HW222725   3.897   1.749  11.542  0.0704 -4.2544 -0.7393
 3756SOL     OW22726   1.987   2.787  15.742 -0.3835 -0.0075 -0.0563
 3756SOL    HW122727   2.025   2.868  15.710 -0.5103  0.2265  0.3866
 3756SOL    HW222728   1.912   2.818  15.793 -0.9739  0.0730 -0.9663
 3757SOL     OW22729   4.229   0.213   3.830  0.1196  0.6846 -0.0080
 3757SOL    HW122730   4.295   0.166   3.779  1.6983  1.0902  1.6517
 3757SOL    HW222731   4.186   0.264   3.762 -1.5544  0.6601  1.0416
 3758SOL     OW22732   2.955   4.114   0.441 -0.0964  0.3937  0.2007
 3758SOL    HW122733   2.976   4.207   0.432  1.7931 -0.1662 -1.0647
 3758SOL    HW222734   2.969   4.094   0.349  1.3526  1.0978  0.2727
 3759SOL     OW22735   2.648   2.728  11.352  0.1719 -0.1667 -0.3309
 3759SOL    HW122736   2.723   2.676  11.381  1.0290  1.5228  0.4911
 3759SOL    HW222737   2.688   2.758  11.270 -3.6627  4.5959 -0.4472
 3760SOL     OW22738   4.456   0.909   3.185 -0.2289 -0.3814  0.7098
 3760SOL    HW122739   4.392   0.852   3.143  0.5386 -0.6460 -0.1009
 3760SOL    HW222740   4.532   0.878   3.137 -0.9074  0.7079 -1.0624
 3761SOL     OW22741   2.025   4.229   5.451  0.2869  0.3461 -0.2178
 3761SOL    HW122742   1.971   4.187   5.518  0.2752  0.6561 -0.0338
 3761SOL    HW222743   1.959   4.278   5.401  0.8124  1.7166  0.4348
 3762SOL     OW22744   3.383   0.563  12.448  0.5242 -0.9387  0.0970
 3762SOL    HW122745   3.302   0.594  12.409  0.2020 -3.0215 -0.8728
 3762SOL    HW222746   3.431   0.645  12.443  0.4051 -0.6312  3.5298
 3763SOL     OW22747   3.383   0.229   5.561 -0.0562  0.0145  0.1073
 3763SOL    HW122748   3.347   0.313   5.588 -0.0909  0.3496 -0.9817
 3763SOL    HW222749   3.450   0.224   5.629  0.2802  2.3304 -0.0722
 3764SOL     OW22750   0.959   1.077   0.511 -0.4314 -0.0621  0.3741
 3764SOL    HW122751   0.950   1.041   0.599  1.2713 -1.2887  0.0514
 3764SOL    HW222752   1.054   1.091   0.512 -0.3972 -0.1163 -2.4549
 3765SOL     OW22753   2.612   4.630   4.015  0.1528  0.7480  0.5537
 3765SOL    HW122754   2.560   4.610   4.092 -0.1879 -0.4116  0.0338
 3765SOL    HW222755   2.672   4.555   4.025  0.9971  1.1188 -1.6707
 3766SOL     OW22756   4.607   4.048  17.072  0.2661 -0.0823 -0.2320
 3766SOL    HW122757   4.575   4.015  17.156 -1.1141 -0.1106 -0.7753
 3766SOL    HW222758   4.696   4.012  17.081  0.1602 -0.5208 -0.9538
 3767SOL     OW22759   1.643   3.858   1.312 -0.7477  0.7417  0.9126
 3767SOL    HW122760   1.633   3.950   1.286  0.9660 -0.0425 -2.4663
 3767SOL    HW222761   1.560   3.835   1.270 -0.7665  1.4357  0.5754
 3768SOL     OW22762   1.900   4.178   6.253 -0.0451 -0.2396 -0.6262
 3768SOL    HW122763   1.923   4.092   6.288 -1.2378  0.1536  1.1207
 3768SOL    HW222764   1.822   4.200   6.304  0.8650  1.0149  0.2347
 3769SOL     OW22765   4.488   4.653  14.275 -0.2483 -0.2541 -0.5215
 3769SOL    HW122766   4.430   4.709  14.224  1.3081  2.1411  0.3272
 3769SOL    HW222767   4.537   4.609  14.205  1.0150  3.0182 -1.6874
 3770SOL     OW22768   0.890   0.957  17.185  0.4186 -0.0142 -0.6907
 3770SOL    HW122769   0.844   0.880  17.218 -0.1947  0.6568  0.0265
 3770SOL    HW222770   0.825   0.984  17.121 -1.9437 -2.2774  0.7262
 3771SOL     OW22771   4.035   1.098   5.101  0.3709 -0.4940  0.0784
 3771SOL    HW122772   4.019   1.159   5.030  0.9389  1.1023  1.3165
 3771SOL    HW222773   4.082   1.162   5.155 -0.3383  0.2235 -0.1619
 3772SOL     OW22774   3.431   2.018   6.006 -0.0525  0.6843 -0.2533
 3772SOL    HW122775   3.374   2.085   5.967  2.7690  1.8615 -2.3773
 3772SOL    HW222776   3.512   2.027   5.955  0.1640 -0.2085 -0.0587
 3773SOL     OW22777   3.561   2.120   2.365  0.3272  0.4840  0.1484
 3773SOL    HW122778   3.627   2.091   2.428  1.2780 -1.5925 -1.7639
 3773SOL    HW222779   3.614   2.188   2.323  0.1471  0.4160 -0.1916
 3774SOL     OW22780   0.791   3.907   3.890 -0.0026  0.2092 -0.3311
 3774SOL    HW122781   0.780   3.871   3.802  0.8969  1.2330 -0.8699
 3774SOL    HW222782   0.698   3.926   3.904  0.6714  2.5763  0.9027
 3775SOL     OW22783   4.116   0.635   7.266 -0.2719  0.1197 -0.2283
 3775SOL    HW122784   4.041   0.694   7.264 -0.1480  0.3022  0.6237
 3775SOL    HW222785   4.186   0.695   7.240 -0.6418  0.4617 -0.4445
 3776SOL     OW22786   0.258   2.785   4.150  0.2261 -0.3785 -0.3696
 3776SOL    HW122787   0.321   2.761   4.082  2.3196  0.2720  1.3390
 3776SOL    HW222788   0.234   2.700   4.188 -1.1533 -0.3505 -1.1831
 3777SOL     OW22789   2.150   0.217   3.204  0.1640  0.2451 -0.5448
 3777SOL    HW122790   2.079   0.196   3.144  1.2627 -0.6009 -1.5520
 3777SOL    HW222791   2.144   0.147   3.269  0.3477  1.5148  0.8745
 3778SOL     OW22792   4.161   0.326   4.244  0.5274  0.0820  0.1963
 3778SOL    HW122793   4.200   0.396   4.191 -2.2531  1.3199 -0.1751
 3778SOL    HW222794   4.067   0.322   4.229  0.2682  0.4860  1.7214
 3779SOL     OW22795   0.061   0.370   1.900 -0.1470  0.2074  0.7559
 3779SOL    HW122796   4.703   0.326   1.892  0.1806 -0.0746 -1.3024
 3779SOL    HW222797   0.043   0.463   1.890  0.8809  0.4659  1.3588
 3780SOL     OW22798   0.058   1.696   2.750 -0.2165  0.2826 -0.0432
 3780SOL    HW122799   0.038   1.687   2.844  1.2102  1.7904  0.4120
 3780SOL    HW222800   0.022   1.784   2.738  0.1615  0.2718 -1.2338
 3781SOL     OW22801   1.481   2.157   8.444  0.8272 -0.0111  0.1984
 3781SOL    HW122802   1.537   2.204   8.504  1.1248 -0.0646 -0.0360
 3781SOL    HW222803   1.524   2.181   8.362 -0.5733 -0.8265 -0.7872
 3782SOL     OW22804   1.113   0.055   2.356  0.1699  0.2516  0.4399
 3782SOL    HW122805   1.195   0.044   2.307  0.3757  0.3859  0.7548
 3782SOL    HW222806   1.068   0.123   2.305 -2.7661 -0.3377  2.2092
 3783SOL     OW22807   3.996   4.005   2.281  0.6207  0.5819 -0.0080
 3783SOL    HW122808   4.092   4.013   2.284  0.8331 -1.9710  0.3395
 3783SOL    HW222809   3.987   3.930   2.223  0.6355  0.4694  0.1352
 3784SOL     OW22810   2.059   1.612   6.854  0.3931  0.9222 -0.2022
 3784SOL    HW122811   2.052   1.560   6.934 -1.8293  2.4630  0.6108
 3784SOL    HW222812   2.004   1.550   6.806 -1.2398  2.5827 -0.4876
 3785SOL     OW22813   2.554   2.424   3.033 -0.2309  0.0375 -0.0439
 3785SOL    HW122814   2.610   2.348   3.019  0.4963  0.4731  0.4953
 3785SOL    HW222815   2.603   2.484   2.976 -0.2520  1.6752  1.6732
 3786SOL     OW22816   2.227   2.912   4.200  0.2450  0.2613 -0.7174
 3786SOL    HW122817   2.311   2.910   4.245  1.4896  0.2137 -3.0685
 3786SOL    HW222818   2.167   2.860   4.254  2.2734 -1.5565 -0.2109
 3787SOL     OW22819   0.833   0.538  10.529 -0.1458 -0.6953 -0.4805
 3787SOL    HW122820   0.807   0.628  10.547  2.3146 -0.1466  0.4244
 3787SOL    HW222821   0.928   0.553  10.523 -0.4569  1.2837 -0.2983
 3788SOL     OW22822   0.459   0.851  12.917 -0.2988  0.2545  0.0790
 3788SOL    HW122823   0.376   0.874  12.875  0.4945 -0.4368 -1.8796
 3788SOL    HW222824   0.505   0.935  12.919 -0.0984  0.1313  0.7215
 3789SOL     OW22825   0.872   4.233  14.267 -0.6375  0.2595 -0.2597
 3789SOL    HW122826   0.868   4.288  14.346 -1.8050 -1.2516  0.7313
 3789SOL    HW222827   0.810   4.167  14.297 -0.7875  0.7395  0.4806
 3790SOL     OW22828   3.460   1.785   1.874  0.6113 -0.1755  0.7557
 3790SOL    HW122829   3.545   1.751   1.846  0.1117 -0.8132 -0.0106
 3790SOL    HW222830   3.468   1.875   1.842  0.0188  0.0275  1.1757
 3791SOL     OW22831   2.435   0.533   7.873  0.1589  0.0625 -0.2461
 3791SOL    HW122832   2.378   0.470   7.829  1.5219 -0.1457 -1.7090
 3791SOL    HW222833   2.399   0.541   7.961  0.4438  0.3498 -0.1539
 3792SOL     OW22834   3.935   0.216   8.428 -0.1400  0.3038 -0.3423
 3792SOL    HW122835   3.929   0.298   8.379 -1.1393 -1.1581 -2.6807
 3792SOL    HW222836   4.008   0.167   8.391 -3.1741 -5.4688  1.3851
 3793SOL     OW22837   2.508   4.434   6.602  0.4112  0.6356  0.0684
 3793SOL    HW122838   2.452   4.387   6.540  1.0532  0.0892 -0.1025
 3793SOL    HW222839   2.540   4.357   6.649  1.5897  0.4363 -1.0415
 3794SOL     OW22840   4.185   1.387   6.600  0.0790 -0.1027 -0.3673
 3794SOL    HW122841   4.095   1.384   6.569  0.0048 -0.3787 -0.1197
 3794SOL    HW222842   4.167   1.380   6.694  3.6077 -3.2764  0.0734
 3795SOL     OW22843   4.245   4.621  10.159 -0.0643 -0.6576 -0.1376
 3795SOL    HW122844   4.176   4.609  10.225 -0.2494 -1.0739 -0.4088
 3795SOL    HW222845   4.301   4.560  10.206  1.6280 -0.8895 -2.4641
 3796SOL     OW22846   1.095   2.539   0.883  0.9481  0.2555  0.1758
 3796SOL    HW122847   1.170   2.588   0.917  0.3989  1.5434 -0.4815
 3796SOL    HW222848   1.057   2.489   0.956 -1.1545 -0.3105 -1.3223
 3797SOL     OW22849   3.729   3.779   3.505  0.0151 -0.4288 -0.8705
 3797SOL    HW122850   3.661   3.837   3.541  0.7168  0.1045 -0.4012
 3797SOL    HW222851   3.810   3.820   3.534 -0.9446  0.4335  0.6116
 3798SOL     OW22852   1.244   3.892  14.365 -0.6782  0.4432 -0.2282
 3798SOL    HW122853   1.285   3.979  14.369  0.8842 -0.3311  0.8680
 3798SOL    HW222854   1.294   3.834  14.423 -0.3778  0.5265 -0.3997
 3799SOL     OW22855   4.649   1.134  17.649  0.3510  0.0682  0.1302
 3799SOL    HW122856   4.680   1.049  17.682  0.1964  0.6135  1.6834
 3799SOL    HW222857   4.584   1.092  17.593  0.9488 -1.5929  0.6581
 3800SOL     OW22858   2.860   2.354   2.134 -0.1712  0.3346 -0.0673
 3800SOL    HW122859   2.794   2.334   2.067  2.0964  0.6750 -2.3956
 3800SOL    HW222860   2.792   2.375   2.198 -1.9201  0.4534 -1.9667
 3801SOL     OW22861   2.666   3.109   7.859  0.1030 -0.0728  0.2525
 3801SOL    HW122862   2.640   3.189   7.906 -0.8811  0.1993 -0.7461
 3801SOL    HW222863   2.661   3.049   7.934  2.8231  2.5210  2.4974
 3802SOL     OW22864   2.036   3.484   2.404 -0.2080  0.0378  0.2620
 3802SOL    HW122865   2.058   3.572   2.432 -0.8689  0.6292 -1.0889
 3802SOL    HW222866   2.018   3.435   2.485 -1.6997  0.2152  0.0391
 3803SOL     OW22867   4.453   3.238   4.326  0.0857  0.2715 -0.0170
 3803SOL    HW122868   4.396   3.193   4.387  0.9289 -1.9819 -0.9143
 3803SOL    HW222869   4.416   3.326   4.334  0.0738  0.5296 -2.7738
 3804SOL     OW22870   3.513   3.662   7.667  0.4372  1.1357  0.3191
 3804SOL    HW122871   3.463   3.657   7.748  0.6356 -3.3075  0.1663
 3804SOL    HW222872   3.591   3.612   7.691 -0.5263 -0.9985 -1.0019
 3805SOL     OW22873   3.975   2.365  11.662  0.5231 -0.2188  0.6779
 3805SOL    HW122874   4.061   2.406  11.671  0.1322  0.7970 -0.2038
 3805SOL    HW222875   3.940   2.366  11.751  0.8642  0.4727  0.8073
 3806SOL     OW22876   0.587   1.583   6.589  0.1052 -0.5767 -0.0466
 3806SOL    HW122877   0.660   1.622   6.542 -0.3478  0.7891  0.3988
 3806SOL    HW222878   0.623   1.507   6.635  1.4676  1.2563  1.8451
 3807SOL     OW22879   1.336   3.040   5.823 -0.4655 -0.0846  0.4185
 3807SOL    HW122880   1.317   3.082   5.907  1.6403 -0.8388  1.2856
 3807SOL    HW222881   1.379   2.961   5.856 -0.1857 -0.7980 -1.6797
 3808SOL     OW22882   4.207   0.268   2.031  0.2366  0.4187 -0.0113
 3808SOL    HW122883   4.291   0.239   2.067 -0.5026  0.7705  2.0348
 3808SOL    HW222884   4.234   0.354   2.000  0.5248  0.7881  1.2590
 3809SOL     OW22885   4.456   0.588   3.222  0.0721  0.5952 -0.5950
 3809SOL    HW122886   4.548   0.587   3.197 -0.3968  0.1858 -2.3484
 3809SOL    HW222887   4.422   0.627   3.141 -0.3037  2.5728  0.5150
 3810SOL     OW22888   0.232   3.889   2.586 -0.2860  0.4340 -0.1842
 3810SOL    HW122889   0.281   3.904   2.667 -2.0963  0.4080  0.9134
 3810SOL    HW222890   0.173   3.963   2.575  0.3650  0.9309 -0.3207
 3811SOL     OW22891   0.706   4.598   2.147 -0.3924 -0.1602 -0.3744
 3811SOL    HW122892   0.780   4.557   2.102 -2.2275 -1.8476 -1.8513
 3811SOL    HW222893   0.656   4.638   2.077 -0.3064  1.4014  0.4670
 3812SOL     OW22894   4.176   4.118   8.838  0.0216  0.1669  0.2037
 3812SOL    HW122895   4.235   4.044   8.849 -1.4052 -1.0107 -0.0020
 3812SOL    HW222896   4.104   4.068   8.797 -0.7755  0.8045  0.8368
 3813SOL     OW22897   0.554   3.492   5.337 -0.3712  0.1714  0.9246
 3813SOL    HW122898   0.561   3.499   5.242  1.0370  0.4389  1.0606
 3813SOL    HW222899   0.530   3.580   5.364 -0.6368 -0.0653  1.4862
 3814SOL     OW22900   0.430   1.477   3.386  0.4250 -0.3563  0.4576
 3814SOL    HW122901   0.515   1.507   3.354  0.0587  0.0693 -0.1184
 3814SOL    HW222902   0.383   1.560   3.374 -0.3419 -0.7242  0.9023
 3815SOL     OW22903   4.629   0.573   6.070  0.2369  0.6200  0.6471
 3815SOL    HW122904   4.602   0.552   5.980  1.0515 -0.6283  0.6823
 3815SOL    HW222905   4.592   0.660   6.086  0.9429  1.2564 -1.2015
 3816SOL     OW22906   2.024   0.515   2.063  0.0748 -0.3462 -1.2992
 3816SOL    HW122907   2.046   0.600   2.101 -1.5097 -0.1404 -0.8507
 3816SOL    HW222908   2.068   0.456   2.124  1.0536  4.6821  2.8935
 3817SOL     OW22909   3.775   0.728  13.326  0.4796 -0.3058 -0.2555
 3817SOL    HW122910   3.695   0.675  13.323  1.0758 -1.2532  0.6832
 3817SOL    HW222911   3.754   0.796  13.391 -1.1389 -1.4193  0.3924
 3818SOL     OW22912   4.571   4.671   6.921  0.3270 -0.0133  0.2473
 3818SOL    HW122913   4.635   4.601   6.909  1.7298  1.0067  1.8831
 3818SOL    HW222914   4.546   4.685   6.829 -2.7874  1.1806  1.2593
 3819SOL     OW22915   1.833   0.925   8.627 -0.5459  0.4727  0.1071
 3819SOL    HW122916   1.841   0.831   8.609 -0.9367  0.3665  0.4763
 3819SOL    HW222917   1.874   0.927   8.714  0.9419  1.1791 -0.6135
 3820SOL     OW22918   0.607   2.003   6.964 -0.1516  0.2390  0.6002
 3820SOL    HW122919   0.601   1.959   6.879 -1.3191  0.9860  0.2882
 3820SOL    HW222920   0.622   2.092   6.933 -1.4868  0.9479  1.9715
 3821SOL     OW22921   2.092   3.461  11.430  0.0317  0.1759  0.1588
 3821SOL    HW122922   2.050   3.378  11.451  0.0990 -0.1265 -0.9042
 3821SOL    HW222923   2.107   3.493  11.519  0.0516 -1.1227  0.6142
 3822SOL     OW22924   4.344   0.022   4.325 -0.0273  0.0803  0.3574
 3822SOL    HW122925   4.342   0.051   4.234  0.0052  0.1279  0.3719
 3822SOL    HW222926   4.354   0.105   4.372  0.2198  0.0014  0.4443
 3823SOL     OW22927   0.907   4.172   4.043 -0.3738  0.1899  0.1787
 3823SOL    HW122928   0.879   4.215   3.962 -0.8867 -0.3407  0.0746
 3823SOL    HW222929   0.827   4.158   4.094 -0.1133 -0.8284  0.2957
 3824SOL     OW22930   4.267   2.571   2.837 -0.3280  0.5377 -0.2972
 3824SOL    HW122931   4.326   2.617   2.778 -0.2783  0.0387 -0.6376
 3824SOL    HW222932   4.203   2.637   2.863  0.2380  2.3101 -3.3692
 3825SOL     OW22933   2.677   4.329  12.694  0.6823 -0.3224  0.8626
 3825SOL    HW122934   2.649   4.243  12.662  1.2072 -0.8181  1.7404
 3825SOL    HW222935   2.772   4.315  12.687  0.7369 -0.0407  1.0374
 3826SOL     OW22936   2.767   2.591   3.205 -0.2536 -0.5371 -0.0948
 3826SOL    HW122937   2.766   2.591   3.301  1.1369 -2.4567 -0.0618
 3826SOL    HW222938   2.768   2.498   3.180 -1.8101 -0.2906 -1.0866
 3827SOL     OW22939   0.452   1.442   4.707 -0.0038 -0.0819  0.5190
 3827SOL    HW122940   0.416   1.484   4.785 -1.4291  1.4851 -0.9742
 3827SOL    HW222941   0.443   1.518   4.650  1.1090  0.3101  0.8746
 3828SOL     OW22942   2.013   3.836  11.200 -0.0240 -0.0440  0.6793
 3828SOL    HW122943   2.042   3.792  11.280 -1.7894  0.9162  1.8648
 3828SOL    HW222944   2.070   3.911  11.212  0.5353 -0.4961  0.8528
 3829SOL     OW22945   0.932   2.284   0.720 -0.4261  0.0030  0.2642
 3829SOL    HW122946   0.884   2.366   0.710  0.5579  0.5016 -0.4196
 3829SOL    HW222947   1.022   2.311   0.704 -0.9676  1.7929  0.2633
 3830SOL     OW22948   0.166   0.462   2.312 -0.3889  0.1866 -0.1878
 3830SOL    HW122949   0.081   0.447   2.353 -1.2769  0.1877 -2.0796
 3830SOL    HW222950   0.222   0.497   2.381 -3.0561 -1.0026  2.5886
 3831SOL     OW22951   0.019   2.262   9.564  0.1772 -0.3523  0.0090
 3831SOL    HW122952   4.664   2.310   9.564  1.0228  1.0892  1.8654
 3831SOL    HW222953   4.714   2.179   9.600 -0.1299 -0.7999 -1.2841
 3832SOL     OW22954   0.928   3.184  13.321 -0.0211  0.3012  0.1918
 3832SOL    HW122955   0.949   3.120  13.254  0.0374  0.0747  0.4248
 3832SOL    HW222956   1.018   3.214  13.330  0.3217 -0.8830  0.6715
 3833SOL     OW22957   4.576   3.363   8.919 -0.2914  0.0113 -0.2240
 3833SOL    HW122958   4.500   3.330   8.872 -0.5066 -0.6046  0.5551
 3833SOL    HW222959   4.650   3.317   8.879 -2.5355 -1.9946 -2.0272
 3834SOL     OW22960   1.871   3.161   8.268 -0.1638 -0.6204  0.1914
 3834SOL    HW122961   1.840   3.215   8.196  0.1970 -2.9420 -1.6926
 3834SOL    HW222962   1.936   3.226   8.295  0.1315 -1.1791  0.8299
 3835SOL     OW22963   0.604   2.321   7.221  0.1899 -0.1360  0.2027
 3835SOL    HW122964   0.513   2.326   7.250  0.0572 -1.6540  0.0129
 3835SOL    HW222965   0.654   2.346   7.299  0.9590 -1.2849  0.0792
 3836SOL     OW22966   3.477   3.454   4.007 -0.0268 -0.4849  0.0617
 3836SOL    HW122967   3.465   3.539   4.048  1.6826 -0.5641  0.7311
 3836SOL    HW222968   3.573   3.453   4.014  0.0627  0.9835 -0.9839
 3837SOL     OW22969   3.565   4.128   2.033 -0.8485  0.2143 -0.7683
 3837SOL    HW122970   3.533   4.065   2.098  0.7797  1.7300  1.5284
 3837SOL    HW222971   3.651   4.088   2.017 -1.5620 -1.9704  0.7106
 3838SOL     OW22972   4.607   4.084   3.757  0.7492  0.2687 -0.0059
 3838SOL    HW122973   4.584   4.134   3.836  0.2850 -0.2208  0.1651
 3838SOL    HW222974   4.676   4.026   3.787 -0.4837 -1.5828 -0.7893
 3839SOL     OW22975   3.069   1.736   4.957 -0.2203  0.8785 -0.0341
 3839SOL    HW122976   3.002   1.772   4.898 -1.3791  0.4991  1.0408
 3839SOL    HW222977   3.144   1.726   4.898 -0.5700 -0.7295 -0.1999
 3840SOL     OW22978   3.464   1.361   6.544 -0.1099 -0.3119  0.2559
 3840SOL    HW122979   3.470   1.436   6.602  2.0510  0.1713 -0.5719
 3840SOL    HW222980   3.518   1.398   6.474  1.1104 -3.4820 -0.4549
 3841SOL     OW22981   1.819   1.021   4.117 -0.0706 -0.0750 -0.6341
 3841SOL    HW122982   1.824   1.109   4.155  1.2797 -1.2212  1.8162
 3841SOL    HW222983   1.866   1.037   4.035  1.0215 -0.1418 -0.0222
 3842SOL     OW22984   3.591   1.962  11.167 -0.5796 -0.2395 -0.3604
 3842SOL    HW122985   3.603   1.995  11.078  0.6835  0.2106 -0.0267
 3842SOL    HW222986   3.654   1.890  11.165 -0.1134  0.1107  2.1125
 3843SOL     OW22987   3.649   2.455   3.244  0.2176 -0.3447 -0.5506
 3843SOL    HW122988   3.625   2.484   3.156  2.7725 -0.9141 -1.4211
 3843SOL    HW222989   3.681   2.539   3.277 -1.3194  0.1483 -0.3108
 3844SOL     OW22990   0.456   0.901   6.754  0.3255  0.3870  0.2150
 3844SOL    HW122991   0.443   0.963   6.826 -2.6754  0.3442 -0.2926
 3844SOL    HW222992   0.422   0.820   6.792 -0.9579 -0.1456 -2.0932
 3845SOL     OW22993   1.966   1.721   6.615 -0.3905  0.4248  0.4613
 3845SOL    HW122994   2.012   1.737   6.698 -0.6667  0.7274  0.5558
 3845SOL    HW222995   1.987   1.799   6.562  1.3070 -0.2716  0.1053
 3846SOL     OW22996   4.102   3.654   4.310  0.4418 -0.4515  0.3271
 3846SOL    HW122997   4.115   3.657   4.405  0.3243  2.0472  0.2642
 3846SOL    HW222998   4.088   3.747   4.291 -0.0418 -0.8419 -1.1910
 3847SOL     OW22999   2.278   3.386   4.666  0.6896  0.1567 -0.1437
 3847SOL    HW123000   2.357   3.373   4.613  0.4854  1.7604 -0.8259
 3847SOL    HW223001   2.220   3.361   4.594  2.1403 -5.5500  0.6370
 3848SOL     OW23002   1.377   0.414   3.470  0.3333  0.1018  0.7275
 3848SOL    HW123003   1.421   0.490   3.433  0.8190  0.9447  3.0392
 3848SOL    HW223004   1.290   0.448   3.448  0.8760  0.9435 -0.1124
 3849SOL     OW23005   3.928   1.162  10.484  0.0899 -0.3901  0.0030
 3849SOL    HW123006   3.983   1.240  10.494 -0.4726  0.0039 -0.0282
 3849SOL    HW223007   3.955   1.105  10.556  0.0962  1.6331  1.5958
 3850SOL     OW23008   1.268   0.200   5.874 -0.3439 -0.4394  0.0302
 3850SOL    HW123009   1.238   0.286   5.843  1.8810 -1.0317 -3.7803
 3850SOL    HW223010   1.228   0.215   5.959 -2.7553  1.0917 -1.3861
 3851SOL     OW23011   4.165   3.259   3.042 -0.1928  0.8613 -0.1021
 3851SOL    HW123012   4.215   3.335   3.012 -1.1145  0.9729 -1.3388
 3851SOL    HW223013   4.225   3.229   3.110 -1.7343 -0.8802  0.5073
 3852SOL     OW23014   2.092   2.339   6.232  0.0100  0.3390  0.0508
 3852SOL    HW123015   2.133   2.389   6.162 -1.5586 -0.0049 -1.1208
 3852SOL    HW223016   2.054   2.406   6.288 -1.2287 -1.0092  0.8227
 3853SOL     OW23017   0.985   1.986   1.431 -0.2378 -0.0442 -0.2147
 3853SOL    HW123018   1.066   1.957   1.389  0.3843 -0.4748  1.2596
 3853SOL    HW223019   0.945   2.038   1.361  1.4808 -0.6189 -1.6355
 3854SOL     OW23020   2.222   2.473   9.804 -0.5830  0.2782  0.0103
 3854SOL    HW123021   2.130   2.450   9.812 -0.5603 -0.0792 -0.6850
 3854SOL    HW223022   2.249   2.411   9.872  1.9512  0.5830 -0.7024
 3855SOL     OW23023   0.335   4.027   1.744 -0.3326 -0.3558  0.1125
 3855SOL    HW123024   0.378   4.112   1.736 -0.4305 -0.1362  1.9006
 3855SOL    HW223025   0.394   3.971   1.694 -1.6141 -1.2379 -0.4359
 3856SOL     OW23026   0.364   3.212   6.756  0.1277 -0.0800 -0.9268
 3856SOL    HW123027   0.412   3.165   6.687 -0.5387  0.5552 -1.8163
 3856SOL    HW223028   0.399   3.160   6.829 -4.3397 -0.7969  0.6618
 3857SOL     OW23029   1.101   2.429   0.047 -0.1420 -0.1261 -0.0540
 3857SOL    HW123030   1.078   2.406  17.664 -0.0561 -2.7771  0.5938
 3857SOL    HW223031   1.101   2.340   0.081 -1.1202 -0.1839 -0.2075
 3858SOL     OW23032   3.213   1.317   6.656 -0.2712 -0.0909  0.0822
 3858SOL    HW123033   3.290   1.311   6.600 -0.2459  0.6296  0.0347
 3858SOL    HW223034   3.255   1.323   6.742 -2.0369  0.2125  0.9205
 3859SOL     OW23035   1.511   4.455   9.741 -0.0189  0.2368 -0.3656
 3859SOL    HW123036   1.604   4.448   9.721  0.4640  1.0903  1.5908
 3859SOL    HW223037   1.473   4.431   9.656  1.0276  1.4307 -1.1715
 3860SOL     OW23038   1.530   0.361   6.380  0.1965 -0.9656  0.2625
 3860SOL    HW123039   1.562   0.398   6.298 -0.2085 -1.9812 -0.3556
 3860SOL    HW223040   1.597   0.299   6.408  0.9041 -0.4341 -0.2657
 3861SOL     OW23041   2.837   0.239   9.689  0.2851  0.0775 -0.0516
 3861SOL    HW123042   2.760   0.290   9.713  1.0350  0.1055  2.2477
 3861SOL    HW223043   2.831   0.253   9.594  2.5727 -0.1937 -0.2356
 3862SOL     OW23044   4.366   3.448   3.975  0.2770  0.3974  0.7765
 3862SOL    HW123045   4.300   3.513   3.999 -0.8626 -0.4749  0.0331
 3862SOL    HW223046   4.399   3.494   3.898 -0.0682  1.1727  1.0944
 3863SOL     OW23047   3.511   3.933  14.038 -0.0395  0.1234  0.2402
 3863SOL    HW123048   3.558   3.950  14.120 -0.0179 -0.5020  0.3571
 3863SOL    HW223049   3.437   3.887  14.078 -0.4153 -2.3406 -3.3056
 3864SOL     OW23050   1.659   3.179   3.756  0.2540 -0.4002  0.3463
 3864SOL    HW123051   1.576   3.131   3.750 -0.1312  0.0295  2.3484
 3864SOL    HW223052   1.710   3.107   3.794  2.3740  1.4371  0.9929
 3865SOL     OW23053   0.165   0.926   4.153  0.2691  0.2332  0.7441
 3865SOL    HW123054   0.113   0.848   4.171 -0.0712  0.5642  1.2105
 3865SOL    HW223055   0.144   0.930   4.059 -0.1985  0.8798  0.8729
 3866SOL     OW23056   1.612   0.603   1.797  0.0653 -0.0816 -0.8160
 3866SOL    HW123057   1.689   0.610   1.740  0.2233 -2.8286 -0.9542
 3866SOL    HW223058   1.580   0.693   1.796 -0.6971 -0.3457  0.1747
 3867SOL     OW23059   1.819   1.365  11.833 -0.5554  0.0187 -0.3729
 3867SOL    HW123060   1.873   1.403  11.903 -2.2350 -0.0714  0.9714
 3867SOL    HW223061   1.753   1.434  11.826  0.1582  0.7199 -0.1502
 3868SOL     OW23062   0.031   1.864  13.403  0.6214 -0.1096  0.0179
 3868SOL    HW123063   0.022   1.848  13.496 -1.1037 -0.7518 -0.2510
 3868SOL    HW223064   0.053   1.957  13.395  2.1021 -0.2314  2.8780
 3869SOL     OW23065   2.188   3.110   5.423 -0.1544 -0.1878  0.5629
 3869SOL    HW123066   2.093   3.125   5.420 -0.0372  0.9777  2.5735
 3869SOL    HW223067   2.224   3.198   5.423 -0.5065 -0.0431 -0.0645
 3870SOL     OW23068   3.955   2.253  11.363  0.0509 -0.1259 -0.5931
 3870SOL    HW123069   4.017   2.187  11.332  0.4284  0.2860 -0.7308
 3870SOL    HW223070   3.979   2.246  11.455  0.4163  0.2928 -0.6552
 3871SOL     OW23071   2.521   0.022  12.517  0.2839  0.0851 -0.5716
 3871SOL    HW123072   2.557   4.661  12.505 -1.8436 -1.0211  1.0029
 3871SOL    HW223073   2.427   0.007  12.505  0.3320  0.1891 -1.0721
 3872SOL     OW23074   2.893   0.317  11.375  0.0741  0.1676  0.0629
 3872SOL    HW123075   2.881   0.389  11.437  0.2631  1.6832 -1.6551
 3872SOL    HW223076   2.926   0.372  11.304 -0.3941 -0.8240 -0.9243
 3873SOL     OW23077   3.457   4.641   6.094  0.4482  0.1364  0.3759
 3873SOL    HW123078   3.376   4.616   6.138  1.2797 -0.9341  1.3032
 3873SOL    HW223079   3.521   4.633   6.164  0.8786 -1.3098 -0.1858
 3874SOL     OW23080   1.932   1.334   8.930 -0.1574 -0.4906  0.0515
 3874SOL    HW123081   1.961   1.330   9.020 -0.7056  2.2182  0.3723
 3874SOL    HW223082   1.912   1.428   8.919 -0.1552 -0.2233  2.3311
 3875SOL     OW23083   4.555   2.421  16.100 -0.2860  0.0790  0.0117
 3875SOL    HW123084   4.570   2.475  16.178 -2.5714  2.1600 -1.0018
 3875SOL    HW223085   4.464   2.392  16.112 -0.6077  0.6020 -1.1630
 3876SOL     OW23086   2.277   2.168  14.911 -0.1238 -0.2361 -0.1043
 3876SOL    HW123087   2.358   2.140  14.954  0.4633  1.5233 -0.0629
 3876SOL    HW223088   2.256   2.094  14.854  0.3341  1.5488 -2.6269
 3877SOL     OW23089   4.532   0.132   0.071  0.4323  0.4706 -0.7168
 3877SOL    HW123090   4.546   0.154   0.163 -0.7649 -1.3249 -0.0776
 3877SOL    HW223091   4.490   0.209   0.034 -2.1594 -0.5920 -0.0314
 3878SOL     OW23092   4.046   0.442   0.378 -0.0558 -0.1520 -0.0117
 3878SOL    HW123093   4.117   0.484   0.328 -1.5365 -0.0531 -2.0154
 3878SOL    HW223094   4.102   0.389   0.435  0.4078  0.4960  0.1417
 3879SOL     OW23095   0.049   3.424   2.797  0.1976  0.1857  0.1914
 3879SOL    HW123096   0.066   3.498   2.738  2.5440 -1.4352 -1.1548
 3879SOL    HW223097   0.098   3.450   2.875 -0.5628 -0.4479  0.8843
 3880SOL     OW23098   3.212   2.183   5.883  0.0443  0.1080 -0.2356
 3880SOL    HW123099   3.136   2.165   5.827  0.6049 -2.3254 -0.2080
 3880SOL    HW223100   3.273   2.205   5.813  1.5447 -1.3877  0.6118
 3881SOL     OW23101   2.952   4.025   6.388  0.4779 -0.9419 -0.4997
 3881SOL    HW123102   2.940   4.113   6.425  0.5975 -0.5558 -1.3811
 3881SOL    HW223103   2.962   3.961   6.458  2.7483 -1.6541 -1.4745
 3882SOL     OW23104   1.039   4.222   1.316 -0.1409 -0.2695 -0.1709
 3882SOL    HW123105   1.035   4.136   1.358  1.4158 -1.0530 -1.6034
 3882SOL    HW223106   1.067   4.188   1.231 -0.6838 -1.1719  0.0200
 3883SOL     OW23107   0.197   2.753   1.828 -0.1183  0.2806 -0.0456
 3883SOL    HW123108   0.156   2.805   1.898  1.5626  0.4301  0.8321
 3883SOL    HW223109   0.202   2.819   1.759  1.6054 -0.7923 -0.9338
 3884SOL     OW23110   3.475   3.836   8.216 -0.5668 -0.3064 -0.3161
 3884SOL    HW123111   3.489   3.774   8.144  1.1087 -0.4174  0.1021
 3884SOL    HW223112   3.516   3.783   8.285 -1.7006 -0.1875  0.4352
 3885SOL     OW23113   1.427   0.667   3.371 -0.0493 -0.2365  0.6176
 3885SOL    HW123114   1.414   0.729   3.299  1.6069 -1.7584 -0.9842
 3885SOL    HW223115   1.372   0.706   3.439 -1.5133 -0.0657 -0.6690
 3886SOL     OW23116   3.444   0.678   1.628  0.0233  0.1130 -0.1432
 3886SOL    HW123117   3.411   0.589   1.636  0.8994  0.0066  2.3634
 3886SOL    HW223118   3.455   0.694   1.534 -0.8907  0.3443 -0.2026
 3887SOL     OW23119   3.899   4.441  14.391 -0.0314 -0.2255 -0.5792
 3887SOL    HW123120   3.962   4.510  14.370 -1.4805  0.5642 -2.4288
 3887SOL    HW223121   3.962   4.378  14.428 -1.5207 -0.6842  1.1553
 3888SOL     OW23122   0.274   2.608   7.291 -0.3889  0.3771  0.0786
 3888SOL    HW123123   0.183   2.579   7.283 -0.5622  1.4971 -2.0427
 3888SOL    HW223124   0.254   2.693   7.330 -0.1539 -0.4028  1.8564
 3889SOL     OW23125   0.303   0.021  12.902 -0.0748 -0.2638 -0.7770
 3889SOL    HW123126   0.293   0.116  12.914  2.5013 -0.2831  1.3462
 3889SOL    HW223127   0.391   0.019  12.939 -1.5018 -1.0719  2.5380
 3890SOL     OW23128   4.232   3.993  11.606  0.0206 -0.3624 -0.2801
 3890SOL    HW123129   4.310   3.938  11.616 -0.9654 -1.6045  0.4773
 3890SOL    HW223130   4.203   4.000  11.698  0.0000 -0.2045 -0.2982
 3891SOL     OW23131   2.880   0.195  12.593  0.4628  0.7408  0.3679
 3891SOL    HW123132   2.831   0.159  12.519  0.9224 -2.6611  1.7643
 3891SOL    HW223133   2.934   0.122  12.622  1.1715  1.7626  1.6134
 3892SOL     OW23134   1.003   0.157   7.493  0.1318 -0.5402  0.5786
 3892SOL    HW123135   0.916   0.177   7.529  0.0755  2.1685 -1.1021
 3892SOL    HW223136   1.052   0.213   7.553  0.0907  0.7626 -0.6175
 3893SOL     OW23137   1.338   1.468   0.408  0.0172 -0.2761 -0.7052
 3893SOL    HW123138   1.422   1.513   0.392 -0.2502 -0.1672 -1.8254
 3893SOL    HW223139   1.288   1.502   0.333  1.6883  2.3168 -0.6403
 3894SOL     OW23140   2.506   2.739   8.891  0.5905 -0.3084  0.2388
 3894SOL    HW123141   2.586   2.790   8.878  0.4261  0.4069  2.0552
 3894SOL    HW223142   2.533   2.647   8.895  0.2676 -0.4582 -0.8324
 3895SOL     OW23143   2.510   1.562   7.944  0.2990  0.4736  0.3287
 3895SOL    HW123144   2.513   1.478   7.899 -2.2775  1.8560 -2.4190
 3895SOL    HW223145   2.461   1.617   7.882  0.6806  0.7415  0.2591
 3896SOL     OW23146   4.250   4.110   7.763  0.2840  0.7542 -0.1109
 3896SOL    HW123147   4.243   4.193   7.811  0.3554  0.2174  0.8237
 3896SOL    HW223148   4.238   4.148   7.675  0.6428 -0.2807 -0.6065
 3897SOL     OW23149   4.641   4.225   5.379 -0.0449  0.7018  0.1021
 3897SOL    HW123150   4.556   4.189   5.405  1.8015 -3.2621  0.6271
 3897SOL    HW223151   4.687   4.153   5.338 -1.0689  0.6828 -1.0190
 3898SOL     OW23152   0.264   2.928  15.701  0.7591 -0.1043  1.1046
 3898SOL    HW123153   0.287   2.893  15.787  2.5322 -1.1287  0.2070
 3898SOL    HW223154   0.317   2.867  15.650 -0.2351 -0.9068  1.0168
 3899SOL     OW23155   0.294   3.498   5.690 -0.8459  0.1254 -0.1729
 3899SOL    HW123156   0.271   3.557   5.618  0.9016  0.4549 -0.4840
 3899SOL    HW223157   0.315   3.418   5.641  0.9669 -0.4886  1.6070
 3900SOL     OW23158   3.065   2.211   8.492 -0.7193 -0.5123  0.1981
 3900SOL    HW123159   3.038   2.272   8.423 -0.1771  2.3916  2.5397
 3900SOL    HW223160   3.043   2.136   8.438 -1.9685 -0.1886  0.2684
 3901SOL     OW23161   1.616   3.556  16.107 -0.5423  0.1596  0.0636
 3901SOL    HW123162   1.641   3.648  16.101 -2.3167  0.5419 -1.3071
 3901SOL    HW223163   1.528   3.552  16.071 -1.5803 -2.6762  2.9101
 3902SOL     OW23164   1.647   2.786   3.428  0.1474  0.0250 -0.2708
 3902SOL    HW123165   1.734   2.825   3.440 -1.3562  3.2818 -0.1054
 3902SOL    HW223166   1.600   2.868   3.435 -1.5088 -1.0664  1.2294
 3903SOL     OW23167   4.046   4.197   3.012 -0.1555  0.2085  0.6540
 3903SOL    HW123168   4.133   4.235   2.997 -0.4359  0.0981 -1.2395
 3903SOL    HW223169   4.028   4.173   2.921 -0.5181 -0.7760  0.9869
 3904SOL     OW23170   2.111   2.996  11.721 -0.6079  0.4419  0.2878
 3904SOL    HW123171   2.070   2.975  11.805  0.1600 -2.0033  0.0546
 3904SOL    HW223172   2.137   2.908  11.692 -3.5148 -0.5725  0.7744
 3905SOL     OW23173   3.339   1.805   3.252  0.0744 -0.3090 -0.4740
 3905SOL    HW123174   3.291   1.726   3.279  2.2021 -1.2475  0.5600
 3905SOL    HW223175   3.309   1.865   3.320  1.7897 -1.3035  1.1754
 3906SOL     OW23176   2.524   3.018   7.613  0.0499 -0.5755  0.5548
 3906SOL    HW123177   2.595   3.039   7.674 -0.9533 -0.9298  1.8344
 3906SOL    HW223178   2.559   2.937   7.576  0.1166 -0.1906 -0.2194
 3907SOL     OW23179   1.972   4.153   2.853  0.1028 -0.5724  0.2148
 3907SOL    HW123180   1.948   4.062   2.832  0.8767 -0.7033 -0.0857
 3907SOL    HW223181   2.068   4.150   2.856  0.2361  1.4254 -2.3409
 3908SOL     OW23182   4.657   2.183   2.494  0.3511  0.0931 -0.2101
 3908SOL    HW123183   4.576   2.232   2.508  0.7507  0.7392 -0.2125
 3908SOL    HW223184   4.702   2.205   2.576  0.7840 -0.3396 -0.3296
 3909SOL     OW23185   2.694   1.920   3.862 -0.4606 -0.5144 -0.1718
 3909SOL    HW123186   2.669   1.924   3.770 -0.5935 -1.6580 -0.1763
 3909SOL    HW223187   2.676   2.013   3.879  2.2613 -0.0700  0.3451
 3910SOL     OW23188   3.649   0.457   7.475 -0.0243 -0.9670  0.2046
 3910SOL    HW123189   3.574   0.514   7.490  0.0596 -0.9402  0.5179
 3910SOL    HW223190   3.670   0.469   7.382 -1.5470  2.5357  0.3000
 3911SOL     OW23191   1.105   1.710   2.764  0.2426 -0.1092  0.5711
 3911SOL    HW123192   1.109   1.792   2.716  0.0946 -0.4923 -0.0884
 3911SOL    HW223193   1.110   1.642   2.697 -0.0844 -0.4426  0.8811
 3912SOL     OW23194   0.239   0.424   4.710 -0.1651  0.5000  0.4877
 3912SOL    HW123195   0.154   0.457   4.739 -0.7440  0.3559 -1.0714
 3912SOL    HW223196   0.205   0.386   4.629 -0.2419  0.1034  0.7052
 3913SOL     OW23197   1.544   2.924  17.158 -0.0855 -0.6096 -0.0827
 3913SOL    HW123198   1.593   2.865  17.100 -0.8897 -0.1432 -1.2539
 3913SOL    HW223199   1.485   2.959  17.091 -1.1145 -1.0964  0.5607
 3914SOL     OW23200   2.185   1.309  17.470  0.6089  0.0271  0.3954
 3914SOL    HW123201   2.237   1.360  17.409 -2.6367  1.6288 -1.0538
 3914SOL    HW223202   2.189   1.375  17.539  1.3035 -1.6857  1.9809
 3915SOL     OW23203   3.680   3.493   0.503 -0.2012  0.2510 -0.0847
 3915SOL    HW123204   3.700   3.491   0.409 -0.5897 -2.0839 -0.1238
 3915SOL    HW223205   3.585   3.503   0.495 -0.2814 -0.6237 -0.2275
 3916SOL     OW23206   1.048   0.558   1.361  0.2930 -0.1770  0.1879
 3916SOL    HW123207   0.972   0.572   1.305  1.0768 -1.2308 -1.1465
 3916SOL    HW223208   1.084   0.646   1.349  3.0500 -1.4349 -0.7741
 3917SOL     OW23209   4.310   1.498   3.196 -0.2652  0.1491  0.4240
 3917SOL    HW123210   4.287   1.590   3.208  0.2087  0.7706 -3.4997
 3917SOL    HW223211   4.390   1.484   3.248 -0.2652 -1.1666  0.0803
 3918SOL     OW23212   3.826   0.006   2.131  0.5075 -0.0215  0.3823
 3918SOL    HW123213   3.749   4.706   2.181 -0.1245 -1.4291 -1.3737
 3918SOL    HW223214   3.880   4.657   2.106  2.8025  1.3724  1.0682
 3919SOL     OW23215   3.613   1.417   6.279 -0.1304  0.3448  0.1189
 3919SOL    HW123216   3.569   1.501   6.288  0.1863  0.3979  1.1508
 3919SOL    HW223217   3.691   1.444   6.232  0.0987 -0.9849 -0.2644
 3920SOL     OW23218   4.377   0.497   5.902  0.0462  0.0661 -0.4603
 3920SOL    HW123219   4.430   0.556   5.849 -1.1438  0.9679 -0.6313
 3920SOL    HW223220   4.434   0.426   5.934  2.8745  2.5487  0.0319
 3921SOL     OW23221   4.168   2.494  11.266  0.1173 -0.4818  0.4735
 3921SOL    HW123222   4.252   2.461  11.234 -0.1634  1.0076 -1.7872
 3921SOL    HW223223   4.196   2.575  11.308  0.5504 -0.3584 -0.0502
 3922SOL     OW23224   2.727   3.433   8.432  0.6159 -0.4444  0.1476
 3922SOL    HW123225   2.750   3.440   8.525  0.0221  0.5099  0.2234
 3922SOL    HW223226   2.813   3.410   8.398  0.2933  0.9162 -1.5680
 3923SOL     OW23227   2.701   0.299  15.782 -0.2839  0.3002  0.0196
 3923SOL    HW123228   2.774   0.361  15.788 -0.3981  0.5470 -1.2374
 3923SOL    HW223229   2.686   0.290  15.876 -1.0389  1.7578  0.0373
 3924SOL     OW23230   1.586   2.634   1.499 -0.4070 -0.5701 -0.1130
 3924SOL    HW123231   1.577   2.571   1.571 -1.5752  0.0317  0.2798
 3924SOL    HW223232   1.680   2.647   1.493 -0.1358 -1.9050  1.2129
 3925SOL     OW23233   3.047   2.842   0.448  0.2890 -0.6438 -0.3391
 3925SOL    HW123234   2.994   2.908   0.404 -0.4555 -0.9556  0.0738
 3925SOL    HW223235   3.128   2.842   0.399  0.0584 -0.3403 -0.7119
 3926SOL     OW23236   1.395   2.274   6.565  0.5086 -0.4845 -0.4528
 3926SOL    HW123237   1.350   2.315   6.491  1.0895 -1.5108 -1.3868
 3926SOL    HW223238   1.420   2.358   6.604 -0.6111 -0.4899  0.2450
 3927SOL     OW23239   2.453   0.269  15.243  0.1503  0.5160  0.1145
 3927SOL    HW123240   2.477   0.178  15.258 -0.7049 -0.3747 -3.8329
 3927SOL    HW223241   2.374   0.279  15.297 -1.0318 -2.4110 -1.0980
 3928SOL     OW23242   1.404   3.795   7.256  0.2463 -0.0340 -0.1726
 3928SOL    HW123243   1.453   3.863   7.209 -1.2872  0.0613 -1.6459
 3928SOL    HW223244   1.393   3.833   7.342 -0.9045 -0.1309 -0.2813
 3929SOL     OW23245   0.543   1.926   4.744 -0.2215  0.7093 -0.1645
 3929SOL    HW123246   0.608   1.981   4.700 -0.4683  0.4021 -0.9315
 3929SOL    HW223247   0.589   1.860   4.795 -0.1324 -2.1372 -3.9204
 3930SOL     OW23248   1.291   2.804   6.496 -0.2571 -1.1552  0.5143
 3930SOL    HW123249   1.294   2.899   6.485 -1.5013 -1.1970 -0.1793
 3930SOL    HW223250   1.385   2.785   6.492 -0.4109 -1.7680 -0.2937
 3931SOL     OW23251   3.735   2.304   1.915  0.3489 -0.2409 -0.2325
 3931SOL    HW123252   3.640   2.304   1.918  0.3865  0.6423  1.7738
 3931SOL    HW223253   3.749   2.240   1.846 -3.0075 -2.6854  1.3621
 3932SOL     OW23254   1.846   3.130  15.648 -0.5021  0.4538  0.2051
 3932SOL    HW123255   1.927   3.135  15.597 -0.2963  1.6263  0.6562
 3932SOL    HW223256   1.868   3.156  15.737 -1.7970  0.6595  0.4556
 3933SOL     OW23257   4.092   2.249   3.999  0.0057  0.4549  0.6351
 3933SOL    HW123258   4.113   2.157   3.988  4.6335  1.3151  2.3850
 3933SOL    HW223259   3.997   2.249   4.012 -0.2098  1.6706 -0.8885
 3934SOL     OW23260   0.099   0.357  14.934  0.2167  0.2505  0.7433
 3934SOL    HW123261   0.144   0.434  14.969  1.0585 -0.1278  0.5081
 3934SOL    HW223262   0.119   0.287  14.997 -1.9424 -0.2848  0.8519
 3935SOL     OW23263   0.879   2.447   3.533  0.1511  0.3283 -0.1145
 3935SOL    HW123264   0.886   2.459   3.438 -0.3139 -1.0836 -0.3322
 3935SOL    HW223265   0.914   2.358   3.539 -2.3875 -0.7344 -1.2704
 3936SOL     OW23266   0.494   2.375   6.527 -0.3346 -0.6792 -0.0607
 3936SOL    HW123267   0.517   2.373   6.434  3.2602  1.3886  0.7582
 3936SOL    HW223268   0.582   2.363   6.563 -0.0284  0.1480 -0.5468
 3937SOL     OW23269   1.876   2.275   2.747  0.1777 -0.5055  0.7347
 3937SOL    HW123270   1.912   2.189   2.770 -2.9356 -1.8538  0.5909
 3937SOL    HW223271   1.782   2.270   2.765 -0.0998  0.6832 -0.4518
 3938SOL     OW23272   1.139   0.195  10.631  0.8606 -0.0050 -0.0890
 3938SOL    HW123273   1.160   0.101  10.638 -1.2924 -0.5293 -0.7014
 3938SOL    HW223274   1.127   0.217  10.723 -1.6108  0.7930 -0.6181
 3939SOL     OW23275   0.296   4.467   5.042  0.8398 -0.6219  0.7070
 3939SOL    HW123276   0.256   4.465   4.955 -0.0683  1.5824  1.0726
 3939SOL    HW223277   0.217   4.491   5.090 -0.7309  0.5923 -2.4558
 3940SOL     OW23278   1.794   2.488  14.443  0.0624 -0.2358  0.3331
 3940SOL    HW123279   1.864   2.503  14.379  0.7515 -0.1853  1.0932
 3940SOL    HW223280   1.719   2.494  14.384  0.3427 -0.5916 -0.0640
 3941SOL     OW23281   3.097   2.468  17.000  0.0616  0.4094 -0.1260
 3941SOL    HW123282   3.133   2.550  17.035  0.3033  0.3882 -0.3257
 3941SOL    HW223283   3.107   2.483  16.906  1.8891 -1.0283 -0.1610
 3942SOL     OW23284   2.103   3.978   0.219 -0.0397  0.4366  0.1349
 3942SOL    HW123285   2.057   3.903   0.180  0.4676 -0.2750  0.8880
 3942SOL    HW223286   2.143   4.001   0.136  1.5202 -0.5361  0.6208
 3943SOL     OW23287   1.528   0.107   7.953 -0.1295  0.0606 -0.6475
 3943SOL    HW123288   1.500   0.132   8.041  1.2422  0.7292 -0.3986
 3943SOL    HW223289   1.568   0.021   7.965  2.0196  1.1330 -0.0222
 3944SOL     OW23290   4.448   2.978   1.890  0.3107 -0.3214  0.7663
 3944SOL    HW123291   4.433   3.033   1.967  0.2568 -0.0409  0.5557
 3944SOL    HW223292   4.403   2.899   1.919 -1.0504 -0.7330 -2.4449
 3945SOL     OW23293   0.541   0.030   5.936  0.0650 -0.1265  0.2000
 3945SOL    HW123294   0.490   4.718   5.864  1.0066  1.9339 -1.6037
 3945SOL    HW223295   0.494   4.706   6.001  0.3132  0.9756  1.2292
 3946SOL     OW23296   4.597   3.407   5.666 -0.0382 -0.2483  0.2293
 3946SOL    HW123297   4.652   3.346   5.716  2.2667  0.4982 -1.3991
 3946SOL    HW223298   4.558   3.460   5.736 -1.9808 -0.1725 -0.9227
 3947SOL     OW23299   2.186   1.950   4.460 -0.1730 -0.1709 -0.1849
 3947SOL    HW123300   2.151   1.998   4.535  1.7553  1.1844 -0.1498
 3947SOL    HW223301   2.266   1.992   4.426  0.6260 -0.6340  1.1408
 3948SOL     OW23302   4.688   2.353   4.482  0.0583  0.4011 -0.0508
 3948SOL    HW123303   4.676   2.272   4.533  2.7368  0.6782  1.0080
 3948SOL    HW223304   4.602   2.390   4.463  0.1911 -0.7180 -2.7239
 3949SOL     OW23305   0.270   2.890   6.461 -0.3444  0.1037  0.4281
 3949SOL    HW123306   0.229   2.807   6.437  0.5070 -0.2518  0.2335
 3949SOL    HW223307   0.338   2.879   6.396  0.7215  2.5294  1.1458
 3950SOL     OW23308   0.330   3.220   9.214  0.5233  0.1869 -0.9936
 3950SOL    HW123309   0.283   3.176   9.284  2.0155 -1.4249 -1.0006
 3950SOL    HW223310   0.364   3.148   9.161 -1.3656 -1.7958  0.4920
 3951SOL     OW23311   2.928   0.807   6.989 -0.9147  0.1393  0.4596
 3951SOL    HW123312   2.891   0.888   6.955 -0.8806 -0.2596 -0.5079
 3951SOL    HW223313   2.872   0.778   7.061 -0.3029  1.9413  1.6915
 3952SOL     OW23314   3.811   4.669  17.533 -0.6762 -0.3623  0.4166
 3952SOL    HW123315   3.810   4.715  17.449  3.6892 -0.9402 -0.0005
 3952SOL    HW223316   3.814   4.577  17.506  3.0680 -0.3091  0.5984
 3953SOL     OW23317   1.902   3.027   3.238  0.2027 -0.3572 -0.1885
 3953SOL    HW123318   1.889   2.957   3.302  0.0341  0.7515  0.9578
 3953SOL    HW223319   1.980   3.070   3.272  0.3426 -1.1115  0.4336
 3954SOL     OW23320   3.643   1.509   9.988  0.0013 -0.7594  0.2907
 3954SOL    HW123321   3.649   1.425  10.033  2.1482  0.3683  2.1075
 3954SOL    HW223322   3.623   1.570  10.059  0.7751  0.3660 -0.4613
 3955SOL     OW23323   3.215   0.055   5.671  0.6786 -0.3099  0.1336
 3955SOL    HW123324   3.278   0.116   5.632 -0.3858  1.4681  1.2082
 3955SOL    HW223325   3.268   4.725   5.727  2.5148  0.7950 -0.4742
 3956SOL     OW23326   2.661   3.959   1.830 -0.1531  0.2581  0.2854
 3956SOL    HW123327   2.712   3.990   1.904  0.6698  0.4432 -0.3528
 3956SOL    HW223328   2.604   4.032   1.804  1.2965  0.9866 -0.8707
 3957SOL     OW23329   1.705   4.389  17.684  0.3792 -0.1879  0.0976
 3957SOL    HW123330   1.767   4.418   0.043  0.4377 -2.2503  0.9409
 3957SOL    HW223331   1.730   4.297  17.689 -0.5578 -0.4384  0.1314
 3958SOL     OW23332   0.283   0.521   1.956 -0.1400 -0.2699  0.0672
 3958SOL    HW123333   0.343   0.580   1.911  1.5514 -0.9117  1.5041
 3958SOL    HW223334   0.201   0.528   1.906  0.4781 -0.7092 -0.9870
 3959SOL     OW23335   0.316   2.551  12.513 -0.0892 -0.5123  0.1773
 3959SOL    HW123336   0.386   2.515  12.458 -0.2694  0.4637 -0.6816
 3959SOL    HW223337   0.264   2.477  12.546 -0.0745 -0.4881  0.2546
 3960SOL     OW23338   0.334   1.141   4.174  0.5844 -0.0559  0.6401
 3960SOL    HW123339   0.328   1.184   4.089  0.0247 -1.4307 -0.0192
 3960SOL    HW223340   0.272   1.068   4.174 -0.6360  0.9811 -0.7741
 3961SOL     OW23341   3.872   3.276  11.140  0.6741  0.3054 -0.2975
 3961SOL    HW123342   3.849   3.266  11.232  1.1444  4.0975  0.2447
 3961SOL    HW223343   3.968   3.270  11.145  0.4940  1.0934  4.0572
 3962SOL     OW23344   0.057   0.049   8.549  0.1502  0.0025  0.1858
 3962SOL    HW123345   0.153   0.051   8.559  0.1701  0.4094 -0.1042
 3962SOL    HW223346   0.051   4.680   8.555  2.5024 -0.1954 -0.4567
 3963SOL     OW23347   0.553   3.535   7.065  0.1718  0.3165  0.0673
 3963SOL    HW123348   0.505   3.615   7.089 -0.3748  0.5181 -1.6848
 3963SOL    HW223349   0.573   3.501   7.153 -1.1848  0.9322  0.6072
 3964SOL     OW23350   0.432   0.329   9.642  0.0105  0.5205  0.6286
 3964SOL    HW123351   0.490   0.404   9.626  0.1462 -0.0413 -1.4968
 3964SOL    HW223352   0.385   0.354   9.722 -0.6178 -0.8419  0.6741
 3965SOL     OW23353   3.070   0.780   5.951  0.0943  0.0704  0.5718
 3965SOL    HW123354   3.004   0.823   6.006 -0.2425 -0.0410  0.2545
 3965SOL    HW223355   3.036   0.695   5.923 -0.1813  0.2001  0.5097
 3966SOL     OW23356   3.264   4.604   8.117 -0.2181 -0.1963 -0.7265
 3966SOL    HW123357   3.197   4.546   8.153  0.5716 -0.7047 -0.0872
 3966SOL    HW223358   3.253   4.684   8.169  1.3316 -1.0522  0.8934
 3967SOL     OW23359   4.677   1.874   1.700 -0.0583  0.6672 -0.3988
 3967SOL    HW123360   0.012   1.802   1.683 -0.5422  0.4722 -1.3164
 3967SOL    HW223361   4.612   1.812   1.731 -1.1897  1.3222 -1.4556
 3968SOL     OW23362   3.552   4.604  15.814 -0.6772 -0.6737  0.1037
 3968SOL    HW123363   3.470   4.598  15.765 -0.9307 -0.3322  0.4904
 3968SOL    HW223364   3.603   4.661  15.757 -0.4372  0.5159  1.5080
 3969SOL     OW23365   1.452   2.167  13.341 -0.1569 -0.3285 -0.2415
 3969SOL    HW123366   1.392   2.168  13.415 -0.6288  0.0142 -0.6280
 3969SOL    HW223367   1.495   2.082  13.351  3.9891  1.5084 -2.2345
 3970SOL     OW23368   1.047   3.717  17.453 -0.1367  0.4442  0.1008
 3970SOL    HW123369   1.054   3.641  17.511  0.4441  0.3712 -0.0651
 3970SOL    HW223370   1.136   3.712  17.420  0.3852  0.7977  1.4499
 3971SOL     OW23371   4.445   4.311   1.350 -0.2774  0.3970  0.0909
 3971SOL    HW123372   4.505   4.260   1.294  0.0572 -0.2731  1.0526
 3971SOL    HW223373   4.410   4.364   1.279 -1.5289  3.7973  3.2859
 3972SOL     OW23374   0.206   3.543  17.574 -0.6158 -0.2562 -0.0498
 3972SOL    HW123375   0.160   3.503  17.648  0.4504  1.9972  1.8503
 3972SOL    HW223376   0.127   3.564  17.524  0.1849  0.4010 -1.0341
 3973SOL     OW23377   3.311   4.215   0.643 -0.4103  0.1453  0.0657
 3973SOL    HW123378   3.230   4.174   0.673 -0.5961  0.5971  0.1790
 3973SOL    HW223379   3.288   4.308   0.647 -1.0762  0.0044 -0.3813
 3974SOL     OW23380   3.952   0.523   8.683 -0.2983  0.6001 -0.0799
 3974SOL    HW123381   4.023   0.577   8.715  0.1046 -0.3854  0.6832
 3974SOL    HW223382   4.000   0.441   8.667  0.1714  0.3797  2.4939
 3975SOL     OW23383   0.894   1.699   0.121 -0.0668  0.2837  0.3000
 3975SOL    HW123384   0.966   1.677   0.061  0.1451  1.0760  0.2591
 3975SOL    HW223385   0.868   1.612   0.150 -1.5676  0.3155 -0.9282
 3976SOL     OW23386   3.679   3.382  10.779  0.1307  0.2746  0.2305
 3976SOL    HW123387   3.713   3.460  10.736 -2.7792  1.8582  0.7533
 3976SOL    HW223388   3.637   3.353  10.698 -1.1124 -0.6920  1.2077
 3977SOL     OW23389   0.228   3.633   8.987 -0.6690  0.2158  0.3733
 3977SOL    HW123390   0.267   3.547   8.972 -0.7632  0.4042 -0.9385
 3977SOL    HW223391   0.138   3.620   8.957  0.2635 -3.7389 -0.7743
 3978SOL     OW23392   0.815   1.647   8.229  0.0622  0.1416  0.2526
 3978SOL    HW123393   0.763   1.626   8.306  2.4709 -0.5585  1.6663
 3978SOL    HW223394   0.750   1.705   8.189  3.9161  2.0465 -3.3087
 3979SOL     OW23395   0.351   4.509   0.936  0.0318  0.4165  0.4988
 3979SOL    HW123396   0.399   4.446   0.882  0.7266  1.8072 -0.4853
 3979SOL    HW223397   0.420   4.521   1.002 -1.2183 -0.4957  1.9803
 3980SOL     OW23398   4.616   1.872   8.909  0.3350 -0.3468 -0.3410
 3980SOL    HW123399   4.620   1.965   8.933  1.3017 -0.6123  0.5383
 3980SOL    HW223400   4.556   1.851   8.981  1.5341  0.9311  1.0379
 3981SOL     OW23401   3.856   4.492   0.958  0.8361 -0.6313 -0.5724
 3981SOL    HW123402   3.931   4.449   0.998 -0.3752 -3.5125 -1.3961
 3981SOL    HW223403   3.870   4.572   1.009  1.3685 -1.1666  0.1223
 3982SOL     OW23404   3.674   4.098  12.316 -0.4579  0.6827  0.7198
 3982SOL    HW123405   3.732   4.102  12.240 -0.5647  2.5443  0.7418
 3982SOL    HW223406   3.737   4.137  12.376  1.1067  0.5401 -0.8352
 3983SOL     OW23407   0.998   2.593   9.644  0.6459  0.1892 -0.0116
 3983SOL    HW123408   0.917   2.581   9.595 -0.6811  2.5308  1.5983
 3983SOL    HW223409   1.009   2.686   9.663  0.9402  0.0045  0.7296
 3984SOL     OW23410   2.384   2.474   3.526 -0.0078 -0.1601 -0.1695
 3984SOL    HW123411   2.339   2.404   3.573  0.0563  0.2439  0.4984
 3984SOL    HW223412   2.442   2.413   3.481 -0.0246 -0.6022  0.4069
 3985SOL     OW23413   4.370   2.166   0.166  0.4939  0.2163  0.1652
 3985SOL    HW123414   4.430   2.091   0.168  0.0238 -0.1968 -2.4578
 3985SOL    HW223415   4.425   2.233   0.126  1.7264 -1.5624 -1.1088
 3986SOL     OW23416   2.727   2.047   9.556  0.2746 -0.0071 -0.0204
 3986SOL    HW123417   2.781   2.124   9.537  0.8548 -0.9660 -2.3154
 3986SOL    HW223418   2.715   2.054   9.651  0.1671 -0.7845  0.0270
 3987SOL     OW23419   2.875   3.680   2.304 -0.5120 -0.0038 -0.0910
 3987SOL    HW123420   2.925   3.726   2.371  2.1993 -3.4723  0.2846
 3987SOL    HW223421   2.831   3.633   2.374  1.7799  0.0337  1.3947
 3988SOL     OW23422   1.511   0.652   1.459  0.2438 -0.5052 -0.1938
 3988SOL    HW123423   1.544   0.725   1.511  2.1640 -0.0810 -1.9912
 3988SOL    HW223424   1.508   0.693   1.372 -0.9939  1.1673  0.6540
 3989SOL     OW23425   0.771   3.925  13.252 -0.3372  0.4477  0.1656
 3989SOL    HW123426   0.679   3.915  13.274 -0.6745  0.9961 -1.0337
 3989SOL    HW223427   0.819   3.889  13.327 -0.6063 -2.0652 -0.8849
 3990SOL     OW23428   2.087   4.438  12.254  0.0354  0.1956 -0.6065
 3990SOL    HW123429   2.008   4.428  12.308  0.9767  1.6111  1.0031
 3990SOL    HW223430   2.159   4.430  12.316 -0.5817 -0.9293 -0.0259
 3991SOL     OW23431   2.522   2.424  17.050 -0.3986  0.1994 -0.2070
 3991SOL    HW123432   2.428   2.425  17.065 -0.4634 -3.1118 -0.2839
 3991SOL    HW223433   2.547   2.516  17.050  3.8020 -0.9410 -1.8394
 3992SOL     OW23434   3.322   0.369  10.430 -0.1271 -0.2067 -0.4586
 3992SOL    HW123435   3.249   0.431  10.432 -1.0438 -1.3152  0.0704
 3992SOL    HW223436   3.317   0.324  10.514  0.6567 -0.0212 -0.3107
 3993SOL     OW23437   2.029   4.356   8.285 -0.2755  0.5426 -0.3661
 3993SOL    HW123438   2.024   4.261   8.288 -0.9865  0.4559 -3.4618
 3993SOL    HW223439   2.007   4.395   8.369 -2.6518 -1.5678 -0.0177
 3994SOL     OW23440   2.710   2.638   6.598 -0.4501  0.1752  0.4068
 3994SOL    HW123441   2.775   2.701   6.627  1.3012 -0.8817 -1.2305
 3994SOL    HW223442   2.762   2.584   6.538 -0.7570  0.3119  0.0225
 3995SOL     OW23443   0.951   1.502  10.025  0.2602 -0.1456 -0.4420
 3995SOL    HW123444   0.862   1.469  10.012  0.6584 -1.0887 -0.7742
 3995SOL    HW223445   0.957   1.570   9.958  2.4693  0.7487  0.6891
 3996SOL     OW23446   0.041   0.700   4.219 -0.2690 -0.1884  0.0664
 3996SOL    HW123447   4.713   0.625   4.194 -1.5431  1.1342 -1.1955
 3996SOL    HW223448   0.065   0.668   4.306  0.2104  0.3693  0.1381
 3997SOL     OW23449   1.074   2.455   9.413 -0.7626 -0.3224  0.1033
 3997SOL    HW123450   1.137   2.383   9.413 -1.1860 -0.6862  1.4837
 3997SOL    HW223451   1.066   2.473   9.507 -1.5240 -3.0502  0.5321
 3998SOL     OW23452   1.525   4.039   4.624  0.5309 -0.6629 -0.3835
 3998SOL    HW123453   1.462   3.967   4.627  0.7524 -0.8015  0.8553
 3998SOL    HW223454   1.482   4.103   4.681  0.6699  1.0124 -2.1450
 3999SOL     OW23455   2.587   1.152  11.790 -0.3428  0.3692  0.2417
 3999SOL    HW123456   2.613   1.124  11.702  0.8119  0.7154  0.4621
 3999SOL    HW223457   2.582   1.071  11.840 -0.9722  1.1051  1.3812
 4000SOL     OW23458   2.793   0.764  17.407  0.3252 -0.0248  0.7798
 4000SOL    HW123459   2.798   0.757  17.502  0.6730  1.8386  0.9023
 4000SOL    HW223460   2.709   0.804  17.385  0.2095 -0.5343  0.3008
 4001SOL     OW23461   3.791   1.553   8.160  0.8470 -0.3508  0.1299
 4001SOL    HW123462   3.814   1.461   8.172 -0.7325 -0.8454 -0.5587
 4001SOL    HW223463   3.826   1.589   8.242  1.0558  2.1052 -1.0404
 4002SOL     OW23464   4.559   2.884   5.547 -0.0438  0.4463  0.0567
 4002SOL    HW123465   4.608   2.965   5.559 -1.3820  1.5578 -2.0167
 4002SOL    HW223466   4.596   2.833   5.619  0.2348 -0.1354 -0.4935
 4003SOL     OW23467   3.924   3.378   1.177  0.1718  0.0485 -0.0926
 4003SOL    HW123468   3.848   3.346   1.226 -0.0528  1.2077  0.2977
 4003SOL    HW223469   3.879   3.409   1.098 -2.8041  0.6893  1.8602
 4004SOL     OW23470   4.129   3.862  14.092 -0.3889  0.4818 -0.1808
 4004SOL    HW123471   4.052   3.870  14.149 -0.1562 -0.5284  0.2641
 4004SOL    HW223472   4.113   3.789  14.032 -0.2702 -0.1920  0.6125
 4005SOL     OW23473   1.720   2.640  12.603  0.4948  0.4022  0.5667
 4005SOL    HW123474   1.741   2.725  12.564  2.0578  0.0530  0.6283
 4005SOL    HW223475   1.779   2.647  12.678  0.9864  1.5322  0.0773
 4006SOL     OW23476   1.505   4.069   4.005  0.2030  0.3712 -0.3603
 4006SOL    HW123477   1.457   4.046   3.925  0.7188  0.8721 -0.8143
 4006SOL    HW223478   1.569   4.131   3.972 -1.6482  1.6933 -1.4712
 4007SOL     OW23479   2.804   1.550   3.327  0.3582 -0.0557 -0.4058
 4007SOL    HW123480   2.777   1.507   3.408  0.1154  2.8257  1.0556
 4007SOL    HW223481   2.854   1.475   3.296  2.7179  1.2813  0.1433
 4008SOL     OW23482   2.769   3.890   5.333  0.3083 -0.1168 -0.0222
 4008SOL    HW123483   2.692   3.865   5.281  0.2692 -2.4541  1.1304
 4008SOL    HW223484   2.731   3.903   5.420  1.5299 -0.5645  0.5764
 4009SOL     OW23485   3.021   2.006   3.389  0.0247 -0.2605 -0.0106
 4009SOL    HW123486   3.005   1.919   3.352 -0.2111 -0.4621  0.5647
 4009SOL    HW223487   3.096   2.029   3.335  0.9620  0.4951  1.6120
 4010SOL     OW23488   2.013   4.060   7.214  0.1713 -0.0841 -0.1945
 4010SOL    HW123489   2.062   4.128   7.169  0.0430  0.7482  0.9463
 4010SOL    HW223490   2.070   4.057   7.290 -2.6951 -0.3899  1.9448
 4011SOL     OW23491   1.162   3.479   3.762 -0.2738  0.6501 -0.5818
 4011SOL    HW123492   1.256   3.496   3.761 -0.2011  0.4862  2.0563
 4011SOL    HW223493   1.152   3.397   3.714  0.7932 -0.7884  1.6541
 4012SOL     OW23494   1.690   2.418   3.817  0.0591 -0.1095 -0.3866
 4012SOL    HW123495   1.775   2.413   3.772  0.4654  0.9423  0.2703
 4012SOL    HW223496   1.630   2.415   3.742  0.9747 -0.8855 -1.0973
 4013SOL     OW23497   0.210   2.194   5.796  0.0539 -0.6501  0.5625
 4013SOL    HW123498   0.174   2.108   5.777  0.6402 -0.5662 -0.9218
 4013SOL    HW223499   0.129   2.240   5.819 -0.4888 -2.6501  2.6341
 4014SOL     OW23500   0.347   0.796   7.370 -0.0832  0.1484  0.2043
 4014SOL    HW123501   0.329   0.878   7.417  1.1999  0.2244  0.5755
 4014SOL    HW223502   0.264   0.779   7.325 -1.3330 -1.4629  3.1078
 4015SOL     OW23503   2.326   2.450   5.895  0.0400 -0.2773  0.6037
 4015SOL    HW123504   2.390   2.512   5.858 -0.3813  0.0232  0.3806
 4015SOL    HW223505   2.268   2.499   5.953 -0.9466 -0.9289  0.1700
 4016SOL     OW23506   3.484   0.253   0.258  0.2160  0.1345 -0.2144
 4016SOL    HW123507   3.497   0.348   0.255  1.4577 -0.0067  0.6153
 4016SOL    HW223508   3.572   0.226   0.230 -0.1907 -1.1345 -0.2724
 4017SOL     OW23509   0.643   1.125  13.232 -0.0200 -0.3932  0.6419
 4017SOL    HW123510   0.729   1.084  13.228 -0.3678 -1.1112  0.4740
 4017SOL    HW223511   0.675   1.183  13.302 -0.4483  1.2856 -0.5402
 4018SOL     OW23512   2.676   1.813   2.274  0.0903 -0.1760 -0.1966
 4018SOL    HW123513   2.645   1.896   2.310 -0.2901 -1.2965  2.0931
 4018SOL    HW223514   2.666   1.761   2.354  1.9559 -1.9986 -1.1561
 4019SOL     OW23515   1.715   0.956   5.948  0.2616  0.4957  0.0546
 4019SOL    HW123516   1.750   0.867   5.940 -0.7718  0.1355 -0.5088
 4019SOL    HW223517   1.651   0.949   6.019  2.1597  0.9263  1.8132
 4020SOL     OW23518   3.156   3.298  16.100  0.5447 -0.3814  0.6317
 4020SOL    HW123519   3.244   3.260  16.114  1.0088  0.7282  0.7046
 4020SOL    HW223520   3.177   3.386  16.071 -2.3856  0.4756  1.1785
 4021SOL     OW23521   3.449   1.547   5.814  0.0367 -0.4699  0.4360
 4021SOL    HW123522   3.508   1.497   5.758  1.1595  2.0502 -0.6467
 4021SOL    HW223523   3.476   1.637   5.795 -0.6069 -0.1050  1.2614
 4022SOL     OW23524   4.019   3.387   2.819  0.3471 -0.4166  0.4557
 4022SOL    HW123525   4.051   3.331   2.890  0.2741 -0.0860  0.7466
 4022SOL    HW223526   4.081   3.457   2.838  0.0928 -0.1303  0.2192
 4023SOL     OW23527   2.596   1.628   8.378 -0.5037 -0.9622  0.2375
 4023SOL    HW123528   2.536   1.698   8.353  0.2650  0.1148  1.4224
 4023SOL    HW223529   2.538   1.556   8.405 -0.1829 -2.1909 -2.2962
 4024SOL     OW23530   3.878   4.046   1.856  0.0490 -0.5174  0.1118
 4024SOL    HW123531   3.936   4.056   1.781 -1.4839  1.8925 -0.7576
 4024SOL    HW223532   3.795   4.064   1.813  1.4527  2.3654 -1.4180
 4025SOL     OW23533   1.819   0.710   8.003 -0.4430 -0.0433  0.5597
 4025SOL    HW123534   1.795   0.762   8.080  1.4811  2.4108 -0.4950
 4025SOL    HW223535   1.828   0.781   7.939 -1.9544 -0.7117 -0.3778
 4026SOL     OW23536   3.964   2.471   4.596 -0.8493  0.3570  0.0292
 4026SOL    HW123537   4.049   2.462   4.554 -1.5680 -3.7805 -0.5050
 4026SOL    HW223538   3.982   2.560   4.628  1.3387  0.3589 -1.2173
 4027SOL     OW23539   0.326   1.121   6.309  0.3719 -0.2556 -0.4362
 4027SOL    HW123540   0.326   1.082   6.396 -1.0239  0.5999 -0.0647
 4027SOL    HW223541   0.323   1.037   6.263 -0.4171  0.4290 -1.6363
 4028SOL     OW23542   2.659   1.782  14.755 -0.1195 -0.2608 -0.2841
 4028SOL    HW123543   2.713   1.792  14.833 -0.3871 -1.7073  0.0853
 4028SOL    HW223544   2.679   1.861  14.705  0.2816 -2.1146 -3.0910
 4029SOL     OW23545   0.383   0.297   0.310 -0.4197  0.2341  0.1904
 4029SOL    HW123546   0.446   0.232   0.342 -0.0829 -0.3483 -1.6168
 4029SOL    HW223547   0.326   0.233   0.267 -1.2016 -0.2122  1.8982
 4030SOL     OW23548   1.502   0.375   2.950 -0.6183 -0.2079  0.6265
 4030SOL    HW123549   1.436   0.444   2.957  0.6338  0.8225  2.2129
 4030SOL    HW223550   1.457   0.318   2.888 -0.0720 -0.3135  0.3260
 4031SOL     OW23551   1.235   3.707  12.707 -0.9709 -0.0292 -0.0735
 4031SOL    HW123552   1.206   3.641  12.770 -0.9720  0.6609  0.6460
 4031SOL    HW223553   1.324   3.683  12.681 -0.2374  1.6687  0.8491
 4032SOL     OW23554   4.004   4.267   6.333 -0.3150  0.3876  0.2696
 4032SOL    HW123555   3.935   4.202   6.346  0.0193  0.1357  0.8143
 4032SOL    HW223556   4.028   4.252   6.241 -3.3049  1.6643 -0.7101
 4033SOL     OW23557   1.135   1.346   6.953  0.0662 -0.0519 -0.1648
 4033SOL    HW123558   1.091   1.262   6.939  2.6173 -1.4955  0.5065
 4033SOL    HW223559   1.064   1.406   6.977 -0.0068  0.1534 -0.8906
 4034SOL     OW23560   3.353   4.678  16.283 -0.0037 -0.4418  0.2420
 4034SOL    HW123561   3.364   4.632  16.200  0.9637  1.3111 -0.6007
 4034SOL    HW223562   3.343   4.606  16.345 -0.1261 -0.4268  0.2379
 4035SOL     OW23563   0.517   3.983   3.933 -0.8392 -0.1095 -0.5811
 4035SOL    HW123564   0.482   4.069   3.913 -1.8751 -0.1918  0.8878
 4035SOL    HW223565   0.465   3.959   4.010 -0.0265 -1.4441 -0.4506
 4036SOL     OW23566   3.404   3.575   9.182 -0.0558 -0.6637  0.3297
 4036SOL    HW123567   3.352   3.619   9.250 -1.7462 -0.0372 -1.3547
 4036SOL    HW223568   3.488   3.619   9.167  0.9817 -3.2104 -1.2765
 4037SOL     OW23569   4.610   1.609  11.993  0.0155  0.3265  0.1413
 4037SOL    HW123570   4.698   1.625  12.026 -0.1144  0.7757  0.2687
 4037SOL    HW223571   4.572   1.560  12.065  0.5532  1.4060  1.1573
 4038SOL     OW23572   0.402   2.722   5.740 -0.0349  0.0481  0.3220
 4038SOL    HW123573   0.319   2.727   5.788  0.7392  1.7254  1.5097
 4038SOL    HW223574   0.388   2.769   5.658 -1.6907 -2.0199 -0.5712
 4039SOL     OW23575   0.243   4.623  15.535  0.4518  0.0573  0.2858
 4039SOL    HW123576   0.253   4.637  15.441  1.7874 -0.0539  0.4148
 4039SOL    HW223577   0.272   4.708  15.568  0.5294  0.4205 -0.7174
 4040SOL     OW23578   0.833   4.494   9.027  0.2044  0.1887 -0.4447
 4040SOL    HW123579   0.832   4.399   9.016  1.0542  0.0901  0.3273
 4040SOL    HW223580   0.756   4.520   8.976 -0.8500 -3.7422 -0.8959
 4041SOL     OW23581   1.872   4.608   4.443 -0.1351  0.0771  0.1790
 4041SOL    HW123582   1.853   4.606   4.349 -0.4047 -0.5658  0.2433
 4041SOL    HW223583   1.870   4.699   4.471 -1.5241 -0.0105  0.3820
 4042SOL     OW23584   2.567   0.665   8.295  0.2299 -0.1184  0.6494
 4042SOL    HW123585   2.634   0.677   8.228  0.4716 -0.1581  0.8840
 4042SOL    HW223586   2.591   0.579   8.330 -0.0076 -0.8919 -1.0954
 4043SOL     OW23587   0.652   3.744   5.005  0.4407  0.3018  0.4065
 4043SOL    HW123588   0.657   3.766   4.912 -0.7983  0.6056  0.4134
 4043SOL    HW223589   0.697   3.817   5.048  1.6410  0.8517 -1.8067
 4044SOL     OW23590   0.243   2.521   5.951 -0.0355 -0.0622 -0.3576
 4044SOL    HW123591   0.220   2.610   5.924  0.2845  0.1168 -0.0459
 4044SOL    HW223592   0.174   2.465   5.915  2.1061 -2.1518 -1.2283
 4045SOL     OW23593   3.199   0.999   3.404  0.0875  0.1988 -0.8090
 4045SOL    HW123594   3.193   0.904   3.415 -1.3190  0.3413 -0.4122
 4045SOL    HW223595   3.202   1.030   3.494 -0.7071  1.1535 -1.1115
 4046SOL     OW23596   3.959   4.724   9.316  0.0873 -0.5174  0.3230
 4046SOL    HW123597   4.002   4.696   9.235 -0.0268 -0.9488  0.4108
 4046SOL    HW223598   3.888   4.664   9.295 -1.1966  1.8465 -2.0039
 4047SOL     OW23599   0.776   0.156   5.302 -0.1655  0.0356 -0.2768
 4047SOL    HW123600   0.839   0.160   5.374 -1.6506 -0.6613  1.0720
 4047SOL    HW223601   0.721   0.222   5.346  2.4896  0.4533  2.4496
 4048SOL     OW23602   0.918   0.765   8.504  0.1614 -0.6146 -0.1323
 4048SOL    HW123603   0.969   0.846   8.506  1.6316 -1.5178 -1.1595
 4048SOL    HW223604   0.906   0.738   8.595 -2.3162  0.8686 -0.0010
 4049SOL     OW23605   0.691   2.983   4.719 -0.5400  0.3276  0.0846
 4049SOL    HW123606   0.631   2.944   4.656 -1.0802  1.6019 -0.1899
 4049SOL    HW223607   0.773   2.943   4.688 -1.1579 -0.1272 -0.9661
 4050SOL     OW23608   1.762   3.413   8.183 -0.1167 -0.1697  0.8429
 4050SOL    HW123609   1.675   3.416   8.143  0.5102 -1.8849 -0.6321
 4050SOL    HW223610   1.801   3.495   8.156 -0.6833  0.1822  1.0865
 4051SOL     OW23611   3.203   1.077   7.730  0.2322 -0.2310  0.7546
 4051SOL    HW123612   3.167   1.165   7.721 -0.0690 -0.4230  0.0838
 4051SOL    HW223613   3.297   1.092   7.721 -0.0992  0.7594 -0.9005
 4052SOL     OW23614   3.489   4.672   4.635 -0.4998 -0.1140  0.0995
 4052SOL    HW123615   3.469   4.629   4.719  0.6216 -3.5260 -1.3900
 4052SOL    HW223616   3.425   4.631   4.577  0.9917 -1.6032 -0.4804
 4053SOL     OW23617   3.014   3.271  11.495  0.5761 -0.6830  0.2502
 4053SOL    HW123618   2.975   3.336  11.438  0.7918 -1.4868 -0.8072
 4053SOL    HW223619   3.046   3.333  11.561  1.7279  0.0599 -1.0211
 4054SOL     OW23620   2.925   3.262   3.864 -0.4652  0.5239  0.1350
 4054SOL    HW123621   2.868   3.337   3.848  1.4493  1.8507 -0.4912
 4054SOL    HW223622   2.939   3.236   3.773  0.1526  2.9570 -0.4704
 4055SOL     OW23623   0.432   2.273   5.382 -0.6312  0.2898 -0.0004
 4055SOL    HW123624   0.454   2.345   5.324 -1.9048 -0.0678 -0.9366
 4055SOL    HW223625   0.356   2.227   5.344  0.5781 -0.5441 -1.3988
 4056SOL     OW23626   3.833   4.210   7.496  0.4546 -0.0510  0.7356
 4056SOL    HW123627   3.852   4.277   7.561  1.3384  0.6496 -0.2519
 4056SOL    HW223628   3.742   4.225   7.468  0.1507 -2.9749  0.2149
 4057SOL     OW23629   2.881   0.222   8.603 -0.0542  0.5906  0.2777
 4057SOL    HW123630   2.849   0.236   8.514  1.7922 -0.2464 -0.5214
 4057SOL    HW223631   2.971   0.252   8.589  0.7698 -1.5573  0.9294
 4058SOL     OW23632   1.159   0.197   8.328 -0.1527 -0.1836 -0.1657
 4058SOL    HW123633   1.138   0.105   8.341 -0.4758 -0.2473 -1.1533
 4058SOL    HW223634   1.087   0.218   8.269 -1.4930 -1.3542  1.0470
 4059SOL     OW23635   1.696   1.788  15.956 -0.1457  0.2777 -0.1063
 4059SOL    HW123636   1.670   1.714  15.901  0.6726 -0.2216  0.1706
 4059SOL    HW223637   1.607   1.823  15.960 -0.5555 -0.8938  1.2640
 4060SOL     OW23638   2.806   3.503   4.231 -0.2355 -0.4392 -0.7935
 4060SOL    HW123639   2.863   3.440   4.187 -1.7919 -1.5280 -1.2463
 4060SOL    HW223640   2.773   3.555   4.158 -1.8002  2.7375  2.2057
 4061SOL     OW23641   1.694   4.589  16.175  0.6282 -0.2505  0.3491
 4061SOL    HW123642   1.787   4.607  16.156  0.8798 -1.3374  0.5607
 4061SOL    HW223643   1.669   4.541  16.097  0.9280 -0.6721  0.5111
 4062SOL     OW23644   0.023   1.839   6.952  0.3059 -0.0852  0.8731
 4062SOL    HW123645   0.081   1.894   6.900 -1.7421 -0.3384 -1.6742
 4062SOL    HW223646   0.090   1.784   6.992  0.8331 -0.2148 -0.2033
 4063SOL     OW23647   3.673   0.329  10.289  0.1729 -0.0185  0.0439
 4063SOL    HW123648   3.648   0.242  10.259 -1.8535  1.0484 -1.4044
 4063SOL    HW223649   3.737   0.348  10.220  2.0748 -0.4205  1.7259
 4064SOL     OW23650   4.055   0.271  10.858  0.4650 -0.1172 -0.0988
 4064SOL    HW123651   4.081   0.179  10.862  2.0318  0.3197 -0.4475
 4064SOL    HW223652   3.959   0.270  10.858  0.4611  1.6683  0.3171
 4065SOL     OW23653   4.118   0.018  10.472  0.2227  0.1884  0.2877
 4065SOL    HW123654   4.100   4.651  10.463  1.6398  0.0754 -1.3327
 4065SOL    HW223655   4.033   0.055  10.494  0.6356  0.4126  1.5322
 4066SOL     OW23656   2.527   1.411  10.315  0.2716  0.1913  0.0296
 4066SOL    HW123657   2.617   1.443  10.326  0.4486 -0.2678 -0.0654
 4066SOL    HW223658   2.530   1.324  10.355 -0.4432 -0.3990 -1.1879
 4067SOL     OW23659   4.325   0.629   4.698 -0.1643  0.4785  0.5934
 4067SOL    HW123660   4.408   0.645   4.743 -0.9720  0.2381  2.1784
 4067SOL    HW223661   4.259   0.632   4.767 -1.7601  2.9092 -1.0491
 4068SOL     OW23662   1.424   2.384  12.105 -0.6273 -0.5121  0.0517
 4068SOL    HW123663   1.403   2.473  12.134  0.9984 -0.4108  0.9027
 4068SOL    HW223664   1.495   2.411  12.046 -0.0276  0.3262  1.1510
 4069SOL     OW23665   3.357   2.834   7.715  0.2732  0.3922 -0.3358
 4069SOL    HW123666   3.393   2.867   7.798  0.0627 -0.4676  0.1031
 4069SOL    HW223667   3.435   2.827   7.660  1.6014 -0.3478  1.6479
 4070SOL     OW23668   1.102   2.612   9.191 -0.0389 -0.3136  0.3370
 4070SOL    HW123669   1.031   2.675   9.182 -1.0540 -1.1784  2.4683
 4070SOL    HW223670   1.065   2.557   9.260  1.0824  0.1387  1.2927
 4071SOL     OW23671   1.506   1.832   8.671 -0.1181 -0.0529  0.2363
 4071SOL    HW123672   1.441   1.886   8.715 -0.7357 -0.2091 -0.4871
 4071SOL    HW223673   1.569   1.900   8.646  2.2917 -3.4077 -2.8808
 4072SOL     OW23674   1.555   1.682   4.324  0.0457  0.1139 -0.9460
 4072SOL    HW123675   1.496   1.757   4.311 -0.3427  0.0779  0.6611
 4072SOL    HW223676   1.498   1.618   4.282 -1.1744  0.2526  0.4919
 4073SOL     OW23677   1.811   0.947  17.634  0.1162 -0.1975  0.0307
 4073SOL    HW123678   1.761   0.866  17.634 -3.8216  2.2842 -1.8201
 4073SOL    HW223679   1.768   0.991  17.707  0.8725  0.6488 -0.0282
 4074SOL     OW23680   0.660   1.801   8.051  0.8096  0.1802  0.1043
 4074SOL    HW123681   0.636   1.817   7.960 -0.0522 -0.0581  0.2932
 4074SOL    HW223682   0.700   1.884   8.076  1.3012 -0.0972  0.2382
 4075SOL     OW23683   1.152   4.328   8.698  0.6408  0.0921 -0.8416
 4075SOL    HW123684   1.107   4.411   8.681 -1.1314 -0.4299  1.2634
 4075SOL    HW223685   1.236   4.344   8.656  2.5322 -1.5749  2.3012
 4076SOL     OW23686   0.576   2.072   7.568  0.6491 -0.1192  0.0244
 4076SOL    HW123687   0.550   2.095   7.657  0.1595  1.8320 -0.6195
 4076SOL    HW223688   0.671   2.066   7.572  0.6005 -1.6801 -1.4929
 4077SOL     OW23689   3.905   4.407   8.130 -0.0277 -0.4665  0.0066
 4077SOL    HW123690   3.911   4.459   8.050 -0.5495 -0.4265 -0.0048
 4077SOL    HW223691   3.910   4.474   8.198  0.4334 -1.4301  0.9202
 4078SOL     OW23692   3.418   1.387   7.721 -0.4241  0.3584 -0.2466
 4078SOL    HW123693   3.429   1.295   7.696 -3.6394  0.0764 -0.6313
 4078SOL    HW223694   3.332   1.404   7.684 -0.1045 -2.0147 -2.1673
 4079SOL     OW23695   4.643   2.769   7.574 -0.2514 -0.0061  0.3612
 4079SOL    HW123696   4.670   2.689   7.620  0.6254 -0.2631 -0.6001
 4079SOL    HW223697   4.642   2.731   7.487 -1.1507  1.6717 -0.3589
 4080SOL     OW23698   3.009   1.328   8.793  0.3087  0.3955 -0.4620
 4080SOL    HW123699   3.094   1.351   8.757  0.9162 -1.0317  0.0561
 4080SOL    HW223700   3.022   1.356   8.884 -1.2753 -1.1825  0.2597
 4081SOL     OW23701   1.177   4.271   6.949 -0.1254  0.1374 -0.1438
 4081SOL    HW123702   1.269   4.284   6.925  0.2873  0.5397  1.7370
 4081SOL    HW223703   1.184   4.236   7.037 -2.6818 -2.0721 -0.8321
 4082SOL     OW23704   3.505   3.237   7.868  0.1020 -0.5315 -0.1207
 4082SOL    HW123705   3.419   3.251   7.907  0.0777  3.5789 -1.6214
 4082SOL    HW223706   3.479   3.151   7.833  1.6900 -1.2482  0.4745
 4083SOL     OW23707   3.053   1.449   4.676 -0.4029  0.2358  0.1833
 4083SOL    HW123708   3.040   1.363   4.635 -1.2025  0.4838 -0.0779
 4083SOL    HW223709   3.004   1.433   4.756  0.0188 -1.6997  0.0664
 4084SOL     OW23710   1.511   3.993   7.098 -0.2859 -0.2235  0.3021
 4084SOL    HW123711   1.467   4.075   7.075  0.7386 -0.0736 -1.1033
 4084SOL    HW223712   1.577   4.015   7.163 -1.7724  1.0876  1.3853
 4085SOL     OW23713   1.886   4.519   3.194 -0.2162 -0.0845  0.7502
 4085SOL    HW123714   1.819   4.587   3.196  0.4519  0.5771  0.8444
 4085SOL    HW223715   1.891   4.498   3.287  1.5920 -1.1448  0.4089
 4086SOL     OW23716   2.482   0.532   9.111  0.4113  0.0037  0.3043
 4086SOL    HW123717   2.401   0.499   9.150  0.2727  0.1146  0.1089
 4086SOL    HW223718   2.483   0.617   9.154  1.2664  1.0155 -1.7502
 4087SOL     OW23719   4.713   1.353   4.315  0.6028  0.1243  0.0198
 4087SOL    HW123720   4.626   1.355   4.355  0.0051 -0.3101 -1.2813
 4087SOL    HW223721   0.008   1.260   4.311  0.7996  0.2881 -2.5507
 4088SOL     OW23722   4.316   0.024  14.041 -0.1771 -0.4701  0.3479
 4088SOL    HW123723   4.236   4.705  14.012  1.1411 -1.9263 -1.0255
 4088SOL    HW223724   4.373   4.711  13.975 -0.4743 -1.8075  0.9014
 4089SOL     OW23725   2.804   3.517   3.777  0.7791 -0.1169 -0.0268
 4089SOL    HW123726   2.837   3.575   3.708  0.9295 -2.1302 -1.6663
 4089SOL    HW223727   2.785   3.583   3.844 -0.9059  0.0466 -0.6465
 4090SOL     OW23728   2.969   3.202  10.029 -0.2877  0.3946 -0.0596
 4090SOL    HW123729   2.971   3.287  10.074  1.0098 -0.3350  1.2789
 4090SOL    HW223730   2.913   3.220   9.954  1.6865  1.5010 -1.2597
 4091SOL     OW23731   0.717   0.309  14.667 -0.0483  0.0479 -0.1175
 4091SOL    HW123732   0.808   0.321  14.640 -0.0905  0.3829 -0.1105
 4091SOL    HW223733   0.676   0.392  14.644 -1.3266  0.2661  2.9260
 4092SOL     OW23734   0.278   1.437   4.939 -0.6643  0.3551  0.3366
 4092SOL    HW123735   0.239   1.523   4.953 -1.6600 -0.1575  0.7301
 4092SOL    HW223736   0.228   1.383   4.877 -0.3659  1.5734 -0.9545
 4093SOL     OW23737   4.081   1.883   3.721  0.1456  0.1356  0.2699
 4093SOL    HW123738   4.075   1.943   3.647 -0.2829  0.8010  0.8489
 4093SOL    HW223739   3.998   1.906   3.763  1.2350  2.0980  1.3715
 4094SOL     OW23740   0.750   4.706  16.595 -0.0010 -0.4638 -0.2076
 4094SOL    HW123741   0.819   0.046  16.596 -0.6269  0.1804 -1.6985
 4094SOL    HW223742   0.793   4.639  16.541 -0.0626 -0.4145 -0.3164
 4095SOL     OW23743   2.810   3.104  12.172 -0.0590  0.1907 -0.4929
 4095SOL    HW123744   2.815   3.199  12.183 -1.3595 -0.0258  1.9104
 4095SOL    HW223745   2.768   3.074  12.253 -0.6861  0.5874 -0.6708
 4096SOL     OW23746   4.644   0.351  12.479  0.2625 -0.3436 -0.5319
 4096SOL    HW123747   0.006   0.313  12.478 -1.1867 -3.6843  0.5958
 4096SOL    HW223748   4.631   0.359  12.573 -0.7196  2.3362 -0.8975
 4097SOL     OW23749   4.628   3.807   0.927  0.3581  0.1438  0.2019
 4097SOL    HW123750   4.666   3.801   1.015  0.7320 -1.3402 -0.0701
 4097SOL    HW223751   4.593   3.720   0.910  0.0997  0.0388  1.2408
 4098SOL     OW23752   2.115   1.684   4.506  0.5557  0.0203  0.1550
 4098SOL    HW123753   2.030   1.707   4.542  0.0924 -1.1360 -0.1824
 4098SOL    HW223754   2.149   1.771   4.525 -0.9658  0.9306 -1.2919
 4099SOL     OW23755   2.099   1.996  12.680  0.2919 -0.2142  0.0940
 4099SOL    HW123756   2.173   1.977  12.738  0.1154 -0.5401  0.2160
 4099SOL    HW223757   2.142   1.992  12.594 -1.6493 -0.0875 -0.8858
 4100SOL     OW23758   1.879   1.383   2.770 -0.0419  0.1345  0.2263
 4100SOL    HW123759   1.794   1.338   2.772  1.4991 -2.8196 -0.0306
 4100SOL    HW223760   1.913   1.359   2.683  0.8531 -3.7284  1.6330
 4101SOL     OW23761   4.097   1.799   4.957 -0.3617  0.0289  0.6126
 4101SOL    HW123762   4.014   1.752   4.967 -0.3751 -0.2701 -1.0533
 4101SOL    HW223763   4.165   1.735   4.978 -0.2055  0.4407  1.3661
 4102SOL     OW23764   1.408   2.954   1.939  0.3472  0.2385 -0.1587
 4102SOL    HW123765   1.382   2.863   1.924 -2.4379  0.9094  0.5422
 4102SOL    HW223766   1.394   2.988   1.850 -3.4838  0.3100  0.4718
 4103SOL     OW23767   1.673   0.358  13.301  0.2617 -0.1157 -0.2927
 4103SOL    HW123768   1.644   0.449  13.306  1.6009  0.3818 -1.7581
 4103SOL    HW223769   1.689   0.330  13.391 -0.3384 -0.2325 -0.2214
 4104SOL     OW23770   3.470   4.185  12.596 -0.2574 -0.3954  0.2348
 4104SOL    HW123771   3.495   4.240  12.522 -0.6053  1.8431  1.7946
 4104SOL    HW223772   3.553   4.189  12.643 -0.8998  1.8082  1.1658
 4105SOL     OW23773   4.048   3.768   7.917 -0.3992 -0.2030  0.2683
 4105SOL    HW123774   4.122   3.715   7.946 -1.7532 -1.4748  1.3879
 4105SOL    HW223775   4.071   3.827   7.845  0.9067 -0.3152  0.5957
 4106SOL     OW23776   4.055   2.661   8.635 -0.0919  0.2978 -0.4226
 4106SOL    HW123777   4.116   2.603   8.589 -1.5851 -0.6736 -1.1688
 4106SOL    HW223778   4.038   2.615   8.718  0.9429  0.0012 -0.3751
 4107SOL     OW23779   0.082   4.147  14.735  0.0343  0.5903  0.0860
 4107SOL    HW123780   4.724   4.105  14.749  0.1828 -0.1714 -1.2837
 4107SOL    HW223781   0.122   4.092  14.667 -1.1921  0.0560 -0.2182
 4108SOL     OW23782   0.463   0.321  11.264 -0.5993  0.1742  0.0314
 4108SOL    HW123783   0.457   0.313  11.359 -2.7046  0.1820 -0.0991
 4108SOL    HW223784   0.555   0.327  11.239  0.3481 -3.7164  2.5511
 4109SOL     OW23785   1.804   1.077   8.992  0.2068 -0.1739  0.6178
 4109SOL    HW123786   1.846   0.999   8.956 -0.7379  0.0242 -0.9021
 4109SOL    HW223787   1.834   1.152   8.940 -0.7565 -1.4983 -1.8322
 4110SOL     OW23788   3.572   1.660   7.247  0.2394 -0.0455  0.6681
 4110SOL    HW123789   3.479   1.645   7.229  0.0956 -1.1833  2.3408
 4110SOL    HW223790   3.565   1.694   7.336  0.3859 -1.4486  1.2036
 4111SOL     OW23791   1.314   0.767   3.810 -0.4305 -0.5156  0.7102
 4111SOL    HW123792   1.260   0.772   3.731 -1.2265  0.0596  1.2819
 4111SOL    HW223793   1.248   0.751   3.878 -1.2805  1.7013  0.3915
 4112SOL     OW23794   0.801   2.882   5.339 -0.0632  0.1531  0.1893
 4112SOL    HW123795   0.728   2.848   5.391 -0.8954  0.6156 -0.6668
 4112SOL    HW223796   0.785   2.972   5.367 -1.0230  0.0948 -0.1448
 4113SOL     OW23797   2.796   1.644   6.215  0.1706  0.6582  0.3977
 4113SOL    HW123798   2.886   1.620   6.195 -0.7309 -0.9274 -1.7527
 4113SOL    HW223799   2.746   1.634   6.134 -0.9930  0.5400  1.1300
 4114SOL     OW23800   2.310   4.670   9.517 -0.2270 -0.7871  0.4050
 4114SOL    HW123801   2.270   0.003   9.454  1.3221 -0.4351 -0.2413
 4114SOL    HW223802   2.301   4.721   9.597  1.4389  0.9964 -0.5590
 4115SOL     OW23803   3.119   0.006  12.616 -0.0551 -0.7737  0.0608
 4115SOL    HW123804   3.214   0.008  12.620  0.0315 -2.1585 -1.3516
 4115SOL    HW223805   3.104   0.057  12.696 -0.2922  0.8159 -0.9792
 4116SOL     OW23806   0.225   0.545  13.382  0.5328 -0.3826  0.3146
 4116SOL    HW123807   0.229   0.452  13.407 -1.4049 -0.5919 -0.1989
 4116SOL    HW223808   0.270   0.532  13.299 -0.9982  1.7603 -0.8159
 4117SOL     OW23809   4.220   2.808   3.917 -0.0873  0.4740  0.2303
 4117SOL    HW123810   4.269   2.890   3.909  0.2031  0.3853  1.1070
 4117SOL    HW223811   4.130   2.839   3.910 -0.0672 -0.2534 -3.1678
 4118SOL     OW23812   3.957   4.248  17.688 -0.1688  0.0312 -0.3284
 4118SOL    HW123813   3.942   4.247  17.593 -2.5359 -0.8430  0.0538
 4118SOL    HW223814   3.903   4.177   0.014  1.0008 -0.4709  0.4839
 4119SOL     OW23815   0.671   0.997   6.601  0.1388  0.5110 -0.3185
 4119SOL    HW123816   0.711   1.045   6.673  1.0908 -0.3636 -0.2639
 4119SOL    HW223817   0.590   0.965   6.641  0.5119  2.1839  1.7531
 4120SOL     OW23818   1.142   2.044  12.931  0.6906  0.1755  0.4226
 4120SOL    HW123819   1.054   2.014  12.908  1.0054  0.6353 -1.4129
 4120SOL    HW223820   1.142   2.130  12.889  0.5948  0.4487  0.9902
 4121SOL     OW23821   0.207   1.430  17.290 -0.3596  0.2161 -0.2663
 4121SOL    HW123822   0.205   1.398  17.380  3.4271  3.0369  0.7817
 4121SOL    HW223823   0.279   1.492  17.283 -0.4545  0.1831 -1.5586
 4122SOL     OW23824   2.864   0.419  16.091  0.4652 -0.2194 -0.2448
 4122SOL    HW123825   2.943   0.426  16.144 -0.5478 -0.9913  1.3825
 4122SOL    HW223826   2.902   0.412  16.004 -0.5913  1.7642 -0.8570
 4123SOL     OW23827   3.778   4.425   7.062  0.4675 -0.0304  0.1536
 4123SOL    HW123828   3.806   4.335   7.074  3.4162  1.1360  1.9875
 4123SOL    HW223829   3.718   4.409   6.989 -0.8587 -2.3141  1.7342
 4124SOL     OW23830   0.851   3.469  17.198  0.5468 -0.3161  0.1656
 4124SOL    HW123831   0.889   3.505  17.118 -0.8797  0.2096 -0.2768
 4124SOL    HW223832   0.888   3.528  17.264 -1.0282 -0.3766  1.0847
 4125SOL     OW23833   1.060   0.638  12.327 -0.0662 -0.2043 -0.7342
 4125SOL    HW123834   0.968   0.610  12.332  0.2750 -1.3908 -0.9354
 4125SOL    HW223835   1.107   0.571  12.376 -0.9877  0.3265  0.8769
 4126SOL     OW23836   4.351   2.044   6.540  0.2216 -0.3802  0.3125
 4126SOL    HW123837   4.401   2.072   6.617 -1.6400  0.0612  1.3598
 4126SOL    HW223838   4.276   2.009   6.588 -0.4843  1.0405  0.2565
 4127SOL     OW23839   3.566   0.673   8.261 -0.4502 -0.1995 -0.3645
 4127SOL    HW123840   3.633   0.640   8.201  0.4160 -1.7567  1.4596
 4127SOL    HW223841   3.593   0.765   8.271  1.9261 -1.2690  2.9378
 4128SOL     OW23842   0.399   2.788  13.736 -0.5873 -0.3992  0.2144
 4128SOL    HW123843   0.391   2.884  13.741 -0.2486 -0.4501  1.6969
 4128SOL    HW223844   0.490   2.769  13.759 -0.3471 -0.0433 -0.4152
 4129SOL     OW23845   3.031   0.340   5.204  0.0945  0.2376  0.0041
 4129SOL    HW123846   3.007   0.423   5.161 -1.2645 -0.0062  0.2913
 4129SOL    HW223847   3.123   0.352   5.228  0.4874  0.2665 -1.5505
 4130SOL     OW23848   2.764   4.374   3.802  0.1347 -0.4097 -0.5749
 4130SOL    HW123849   2.670   4.357   3.792 -0.3298  1.2730  0.9401
 4130SOL    HW223850   2.781   4.372   3.896  0.5541  1.7901 -0.5953
 4131SOL     OW23851   0.855   0.587   9.672 -0.4690  0.2656  0.4506
 4131SOL    HW123852   0.790   0.656   9.686 -0.7372  0.1816 -0.3862
 4131SOL    HW223853   0.799   0.531   9.618  0.0684  0.1099  0.0576
 4132SOL     OW23854   3.287   2.937   5.758 -0.3927  0.4710 -0.5071
 4132SOL    HW123855   3.280   2.914   5.666  1.3907 -0.2328 -0.4633
 4132SOL    HW223856   3.355   2.873   5.782  0.8526  0.9618 -2.7340
 4133SOL     OW23857   3.698   3.545  12.554  0.4317  0.0192  0.5147
 4133SOL    HW123858   3.705   3.475  12.488  1.9243 -1.4142  2.2025
 4133SOL    HW223859   3.677   3.617  12.494 -3.9606 -1.5320  0.2235
 4134SOL     OW23860   3.362   4.002  12.327 -0.0736  0.1886  0.0068
 4134SOL    HW123861   3.336   4.042  12.409  1.7252  1.2839  0.0416
 4134SOL    HW223862   3.374   3.913  12.360  1.6383 -0.1289 -1.4631
 4135SOL     OW23863   4.248   2.802  16.596  0.0235 -0.0106  0.2025
 4135SOL    HW123864   4.223   2.875  16.653  0.4590  1.5861 -1.6393
 4135SOL    HW223865   4.224   2.723  16.644  1.3135  0.0034  0.8950
 4136SOL     OW23866   3.056   3.326   3.354  0.0428  0.4287  0.0799
 4136SOL    HW123867   2.969   3.291   3.331 -0.3758  0.7179  1.2277
 4136SOL    HW223868   3.109   3.313   3.276 -2.2104  0.9477 -1.5217
 4137SOL     OW23869   0.063   1.319  13.141 -0.5830 -0.5455 -0.0345
 4137SOL    HW123870   0.038   1.276  13.059 -2.6387  0.3009  0.1657
 4137SOL    HW223871   0.032   1.408  13.122 -1.1100 -0.9742 -1.1950
 4138SOL     OW23872   3.855   2.358  13.127 -0.3142  0.2551  0.3833
 4138SOL    HW123873   3.898   2.384  13.046 -0.2332 -0.2602  0.2610
 4138SOL    HW223874   3.827   2.440  13.167 -0.9639  0.3586 -0.2850
 4139SOL     OW23875   2.600   4.632   3.098 -0.1037 -0.6762 -0.5029
 4139SOL    HW123876   2.568   4.700   3.038  0.2329 -1.3270 -1.4300
 4139SOL    HW223877   2.544   4.639   3.175  1.5772 -0.9176  0.7513
 4140SOL     OW23878   3.801   0.065  17.284 -0.3277  0.1510  0.2505
 4140SOL    HW123879   3.716   0.046  17.244  0.0333  1.0775 -0.9354
 4140SOL    HW223880   3.857   0.062  17.206 -1.3060  3.1081 -0.5669
 4141SOL     OW23881   4.397   3.891   2.582  0.1170 -0.3473  0.0173
 4141SOL    HW123882   4.450   3.966   2.556  0.0044 -0.4346 -0.4669
 4141SOL    HW223883   4.460   3.819   2.576  0.6608  0.0009  1.4535
 4142SOL     OW23884   1.826   1.471   5.367 -0.1300  0.0796 -0.6480
 4142SOL    HW123885   1.762   1.429   5.309 -0.7090 -1.2907  0.9720
 4142SOL    HW223886   1.827   1.406   5.437 -0.6710 -0.6361 -1.3031
 4143SOL     OW23887   1.859   1.663   2.712 -0.0312 -0.3254 -0.4085
 4143SOL    HW123888   1.914   1.603   2.762  0.6203  0.0831 -0.6501
 4143SOL    HW223889   1.830   1.607   2.640 -4.6544 -0.5049  1.5168
 4144SOL     OW23890   0.944   1.347   8.142 -0.0886  0.2676  0.0636
 4144SOL    HW123891   1.019   1.291   8.124 -0.3417  0.6940 -2.3002
 4144SOL    HW223892   0.978   1.435   8.158 -2.2187  0.6573  2.4850
 4145SOL     OW23893   2.985   2.631   9.582  0.5445 -0.1441 -0.0951
 4145SOL    HW123894   2.915   2.606   9.643 -0.2521 -0.6356 -1.2058
 4145SOL    HW223895   2.929   2.664   9.511 -2.0184  0.7765  2.3229
 4146SOL     OW23896   2.451   0.840  10.506 -0.2085  0.5334 -0.0156
 4146SOL    HW123897   2.393   0.901  10.551 -0.6957 -0.6622  0.9702
 4146SOL    HW223898   2.480   0.784  10.579 -1.2718  0.0662  0.0446
 4147SOL     OW23899   2.517   3.353   2.888  0.0577  0.1727  0.2982
 4147SOL    HW123900   2.598   3.402   2.902  0.2679 -0.3126  0.7904
 4147SOL    HW223901   2.533   3.298   2.811  0.3695  0.3273  0.2542
 4148SOL     OW23902   1.725   2.422  15.498 -0.2684 -0.3836  0.1512
 4148SOL    HW123903   1.802   2.366  15.497 -1.3020 -1.8160  0.6574
 4148SOL    HW223904   1.739   2.477  15.421  0.9237 -2.2635 -0.9471
 4149SOL     OW23905   3.753   3.834   5.159  0.1847  0.3550 -0.2540
 4149SOL    HW123906   3.800   3.905   5.202  1.1324 -1.7445  2.1353
 4149SOL    HW223907   3.738   3.772   5.230  0.7011  0.8912  0.3168
 4150SOL     OW23908   2.181   3.159   4.057 -0.2299  0.1677 -0.4203
 4150SOL    HW123909   2.092   3.193   4.043 -1.0353 -1.1782  1.5282
 4150SOL    HW223910   2.178   3.088   4.121 -3.0874  1.7885  1.2484
 4151SOL     OW23911   0.408   1.722  14.794  0.5077 -1.1829  0.2666
 4151SOL    HW123912   0.415   1.817  14.783 -0.2307 -0.9389  2.0210
 4151SOL    HW223913   0.496   1.699  14.764  1.0374 -0.7034  1.4710
 4152SOL     OW23914   1.692   2.107   4.405 -0.3291  0.0258  0.3815
 4152SOL    HW123915   1.628   2.041   4.432 -0.0656 -0.3919 -0.0077
 4152SOL    HW223916   1.639   2.157   4.343 -0.2163 -1.7673 -1.1659
 4153SOL     OW23917   3.453   2.134   3.488 -0.1960 -0.2943  0.1094
 4153SOL    HW123918   3.503   2.201   3.535  0.4882 -0.4462 -0.3968
 4153SOL    HW223919   3.527   2.094   3.443  0.3197  2.0029 -1.1085
 4154SOL     OW23920   0.790   4.118   2.199 -0.6814  0.1997 -0.1993
 4154SOL    HW123921   0.885   4.117   2.214 -0.5773  1.2968 -0.8265
 4154SOL    HW223922   0.761   4.058   2.268  0.5590 -0.5231 -0.2987
 4155SOL     OW23923   0.137   0.794   7.179  0.2652 -0.3312  0.8249
 4155SOL    HW123924   0.137   0.860   7.110 -0.1780  0.8922  1.9774
 4155SOL    HW223925   0.100   0.717   7.136  0.4392 -0.1725  0.3908
 4156SOL     OW23926   0.437   3.643   4.749  0.2526 -1.0474 -0.2985
 4156SOL    HW123927   0.390   3.607   4.824 -0.8650  2.6363  0.7448
 4156SOL    HW223928   0.481   3.563   4.719  0.2031 -0.8128 -0.9896
 4157SOL     OW23929   1.951   3.239   7.689  0.2185 -0.2246 -0.2031
 4157SOL    HW123930   1.873   3.193   7.720  0.6054 -0.8420 -0.1404
 4157SOL    HW223931   2.026   3.180   7.691 -1.0501 -1.9590 -3.6489
 4158SOL     OW23932   3.115   2.780  14.470 -0.5003 -0.0765 -0.0956
 4158SOL    HW123933   3.203   2.741  14.467 -0.3402  0.4086 -1.5722
 4158SOL    HW223934   3.126   2.843  14.400 -0.8116 -1.1772 -1.1348
 4159SOL     OW23935   4.091   2.921   1.935  0.1256 -0.6088  0.3805
 4159SOL    HW123936   4.181   2.889   1.943  0.3176 -0.0495  0.4607
 4159SOL    HW223937   4.070   2.891   1.846 -1.3643  0.6059  0.3216
 4160SOL     OW23938   0.578   0.476   6.691  0.3522  0.9169  0.1770
 4160SOL    HW123939   0.582   0.400   6.749  4.4491  1.1605  0.2364
 4160SOL    HW223940   0.589   0.444   6.602 -1.6640 -1.1815  0.7061
 4161SOL     OW23941   3.775   2.980   7.874 -0.1110 -0.4037 -0.1166
 4161SOL    HW123942   3.811   2.938   7.953  2.0002  1.1954 -0.2406
 4161SOL    HW223943   3.763   3.072   7.896 -0.8836 -1.0857  2.3717
 4162SOL     OW23944   1.045   2.677   5.364  0.1638  0.4763  0.0309
 4162SOL    HW123945   1.083   2.702   5.280  2.3256 -1.6356  0.4034
 4162SOL    HW223946   0.986   2.751   5.378 -1.4392 -0.1586 -3.4709
 4163SOL     OW23947   1.423   4.369   1.016  0.1140 -0.0567  0.0950
 4163SOL    HW123948   1.384   4.398   0.934 -0.7171 -0.0834  0.4869
 4163SOL    HW223949   1.425   4.273   1.005  1.3973  0.1875 -1.7941
 4164SOL     OW23950   2.545   4.169   6.059 -0.2321  0.0424 -0.5799
 4164SOL    HW123951   2.630   4.149   6.097 -0.0525  2.2589  0.1716
 4164SOL    HW223952   2.551   4.265   6.063 -0.0561 -0.0907  2.1200
 4165SOL     OW23953   1.294   2.297   5.415  0.5364  0.3105  0.1521
 4165SOL    HW123954   1.337   2.319   5.498  0.0226  1.3442  0.1416
 4165SOL    HW223955   1.211   2.343   5.417  0.2765 -0.1567  0.2685
 4166SOL     OW23956   2.650   3.635   8.023  0.0489 -0.2773  0.1810
 4166SOL    HW123957   2.717   3.603   7.964  2.5887  0.7829  2.4927
 4166SOL    HW223958   2.621   3.712   7.975 -0.3387  0.8234  2.1936
 4167SOL     OW23959   1.356   2.005   6.503 -0.3183  0.3565 -0.0701
 4167SOL    HW123960   1.261   2.010   6.516 -0.5501 -0.8369 -1.2707
 4167SOL    HW223961   1.373   2.098   6.516  2.9735 -0.6721  3.0411
 4168SOL     OW23962   2.861   1.286   3.285  0.1984 -0.2214  0.6537
 4168SOL    HW123963   2.906   1.207   3.256  0.5415 -0.4369  1.7579
 4168SOL    HW223964   2.869   1.264   3.378  0.6314 -0.2184  0.6166
 4169SOL     OW23965   0.033   3.182   6.327 -0.3979 -0.0729  0.0268
 4169SOL    HW123966   4.668   3.153   6.324 -0.3434 -0.1798 -0.6678
 4169SOL    HW223967   0.057   3.141   6.410 -0.7269  2.6924  1.4600
 4170SOL     OW23968   1.177   1.251   0.247 -0.2136  0.4788  0.3951
 4170SOL    HW123969   1.258   1.207   0.273 -0.4175 -0.0371  0.1681
 4170SOL    HW223970   1.158   1.223   0.157 -1.9624 -0.1135  0.9361
 4171SOL     OW23971   3.229   0.044  17.679  0.2553 -0.0388  0.2235
 4171SOL    HW123972   3.299   0.102  17.648 -0.2465  1.0469  1.0891
 4171SOL    HW223973   3.254   0.031   0.063 -0.1360 -0.6505  0.2418
 4172SOL     OW23974   1.335   4.277   9.555 -0.2321  0.2360 -0.2030
 4172SOL    HW123975   1.289   4.360   9.561 -0.3899  0.4590 -4.3647
 4172SOL    HW223976   1.353   4.264   9.462  2.8076 -0.2933  0.4475
 4173SOL     OW23977   0.914   0.254   3.270 -0.2849  0.0179 -0.1819
 4173SOL    HW123978   0.928   0.162   3.293  0.2522  0.6077  1.7875
 4173SOL    HW223979   0.993   0.273   3.218 -1.2719 -1.6750 -2.3186
 4174SOL     OW23980   4.692   1.161   2.392 -0.1754 -0.2444 -0.8795
 4174SOL    HW123981   0.058   1.155   2.367  0.0589 -1.1756  0.2195
 4174SOL    HW223982   4.676   1.068   2.405  1.2171 -0.4156 -0.3687
 4175SOL     OW23983   4.419   3.882   6.978 -0.2378 -0.1802 -0.3090
 4175SOL    HW123984   4.345   3.892   6.918  0.0607 -2.7992 -1.1163
 4175SOL    HW223985   4.397   3.926   7.060  0.2214  0.4279 -0.5085
 4176SOL     OW23986   2.028   1.415  13.170  0.3404  0.3237  0.3394
 4176SOL    HW123987   1.996   1.439  13.256 -1.9573 -1.5596  0.0005
 4176SOL    HW223988   2.078   1.494  13.149  0.3080  0.8946  2.4396
 4177SOL     OW23989   2.122   0.082   7.199 -0.1676  0.6271  0.6079
 4177SOL    HW123990   2.175   0.021   7.250  2.0189  1.5013 -0.6372
 4177SOL    HW223991   2.058   0.021   7.162 -0.8498  1.8918 -0.2947
 4178SOL     OW23992   1.389   1.719   8.450  0.3999  0.1754  0.4381
 4178SOL    HW123993   1.451   1.742   8.519 -0.0302 -1.6147  1.4222
 4178SOL    HW223994   1.445   1.666   8.393  1.9886  1.1165  1.1047
 4179SOL     OW23995   3.282   2.396   3.083  0.0884 -0.3704 -0.0153
 4179SOL    HW123996   3.354   2.458   3.090 -0.4865  0.1152  1.6103
 4179SOL    HW223997   3.342   2.325   3.060 -1.1473 -2.3701  2.9509
 4180SOL     OW23998   2.505   3.234   5.574  0.6737  0.2853  0.1190
 4180SOL    HW123999   2.441   3.260   5.640  0.2919  0.2650 -0.2435
 4180SOL    HW224000   2.583   3.282   5.600 -0.2442  1.4747  0.6849
 4181SOL     OW24001   3.641   3.949  14.278 -0.2313 -0.2022  0.1138
 4181SOL    HW124002   3.638   3.947  14.374 -1.3661  1.3139  0.1181
 4181SOL    HW224003   3.693   4.028  14.265 -2.1479  0.9828 -0.4630
 4182SOL     OW24004   1.874   1.570  12.017 -0.7893  0.1794  1.1752
 4182SOL    HW124005   1.823   1.649  12.001  0.2840  0.2978 -1.6256
 4182SOL    HW224006   1.951   1.610  12.056  0.4187  1.7733 -2.8091
 4183SOL     OW24007   1.146   1.371   6.057  0.4933  0.3088 -0.1231
 4183SOL    HW124008   1.138   1.331   5.970 -4.0777  2.4854 -0.7315
 4183SOL    HW224009   1.237   1.397   6.046  0.4405  0.8627  0.7684
 4184SOL     OW24010   3.006   4.301   6.036  0.1981  0.0526  0.3178
 4184SOL    HW124011   3.029   4.212   6.009 -3.5766 -0.9395  0.3163
 4184SOL    HW224012   3.008   4.281   6.130  0.9236 -2.0624 -0.1541
 4185SOL     OW24013   4.220   4.254   7.512 -0.1034  0.3487  0.1102
 4185SOL    HW124014   4.315   4.259   7.521 -0.1919 -1.5600  2.0668
 4185SOL    HW224015   4.185   4.340   7.535 -1.1187  0.3198 -1.3396
 4186SOL     OW24016   3.907   0.868   0.376 -0.3230  0.1579  0.2182
 4186SOL    HW124017   4.000   0.882   0.393 -0.5193 -1.1727  2.3359
 4186SOL    HW224018   3.894   0.777   0.401  1.3669 -0.7611 -2.2124
 4187SOL     OW24019   1.428   1.914   1.560  0.3156 -0.4897 -0.0554
 4187SOL    HW124020   1.511   1.948   1.595  0.4705  0.8082 -1.7154
 4187SOL    HW224021   1.380   1.960   1.629  1.1954  0.5239 -0.1097
 4188SOL     OW24022   2.231   3.269   6.970 -0.2771 -0.2939 -0.7335
 4188SOL    HW124023   2.205   3.350   6.927 -1.5106 -0.8748 -1.0903
 4188SOL    HW224024   2.264   3.313   7.049  0.2357 -0.0431 -1.0870
 4189SOL     OW24025   4.364   4.400   4.244  0.2769 -0.1689  0.4727
 4189SOL    HW124026   4.345   4.454   4.321  1.2628 -1.6927  1.8073
 4189SOL    HW224027   4.286   4.409   4.190  0.4954  1.8317  0.4890
 4190SOL     OW24028   1.512   3.151  16.562 -0.4697 -0.1385 -0.1950
 4190SOL    HW124029   1.576   3.165  16.632 -3.1057  1.0242  1.9610
 4190SOL    HW224030   1.563   3.177  16.485 -0.7693  0.3671 -0.2254
 4191SOL     OW24031   3.384   3.760  12.426  0.3826  0.1001 -0.0828
 4191SOL    HW124032   3.479   3.766  12.416  0.4081 -1.2653 -0.8323
 4191SOL    HW224033   3.367   3.734  12.516 -0.7127  1.4571  0.1000
 4192SOL     OW24034   2.623   0.157   8.433 -0.0109 -0.2334 -0.2971
 4192SOL    HW124035   2.607   0.065   8.411  0.9223 -0.3423 -0.5200
 4192SOL    HW224036   2.594   0.158   8.524 -1.1030 -1.6116 -0.6248
 4193SOL     OW24037   3.203   3.690   6.492  0.1986 -0.4011 -0.2326
 4193SOL    HW124038   3.239   3.602   6.490 -2.9592 -1.6568 -1.1815
 4193SOL    HW224039   3.271   3.739   6.446 -0.3261  0.7800  0.2325
 4194SOL     OW24040   2.110   1.173   6.338  0.1008 -0.1892  0.0446
 4194SOL    HW124041   2.115   1.094   6.392  0.1674 -2.4179 -3.2309
 4194SOL    HW224042   2.125   1.133   6.252 -0.8583  0.4484 -0.4051
 4195SOL     OW24043   0.135   0.937   2.629 -0.4071 -0.1812  0.0166
 4195SOL    HW124044   0.170   0.865   2.682  2.7593 -0.4858 -2.4486
 4195SOL    HW224045   0.142   1.008   2.693  1.3173  0.2420 -0.6308
 4196SOL     OW24046   3.921   2.138  12.754  0.0521 -0.3252  0.2179
 4196SOL    HW124047   3.877   2.061  12.717  1.7339 -1.7578  1.2116
 4196SOL    HW224048   3.983   2.161  12.684 -0.7914 -1.6179 -0.9583
 4197SOL     OW24049   0.448   0.820   2.068 -0.0353 -0.0613  0.5699
 4197SOL    HW124050   0.458   0.752   2.002 -0.9952 -1.5091  1.9270
 4197SOL    HW224051   0.431   0.896   2.012  1.8933  1.0273  1.4477
 4198SOL     OW24052   1.216   0.782   4.493  0.2652 -0.3106  0.3060
 4198SOL    HW124053   1.303   0.792   4.456 -0.4790  2.1401 -0.7508
 4198SOL    HW224054   1.238   0.720   4.563  0.8403 -1.5906 -1.0131
 4199SOL     OW24055   1.775   0.421   6.643 -0.9410 -0.1363 -0.1678
 4199SOL    HW124056   1.868   0.424   6.620 -1.0667  0.6097 -0.5962
 4199SOL    HW224057   1.770   0.505   6.689 -1.0313 -0.4400  0.3756
 4200SOL     OW24058   1.503   2.566   0.334 -0.0160 -0.5738  0.1505
 4200SOL    HW124059   1.418   2.553   0.291  0.0555 -0.1932 -0.1046
 4200SOL    HW224060   1.523   2.659   0.337  0.8904 -0.7101 -1.5665
 4201SOL     OW24061   2.833   2.575   2.529 -0.0860  0.3537 -0.3389
 4201SOL    HW124062   2.901   2.572   2.597 -1.5275  2.6457  1.1909
 4201SOL    HW224063   2.790   2.659   2.544  2.6642  1.7599 -0.2948
 4202SOL     OW24064   0.406   1.137   4.707 -0.8406 -0.3544 -0.3267
 4202SOL    HW124065   0.407   1.227   4.738 -0.4065  0.1134 -1.7119
 4202SOL    HW224066   0.370   1.140   4.618  0.9544 -1.8158 -1.1017
 4203SOL     OW24067   0.469   4.326   1.990 -0.8391 -0.3299 -0.4110
 4203SOL    HW124068   0.407   4.333   1.918 -0.0412  0.9041 -0.9793
 4203SOL    HW224069   0.468   4.417   2.021  1.1795 -1.0620  1.8361
 4204SOL     OW24070   4.687   4.000  13.452  0.4105  0.2274 -0.3807
 4204SOL    HW124071   4.703   4.067  13.384  2.4959  1.6232  1.4686
 4204SOL    HW224072   4.686   3.924  13.394 -0.2386  0.5247 -0.7577
 4205SOL     OW24073   1.091   4.214   4.748 -0.1179 -0.4676 -0.1129
 4205SOL    HW124074   1.139   4.141   4.786  1.6206 -0.9537 -3.2669
 4205SOL    HW224075   1.001   4.184   4.761 -0.4222 -0.3162 -1.9587
 4206SOL     OW24076   3.806   0.305   0.566 -0.7117  0.2520  0.0881
 4206SOL    HW124077   3.817   0.251   0.487 -2.0562 -3.2191  2.2331
 4206SOL    HW224078   3.855   0.257   0.633  0.1840  1.3593  0.2133
 4207SOL     OW24079   1.757   0.882   6.272 -0.0657 -0.0386 -0.1595
 4207SOL    HW124080   1.682   0.829   6.246  0.2327 -0.7077  0.3154
 4207SOL    HW224081   1.764   0.853   6.363 -1.1856 -1.5502 -0.5589
 4208SOL     OW24082   4.555   4.214   1.571  0.6147  0.0418 -0.4224
 4208SOL    HW124083   4.567   4.133   1.521 -0.8103 -0.7425  0.5163
 4208SOL    HW224084   4.507   4.264   1.505  0.4012 -0.1760 -0.4310
 4209SOL     OW24085   0.086   1.471   5.155 -0.2448  0.2365  0.1142
 4209SOL    HW124086   0.119   1.559   5.140 -0.6134 -0.0296 -2.2437
 4209SOL    HW224087   0.143   1.413   5.104  1.5760  0.8682  1.4332
 4210SOL     OW24088   2.249   0.878   5.994 -0.4401 -0.4560 -0.0217
 4210SOL    HW124089   2.233   0.842   6.081  1.0161 -1.1211 -0.0414
 4210SOL    HW224090   2.342   0.863   5.977 -0.6884  0.3131 -2.1086
 4211SOL     OW24091   1.637   1.681   3.769 -0.6229  0.2443  0.2149
 4211SOL    HW124092   1.703   1.736   3.727 -1.2426  0.5303 -0.3774
 4211SOL    HW224093   1.685   1.598   3.769  0.8352  1.0702 -0.4551
 4212SOL     OW24094   0.865   1.053   2.975 -0.4073 -0.4015  0.0713
 4212SOL    HW124095   0.921   1.021   2.905  1.1854  1.4180  0.5267
 4212SOL    HW224096   0.786   1.086   2.933 -0.0993  0.2496  0.0119
 4213SOL     OW24097   3.246   1.551  17.205  0.1698  0.4439 -0.2990
 4213SOL    HW124098   3.265   1.638  17.239  1.2490 -0.4832  1.5211
 4213SOL    HW224099   3.157   1.569  17.176  0.6072  1.1184 -1.1985
 4214SOL     OW24100   0.709   4.415   1.699 -0.3410 -0.0644  0.0124
 4214SOL    HW124101   0.750   4.395   1.614 -1.9616 -1.1281 -0.5128
 4214SOL    HW224102   0.753   4.354   1.759  0.0688 -0.1363 -0.3591
 4215SOL     OW24103   1.552   2.649  12.174  0.1874  0.1873  0.4659
 4215SOL    HW124104   1.525   2.726  12.223  0.3430  0.8271 -0.4383
 4215SOL    HW224105   1.594   2.592  12.238 -0.1466 -1.3129 -0.6444
 4216SOL     OW24106   3.321   4.333  10.125 -0.3360 -0.0995 -0.1442
 4216SOL    HW124107   3.257   4.317  10.055 -1.7801  1.1793  0.8862
 4216SOL    HW224108   3.281   4.403  10.176  0.0800 -0.8979  1.2695
 4217SOL     OW24109   1.549   2.880   5.578 -0.1321 -0.2597  0.1792
 4217SOL    HW124110   1.615   2.876   5.509  0.0045  0.0113  0.2965
 4217SOL    HW224111   1.470   2.852   5.531 -0.7198 -0.6843  1.4131
 4218SOL     OW24112   1.833   4.353   5.260  0.2142  0.7157  0.0179
 4218SOL    HW124113   1.750   4.387   5.292 -1.3009 -1.7816 -1.2741
 4218SOL    HW224114   1.814   4.266   5.294  1.9578  0.2010 -0.3383
 4219SOL     OW24115   2.219   0.177  14.735  0.3660  0.9244 -0.5051
 4219SOL    HW124116   2.283   0.134  14.679 -1.9200 -0.1518 -2.2915
 4219SOL    HW224117   2.157   0.105  14.723  2.5622 -1.0348 -0.2853
 4220SOL     OW24118   4.491   2.890  14.762  0.2421 -0.1762  0.2111
 4220SOL    HW124119   4.399   2.900  14.737  0.7866  1.4780 -1.1867
 4220SOL    HW224120   4.535   2.926  14.685 -0.3192  3.0092  1.3563
 4221SOL     OW24121   0.507   3.135  10.954  0.1166 -0.7445 -0.3489
 4221SOL    HW124122   0.416   3.140  10.924 -0.5350  2.2518  2.1320
 4221SOL    HW224123   0.525   3.225  10.982  0.4316 -1.7782  2.7006
 4222SOL     OW24124   3.286   4.162   4.382 -0.2551  0.0596 -0.5776
 4222SOL    HW124125   3.360   4.191   4.435  0.1243  1.4240 -1.8393
 4222SOL    HW224126   3.326   4.126   4.302 -1.6543 -0.5041 -1.0210
 4223SOL     OW24127   4.655   4.400   5.608 -0.0393  0.3517  0.7116
 4223SOL    HW124128   4.671   4.350   5.527  0.4426  0.7960  0.5353
 4223SOL    HW224129   4.582   4.457   5.582  0.0582 -0.0378 -0.4363
 4224SOL     OW24130   0.815   3.649   6.680 -0.0437 -0.5516  0.6020
 4224SOL    HW124131   0.727   3.617   6.661  0.2988  1.4301 -4.1472
 4224SOL    HW224132   0.805   3.664   6.774 -3.0451  1.3957 -0.0384
 4225SOL     OW24133   4.711   3.151  15.140  0.1220 -0.2953  0.4175
 4225SOL    HW124134   4.718   3.247  15.146  0.7447 -0.2617 -0.7169
 4225SOL    HW224135   4.619   3.126  15.138 -0.7501  3.0530 -2.9228
 4226SOL     OW24136   1.846   2.509   8.677  0.2474 -0.5280  0.2108
 4226SOL    HW124137   1.870   2.601   8.692 -2.0940 -0.3100  2.5574
 4226SOL    HW224138   1.822   2.489   8.767  3.3464 -0.4545  1.0683
 4227SOL     OW24139   2.052   0.291   2.298 -0.0914 -0.2487  0.3739
 4227SOL    HW124140   2.137   0.296   2.255  0.0686 -0.5000  0.6563
 4227SOL    HW224141   2.068   0.344   2.375 -0.4524 -3.2913  2.5555
 4228SOL     OW24142   1.753   0.177  10.229  0.4737 -0.2698 -0.4879
 4228SOL    HW124143   1.678   0.210  10.180 -0.2877 -0.8343  0.3061
 4228SOL    HW224144   1.717   0.118  10.296  0.9999  1.7239  1.5296
 4229SOL     OW24145   4.386   0.934  12.949 -0.5775  0.1752  0.6445
 4229SOL    HW124146   4.476   0.904  12.958 -0.6303  0.3412  1.7698
 4229SOL    HW224147   4.393   1.029  12.960  1.6509  0.0142  0.5352
 4230SOL     OW24148   1.906   4.570   0.923 -0.0404  0.5394  0.1467
 4230SOL    HW124149   1.884   4.575   1.016  1.7293 -1.1550  0.6602
 4230SOL    HW224150   1.827   4.542   0.877  0.7970 -0.2605 -0.8075
 4231SOL     OW24151   1.926   1.104   2.574 -0.2053  0.3338 -0.3391
 4231SOL    HW124152   1.894   1.119   2.663 -1.9197 -3.2327 -0.3960
 4231SOL    HW224153   1.919   1.196   2.546  2.1789  0.4182 -0.6771
 4232SOL     OW24154   0.887   1.956   6.115 -0.0903  0.2425 -0.0856
 4232SOL    HW124155   0.948   2.020   6.151 -0.2832  0.0127  0.6645
 4232SOL    HW224156   0.952   1.885   6.109  0.6049  1.0185 -1.5656
 4233SOL     OW24157   4.460   1.982  14.138 -0.0325 -0.2164 -0.3273
 4233SOL    HW124158   4.522   1.969  14.210  1.4898 -1.8475 -1.9487
 4233SOL    HW224159   4.474   2.076  14.126  0.3454 -0.0570  1.3091
 4234SOL     OW24160   3.408   2.361   5.082  0.0550  0.7360 -0.4419
 4234SOL    HW124161   3.338   2.427   5.078  0.8121  1.6166  0.6865
 4234SOL    HW224162   3.423   2.328   4.993  1.0888  0.6431 -0.2238
 4235SOL     OW24163   3.057   4.393   6.843  0.0189 -0.2602 -0.4167
 4235SOL    HW124164   3.023   4.418   6.757 -0.2061  2.7152  0.5436
 4235SOL    HW224165   2.998   4.445   6.898 -0.8133 -0.4412 -1.1372
 4236SOL     OW24166   0.535   0.257   6.316 -0.1271  0.1784 -0.3973
 4236SOL    HW124167   0.563   0.348   6.315 -0.4929  0.2905 -0.5710
 4236SOL    HW224168   0.444   0.260   6.346 -0.3272 -2.6734 -0.6724
 4237SOL     OW24169   4.471   1.665   6.088 -0.2380  0.0495  0.1939
 4237SOL    HW124170   4.384   1.706   6.091 -0.7147 -0.9740  0.5816
 4237SOL    HW224171   4.533   1.733   6.114 -0.5921  0.4974 -0.1455
 4238SOL     OW24172   4.509   0.976  17.452 -0.2449 -0.4939  0.0857
 4238SOL    HW124173   4.418   0.956  17.430  0.1623 -0.2917 -1.7705
 4238SOL    HW224174   4.546   0.893  17.421 -0.2655 -0.9971  1.3835
 4239SOL     OW24175   1.288   3.706  14.153  0.4387  0.2175 -0.1914
 4239SOL    HW124176   1.359   3.768  14.133  0.7216 -0.4826 -1.3265
 4239SOL    HW224177   1.226   3.756  14.206  1.8800  2.6552 -0.7940
 4240SOL     OW24178   4.642   3.464   2.120  0.2970  0.0038  0.0790
 4240SOL    HW124179   4.553   3.490   2.097  0.2261 -0.8650 -0.6289
 4240SOL    HW224180   4.692   3.507   2.050  0.3012  2.0147  1.3334
 4241SOL     OW24181   0.370   3.664  11.567  0.4139 -0.3207  0.1319
 4241SOL    HW124182   0.370   3.737  11.629  0.0690  0.6156 -0.9959
 4241SOL    HW224183   0.280   3.639  11.549  0.1338  0.4506  0.4857
 4242SOL     OW24184   4.692   0.824   7.756  0.0767  0.8529  0.3626
 4242SOL    HW124185   0.013   0.773   7.690  0.4582 -0.5038  1.7113
 4242SOL    HW224186   0.002   0.783   7.834  1.3762  0.7176 -0.3134
 4243SOL     OW24187   0.157   4.673   3.966  0.2147  0.5645  0.0095
 4243SOL    HW124188   0.151   4.599   4.026  0.1683 -1.1515 -2.1018
 4243SOL    HW224189   0.140   4.623   3.886  0.1325 -0.2471  0.5371
 4244SOL     OW24190   3.832   2.126   0.239  0.6166 -0.2359 -0.2098
 4244SOL    HW124191   3.805   2.152   0.151 -1.3026 -0.3639  0.3510
 4244SOL    HW224192   3.855   2.035   0.221  0.7687 -0.1891 -0.2537
 4245SOL     OW24193   2.391   0.113  12.226 -0.6841  0.1204  0.0046
 4245SOL    HW124194   2.398   0.047  12.156  0.3022 -0.1833  0.3900
 4245SOL    HW224195   2.446   0.180  12.186 -1.5778 -0.2521 -1.8668
 4246SOL     OW24196   1.703   1.857   6.977  0.1618 -0.3539  0.5308
 4246SOL    HW124197   1.627   1.897   7.019  0.2503  0.1421  0.2201
 4246SOL    HW224198   1.763   1.913   7.026  0.3208 -0.5462  0.5527
 4247SOL     OW24199   2.395   0.861   2.434  0.2791 -0.3161 -0.0530
 4247SOL    HW124200   2.329   0.901   2.492 -0.2322 -1.8474  0.4281
 4247SOL    HW224201   2.446   0.937   2.408  1.3362 -1.8294 -2.3872
 4248SOL     OW24202   4.034   1.965   4.732 -0.1517 -0.3250 -0.7784
 4248SOL    HW124203   4.045   1.901   4.802  0.4824  0.3956 -0.2122
 4248SOL    HW224204   4.010   2.042   4.784  0.9825 -0.2437 -0.3706
 4249SOL     OW24205   0.717   4.099   6.610  0.2550 -0.1445  0.6471
 4249SOL    HW124206   0.710   4.182   6.657  2.5098  1.9503 -2.7590
 4249SOL    HW224207   0.665   4.039   6.665 -0.8850  0.7194  0.5072
 4250SOL     OW24208   3.901   1.993   4.442  0.0518  0.2819  0.0181
 4250SOL    HW124209   3.961   1.994   4.516  1.5248 -1.7406 -1.1599
 4250SOL    HW224210   3.934   2.058   4.379 -1.7177  3.6025  2.5182
 4251SOL     OW24211   0.814   0.419  13.301 -0.0594  0.5359  0.2845
 4251SOL    HW124212   0.745   0.393  13.240  2.7842 -0.8555 -2.2950
 4251SOL    HW224213   0.764   0.457  13.374  0.2304  0.3867  0.5594
 4252SOL     OW24214   0.559   3.437   0.687  0.0250 -0.6144  0.4752
 4252SOL    HW124215   0.630   3.501   0.692  0.8531 -1.6844  2.3024
 4252SOL    HW224216   0.572   3.392   0.771 -0.0541 -1.1462  0.1970
 4253SOL     OW24217   3.988   3.681   7.077  0.3778  0.1624  0.1875
 4253SOL    HW124218   4.049   3.655   7.146  0.9282  1.5997  0.2501
 4253SOL    HW224219   4.025   3.643   6.997  0.5184  0.3200  0.1756
 4254SOL     OW24220   2.942   4.627   1.676  0.0957 -0.2447 -0.0257
 4254SOL    HW124221   3.036   4.632   1.657  0.3555 -0.8133  1.0797
 4254SOL    HW224222   2.908   4.706   1.634  1.9994 -0.1032 -1.3022
 4255SOL     OW24223   4.298   0.376   4.961 -0.2562  0.8482 -0.2068
 4255SOL    HW124224   4.246   0.327   5.024 -0.6121 -0.3745 -1.4512
 4255SOL    HW224225   4.236   0.419   4.902  0.1900 -0.5457 -1.6925
 4256SOL     OW24226   0.444   0.786  13.199 -0.1860 -0.2148  0.1402
 4256SOL    HW124227   0.464   0.786  13.105 -0.8846 -0.2004 -0.0118
 4256SOL    HW224228   0.531   0.803  13.235 -0.9621  2.6576  0.6459
 4257SOL     OW24229   1.363   3.733  13.629  0.1079 -0.0495 -0.5979
 4257SOL    HW124230   1.341   3.781  13.708  0.3343  0.6853 -0.9819
 4257SOL    HW224231   1.451   3.708  13.658 -0.2196 -0.8146 -0.2585
 4258SOL     OW24232   1.084   4.156   8.874  0.2567 -0.4292  0.3441
 4258SOL    HW124233   1.087   4.207   8.792  1.0030  1.0616  1.3063
 4258SOL    HW224234   1.014   4.210   8.911 -1.1492  0.5038 -3.6532
 4259SOL     OW24235   2.202   0.502   9.579 -0.1488 -0.2074  0.0902
 4259SOL    HW124236   2.206   0.542   9.666 -0.8307  0.9525 -0.4156
 4259SOL    HW224237   2.152   0.421   9.590 -0.5876  0.1515  0.7865
 4260SOL     OW24238   1.559   3.426   5.962  0.4381 -0.7637  0.0286
 4260SOL    HW124239   1.625   3.490   5.986  0.1161  0.1364 -1.5189
 4260SOL    HW224240   1.611   3.393   5.890  1.5459 -0.5223  0.7209
 4261SOL     OW24241   0.022   0.931   1.435 -0.6070  0.4035 -0.1233
 4261SOL    HW124242   0.008   0.866   1.366 -0.6556  1.6106 -1.2464
 4261SOL    HW224243   0.067   0.998   1.385 -0.3823 -0.1864 -0.7128
 4262SOL     OW24244   4.416   0.888  10.000  0.3190 -0.5799 -0.2241
 4262SOL    HW124245   4.357   0.913   9.928 -0.9146  2.4852  1.8254
 4262SOL    HW224246   4.347   0.867  10.063  1.0052 -3.3111 -0.4040
 4263SOL     OW24247   1.228   4.163   0.011  0.1194 -0.8363  0.6385
 4263SOL    HW124248   1.172   4.160   0.089 -0.2838 -1.3250  0.3254
 4263SOL    HW224249   1.159   4.197  17.662  1.2836  0.8116  0.2237
 4264SOL     OW24250   3.115   2.949   7.647 -0.3549 -0.1319  0.2073
 4264SOL    HW124251   3.208   2.932   7.662  0.3998  2.2552 -1.8606
 4264SOL    HW224252   3.094   2.986   7.733 -1.5099  1.0308 -0.5819
 4265SOL     OW24253   1.022   3.748   1.670 -0.0874 -0.0082 -0.5583
 4265SOL    HW124254   0.938   3.779   1.638 -0.4103 -0.4608 -0.1565
 4265SOL    HW224255   0.985   3.686   1.733  0.4114  0.3993  0.1366
 4266SOL     OW24256   3.343   2.441  13.558 -0.0384  0.2467 -0.2051
 4266SOL    HW124257   3.367   2.374  13.494 -0.8163  0.7598 -1.0262
 4266SOL    HW224258   3.366   2.396  13.639  1.6767  1.4088 -0.0581
 4267SOL     OW24259   3.444   4.553  16.053  0.2302 -0.0226  0.1877
 4267SOL    HW124260   3.464   4.463  16.077  1.2772  0.3483  0.6803
 4267SOL    HW224261   3.495   4.567  15.973  0.1755  1.9979  0.5099
 4268SOL     OW24262   2.689   3.935   5.580 -0.2216  0.0185  0.1337
 4268SOL    HW124263   2.658   3.860   5.630 -1.1530  0.4158  0.1564
 4268SOL    HW224264   2.627   3.999   5.617 -0.0523  0.5740 -0.5508
 4269SOL     OW24265   3.369   0.480   8.773  0.2704  0.3801  0.3328
 4269SOL    HW124266   3.365   0.554   8.714 -1.3813 -1.5119 -1.9360
 4269SOL    HW224267   3.441   0.500   8.833 -0.0398  2.7583 -0.1013
 4270SOL     OW24268   1.094   2.181   0.179 -0.1088  0.3738 -0.2317
 4270SOL    HW124269   1.147   2.136   0.245  0.4549 -0.7948 -1.4926
 4270SOL    HW224270   1.024   2.117   0.165  0.6574 -0.5628  0.2210
 4271SOL     OW24271   2.914   3.165   9.157 -0.1443 -0.4227 -0.4308
 4271SOL    HW124272   2.883   3.074   9.148  0.6277 -0.7482  0.3271
 4271SOL    HW224273   2.832   3.214   9.143  1.1013  2.2552  1.7019
 4272SOL     OW24274   4.463   3.776   8.499 -0.2654  0.8799  0.2342
 4272SOL    HW124275   4.469   3.686   8.467 -1.0557  1.0603 -0.4151
 4272SOL    HW224276   4.526   3.809   8.435 -1.5042  0.5849 -1.1491
 4273SOL     OW24277   3.874   4.096  13.484  0.1845  0.5505 -0.1146
 4273SOL    HW124278   3.832   4.034  13.425 -0.7046  1.1186 -0.0711
 4273SOL    HW224279   3.824   4.174  13.463 -1.0081 -0.4519 -1.0059
 4274SOL     OW24280   3.709   3.774   6.137  0.0444  0.2431  0.1919
 4274SOL    HW124281   3.703   3.680   6.119  0.1831 -0.6816  4.8453
 4274SOL    HW224282   3.644   3.802   6.073  0.6152 -0.4842 -0.7027
 4275SOL     OW24283   3.063   2.677   7.376 -0.3436  0.0308  0.0153
 4275SOL    HW124284   3.041   2.770   7.372 -1.8245 -0.1697  3.3766
 4275SOL    HW224285   3.103   2.656   7.460  0.3975  1.9160  0.1252
 4276SOL     OW24286   3.181   2.906  14.255  0.6909  0.3186  0.1309
 4276SOL    HW124287   3.123   2.976  14.225  0.5924 -0.7505 -2.1592
 4276SOL    HW224288   3.187   2.859  14.171  0.2008  1.9555 -0.8139
 4277SOL     OW24289   3.550   2.606   4.844 -0.1759 -0.5298  0.8955
 4277SOL    HW124290   3.584   2.517   4.832 -0.5053  0.0570 -4.2958
 4277SOL    HW224291   3.567   2.651   4.762 -0.5367 -0.5799  0.7964
 4278SOL     OW24292   1.669   1.124   3.276  0.1091  0.6783  0.2600
 4278SOL    HW124293   1.642   1.211   3.246 -2.6014 -0.3706 -0.3505
 4278SOL    HW224294   1.656   1.075   3.195  0.7977  2.2633 -0.8189
 4279SOL     OW24295   4.274   0.721  15.299 -0.0273  0.5322 -0.0824
 4279SOL    HW124296   4.332   0.794  15.322 -1.5383  2.2133 -1.6479
 4279SOL    HW224297   4.204   0.725  15.364 -2.3816 -1.6113 -2.5190
 4280SOL     OW24298   1.433   0.658   6.841 -0.1756 -0.2171 -0.6457
 4280SOL    HW124299   1.406   0.611   6.919  1.6567  0.9338  0.6669
 4280SOL    HW224300   1.467   0.584   6.791  0.7941 -0.4989  0.4575
 4281SOL     OW24301   3.199   0.616   2.955 -0.1374  0.2861 -0.7150
 4281SOL    HW124302   3.159   0.606   2.868 -1.0126 -0.2153 -0.2534
 4281SOL    HW224303   3.218   0.709   2.965  1.1570  0.1248 -1.6967
 4282SOL     OW24304   1.700   2.499  12.362 -0.2484 -0.8083  0.2226
 4282SOL    HW124305   1.717   2.556  12.437 -0.7983  2.0951 -1.8843
 4282SOL    HW224306   1.782   2.514  12.314 -0.0188 -0.0880  0.8445
 4283SOL     OW24307   3.606   1.000   8.284  0.0157 -0.1873 -0.6075
 4283SOL    HW124308   3.583   1.049   8.206 -1.5929 -0.3841 -0.2429
 4283SOL    HW224309   3.532   1.024   8.339 -0.5844 -0.7353 -1.1712
 4284SOL     OW24310   3.330   3.323  11.050  0.4152  0.1238 -0.1339
 4284SOL    HW124311   3.276   3.395  11.018  2.1379  1.9401  1.0612
 4284SOL    HW224312   3.295   3.319  11.139  1.5638  1.9075  0.4056
 4285SOL     OW24313   0.317   4.629   1.484 -0.0354  0.3996  0.6420
 4285SOL    HW124314   0.238   4.631   1.430  0.8036  0.5771 -0.5869
 4285SOL    HW224315   0.349   4.543   1.458 -0.1064  0.6169 -0.1614
 4286SOL     OW24316   0.213   1.955  15.880 -0.5355 -0.0021  0.0630
 4286SOL    HW124317   0.304   1.977  15.863 -0.4928  0.3006  0.6855
 4286SOL    HW224318   0.175   2.019  15.820 -0.0159 -1.2729 -1.6103
 4287SOL     OW24319   1.604   3.608   8.745  0.4690  0.3027  0.3877
 4287SOL    HW124320   1.555   3.562   8.813 -1.1286 -1.1629 -1.7411
 4287SOL    HW224321   1.536   3.649   8.692  1.1507  0.8559 -0.0541
 4288SOL     OW24322   1.580   2.216   6.771  0.1609  0.1492  0.4897
 4288SOL    HW124323   1.537   2.218   6.857 -1.5043 -2.2586 -0.2854
 4288SOL    HW224324   1.513   2.223   6.703 -1.0444 -0.2071  1.6456
 4289SOL     OW24325   3.846   4.307  14.939  0.6410  0.3717  0.0982
 4289SOL    HW124326   3.802   4.320  14.855  0.9304 -3.6207 -0.6607
 4289SOL    HW224327   3.768   4.287  14.991  1.2520  2.0060  1.6634
 4290SOL     OW24328   0.169   1.712   5.047 -0.5543 -0.1162 -0.6183
 4290SOL    HW124329   0.125   1.775   5.104 -0.1766  0.7736 -1.3297
 4290SOL    HW224330   0.259   1.741   5.059 -0.8931  1.2591 -1.5001
 4291SOL     OW24331   3.589   2.223   3.759  0.3991 -0.0824 -0.0658
 4291SOL    HW124332   3.528   2.296   3.771 -1.5839 -1.5122 -1.4027
 4291SOL    HW224333   3.557   2.164   3.828  0.2220  0.0788 -0.0088
 4292SOL     OW24334   2.786   4.484   8.590 -0.8826  0.3948 -0.1518
 4292SOL    HW124335   2.863   4.521   8.633 -0.5150  0.5794 -0.9689
 4292SOL    HW224336   2.823   4.463   8.504  0.5625 -0.0670  0.5769
 4293SOL     OW24337   3.141   1.797   1.831  0.0906  0.1325  0.0212
 4293SOL    HW124338   3.149   1.859   1.904 -1.0783 -0.2927  0.5157
 4293SOL    HW224339   3.048   1.817   1.820  0.0396  0.3037  0.7564
 4294SOL     OW24340   2.406   3.311   8.276 -0.3398  0.8135  0.0869
 4294SOL    HW124341   2.437   3.400   8.261 -0.3880  0.4131 -2.3444
 4294SOL    HW224342   2.483   3.262   8.305  0.6341  0.7309 -2.6427
 4295SOL     OW24343   2.255   0.529  12.161  0.1163  0.0409  0.0371
 4295SOL    HW124344   2.262   0.521  12.256 -2.1576 -2.0632  0.0326
 4295SOL    HW224345   2.337   0.568  12.131  0.4866 -0.4010  0.4709
 4296SOL     OW24346   3.237   4.354   5.220 -0.8892  0.2816  0.1762
 4296SOL    HW124347   3.193   4.308   5.292  1.7424 -0.1300  1.5182
 4296SOL    HW224348   3.297   4.406   5.272  1.5425 -3.4756  1.1384
 4297SOL     OW24349   4.231   1.127   2.181  0.1865 -0.2183 -0.8155
 4297SOL    HW124350   4.321   1.144   2.211  0.2194 -0.6287 -0.6736
 4297SOL    HW224351   4.206   1.218   2.168  1.2644  0.3493  1.0125
 4298SOL     OW24352   4.555   1.315   9.272  0.2756  0.0843 -0.2945
 4298SOL    HW124353   4.585   1.369   9.345  2.0495 -0.7995 -0.3531
 4298SOL    HW224354   4.598   1.361   9.200  0.5656  0.6031  0.2108
 4299SOL     OW24355   2.865   3.041   3.412  0.3888 -0.0546  0.0838
 4299SOL    HW124356   2.888   3.101   3.341 -0.6043  0.5723  0.2937
 4299SOL    HW224357   2.772   3.064   3.419  0.6429  0.5726  1.4519
 4300SOL     OW24358   4.265   2.613  11.007 -0.3508  0.6537  0.3954
 4300SOL    HW124359   4.221   2.697  11.021 -1.2875  0.4523 -1.3321
 4300SOL    HW224360   4.235   2.591  10.919  0.1382  0.1182  0.3608
 4301SOL     OW24361   4.485   1.050   6.301 -0.6628  0.3523  0.5878
 4301SOL    HW124362   4.439   1.104   6.237  0.2734  0.1824 -0.2421
 4301SOL    HW224363   4.572   1.090   6.290 -1.3780  0.8304 -3.2069
 4302SOL     OW24364   1.155   0.893   7.124  0.5794 -0.1617  0.8904
 4302SOL    HW124365   1.082   0.832   7.139  1.5323 -1.6244 -0.3674
 4302SOL    HW224366   1.232   0.840   7.143  1.7061  1.3858  0.5903
 4303SOL     OW24367   3.116   1.456   1.748  0.0034 -0.0960  0.1435
 4303SOL    HW124368   3.146   1.365   1.745 -1.2805 -0.5350  0.6898
 4303SOL    HW224369   3.043   1.436   1.806  0.4249  0.2934  0.8060
 4304SOL     OW24370   1.552   3.230  11.606 -0.4704 -0.2205 -0.1252
 4304SOL    HW124371   1.543   3.184  11.690  1.2426  1.4459  0.9851
 4304SOL    HW224372   1.482   3.295  11.612 -0.6608 -0.5643  1.4373
 4305SOL     OW24373   4.545   0.731   1.721  0.4670 -0.1530  0.7312
 4305SOL    HW124374   4.633   0.702   1.745  0.5671  0.6085  1.3050
 4305SOL    HW224375   4.537   0.807   1.779 -1.0251  0.1574  0.1105
 4306SOL     OW24376   3.977   0.749   5.523  0.7420 -0.3799  0.6127
 4306SOL    HW124377   3.953   0.688   5.453  2.3819  1.2247 -1.3206
 4306SOL    HW224378   3.948   0.697   5.598 -0.0680  0.0671  0.6049
 4307SOL     OW24379   1.088   3.510   6.663 -0.0209 -0.7077  0.5712
 4307SOL    HW124380   0.998   3.539   6.649 -0.3255 -2.3862 -1.0840
 4307SOL    HW224381   1.057   3.450   6.730 -0.1536  0.9319  1.9614
 4308SOL     OW24382   0.458   0.990  14.112 -0.2749  0.6208 -0.5542
 4308SOL    HW124383   0.372   0.950  14.130  0.2446 -0.1634  0.1511
 4308SOL    HW224384   0.417   1.076  14.107  0.0595  0.8477  0.6565
 4309SOL     OW24385   3.740   1.821   2.532  0.1577  0.2267 -0.3615
 4309SOL    HW124386   3.753   1.828   2.437 -0.3163  0.5752 -0.4047
 4309SOL    HW224387   3.828   1.843   2.563  0.4351 -0.9325 -0.3449
 4310SOL     OW24388   2.397   3.634  14.015 -0.0381 -1.1144  0.0180
 4310SOL    HW124389   2.328   3.597  13.960 -1.3239  3.6859 -1.6670
 4310SOL    HW224390   2.367   3.725  14.025  0.5808 -0.9808  0.6197
 4311SOL     OW24391   1.002   2.422   1.155 -0.1019 -0.3983 -0.4101
 4311SOL    HW124392   0.958   2.363   1.094  1.5763  0.3916 -2.3529
 4311SOL    HW224393   1.075   2.369   1.186  0.6563 -0.0968 -1.7109
 4312SOL     OW24394   1.115   1.635  13.680  0.2539 -0.5217 -1.0916
 4312SOL    HW124395   1.039   1.689  13.700 -0.0425 -1.5371  0.5775
 4312SOL    HW224396   1.108   1.612  13.588  1.5480 -1.3210 -0.9907
 4313SOL     OW24397   2.127   4.266   7.099  0.9401  0.1486  0.1896
 4313SOL    HW124398   2.116   4.254   7.004  2.4332  1.8730 -0.2084
 4313SOL    HW224399   2.078   4.348   7.107  1.0413  0.1891  0.3877
 4314SOL     OW24400   3.102   2.392  12.338  0.1064  0.8511  0.3421
 4314SOL    HW124401   3.176   2.442  12.373  1.8565 -1.6109  0.1466
 4314SOL    HW224402   3.102   2.310  12.387 -1.4969  0.7121  0.1005
 4315SOL     OW24403   1.552   0.708   6.262 -0.2830 -0.0637  0.0403
 4315SOL    HW124404   1.564   0.646   6.190  1.3759  0.1055  0.1811
 4315SOL    HW224405   1.497   0.659   6.323  2.9940 -2.2577  1.1598
 4316SOL     OW24406   4.717   4.587   6.353 -0.2060 -0.3694  0.2545
 4316SOL    HW124407   0.001   4.610   6.261 -2.2230  1.2793  0.4284
 4316SOL    HW224408   4.634   4.543   6.368  0.9466 -2.7413 -0.3373
 4317SOL     OW24409   1.191   2.197  13.582  0.4393  0.0184 -0.0246
 4317SOL    HW124410   1.281   2.206  13.612  0.6409 -0.7365 -0.3977
 4317SOL    HW224411   1.148   2.267  13.631 -0.8522 -1.4771  0.9861
 4318SOL     OW24412   1.313   2.275   4.183  0.7367 -0.1476 -0.3988
 4318SOL    HW124413   1.328   2.202   4.243 -1.3147 -0.8657 -0.7700
 4318SOL    HW224414   1.228   2.263   4.141  1.0566 -1.6280 -0.6330
 4319SOL     OW24415   1.311   3.509   4.348  0.4394 -0.3866  0.4062
 4319SOL    HW124416   1.398   3.472   4.359  0.1496 -0.0816  3.8088
 4319SOL    HW224417   1.312   3.503   4.253  1.1683  2.5843  0.2379
 4320SOL     OW24418   1.479   1.097  14.760  0.0213  0.0046 -0.3081
 4320SOL    HW124419   1.528   1.042  14.698 -2.1612 -0.4548 -1.6009
 4320SOL    HW224420   1.500   1.042  14.836  0.5357 -0.0239 -0.4694
 4321SOL     OW24421   1.553   4.163   7.878 -0.1414 -0.2109 -0.0248
 4321SOL    HW124422   1.631   4.211   7.848  1.6582 -2.5464  0.9215
 4321SOL    HW224423   1.530   4.224   7.948 -0.6261 -0.2964 -0.1113
 4322SOL     OW24424   1.242   4.075  16.535 -0.1167 -0.0308 -0.1851
 4322SOL    HW124425   1.271   4.040  16.451  1.6608  1.7536 -0.3219
 4322SOL    HW224426   1.290   4.157  16.549 -1.6207  0.6448  1.0593
 4323SOL     OW24427   3.517   1.349   1.114  0.6214  0.5597  0.0063
 4323SOL    HW124428   3.602   1.390   1.132  0.7301  1.1291 -1.7903
 4323SOL    HW224429   3.462   1.412   1.161  0.1379 -1.9819  2.8126
 4324SOL     OW24430   2.337   3.514   7.413 -0.0764  0.4787 -0.0646
 4324SOL    HW124431   2.427   3.504   7.383 -0.0236  2.8662 -0.7169
 4324SOL    HW224432   2.337   3.453   7.486  0.5741  0.6509  0.0817
 4325SOL     OW24433   1.073   3.447   3.157 -0.8280  0.3768 -0.3586
 4325SOL    HW124434   1.123   3.501   3.218  0.7875  0.3184 -1.6228
 4325SOL    HW224435   0.990   3.495   3.157 -1.9596 -1.6051  0.9244
 4326SOL     OW24436   1.530   0.155   0.757 -0.3190 -0.0547 -0.1434
 4326SOL    HW124437   1.552   0.078   0.704  1.0137  0.2879 -0.1012
 4326SOL    HW224438   1.596   0.146   0.826  0.1398  0.6151 -0.4973
 4327SOL     OW24439   3.360   0.405   3.661 -0.4578  0.7407 -0.2453
 4327SOL    HW124440   3.321   0.345   3.597  1.1577  3.0247 -3.3839
 4327SOL    HW224441   3.426   0.347   3.700  1.0888  3.3204  0.9522
 4328SOL     OW24442   4.068   4.268  14.493  0.1080  0.4043  0.0520
 4328SOL    HW124443   4.151   4.239  14.454 -0.5302  0.6350 -1.4956
 4328SOL    HW224444   4.077   4.232  14.581  1.2973 -1.8809 -0.9987
 4329SOL     OW24445   2.313   2.986   5.675  0.0333 -0.1463 -0.3755
 4329SOL    HW124446   2.268   3.021   5.598  1.4842 -0.4189 -1.3577
 4329SOL    HW224447   2.280   3.039   5.747 -2.9117 -2.4782  0.0129
 4330SOL     OW24448   4.608   4.099   5.030 -0.5344 -0.3365  0.2906
 4330SOL    HW124449   4.532   4.155   5.046  0.2360  0.5139  0.9865
 4330SOL    HW224450   4.589   4.065   4.943  0.4766  1.1696 -0.5279
 4331SOL     OW24451   0.550   3.335   8.305 -0.5529 -0.5002  0.2359
 4331SOL    HW124452   0.620   3.390   8.340 -2.6517  2.0546  0.3781
 4331SOL    HW224453   0.584   3.246   8.315  0.1269 -0.4706 -1.9306
 4332SOL     OW24454   0.231   2.393  14.090 -0.3951 -0.4513 -0.0428
 4332SOL    HW124455   0.309   2.362  14.134  1.3037  1.3609 -1.7746
 4332SOL    HW224456   0.197   2.312  14.051 -0.5016 -0.2405 -0.3911
 4333SOL     OW24457   1.767   3.397   1.960  0.4359  0.4351  0.1361
 4333SOL    HW124458   1.780   3.469   2.022  1.7263 -0.1063  0.4839
 4333SOL    HW224459   1.739   3.448   1.884  0.1587  0.2078  0.0831
 4334SOL     OW24460   1.511   4.713   4.854 -0.2886 -0.6051  0.7416
 4334SOL    HW124461   1.454   4.702   4.778  0.3062  2.8062 -0.1844
 4334SOL    HW224462   1.566   0.062   4.834 -0.6479 -1.1004 -2.0157
 4335SOL     OW24463   4.408   1.520  11.375 -0.8873 -0.2576  0.1256
 4335SOL    HW124464   4.456   1.602  11.359 -0.5441 -0.5996 -0.5705
 4335SOL    HW224465   4.451   1.492  11.456  1.3631 -0.3127 -1.0956
 4336SOL     OW24466   0.291   1.182   4.450 -0.0309 -0.6637  0.7329
 4336SOL    HW124467   0.339   1.173   4.368 -0.3547 -0.3287  0.5113
 4336SOL    HW224468   0.276   1.276   4.439 -0.1233 -0.5007  2.1700
 4337SOL     OW24469   3.744   0.723   2.409  0.1558  0.1651  0.8175
 4337SOL    HW124470   3.669   0.665   2.421  1.5528 -1.7286  0.5183
 4337SOL    HW224471   3.720   0.763   2.325 -2.1353 -0.4653  1.1804
 4338SOL     OW24472   1.845   0.318  17.573  0.0280  0.2000  0.0500
 4338SOL    HW124473   1.877   0.377  17.505  1.4344 -2.0692 -1.2199
 4338SOL    HW224474   1.823   0.385  17.638 -0.6337  0.0067  0.0284
 4339SOL     OW24475   2.701   1.506   1.795 -0.2099 -0.1844  0.1738
 4339SOL    HW124476   2.721   1.496   1.701 -3.6603 -1.1560 -0.4522
 4339SOL    HW224477   2.755   1.437   1.832 -1.8727 -1.8311 -0.4521
 4340SOL     OW24478   1.279   0.933   7.615 -0.0686  0.1692 -0.7028
 4340SOL    HW124479   1.302   0.960   7.527  0.9033  0.8051 -0.2591
 4340SOL    HW224480   1.344   0.980   7.667  1.1149 -0.8171 -1.2945
 4341SOL     OW24481   3.219   0.343   7.656  0.4959  0.2885  0.2761
 4341SOL    HW124482   3.178   0.293   7.727 -1.0094  1.4373  0.2286
 4341SOL    HW224483   3.286   0.391   7.704 -0.2727  0.4428  1.2096
 4342SOL     OW24484   4.427   0.777   4.139 -0.3074  0.9223 -0.6090
 4342SOL    HW124485   4.458   0.814   4.221 -0.1126 -0.5650 -0.0042
 4342SOL    HW224486   4.354   0.836   4.121 -0.0301  1.7164  0.8882
 4343SOL     OW24487   3.716   4.281  12.577  0.2613  0.1059 -0.1726
 4343SOL    HW124488   3.739   4.345  12.644  1.3559  0.6762 -1.0892
 4343SOL    HW224489   3.805   4.257  12.550 -0.0258 -2.5014  1.2131
 4344SOL     OW24490   4.523   0.884   1.961  0.1760 -0.0427  0.5526
 4344SOL    HW124491   4.608   0.853   1.993 -0.3705 -0.8094  1.2781
 4344SOL    HW224492   4.465   0.845   2.027  0.9394 -1.5532  0.3161
 4345SOL     OW24493   2.323   1.401  15.490  0.2588  0.2109 -0.1343
 4345SOL    HW124494   2.310   1.414  15.396 -1.4967  0.2245  0.1118
 4345SOL    HW224495   2.263   1.462  15.532 -0.2970 -0.2945 -0.1862
 4346SOL     OW24496   3.115   0.022   4.650  0.0966 -0.1408 -0.0641
 4346SOL    HW124497   3.158   4.711   4.573 -0.5065 -0.5397 -0.2044
 4346SOL    HW224498   3.152   4.692   4.718 -0.4070  1.0046  1.1598
 4347SOL     OW24499   3.341   3.572   6.001  0.0200 -0.3600  0.2857
 4347SOL    HW124500   3.303   3.496   5.957  1.1119  0.3065 -1.8026
 4347SOL    HW224501   3.330   3.641   5.936 -0.5255 -1.0216 -0.3206
 4348SOL     OW24502   0.517   4.140  12.180  0.5703  0.6326  0.0540
 4348SOL    HW124503   0.501   4.055  12.140 -2.1876  1.8378 -1.3383
 4348SOL    HW224504   0.430   4.156  12.215  0.5568 -0.4493  0.4987
 4349SOL     OW24505   3.039   1.388  13.669  0.0349 -0.7504  0.0625
 4349SOL    HW124506   2.952   1.424  13.688 -0.2607 -1.5407  0.2025
 4349SOL    HW224507   3.025   1.317  13.606  2.0651 -2.5241  1.5781
 4350SOL     OW24508   0.954   2.036  16.059  0.5117 -0.2491 -0.3181
 4350SOL    HW124509   1.010   2.093  16.005  3.0790 -3.0294 -0.5800
 4350SOL    HW224510   0.961   2.068  16.149  0.7764 -2.3913  0.4195
 4351SOL     OW24511   1.857   3.653   8.301 -0.1998 -0.0624  0.4283
 4351SOL    HW124512   1.801   3.666   8.224  0.0717  0.0674  0.2515
 4351SOL    HW224513   1.793   3.620   8.364 -1.3029 -1.2544 -1.3012
 4352SOL     OW24514   3.300   1.320  17.625 -0.0420 -0.0188 -0.3942
 4352SOL    HW124515   3.215   1.312  17.581  1.3337 -2.6779 -2.5261
 4352SOL    HW224516   3.284   1.399  17.677  1.0014 -0.2178  0.2159
 4353SOL     OW24517   1.803   1.271   1.657  0.1038 -0.8935  0.8068
 4353SOL    HW124518   1.727   1.320   1.626 -0.3123 -0.1416  3.0080
 4353SOL    HW224519   1.856   1.291   1.580 -0.5471  1.1709  0.8968
 4354SOL     OW24520   1.220   4.174   7.245  0.3871 -0.7582 -0.3639
 4354SOL    HW124521   1.287   4.241   7.261 -1.1386  1.0979 -1.7854
 4354SOL    HW224522   1.142   4.214   7.285  0.2555 -0.0322 -1.3563
 4355SOL     OW24523   3.987   3.509   0.356 -0.0652 -0.8124  0.8189
 4355SOL    HW124524   4.052   3.537   0.420 -0.1767 -0.4331  0.7626
 4355SOL    HW224525   3.963   3.587   0.307  0.9550 -1.3730 -0.5731
 4356SOL     OW24526   0.994   2.429  17.155 -0.8051  0.2508 -0.5503
 4356SOL    HW124527   1.038   2.348  17.180 -2.1286 -0.3573 -0.1775
 4356SOL    HW224528   1.061   2.491  17.185  0.9664 -0.6000 -2.7725
 4357SOL     OW24529   1.986   4.531   4.903  0.3348  0.2882  0.0140
 4357SOL    HW124530   2.013   4.509   4.993 -2.1130  0.6540  0.8207
 4357SOL    HW224531   1.891   4.533   4.904  0.2625 -3.2671  0.9616
 4358SOL     OW24532   4.438   4.102   5.696  0.3709  0.1799 -0.2835
 4358SOL    HW124533   4.372   4.171   5.704  0.9315  0.8806 -1.8719
 4358SOL    HW224534   4.386   4.043   5.641  0.0976 -0.4438  0.6386
 4359SOL     OW24535   3.079   4.521   4.097 -0.4693 -0.2453 -0.0853
 4359SOL    HW124536   3.095   4.456   4.166 -0.7077 -2.0682 -1.7370
 4359SOL    HW224537   3.157   4.576   4.109 -1.8309  1.9876 -1.5194
 4360SOL     OW24538   4.388   1.746   4.141 -0.4374 -0.0525  0.1639
 4360SOL    HW124539   4.452   1.793   4.088  0.4531 -0.2634  1.0388
 4360SOL    HW224540   4.312   1.732   4.085  1.3003  0.3447 -2.2771
 4361SOL     OW24541   0.007   1.495  12.838  0.3888  0.3893  0.1663
 4361SOL    HW124542   4.655   1.549  12.827 -0.2492 -1.2330 -3.1276
 4361SOL    HW224543   0.077   1.559  12.825 -1.3055  2.6590  2.2249
 4362SOL     OW24544   1.086   3.011   2.422  0.0511  0.0963  0.3990
 4362SOL    HW124545   1.083   2.986   2.515 -1.3657 -0.3824  0.2366
 4362SOL    HW224546   1.090   2.922   2.387 -2.1641 -0.1675  0.8105
 4363SOL     OW24547   4.719   0.355   7.186  0.0904 -0.5101 -0.0429
 4363SOL    HW124548   4.710   0.446   7.159 -0.6546 -0.2578  1.0237
 4363SOL    HW224549   0.065   0.335   7.127 -0.9288 -0.6613 -1.2392
 4364SOL     OW24550   1.571   2.897   2.593 -0.4672 -0.2960  0.0227
 4364SOL    HW124551   1.549   2.815   2.550  0.5335  0.0240 -1.0947
 4364SOL    HW224552   1.655   2.869   2.628  0.4617  1.5168 -0.7612
 4365SOL     OW24553   0.516   3.685  11.945 -0.1799 -0.3871  0.0660
 4365SOL    HW124554   0.501   3.755  11.881  1.5616  0.0727  0.1579
 4365SOL    HW224555   0.585   3.734  11.991 -0.8759  0.3231  0.3641
 4366SOL     OW24556   2.336   3.906  15.395 -0.4518 -0.2938  0.9925
 4366SOL    HW124557   2.316   3.877  15.306 -3.0417  2.0679  0.7980
 4366SOL    HW224558   2.416   3.855  15.405  0.6770  1.4095  0.6262
 4367SOL     OW24559   3.609   2.581   3.917  0.4095  0.3019 -0.1467
 4367SOL    HW124560   3.676   2.597   3.851 -0.1321 -1.0174 -1.0279
 4367SOL    HW224561   3.651   2.511   3.968  1.2070  1.2068  0.4317
 4368SOL     OW24562   4.690   1.315   3.902  0.2622  0.0240  0.3182
 4368SOL    HW124563   4.656   1.395   3.862  2.7900  0.9331  0.0331
 4368SOL    HW224564   0.057   1.331   3.911  0.2734  0.7017 -0.8841
 4369SOL     OW24565   1.944   1.578   1.165  0.4741 -0.2129 -0.6745
 4369SOL    HW124566   1.966   1.658   1.212  0.0260 -0.3095 -0.3017
 4369SOL    HW224567   2.010   1.519   1.200  0.0025 -0.3185  0.0348
 4370SOL     OW24568   1.770   3.242   3.373 -0.5651 -0.1783  0.2134
 4370SOL    HW124569   1.784   3.178   3.303  1.1922 -1.3669  1.6270
 4370SOL    HW224570   1.854   3.231   3.418 -0.2277 -0.4202 -0.4696
 4371SOL     OW24571   2.095   1.504   7.807 -0.1667  0.0161  0.1684
 4371SOL    HW124572   2.018   1.478   7.857 -0.7943  1.3141 -0.1157
 4371SOL    HW224573   2.058   1.585   7.770  0.2747  1.1318  2.1974
 4372SOL     OW24574   3.391   0.465   6.562  0.1094  0.2234  0.6443
 4372SOL    HW124575   3.316   0.424   6.604 -0.1608  0.6764  0.6067
 4372SOL    HW224576   3.453   0.444   6.632 -0.2805  0.1823  0.9720
 4373SOL     OW24577   1.902   4.182   3.865 -0.1701  0.3385  0.2366
 4373SOL    HW124578   1.989   4.219   3.855 -0.2332  0.7742  1.2454
 4373SOL    HW224579   1.911   4.094   3.829  2.5835  0.8899 -0.4133
 4374SOL     OW24580   0.924   3.684  12.500  0.5173  0.7039 -0.2651
 4374SOL    HW124581   0.927   3.590  12.513 -0.5685  0.7935  0.6125
 4374SOL    HW224582   0.894   3.680  12.409 -0.1426 -0.6132  0.0113
 4375SOL     OW24583   1.727   0.746   0.715  0.2864 -0.4618 -0.5638
 4375SOL    HW124584   1.731   0.712   0.625  0.0049  0.1514 -0.8150
 4375SOL    HW224585   1.635   0.771   0.723  0.5456 -0.0743  1.1427
 4376SOL     OW24586   1.052   0.333   8.556 -0.5710  0.1096  0.5240
 4376SOL    HW124587   1.056   0.258   8.615  4.0758  0.0282  0.0866
 4376SOL    HW224588   1.042   0.288   8.472  0.0888 -0.5634  0.8019
 4377SOL     OW24589   1.943   4.233   1.839  0.2159 -0.3270 -0.6438
 4377SOL    HW124590   1.978   4.319   1.863 -2.4482  0.3231  0.9250
 4377SOL    HW224591   1.857   4.263   1.808 -0.4130  0.7191  2.1100
 4378SOL     OW24592   3.885   1.419   3.270 -0.0501  0.1972 -0.4733
 4378SOL    HW124593   3.849   1.332   3.287 -1.0498  0.6868 -0.0911
 4378SOL    HW224594   3.968   1.398   3.227  1.2998  0.4270  2.0000
 4379SOL     OW24595   2.203   4.517  12.989 -0.5142 -0.5996 -0.3974
 4379SOL    HW124596   2.241   4.448  13.044 -1.1250  0.1283  0.9379
 4379SOL    HW224597   2.259   4.592  13.010  0.2469 -1.2605 -0.0563
 4380SOL     OW24598   0.642   4.350   5.842  0.0578  0.0234 -0.1029
 4380SOL    HW124599   0.641   4.404   5.763 -0.5819 -0.9480 -0.7506
 4380SOL    HW224600   0.554   4.359   5.878  0.8271  1.7577  1.3278
 4381SOL     OW24601   2.034   1.152  13.221  0.2209  0.3746  0.5904
 4381SOL    HW124602   2.045   1.246  13.206  0.3292  0.5191  1.5787
 4381SOL    HW224603   2.065   1.116  13.138  1.7574  0.1208  1.2787
 4382SOL     OW24604   2.787   4.725   8.758  0.3883 -0.6244 -0.8759
 4382SOL    HW124605   2.873   0.019   8.794  0.0269 -1.4048  0.4162
 4382SOL    HW224606   2.789   0.045   8.674 -0.1570  0.2800 -0.3780
 4383SOL     OW24607   1.717   2.982   5.362  0.3858  0.5799 -0.4682
 4383SOL    HW124608   1.719   3.077   5.371  3.4164  0.2398  2.6066
 4383SOL    HW224609   1.669   2.969   5.281  0.6195 -1.8245 -0.2429
 4384SOL     OW24610   2.781   1.614   6.785 -0.0985 -0.0635 -0.0742
 4384SOL    HW124611   2.849   1.589   6.723  1.0177  1.6594  0.4437
 4384SOL    HW224612   2.703   1.601   6.730  1.4035  0.1744 -2.2397
 4385SOL     OW24613   3.830   3.123   0.926 -0.2167  0.6022 -0.7168
 4385SOL    HW124614   3.833   3.219   0.932 -0.8380  0.6858 -1.6909
 4385SOL    HW224615   3.823   3.099   0.833 -3.0164  0.6730 -0.5098
 4386SOL     OW24616   0.069   0.417   7.659 -0.7525 -0.3556  1.0020
 4386SOL    HW124617   0.127   0.442   7.587 -2.8312  2.7957  0.3924
 4386SOL    HW224618   0.082   0.494   7.715  1.5788 -0.1194  0.1282
 4387SOL     OW24619   0.870   0.837   1.775 -0.4886  0.0689  0.0235
 4387SOL    HW124620   0.836   0.771   1.714 -2.9768  0.8133  0.6079
 4387SOL    HW224621   0.857   0.793   1.859 -0.4718 -1.2240 -0.6449
 4388SOL     OW24622   0.209   2.589   4.337  0.1303  0.2417  0.1546
 4388SOL    HW124623   0.287   2.533   4.334 -0.3814 -0.6231  2.8773
 4388SOL    HW224624   0.193   2.589   4.431  0.3126  1.4436  0.1823
 4389SOL     OW24625   0.809   3.385   6.312 -0.3585  1.2146  0.2758
 4389SOL    HW124626   0.874   3.345   6.370  1.5829  1.2435 -1.8541
 4389SOL    HW224627   0.813   3.475   6.345  0.5165  2.1761 -2.3831
 4390SOL     OW24628   0.072   0.346   0.495 -0.0270 -0.2612  0.0552
 4390SOL    HW124629   0.063   0.432   0.536 -1.3249 -1.1253  1.6004
 4390SOL    HW224630   0.110   0.371   0.411  0.3926  1.7622  0.8340
 4391SOL     OW24631   2.935   3.077   7.860  0.2502  0.2856  0.0972
 4391SOL    HW124632   2.974   3.164   7.862  0.9806 -0.0323 -0.3266
 4391SOL    HW224633   2.845   3.108   7.869  0.7753  1.6045  0.6692
 4392SOL     OW24634   3.743   0.448   3.005  0.0794 -0.0494  0.0943
 4392SOL    HW124635   3.648   0.451   3.016  0.2585 -0.6313  1.7337
 4392SOL    HW224636   3.749   0.472   2.913  0.6309 -0.2450  0.0786
 4393SOL     OW24637   1.477   1.316   3.253  0.2038  0.4468  0.2561
 4393SOL    HW124638   1.474   1.386   3.318  1.7538  0.7433  0.0113
 4393SOL    HW224639   1.493   1.368   3.174  2.0654 -1.4882 -0.6491
 4394SOL     OW24640   3.637   3.100   7.522  0.2237  0.4271  0.0598
 4394SOL    HW124641   3.702   3.058   7.465  0.2192  2.3560 -1.3473
 4394SOL    HW224642   3.682   3.184   7.526 -0.4487  0.7322  1.2494
 4395SOL     OW24643   0.171   1.681   3.371 -0.6625  0.0144  0.4304
 4395SOL    HW124644   0.179   1.760   3.318 -0.2375 -1.7927 -2.1714
 4395SOL    HW224645   0.076   1.671   3.372 -0.4494 -2.3648 -2.1156
 4396SOL     OW24646   2.620   1.152   6.699  0.1461  0.6186 -0.2945
 4396SOL    HW124647   2.627   1.193   6.613  0.3915  0.3821 -0.3870
 4396SOL    HW224648   2.544   1.098   6.679 -0.2469  0.4600  1.6710
 4397SOL     OW24649   0.616   0.744   9.815  0.0710 -0.0541  0.1697
 4397SOL    HW124650   0.543   0.713   9.869 -0.2932  2.7291  1.2684
 4397SOL    HW224651   0.580   0.807   9.753  0.9962  1.2769  0.9891
 4398SOL     OW24652   2.387   0.017   5.642 -0.4533 -0.6520  0.2144
 4398SOL    HW124653   2.447   0.088   5.665 -0.9403 -0.2051  0.1265
 4398SOL    HW224654   2.445   4.669   5.644 -0.3275 -0.4676  2.5615
 4399SOL     OW24655   2.393   4.250   2.550  0.2564  0.0435  0.0076
 4399SOL    HW124656   2.483   4.283   2.562 -0.1703  0.7263  1.3326
 4399SOL    HW224657   2.395   4.159   2.581  0.7707 -0.1284 -0.5220
 4400SOL     OW24658   3.153   2.925   6.007 -0.1364 -0.3239 -0.1700
 4400SOL    HW124659   3.210   2.940   5.932  2.4124 -1.6784  1.4907
 4400SOL    HW224660   3.068   2.911   5.965 -0.8969  0.6306  1.0366
 4401SOL     OW24661   3.787   3.368   4.726 -0.3998  0.1706  0.2193
 4401SOL    HW124662   3.731   3.343   4.800  0.5442  0.7329  1.1277
 4401SOL    HW224663   3.871   3.345   4.766  0.2824 -0.0766 -1.3713
 4402SOL     OW24664   3.486   4.626   3.319  0.9122  0.1955 -0.3997
 4402SOL    HW124665   3.502   4.701   3.376 -0.2860 -1.1483  1.7006
 4402SOL    HW224666   3.400   4.658   3.291  1.2116  0.6058 -0.8550
 4403SOL     OW24667   4.638   1.336   4.844  0.0631  0.0447  0.1435
 4403SOL    HW124668   4.710   1.273   4.839 -0.3864 -0.4118 -0.6265
 4403SOL    HW224669   4.673   1.385   4.769 -1.5138 -0.8465 -1.1661
 4404SOL     OW24670   3.635   3.386   2.197  0.1344 -0.4002  0.0392
 4404SOL    HW124671   3.636   3.479   2.176 -0.5556 -0.3595  0.1872
 4404SOL    HW224672   3.664   3.352   2.113  2.4074 -0.4747  0.8389
 4405SOL     OW24673   0.354   2.635   3.609 -0.0450 -0.3361 -0.5170
 4405SOL    HW124674   0.429   2.579   3.590  1.0459  1.8033 -2.4841
 4405SOL    HW224675   0.280   2.589   3.567 -0.7867 -0.2140  0.6538
 4406SOL     OW24676   4.718   2.163   7.361 -0.2910  0.2412  0.6555
 4406SOL    HW124677   0.070   2.111   7.348 -0.4500  0.4458 -1.0368
 4406SOL    HW224678   4.726   2.225   7.289  2.3567 -0.0149  0.7463
 4407SOL     OW24679   2.583   1.311  12.184 -0.3223 -0.0104 -0.3546
 4407SOL    HW124680   2.511   1.280  12.129 -0.4400  0.6906 -0.5873
 4407SOL    HW224681   2.544   1.366  12.252  1.6230  0.2751  0.5430
 4408SOL     OW24682   3.176   3.613   0.376 -0.5472  0.2586  0.2147
 4408SOL    HW124683   3.202   3.695   0.418 -1.0792  0.5084  0.0466
 4408SOL    HW224684   3.167   3.642   0.285  2.8191  0.3195 -0.0979
 4409SOL     OW24685   4.119   3.654   3.556 -0.1003 -0.3217 -0.0428
 4409SOL    HW124686   4.209   3.675   3.528  0.3082 -0.8462  0.8722
 4409SOL    HW224687   4.100   3.580   3.499  0.2078  0.0298 -0.6026
 4410SOL     OW24688   2.410   2.515   5.058  0.4230 -0.0826 -0.6060
 4410SOL    HW124689   2.328   2.485   5.097  0.9576 -0.7058  0.0230
 4410SOL    HW224690   2.428   2.462   4.981  1.7934 -0.4459 -0.0318
 4411SOL     OW24691   4.472   1.979   7.554  0.0860 -0.0493  0.8046
 4411SOL    HW124692   4.386   2.007   7.524 -0.5886 -2.6649  0.3054
 4411SOL    HW224693   4.531   2.038   7.507 -0.3176 -1.3271 -1.2745
 4412SOL     OW24694   3.729   0.431   4.362  0.4884  0.6625 -0.2285
 4412SOL    HW124695   3.661   0.428   4.295  0.3424 -1.9630  0.0455
 4412SOL    HW224696   3.804   0.470   4.317  0.5007  0.6235 -0.2421
 4413SOL     OW24697   0.010   4.042   3.153 -0.6820  0.0418  0.3490
 4413SOL    HW124698   0.070   4.096   3.102  0.6111 -0.2855  1.5378
 4413SOL    HW224699   4.681   4.023   3.077 -1.5633  0.8672  0.7991
 4414SOL     OW24700   3.750   3.373  14.135  0.0750 -0.1090 -0.1257
 4414SOL    HW124701   3.825   3.316  14.120 -1.2197 -1.5157 -1.2211
 4414SOL    HW224702   3.716   3.327  14.212 -2.1586  2.7773  0.6357
 4415SOL     OW24703   4.125   4.207   2.692 -0.1279 -0.0675 -0.2428
 4415SOL    HW124704   4.192   4.226   2.627  0.5783  2.7210  1.2885
 4415SOL    HW224705   4.070   4.284   2.675 -1.6428 -1.0644  0.0947
 4416SOL     OW24706   1.871   3.653  17.233 -0.1112  0.3085 -0.2254
 4416SOL    HW124707   1.873   3.657  17.137  1.6059  1.1313 -0.1587
 4416SOL    HW224708   1.792   3.703  17.255 -0.3091  0.5544 -1.4773
 4417SOL     OW24709   1.184   2.073   0.737 -0.2664  1.3724  0.1867
 4417SOL    HW124710   1.174   2.168   0.738  2.4430  1.6771 -1.7665
 4417SOL    HW224711   1.170   2.053   0.830 -0.6795 -0.0667 -0.1850
 4418SOL     OW24712   2.862   1.594   8.485 -0.6311 -0.1288 -0.0411
 4418SOL    HW124713   2.778   1.593   8.440 -1.5764  2.7819  1.6583
 4418SOL    HW224714   2.865   1.506   8.524  0.3203  0.3639  1.0163
 4419SOL     OW24715   2.845   2.699  16.851 -0.1320 -0.0488 -0.6061
 4419SOL    HW124716   2.756   2.687  16.816 -0.8308  0.1967  1.1218
 4419SOL    HW224717   2.891   2.653  16.780  1.0275  2.4327 -1.4594
 4420SOL     OW24718   0.769   0.080  17.549  0.1310 -0.3272 -0.3795
 4420SOL    HW124719   0.682   0.055  17.517 -0.8574  1.3189  1.0122
 4420SOL    HW224720   0.792   0.134  17.474  0.2927  0.1525  0.0182
 4421SOL     OW24721   3.283   1.508   2.834  0.7603 -0.1930  0.7514
 4421SOL    HW124722   3.245   1.528   2.748  4.1474  2.5062 -0.1470
 4421SOL    HW224723   3.308   1.597   2.857 -0.3098 -0.0055  1.1892
 4422SOL     OW24724   2.599   3.257  11.014 -0.0283  0.0952 -0.2505
 4422SOL    HW124725   2.668   3.316  11.043 -1.4076  1.4802  0.1984
 4422SOL    HW224726   2.533   3.271  11.082 -1.3185  0.2038 -1.5333
 4423SOL     OW24727   2.909   4.150   4.225 -0.1752 -0.2026  0.3850
 4423SOL    HW124728   2.921   4.102   4.143  1.9494 -0.9164  1.1125
 4423SOL    HW224729   2.848   4.093   4.271  0.0425  0.2898  1.2826
 4424SOL     OW24730   0.748   4.712   8.441  0.1771  0.4858 -0.6410
 4424SOL    HW124731   0.711   4.635   8.485 -0.2433  0.3538 -1.2153
 4424SOL    HW224732   0.680   0.001   8.375  0.8829  0.8335 -1.2716
 4425SOL     OW24733   2.951   4.706   7.231 -0.6150 -0.0012  0.2336
 4425SOL    HW124734   2.945   4.668   7.319  0.3271 -1.8307 -0.5053
 4425SOL    HW224735   2.956   0.073   7.252 -1.3977 -0.0472  0.5954
 4426SOL     OW24736   0.784   1.318   1.855  0.8122 -0.2134  0.0392
 4426SOL    HW124737   0.690   1.333   1.866  0.5763 -2.0130  0.5037
 4426SOL    HW224738   0.788   1.227   1.827 -3.1761 -0.2602 -0.2999
 4427SOL     OW24739   4.144   3.062  12.553  0.1361 -0.2562  0.0709
 4427SOL    HW124740   4.212   3.072  12.486  0.3614 -0.9903  0.1963
 4427SOL    HW224741   4.122   2.970  12.539 -0.5521  0.0742 -0.9854
 4428SOL     OW24742   0.198   0.057   6.769  0.1036 -0.8135  0.6867
 4428SOL    HW124743   0.116   0.020   6.738 -1.0096 -0.1345  2.8042
 4428SOL    HW224744   0.157   0.144   6.775  1.7742  0.1736 -2.3213
 4429SOL     OW24745   2.654   2.080   5.192 -0.8229  0.1904 -0.4645
 4429SOL    HW124746   2.615   2.035   5.118 -1.5247  0.2245 -0.1120
 4429SOL    HW224747   2.652   2.172   5.166 -1.6402  0.2148 -0.2969
 4430SOL     OW24748   4.551   0.107  11.769  0.3093 -0.0945  0.2047
 4430SOL    HW124749   4.639   0.120  11.734  0.9795 -1.6136  1.3516
 4430SOL    HW224750   4.554   0.174  11.837 -1.5194  0.0643  0.1216
 4431SOL     OW24751   4.344   3.203   0.587  0.0579 -0.3278  0.4086
 4431SOL    HW124752   4.254   3.174   0.598 -0.3027  0.3940 -0.6461
 4431SOL    HW224753   4.355   3.226   0.495 -1.5833 -2.7392 -0.4000
 4432SOL     OW24754   2.236   2.739   5.569  0.0823  0.2545 -0.4199
 4432SOL    HW124755   2.246   2.825   5.609 -1.0629 -0.8171  2.1941
 4432SOL    HW224756   2.287   2.690   5.634  0.4852 -0.9061 -1.6279
 4433SOL     OW24757   2.356   3.302   4.922 -0.2210  0.3497  0.1822
 4433SOL    HW124758   2.428   3.241   4.940 -0.1640  0.6939  1.1179
 4433SOL    HW224759   2.368   3.319   4.829 -1.7325 -1.1937 -0.2973
 4434SOL     OW24760   2.257   2.138   8.573 -0.1431  0.3579 -1.0721
 4434SOL    HW124761   2.287   2.140   8.663  0.6481  2.1368 -1.3694
 4434SOL    HW224762   2.217   2.051   8.572  0.5267  0.0438  2.0054
 4435SOL     OW24763   1.834   1.697  17.426 -0.1655 -0.0693 -0.6282
 4435SOL    HW124764   1.751   1.667  17.463  2.4460 -1.7690  3.7942
 4435SOL    HW224765   1.867   1.760  17.490 -1.5842 -0.2795  0.3202
 4436SOL     OW24766   4.437   1.147  10.131 -0.3529  0.3385  0.0522
 4436SOL    HW124767   4.486   1.071  10.101 -0.1243  1.0863 -1.4441
 4436SOL    HW224768   4.394   1.164  10.047  0.2558  1.0952 -0.1103
 4437SOL     OW24769   2.141   2.314  11.759 -0.1070  0.3010  0.1016
 4437SOL    HW124770   2.158   2.359  11.676  0.0470  0.0424 -0.0080
 4437SOL    HW224771   2.148   2.390  11.816 -0.7204 -0.3859  1.0981
 4438SOL     OW24772   1.068   2.210   4.065 -0.2951  0.1232 -0.0348
 4438SOL    HW124773   1.008   2.259   4.122  2.4223  1.6407  1.4878
 4438SOL    HW224774   1.036   2.120   4.075 -2.3670  0.3729 -4.4745
 4439SOL     OW24775   0.836   4.597   1.308  0.5063  0.1070  0.1531
 4439SOL    HW124776   0.865   4.631   1.223  1.0413 -1.2619 -0.2066
 4439SOL    HW224777   0.742   4.616   1.311  0.4032 -0.3614 -0.1599
 4440SOL     OW24778   2.466   0.465   4.286  0.1239  0.3080  0.0582
 4440SOL    HW124779   2.460   0.535   4.221 -0.2088 -0.4612 -0.7474
 4440SOL    HW224780   2.551   0.495   4.319  1.2908 -2.4470 -0.4449
 4441SOL     OW24781   0.957   3.335  14.356 -0.2099  0.2200 -0.7299
 4441SOL    HW124782   0.925   3.290  14.278 -1.8972 -1.2852  0.8628
 4441SOL    HW224783   0.996   3.258  14.397 -0.5304 -0.4947 -1.7572
 4442SOL     OW24784   4.537   4.545   8.504  0.1141  0.1675 -0.1079
 4442SOL    HW124785   4.538   4.475   8.440  2.5460  1.4154 -1.4041
 4442SOL    HW224786   4.607   4.515   8.561  0.0300 -1.3398 -0.8209
 4443SOL     OW24787   4.137   3.807   0.663 -0.2273  0.4459  0.2222
 4443SOL    HW124788   4.129   3.816   0.758  0.9863  1.9770  0.1932
 4443SOL    HW224789   4.230   3.831   0.667 -0.7884  2.6358  0.2660
 4444SOL     OW24790   2.015   2.634   9.828  0.1023  0.4084  0.3621
 4444SOL    HW124791   2.105   2.647   9.799  0.1850 -1.1231 -0.0715
 4444SOL    HW224792   1.977   2.607   9.745  0.2900  0.8908  0.1171
 4445SOL     OW24793   3.844   3.052  12.722 -0.0489  0.2201 -0.1564
 4445SOL    HW124794   3.778   3.015  12.781 -0.3178 -2.0577 -1.8891
 4445SOL    HW224795   3.796   3.070  12.641  0.2718  1.5233 -0.0572
 4446SOL     OW24796   1.822   0.584   1.612  0.4909  0.4286 -0.2466
 4446SOL    HW124797   1.862   0.660   1.569  0.0605  0.9415  0.2614
 4446SOL    HW224798   1.886   0.545   1.671  1.6743  1.2248 -0.9858
 4447SOL     OW24799   0.581   1.080   5.695 -0.3012 -0.3393  0.1060
 4447SOL    HW124800   0.536   1.158   5.662 -0.8789 -0.0613  1.5687
 4447SOL    HW224801   0.588   1.103   5.788 -2.1299 -2.6170  0.8168
 4448SOL     OW24802   4.657   0.125   3.825  0.2621  0.0713 -0.2075
 4448SOL    HW124803   0.022   0.109   3.847  0.2135 -2.2700 -1.7406
 4448SOL    HW224804   4.653   0.125   3.729 -0.8909  0.1571 -0.1582
 4449SOL     OW24805   4.317   2.526   4.716 -0.5510 -0.1378 -0.4162
 4449SOL    HW124806   4.291   2.470   4.642 -0.9548  3.4952 -3.0658
 4449SOL    HW224807   4.410   2.544   4.707 -0.3920 -0.3987  0.8214
 4450SOL     OW24808   0.564   0.918   8.954  0.0077 -0.7256  0.7590
 4450SOL    HW124809   0.587   0.827   8.973  2.8084 -1.0092 -4.0761
 4450SOL    HW224810   0.601   0.932   8.867 -2.5666  1.5483  0.0316
 4451SOL     OW24811   0.748   2.844  15.245  0.4940 -0.7380 -0.0083
 4451SOL    HW124812   0.660   2.872  15.221  0.5969 -0.0838  0.3829
 4451SOL    HW224813   0.739   2.750  15.230  0.8446 -0.8931  0.7550
 4452SOL     OW24814   3.701   1.916   7.764 -0.0564 -0.4087 -0.3773
 4452SOL    HW124815   3.605   1.918   7.767 -0.0969 -3.1264  0.2057
 4452SOL    HW224816   3.708   1.969   7.843  1.4419  0.1256 -0.8714
 4453SOL     OW24817   3.861   2.854   2.725 -0.2334  0.3355 -0.3677
 4453SOL    HW124818   3.943   2.866   2.676 -0.1560 -1.7834 -0.7929
 4453SOL    HW224819   3.797   2.886   2.662 -1.5375 -1.4283  0.0508
 4454SOL     OW24820   0.655   4.256  11.956 -0.2653  0.2220 -0.3299
 4454SOL    HW124821   0.632   4.345  11.928 -1.6116 -0.7293 -2.2664
 4454SOL    HW224822   0.579   4.230  12.008  0.1494  0.7684  0.5592
 4455SOL     OW24823   4.070   2.951   1.423  0.0968  0.2090  0.1210
 4455SOL    HW124824   3.994   2.912   1.379 -0.0679 -0.9312  1.4036
 4455SOL    HW224825   4.121   2.972   1.345 -0.5349 -0.9906 -0.6109
 4456SOL     OW24826   1.730   1.653  13.453  0.1119  0.5273 -0.1092
 4456SOL    HW124827   1.707   1.648  13.545  0.6691 -0.4731 -0.0250
 4456SOL    HW224828   1.652   1.664  13.399 -0.5395  1.1538  0.9862
 4457SOL     OW24829   1.380   3.288   8.513  0.3494 -0.2098  0.1042
 4457SOL    HW124830   1.430   3.208   8.495  0.0234 -0.2061 -0.8243
 4457SOL    HW224831   1.427   3.312   8.592  3.7117  0.6077 -2.1373
 4458SOL     OW24832   1.397   4.441   8.678 -0.3372 -0.0201 -0.1376
 4458SOL    HW124833   1.415   4.431   8.585 -0.8980  1.0606 -0.3610
 4458SOL    HW224834   1.441   4.361   8.708 -2.3834 -1.3828 -0.8550
 4459SOL     OW24835   1.177   1.190  11.031  0.1353 -0.2391  0.5603
 4459SOL    HW124836   1.231   1.180  11.110 -0.3690 -1.0851  0.7897
 4459SOL    HW224837   1.200   1.279  11.002 -1.0587 -0.4074 -0.9451
 4460SOL     OW24838   1.152   3.013  16.525 -0.0553 -0.6425 -0.5670
 4460SOL    HW124839   1.217   3.004  16.454 -0.6531 -1.0811 -1.0603
 4460SOL    HW224840   1.078   3.058  16.485  1.1915  0.1006 -2.0730
 4461SOL     OW24841   0.298   2.852   9.280  0.1647  0.0280  0.1404
 4461SOL    HW124842   0.205   2.834   9.265 -0.1627 -0.6010  2.9621
 4461SOL    HW224843   0.318   2.901   9.200  0.5630 -1.4354 -0.6750
 4462SOL     OW24844   3.097   1.174  14.351 -0.3302  0.2138  0.3287
 4462SOL    HW124845   3.041   1.229  14.295  1.0508  0.3844 -0.8882
 4462SOL    HW224846   3.095   1.084  14.319  1.3857 -0.3078  1.6630
 4463SOL     OW24847   1.885   0.711   3.408 -0.4335 -0.4987 -0.0014
 4463SOL    HW124848   1.903   0.761   3.328 -0.9449  0.5850  0.5614
 4463SOL    HW224849   1.960   0.651   3.403  0.3527  0.5932 -1.4912
 4464SOL     OW24850   1.784   3.516   7.085  1.0189  0.5912  0.4996
 4464SOL    HW124851   1.763   3.431   7.122 -0.4926  0.7946  0.0759
 4464SOL    HW224852   1.801   3.561   7.168  2.0150 -1.6447  1.5114
 4465SOL     OW24853   1.683   1.493   9.078  0.0529 -0.1942 -0.8575
 4465SOL    HW124854   1.641   1.439   9.010  1.6789 -1.5023 -0.8289
 4465SOL    HW224855   1.647   1.453   9.157  0.1364  0.4459 -0.4989
 4466SOL     OW24856   3.701   2.360   8.039 -0.2474  0.5481  0.8384
 4466SOL    HW124857   3.766   2.405   7.985 -1.1950  0.1848 -0.6187
 4466SOL    HW224858   3.620   2.412   8.037 -1.6672 -1.6097  2.6768
 4467SOL     OW24859   2.827   0.875  16.043  0.2730  0.7162 -0.1930
 4467SOL    HW124860   2.807   0.901  15.953  1.7848 -0.5740 -0.9058
 4467SOL    HW224861   2.916   0.845  16.021 -0.6042  0.0382 -2.9017
 4468SOL     OW24862   3.496   0.722   7.500 -0.1396  0.2983 -0.0347
 4468SOL    HW124863   3.530   0.797   7.451  0.9906 -1.0162 -1.2452
 4468SOL    HW224864   3.478   0.772   7.580  0.1582  1.1454 -0.4915
 4469SOL     OW24865   0.811   3.958  13.692  0.1752  0.4216 -0.1346
 4469SOL    HW124866   0.856   3.934  13.611 -1.4734 -0.4432 -0.7740
 4469SOL    HW224867   0.717   3.961  13.676  0.1508 -0.5260 -0.1703
 4470SOL     OW24868   1.864   2.301  11.505  0.1934 -0.2936 -0.4718
 4470SOL    HW124869   1.906   2.378  11.468 -0.0595  0.2100  0.2956
 4470SOL    HW224870   1.782   2.311  11.455 -0.4137 -1.0002  0.3706
 4471SOL     OW24871   3.815   3.713   6.554  0.0862  0.1292 -0.2716
 4471SOL    HW124872   3.743   3.751   6.503  1.7210  2.7145 -0.6520
 4471SOL    HW224873   3.771   3.652   6.612 -1.4288  1.0502 -0.4635
 4472SOL     OW24874   1.464   4.258   4.801  1.3427 -0.6185 -0.0583
 4472SOL    HW124875   1.535   4.238   4.862  1.7242  0.0654 -0.2939
 4472SOL    HW224876   1.512   4.297   4.729 -0.3980  0.5310 -0.5867
 4473SOL     OW24877   0.727   4.710   7.041  0.6347 -0.2805 -0.3946
 4473SOL    HW124878   0.728   0.077   7.059  0.0463  0.0604 -2.1416
 4473SOL    HW224879   0.811   4.684   7.080 -0.7702 -1.0584  2.0736
 4474SOL     OW24880   2.349   3.094  12.812 -0.0750  0.6019  0.1173
 4474SOL    HW124881   2.259   3.113  12.787 -0.0406 -0.3022 -0.6885
 4474SOL    HW224882   2.352   3.016  12.867 -2.7338 -0.3072 -1.0709
 4475SOL     OW24883   3.556   0.184   2.919  0.2169 -0.8037  0.0661
 4475SOL    HW124884   3.589   0.155   2.834  2.3954  1.7197  0.0430
 4475SOL    HW224885   3.462   0.197   2.908  0.2622 -1.1077 -0.7168
 4476SOL     OW24886   0.173   2.291   7.135  0.0245 -0.4032 -0.5483
 4476SOL    HW124887   0.212   2.224   7.080  2.1314 -1.1879  1.9023
 4476SOL    HW224888   0.146   2.356   7.070 -0.7300  0.7950  0.9412
 4477SOL     OW24889   3.914   1.011   5.549 -0.2540 -0.3781 -0.1778
 4477SOL    HW124890   3.866   1.014   5.466 -0.3700 -0.9815 -0.1303
 4477SOL    HW224891   3.952   0.925   5.533  0.9356 -0.1422  1.3573
 4478SOL     OW24892   2.235   0.693  13.191 -0.2902 -0.0497  0.4925
 4478SOL    HW124893   2.241   0.598  13.206 -0.6826  0.3285  3.0874
 4478SOL    HW224894   2.201   0.706  13.103 -0.0152  1.3774  0.5964
 4479SOL     OW24895   3.420   3.606   4.830 -0.2689 -0.4524  0.2910
 4479SOL    HW124896   3.447   3.588   4.740  1.1869  1.0307  0.4158
 4479SOL    HW224897   3.499   3.651   4.862 -1.5859  0.2247  2.5513
 4480SOL     OW24898   0.564   2.466  11.298  0.7331 -0.2662 -0.2287
 4480SOL    HW124899   0.605   2.528  11.238  2.6866 -0.5064  0.8679
 4480SOL    HW224900   0.636   2.405  11.310  0.6821  0.2953  3.0854
 4481SOL     OW24901   0.223   1.504  16.893  0.4504  0.1621 -0.3255
 4481SOL    HW124902   0.283   1.447  16.845 -1.3220 -0.4621 -1.8256
 4481SOL    HW224903   0.245   1.483  16.984 -1.5859 -0.5412  0.0169
 4482SOL     OW24904   1.626   2.208   3.980 -0.1364 -0.5895 -0.0794
 4482SOL    HW124905   1.694   2.151   3.945  1.0913  0.3858  0.7278
 4482SOL    HW224906   1.632   2.291   3.932  1.9291 -0.4481  0.4429
 4483SOL     OW24907   1.738   2.012   7.252  0.7104 -0.2833 -0.1331
 4483SOL    HW124908   1.813   2.054   7.209  0.0256  0.8652 -0.1983
 4483SOL    HW224909   1.748   2.033   7.345 -0.5132 -0.3655  0.0118
 4484SOL     OW24910   4.478   2.585   8.111 -0.5160  0.0914 -0.8365
 4484SOL    HW124911   4.554   2.602   8.055  1.0079  0.7551  1.4670
 4484SOL    HW224912   4.429   2.667   8.105 -0.2041  0.3654  0.3855
 4485SOL     OW24913   4.328   0.056   1.628  0.1289  0.6777 -0.5008
 4485SOL    HW124914   4.239   0.071   1.662  0.4359 -1.1849  1.1086
 4485SOL    HW224915   4.300   0.013   1.548 -1.3598 -0.7239  0.7793
 4486SOL     OW24916   1.855   3.117  12.486  0.5475 -0.2766 -0.3384
 4486SOL    HW124917   1.922   3.076  12.432  0.8200  0.0542 -0.2503
 4486SOL    HW224918   1.860   3.206  12.453  0.4729 -0.2981 -0.4085
 4487SOL     OW24919   4.483   0.395   3.881  0.0274  0.3061 -0.7173
 4487SOL    HW124920   4.480   0.441   3.797 -3.2332  3.3202  1.0389
 4487SOL    HW224921   4.474   0.306   3.846  0.1729  0.0026  0.0100
 4488SOL     OW24922   3.055   2.889  13.735  0.2701 -0.1752  0.0839
 4488SOL    HW124923   2.998   2.822  13.773  0.3204 -0.2101  0.0980
 4488SOL    HW224924   3.102   2.837  13.670 -1.7866 -0.4437 -1.1701
 4489SOL     OW24925   0.472   1.213   8.447  0.1991  0.0229  0.1475
 4489SOL    HW124926   0.415   1.157   8.499 -1.5287  2.3650  0.8244
 4489SOL    HW224927   0.421   1.217   8.366  0.0989  1.1752  0.2534
 4490SOL     OW24928   4.410   1.918  11.281 -0.5175 -0.7209  0.1377
 4490SOL    HW124929   4.357   1.862  11.224 -1.5060 -1.2085  1.5420
 4490SOL    HW224930   4.442   1.842  11.330 -2.6637 -0.7558  1.4727
 4491SOL     OW24931   0.691   3.187   8.593 -0.1525  0.5979 -0.2217
 4491SOL    HW124932   0.699   3.154   8.504 -1.6672 -1.7800  0.5172
 4491SOL    HW224933   0.767   3.245   8.591 -0.2139  0.6636 -0.7458
 4492SOL     OW24934   2.860   1.872   2.629 -0.2634 -0.4867 -0.0783
 4492SOL    HW124935   2.923   1.824   2.574  1.1372  1.5613 -0.2578
 4492SOL    HW224936   2.897   1.959   2.640 -1.8585  0.1109  0.4926
 4493SOL     OW24937   3.904   3.842  17.442  0.4889 -0.0783 -0.3551
 4493SOL    HW124938   3.994   3.816  17.421  0.3977 -0.6462 -0.0371
 4493SOL    HW224939   3.927   3.880  17.527 -1.6774  3.3585 -1.3123
 4494SOL     OW24940   4.479   2.491  15.847 -0.2610 -0.2510 -0.2787
 4494SOL    HW124941   4.395   2.503  15.891 -0.0602 -1.3301  0.3917
 4494SOL    HW224942   4.532   2.460  15.920  0.1704 -0.7083 -0.7858
 4495SOL     OW24943   1.251   2.590   3.699 -0.0886  0.0956 -0.0876
 4495SOL    HW124944   1.235   2.508   3.744  1.7492  0.2008  0.7248
 4495SOL    HW224945   1.282   2.553   3.616  0.3799  0.3290 -0.0154
 4496SOL     OW24946   1.185   0.414   4.449 -0.1667 -0.1154  0.5429
 4496SOL    HW124947   1.246   0.452   4.512  0.3481  0.3711 -0.2578
 4496SOL    HW224948   1.230   0.331   4.434  0.2235 -0.0981  1.5720
 4497SOL     OW24949   2.961   1.769   3.256 -0.3826  0.2467  0.0234
 4497SOL    HW124950   3.005   1.726   3.183 -3.3585  0.1478 -1.7322
 4497SOL    HW224951   2.909   1.699   3.295  0.8171 -0.8393 -0.3238
 4498SOL     OW24952   3.862   1.812   0.309 -0.1906  0.1800 -0.4255
 4498SOL    HW124953   3.908   1.878   0.360 -0.8314  1.1204 -1.0695
 4498SOL    HW224954   3.784   1.793   0.361 -0.4097 -0.3107 -0.9334
 4499SOL     OW24955   0.425   2.405   4.782 -0.6948 -0.1811  0.0728
 4499SOL    HW124956   0.369   2.430   4.856 -0.8495 -0.8005  0.1676
 4499SOL    HW224957   0.379   2.331   4.741 -3.1080  0.6776  1.2467
 4500SOL     OW24958   3.472   0.618   9.514  0.1205  0.2637 -0.1622
 4500SOL    HW124959   3.537   0.557   9.479 -0.4665 -0.2334 -0.3811
 4500SOL    HW224960   3.407   0.614   9.444  0.6152  0.2388 -0.6219
 4501SOL     OW24961   1.842   1.915   1.817  0.1438  0.6367 -0.0300
 4501SOL    HW124962   1.909   1.908   1.885  0.0587 -1.5313 -0.1636
 4501SOL    HW224963   1.806   1.827   1.825  0.0240  0.6907  0.0226
 4502SOL     OW24964   4.486   3.832   4.484  0.2384 -0.3001  0.6788
 4502SOL    HW124965   4.522   3.750   4.450  0.1125 -0.4148  0.8237
 4502SOL    HW224966   4.408   3.805   4.531 -1.8904  0.7964 -2.2565
 4503SOL     OW24967   1.239   0.993   0.514 -0.1457  0.0864 -0.6753
 4503SOL    HW124968   1.330   1.006   0.539  0.1846 -0.5209 -1.5629
 4503SOL    HW224969   1.226   0.919   0.572  1.1696  2.0856  2.1652
 4504SOL     OW24970   3.252   3.775   0.759 -1.2778  0.1042  0.1229
 4504SOL    HW124971   3.251   3.782   0.663 -2.1397  1.2408  0.2172
 4504SOL    HW224972   3.319   3.838   0.782 -0.9601  0.6096 -2.1550
 4505SOL     OW24973   3.209   1.281   2.945 -0.4006  0.4249 -0.4202
 4505SOL    HW124974   3.228   1.353   2.885  2.7210  0.5300  0.7191
 4505SOL    HW224975   3.123   1.251   2.915  0.8087 -2.9714 -0.5455
 4506SOL     OW24976   0.875   2.327   5.715  0.2052  0.7650  0.5122
 4506SOL    HW124977   0.915   2.264   5.655  1.2731  3.1241 -1.2833
 4506SOL    HW224978   0.944   2.393   5.727  0.0583  1.0197 -0.0206
 4507SOL     OW24979   2.141   1.514   6.487 -0.0908  0.1535 -0.3999
 4507SOL    HW124980   2.121   1.479   6.573 -2.1868  1.1235 -0.4771
 4507SOL    HW224981   2.112   1.605   6.495  0.4860  0.1593  1.4268
 4508SOL     OW24982   3.206   1.556   9.711 -0.6229 -0.2571  0.1136
 4508SOL    HW124983   3.229   1.532   9.801  2.8967  1.0582 -0.4435
 4508SOL    HW224984   3.127   1.607   9.726  0.1217  0.5833  1.1568
 4509SOL     OW24985   1.627   4.614   8.052 -0.2683 -0.4923  0.3415
 4509SOL    HW124986   1.698   4.581   8.107  1.0056 -0.4097 -1.2623
 4509SOL    HW224987   1.546   4.586   8.096 -0.0065  1.6422  2.1776
 4510SOL     OW24988   0.178   4.081  16.143  0.1658  0.0516 -0.4882
 4510SOL    HW124989   0.108   4.026  16.177  1.0167 -0.8949 -0.2488
 4510SOL    HW224990   0.158   4.091  16.050 -0.0328 -3.6724 -0.8727
 4511SOL     OW24991   0.205   2.468   2.876 -0.1156  0.2436  0.3205
 4511SOL    HW124992   0.169   2.488   2.790 -1.0010  3.0824  1.3351
 4511SOL    HW224993   0.194   2.556   2.912  0.2541 -0.4448  2.0996
 4512SOL     OW24994   1.695   3.518   8.481 -0.0551  0.3561 -0.0354
 4512SOL    HW124995   1.666   3.578   8.550  1.8061 -1.4307  2.3150
 4512SOL    HW224996   1.745   3.451   8.527 -0.7523 -1.6746 -2.2521
 4513SOL     OW24997   2.115   0.521   3.475  0.7987 -0.1585 -0.2172
 4513SOL    HW124998   2.148   0.493   3.561 -0.6801  0.2867  0.4903
 4513SOL    HW224999   2.184   0.576   3.437  0.4445  0.2589 -0.2516
 4514SOL     OW25000   2.422   2.325   7.353  0.2427  0.0924  0.0791
 4514SOL    HW125001   2.443   2.234   7.370 -2.0155 -0.0564  2.1481
 4514SOL    HW225002   2.392   2.311   7.264  1.6792 -1.1238 -0.2004
 4515SOL     OW25003   0.743   4.031  14.410 -0.7636 -0.2544 -0.0533
 4515SOL    HW125004   0.673   3.976  14.373 -1.3973 -0.5939  1.6695
 4515SOL    HW225005   0.785   3.959  14.457  0.6448  0.5123 -0.1358
 4516SOL     OW25006   0.509   0.258   2.611 -0.5889 -0.0928 -0.5473
 4516SOL    HW125007   0.501   0.182   2.553  0.8952 -0.8985  0.3146
 4516SOL    HW225008   0.584   0.303   2.572  0.4494 -0.8731  0.5548
 4517SOL     OW25009   4.362   0.661   7.876  0.0095  0.5294  0.8423
 4517SOL    HW125010   4.385   0.620   7.793 -2.2586  2.0193 -0.5016
 4517SOL    HW225011   4.447   0.689   7.911 -1.4345  1.8565  3.3527
 4518SOL     OW25012   3.543   3.999   4.806  0.1199 -0.2239 -0.5512
 4518SOL    HW125013   3.564   3.928   4.745  1.4122  0.9552 -1.4524
 4518SOL    HW225014   3.563   3.952   4.887  3.6176 -0.5078 -1.6091
 4519SOL     OW25015   1.209   4.359   4.092 -0.1586 -0.4246  0.8355
 4519SOL    HW125016   1.212   4.263   4.101 -0.8136 -0.3524  1.8834
 4519SOL    HW225017   1.255   4.368   4.009 -0.4597  0.7087  0.7914
 4520SOL     OW25018   2.713   2.560   5.918  0.7441 -0.1426  0.6629
 4520SOL    HW125019   2.758   2.581   5.999 -0.7518  2.0188  0.9084
 4520SOL    HW225020   2.792   2.527   5.876 -1.8211  0.3410 -4.5858
 4521SOL     OW25021   3.332   3.856   7.971  0.2875 -0.0573  0.3051
 4521SOL    HW125022   3.351   3.786   8.033  0.6952 -0.9707 -0.8535
 4521SOL    HW225023   3.421   3.878   7.945 -0.6970  1.3433 -1.9575
 4522SOL     OW25024   3.205   2.497   8.764  0.3224  0.0535 -0.6613
 4522SOL    HW125025   3.294   2.533   8.766  0.5195 -0.4480 -0.5233
 4522SOL    HW225026   3.222   2.412   8.724  0.1148 -0.4164  0.2460
 4523SOL     OW25027   2.631   1.226  14.209  1.1392 -0.1496  0.2452
 4523SOL    HW125028   2.719   1.262  14.199 -0.2457  1.8741 -4.7091
 4523SOL    HW225029   2.574   1.270  14.145  0.3510  0.5942  1.4751
 4524SOL     OW25030   1.015   0.941   6.478  0.6420 -0.7630  0.3229
 4524SOL    HW125031   1.103   0.935   6.440  1.4396  0.5670  1.9649
 4524SOL    HW225032   0.974   0.984   6.403  0.0845  1.8513  2.1255
 4525SOL     OW25033   2.770   2.157   4.855 -0.3485 -0.3445  0.3478
 4525SOL    HW125034   2.708   2.220   4.893 -0.7377 -0.9698  0.7474
 4525SOL    HW225035   2.710   2.083   4.850 -0.6826 -0.0194 -0.3138
 4526SOL     OW25036   4.105   4.714   6.573  0.2814  0.3814  0.1945
 4526SOL    HW125037   4.036   0.048   6.601 -1.8017 -1.2025 -1.5390
 4526SOL    HW225038   4.115   4.649   6.643 -0.0217 -0.0647 -0.1720
 4527SOL     OW25039   3.991   2.869   1.688 -0.7596  0.6378  0.2118
 4527SOL    HW125040   3.900   2.856   1.661 -0.4802  0.3546 -0.5759
 4527SOL    HW225041   4.037   2.878   1.605 -0.2502 -0.2004  0.4045
 4528SOL     OW25042   2.496   3.133   2.404 -0.3960 -0.3288  0.2975
 4528SOL    HW125043   2.409   3.170   2.387  0.7690  1.2648 -2.2181
 4528SOL    HW225044   2.521   3.197   2.471  0.4007  1.4209 -1.6499
 4529SOL     OW25045   2.646   2.778   4.826  0.4794 -0.4183  0.1764
 4529SOL    HW125046   2.642   2.781   4.922 -0.7784  0.0429  0.1118
 4529SOL    HW225047   2.741   2.784   4.818  0.4139 -0.4701 -0.6360
 4530SOL     OW25048   3.209   0.506   2.515  0.1621 -0.3829 -0.2175
 4530SOL    HW125049   3.155   0.434   2.549  0.2868 -0.4398 -0.1406
 4530SOL    HW225050   3.184   0.497   2.423 -1.8481  0.5044  0.2372
 4531SOL     OW25051   2.844   0.227   2.834  0.1743  0.4500  0.5224
 4531SOL    HW125052   2.779   0.245   2.767  3.4354 -0.5286 -2.9035
 4531SOL    HW225053   2.844   0.310   2.881  3.2208  0.7865 -0.0864
 4532SOL     OW25054   4.225   3.522   0.942 -0.0289 -0.2862  0.4678
 4532SOL    HW125055   4.228   3.521   0.847  2.0161  2.6243  0.4976
 4532SOL    HW225056   4.300   3.467   0.967 -0.0835  0.1165  1.5094
 4533SOL     OW25057   4.091   0.904  17.138  0.3523  0.0609 -0.1503
 4533SOL    HW125058   4.032   0.858  17.197 -0.5564 -1.8713 -2.5255
 4533SOL    HW225059   4.046   0.903  17.053 -1.5410 -0.8061  0.8819
 4534SOL     OW25060   3.013   1.960   5.400  0.2992 -0.1870  0.1559
 4534SOL    HW125061   2.998   1.972   5.306 -1.7122  2.7539  0.8627
 4534SOL    HW225062   2.933   2.001   5.432  0.4099 -0.3109  0.5838
 4535SOL     OW25063   0.606   1.158  11.986 -0.0238  0.4924 -0.0091
 4535SOL    HW125064   0.606   1.249  11.959 -0.0641  0.5912  0.3234
 4535SOL    HW225065   0.694   1.157  12.023  0.7748 -1.5525 -1.9408
 4536SOL     OW25066   4.615   1.482   6.814  0.2337 -0.5156  0.4390
 4536SOL    HW125067   4.559   1.492   6.737  0.9590  2.3399  0.2755
 4536SOL    HW225068   4.576   1.412   6.865  0.5076 -0.2665  0.9860
 4537SOL     OW25069   2.466   0.450   7.478 -0.2515  0.0425  0.1984
 4537SOL    HW125070   2.415   0.515   7.527  2.1036  1.8823  0.1968
 4537SOL    HW225071   2.534   0.504   7.437  0.9543 -2.3749 -0.9608
 4538SOL     OW25072   1.403   3.280   0.582  0.0615 -0.0798 -0.0366
 4538SOL    HW125073   1.498   3.293   0.589  0.1300 -0.5416 -0.0888
 4538SOL    HW225074   1.391   3.324   0.498  3.6870  0.1816 -0.4522
 4539SOL     OW25075   2.714   3.329   6.696  0.0190 -0.3260  0.2987
 4539SOL    HW125076   2.625   3.361   6.687  0.7565  1.6183 -0.0785
 4539SOL    HW225077   2.742   3.368   6.779 -0.0147 -0.4739  0.3799
 4540SOL     OW25078   1.846   1.048   5.451 -0.6017 -0.4184  0.5388
 4540SOL    HW125079   1.920   1.103   5.477  0.7853 -0.5020 -3.2290
 4540SOL    HW225080   1.781   1.118   5.453  2.1144  2.1344 -0.8562
 4541SOL     OW25081   2.684   4.189  17.107 -0.8054 -0.1357  0.1733
 4541SOL    HW125082   2.764   4.239  17.092 -0.0402 -0.4672  3.1674
 4541SOL    HW225083   2.657   4.181  17.016 -2.8848 -0.6753  0.8331
 4542SOL     OW25084   2.836   0.677  12.917 -0.1416  0.0859 -0.3839
 4542SOL    HW125085   2.827   0.591  12.875 -1.6457 -0.6639  1.4643
 4542SOL    HW225086   2.901   0.723  12.863  1.3887 -0.7541  0.7369
 4543SOL     OW25087   0.199   4.374  17.360  0.2663  0.4847  0.1071
 4543SOL    HW125088   0.222   4.437  17.292 -2.0006 -1.3007 -2.2903
 4543SOL    HW225089   0.243   4.294  17.330 -1.1957 -0.1384 -0.3873
 4544SOL     OW25090   1.833   2.754   8.896  0.2181  0.0541  0.5980
 4544SOL    HW125091   1.838   2.661   8.921 -0.9110  0.0310  0.7493
 4544SOL    HW225092   1.739   2.746   8.879 -0.1855 -0.7705  3.1250
 4545SOL     OW25093   4.696   2.123   4.625 -0.1649  0.1146 -0.6085
 4545SOL    HW125094   0.050   2.073   4.638  0.6761  1.9858  1.2969
 4545SOL    HW225095   4.626   2.063   4.653  0.8715 -0.9906 -0.3646
 4546SOL     OW25096   0.889   0.493  12.902  0.0217 -0.1757 -0.3893
 4546SOL    HW125097   0.943   0.492  12.822 -2.8525  1.2370 -2.3548
 4546SOL    HW225098   0.945   0.453  12.969 -1.3764 -0.4472  0.6010
 4547SOL     OW25099   0.737   0.045   5.648 -0.0635  0.0799  0.3520
 4547SOL    HW125100   0.768   0.028   5.737 -2.5545 -2.2421  0.7983
 4547SOL    HW225101   0.746   0.139   5.631 -0.4373  0.0032 -0.2756
 4548SOL     OW25102   1.510   1.360   2.135 -0.6018  0.2579 -0.5007
 4548SOL    HW125103   1.605   1.349   2.135 -0.6849 -0.5070  1.5461
 4548SOL    HW225104   1.489   1.268   2.148  0.1502  0.2162  0.4222
 4549SOL     OW25105   3.316   4.280   6.227  0.3402 -0.5939 -0.4072
 4549SOL    HW125106   3.320   4.193   6.187 -2.2806 -0.0537 -1.8584
 4549SOL    HW225107   3.382   4.269   6.295  1.1670 -1.8976 -1.4214
 4550SOL     OW25108   3.207   3.142   9.220 -0.6562  0.1488  0.0169
 4550SOL    HW125109   3.289   3.190   9.215 -0.0126 -0.8697  1.0525
 4550SOL    HW225110   3.244   3.054   9.229 -1.5182  0.0570  2.6865
 4551SOL     OW25111   3.205   1.270   3.591  0.2098 -0.2577 -0.4142
 4551SOL    HW125112   3.262   1.199   3.619 -0.0021 -0.1389  0.2986
 4551SOL    HW225113   3.220   1.337   3.658  1.5171  0.7126 -1.6735
 4552SOL     OW25114   2.599   2.941  11.502 -0.2693 -0.1331  0.0836
 4552SOL    HW125115   2.676   2.997  11.490  0.9608 -2.9943 -5.3139
 4552SOL    HW225116   2.619   2.875  11.437  1.9980  0.6961 -0.0888
 4553SOL     OW25117   1.969   4.123   3.459 -0.0674  0.0854 -0.0794
 4553SOL    HW125118   2.044   4.162   3.504  0.5440 -0.5962 -0.5090
 4553SOL    HW225119   1.996   4.118   3.367 -1.6315  0.5001 -0.5599
 4554SOL     OW25120   1.277   1.494   2.972  1.0198 -0.1103 -0.4324
 4554SOL    HW125121   1.355   1.525   2.926  1.5877 -0.8358  0.0206
 4554SOL    HW225122   1.252   1.570   3.024  0.4364 -1.7316  1.6711
 4555SOL     OW25123   2.005   1.419   9.356  0.1734  0.4116  0.6752
 4555SOL    HW125124   2.039   1.357   9.421  0.3735 -0.4244 -0.2240
 4555SOL    HW225125   1.996   1.360   9.281 -0.4913  0.6258  0.5812
 4556SOL     OW25126   1.700   4.625   7.099 -0.4086 -0.2059  0.5391
 4556SOL    HW125127   1.747   4.677   7.034 -1.3879  2.1313  1.7087
 4556SOL    HW225128   1.775   4.577   7.133 -0.0999  0.8566  1.3088
 4557SOL     OW25129   1.790   3.238  10.006 -0.2962  0.6648 -0.1605
 4557SOL    HW125130   1.830   3.225  10.092 -1.1140 -0.0984  0.1008
 4557SOL    HW225131   1.861   3.275   9.954  0.9237 -1.4672  0.0084
 4558SOL     OW25132   1.916   2.385   5.352 -0.0906 -0.1484  0.4180
 4558SOL    HW125133   1.946   2.374   5.262 -0.5431 -0.9367  0.3655
 4558SOL    HW225134   1.984   2.445   5.384  0.0221  0.0492 -0.1990
 4559SOL     OW25135   4.533   0.903  13.386  0.3287 -0.7129  0.1257
 4559SOL    HW125136   4.608   0.962  13.394  0.3890 -0.4943 -1.9198
 4559SOL    HW225137   4.464   0.969  13.377 -0.1654 -1.1149  0.9939
 4560SOL     OW25138   2.144   1.528   1.454 -0.2087  0.0987 -0.2267
 4560SOL    HW125139   2.098   1.460   1.404 -1.6562  0.5079  0.5830
 4560SOL    HW225140   2.223   1.524   1.400 -0.2530 -0.9969 -0.2236
 4561SOL     OW25141   3.803   2.963   7.336  0.1518 -0.7586 -0.3340
 4561SOL    HW125142   3.895   2.991   7.342 -0.3135  0.6223  0.2264
 4561SOL    HW225143   3.802   2.960   7.240  1.4466  0.5495 -0.3932
 4562SOL     OW25144   0.360   3.912  12.147  0.1376 -0.4132 -0.6468
 4562SOL    HW125145   0.297   3.932  12.078  1.7080  0.2734 -1.8872
 4562SOL    HW225146   0.297   3.894  12.217  1.0247 -1.2326 -0.0582
 4563SOL     OW25147   0.941   2.417   4.222 -0.0625  0.4609  0.3622
 4563SOL    HW125148   0.908   2.345   4.277  1.9627 -0.1982  0.7161
 4563SOL    HW225149   0.874   2.484   4.238  0.4948  1.0162  0.3888
 4564SOL     OW25150   0.750   2.828   3.627  0.4662  0.1592 -0.9972
 4564SOL    HW125151   0.829   2.775   3.617  2.4816  2.9276  0.0715
 4564SOL    HW225152   0.745   2.845   3.533 -0.2532  2.8797 -0.4873
 4565SOL     OW25153   1.604   4.056  14.271 -0.3366 -0.5278 -0.7667
 4565SOL    HW125154   1.657   4.112  14.214  0.5980  2.6125  3.2008
 4565SOL    HW225155   1.516   4.091  14.259  0.4064  0.7641 -2.5097
 4566SOL     OW25156   0.502   1.832   2.049  0.6369 -0.3693 -0.2122
 4566SOL    HW125157   0.572   1.769   2.067 -1.4364 -2.6221  0.0051
 4566SOL    HW225158   0.431   1.794   2.100  1.0075  1.1614  1.4254
 4567SOL     OW25159   1.279   0.197   4.791  0.6923  0.4872 -0.2211
 4567SOL    HW125160   1.218   0.238   4.852  0.1897  2.3192 -1.9409
 4567SOL    HW225161   1.257   0.106   4.773 -0.6343  0.6723  0.4907
 4568SOL     OW25162   2.362   0.374   6.496  0.2721 -0.3621  0.1292
 4568SOL    HW125163   2.340   0.425   6.418 -1.5961 -1.4654 -0.0649
 4568SOL    HW225164   2.391   0.444   6.555 -0.7089 -1.1259  1.5302
 4569SOL     OW25165   1.462   0.431   7.627 -0.5093 -0.1948  0.1592
 4569SOL    HW125166   1.458   0.448   7.721 -0.2210 -1.1254  0.3400
 4569SOL    HW225167   1.558   0.436   7.626 -0.4975 -0.5499 -0.7402
 4570SOL     OW25168   2.112   2.633   3.596  0.1113 -0.1911  0.4386
 4570SOL    HW125169   2.134   2.619   3.504  1.2499  0.8393  0.5620
 4570SOL    HW225170   2.197   2.616   3.636 -0.5412 -3.1403  0.5554
 4571SOL     OW25171   3.908   0.959   9.028  0.1323  0.4231 -0.1245
 4571SOL    HW125172   3.914   1.054   9.037 -0.3432  0.6169 -1.7705
 4571SOL    HW225173   3.868   0.947   8.942  0.4086  2.2317 -0.5049
 4572SOL     OW25174   1.950   0.296   4.111 -0.2638  0.6359 -0.5689
 4572SOL    HW125175   2.019   0.360   4.097 -0.5333  0.9393 -0.4899
 4572SOL    HW225176   1.871   0.347   4.129  0.3363  0.7750  1.6519
 4573SOL     OW25177   1.542   1.129  15.170 -0.4887 -0.2704 -0.2798
 4573SOL    HW125178   1.592   1.204  15.202 -0.5082 -0.3763 -0.0033
 4573SOL    HW225179   1.455   1.151  15.203 -0.6255  0.0197 -0.8449
 4574SOL     OW25180   0.031   0.245  13.082  0.2273 -0.3790 -0.0227
 4574SOL    HW125181   4.724   0.268  13.169  1.1337  1.2828 -0.1174
 4574SOL    HW225182   0.059   0.327  13.042 -0.8090  0.2179  0.4754
 4575SOL     OW25183   4.386   3.951   8.679 -0.3308 -0.5052 -0.9346
 4575SOL    HW125184   4.430   3.876   8.641 -0.4618 -1.2473  0.3926
 4575SOL    HW225185   4.307   3.955   8.625  1.4935 -1.1546 -3.6344
 4576SOL     OW25186   3.305   2.295   8.597 -0.0230 -0.5376  0.7009
 4576SOL    HW125187   3.225   2.272   8.550 -0.2167 -1.5780  1.5620
 4576SOL    HW225188   3.358   2.365   8.557  0.8063 -1.6541 -0.1772
 4577SOL     OW25189   3.431   0.243   2.254 -0.1465 -0.0793  0.3475
 4577SOL    HW125190   3.383   0.162   2.237  0.0814 -0.5652  2.0042
 4577SOL    HW225191   3.383   0.301   2.194  3.8313  1.9720 -0.8939
 4578SOL     OW25192   3.406   1.213  12.603  0.3378  0.2182  0.1234
 4578SOL    HW125193   3.429   1.129  12.643 -2.4582  0.7325  2.7553
 4578SOL    HW225194   3.426   1.286  12.661 -4.8131  1.5650  0.1535
 4579SOL     OW25195   3.473   4.429   5.906 -0.3200 -0.1916 -0.4808
 4579SOL    HW125196   3.455   4.505   5.960 -0.9862 -1.1755  0.6723
 4579SOL    HW225197   3.428   4.455   5.826  0.7326 -1.6645 -1.5632
 4580SOL     OW25198   0.137   0.315  15.300 -0.1258  0.3048  0.1944
 4580SOL    HW125199   0.157   0.240  15.244  0.0380  1.0629 -0.7742
 4580SOL    HW225200   0.088   0.267  15.366 -1.1730  1.1805  0.0617
 4581SOL     OW25201   1.901   2.869   3.503 -0.1678 -0.0397 -0.0270
 4581SOL    HW125202   1.984   2.860   3.455 -0.7355 -1.7313 -0.6845
 4581SOL    HW225203   1.935   2.895   3.588  1.3658 -2.0656 -0.0259
 4582SOL     OW25204   0.399   1.953   6.582 -0.3472 -0.4214 -0.0346
 4582SOL    HW125205   0.374   1.891   6.513 -0.7840 -1.4904  1.0943
 4582SOL    HW225206   0.485   1.968   6.541 -0.2643 -2.5545 -0.6536
 4583SOL     OW25207   2.806   1.900  16.372 -0.4873 -0.5859 -0.5032
 4583SOL    HW125208   2.837   1.987  16.345  1.0058 -0.5497  1.3297
 4583SOL    HW225209   2.755   1.935  16.445  0.8484 -3.1149  1.6242
 4584SOL     OW25210   0.409   3.988   4.202  0.1264 -0.2938  0.3766
 4584SOL    HW125211   0.457   4.059   4.244  1.9264 -0.5847 -1.1524
 4584SOL    HW225212   0.347   3.957   4.268 -0.6900 -0.1693 -0.3214
 4585SOL     OW25213   1.728   1.851  12.830 -0.0165  0.0502 -0.5970
 4585SOL    HW125214   1.664   1.811  12.889  1.2119  0.6834  1.1803
 4585SOL    HW225215   1.706   1.811  12.746 -0.4745  0.4594 -0.6709
 4586SOL     OW25216   1.486   3.211   0.956  0.1878 -0.1591  0.5784
 4586SOL    HW125217   1.575   3.217   0.923  0.5875 -1.6402  1.3586
 4586SOL    HW225218   1.433   3.206   0.877  1.3686 -0.3569 -0.1903
 4587SOL     OW25219   0.874   1.397   2.302  0.2583 -0.7834 -0.0158
 4587SOL    HW125220   0.790   1.380   2.345  0.1070  0.7195  0.2842
 4587SOL    HW225221   0.904   1.309   2.281  0.7247 -1.3581  3.0835
 4588SOL     OW25222   1.408   3.770   1.155 -0.1925  0.1832 -0.3718
 4588SOL    HW125223   1.474   3.809   1.098  0.5375 -0.3623  0.1025
 4588SOL    HW225224   1.377   3.724   1.077 -1.3909 -0.9369  0.7725
 4589SOL     OW25225   4.247   0.107   9.987 -0.5503 -0.0236 -0.3419
 4589SOL    HW125226   4.197   0.160  10.048 -0.9680  0.1998 -0.8775
 4589SOL    HW225227   4.261   0.024  10.034  1.0007 -0.0752 -0.9084
 4590SOL     OW25228   1.319   1.136   2.697  0.7247  0.2980  0.2963
 4590SOL    HW125229   1.278   1.050   2.703 -1.9032  1.5661  0.4382
 4590SOL    HW225230   1.331   1.145   2.791 -1.2721 -0.0484  0.5939
 4591SOL     OW25231   4.412   3.957   6.312  0.0554  0.0652  0.7677
 4591SOL    HW125232   4.477   4.002   6.365 -0.4046 -0.0924  1.4567
 4591SOL    HW225233   4.460   3.929   6.234 -3.2663 -1.3068 -0.7886
 4592SOL     OW25234   3.065   4.131   3.986  0.3938  0.0446 -0.3065
 4592SOL    HW125235   3.037   4.065   3.923 -0.7454 -0.3894  0.6736
 4592SOL    HW225236   3.073   4.211   3.933 -0.1358 -0.3809 -1.0244
 4593SOL     OW25237   1.358   0.433   1.570 -0.4230 -0.8283  0.2276
 4593SOL    HW125238   1.392   0.514   1.532 -0.8198 -1.4196 -1.3797
 4593SOL    HW225239   1.416   0.434   1.647 -0.2261  1.3638  0.0421
 4594SOL     OW25240   3.192   4.004   7.143 -0.2943 -0.3033 -0.0559
 4594SOL    HW125241   3.264   3.997   7.205 -1.2875  0.5740  1.1996
 4594SOL    HW225242   3.225   4.033   7.058  0.7209 -1.0341  0.0832
 4595SOL     OW25243   1.847   2.467   4.645 -0.8891 -0.7141  0.1057
 4595SOL    HW125244   1.766   2.429   4.681  0.3509 -0.9644  2.5878
 4595SOL    HW225245   1.840   2.469   4.549 -0.4917  0.9481  0.1150
 4596SOL     OW25246   2.886   0.906   5.666 -0.8611 -0.0716 -0.0076
 4596SOL    HW125247   2.799   0.918   5.630 -0.9539 -1.6668 -0.3202
 4596SOL    HW225248   2.876   0.814   5.690  0.6969 -0.4569 -0.7594
 4597SOL     OW25249   0.107   2.585  14.206  0.3502 -0.2725 -0.1744
 4597SOL    HW125250   0.170   2.649  14.174  2.0174 -2.0757 -0.4572
 4597SOL    HW225251   0.144   2.505  14.169  1.2238 -0.6028  1.4123
 4598SOL     OW25252   1.693   2.847   8.067  0.0171  0.2170 -0.2315
 4598SOL    HW125253   1.703   2.902   8.145 -1.1054 -2.9181  2.1300
 4598SOL    HW225254   1.605   2.870   8.038 -0.4294  0.5125  1.3765
 4599SOL     OW25255   4.115   1.399   8.011  0.3245 -0.4253 -0.7499
 4599SOL    HW125256   4.026   1.374   7.986  0.5181  0.2268 -2.1224
 4599SOL    HW225257   4.161   1.316   7.999  2.9626  0.9095  0.3133
 4600SOL     OW25258   3.447   3.982   2.236 -0.1390 -0.3415 -0.0529
 4600SOL    HW125259   3.389   3.906   2.236 -1.6712  0.8211 -0.1516
 4600SOL    HW225260   3.500   3.959   2.312 -0.8191  1.0397  0.8363
 4601SOL     OW25261   1.631   0.837   1.616 -0.1952 -0.1152 -0.4984
 4601SOL    HW125262   1.726   0.843   1.603 -0.0119  2.3566  1.9205
 4601SOL    HW225263   1.610   0.924   1.649 -1.3410  0.4187 -2.6226
 4602SOL     OW25264   2.181   4.138   2.320  0.2690  1.0177  0.1131
 4602SOL    HW125265   2.151   4.055   2.282  2.2038  0.8042 -0.9762
 4602SOL    HW225266   2.263   4.111   2.361  0.2671 -0.5599 -0.8974
 4603SOL     OW25267   4.138   4.500   3.100  0.4185 -0.2863  0.1786
 4603SOL    HW125268   4.174   4.494   3.011  0.7924  0.4875  0.2825
 4603SOL    HW225269   4.128   4.595   3.093 -1.4039 -0.2760  2.8752
 4604SOL     OW25270   3.697   1.996   5.057 -0.3145  1.0151 -0.5935
 4604SOL    HW125271   3.699   2.065   4.991  4.4837  0.3622 -1.1017
 4604SOL    HW225272   3.717   1.913   5.014  0.3303  0.0095  1.6514
 4605SOL     OW25273   4.285   2.270   7.563 -0.3201 -0.7586  0.5472
 4605SOL    HW125274   4.340   2.247   7.637  1.9387 -1.1355 -1.2637
 4605SOL    HW225275   4.200   2.240   7.595 -2.1428  1.9822 -1.6245
 4606SOL     OW25276   1.001   3.968   1.391  0.4174 -0.2883 -0.4731
 4606SOL    HW125277   1.062   3.909   1.346  1.3068  0.1938  0.1060
 4606SOL    HW225278   0.977   3.929   1.475 -1.1237 -0.6635 -1.0752
 4607SOL     OW25279   2.120   2.335   4.632 -0.6523  0.3170  0.8357
 4607SOL    HW125280   2.100   2.429   4.628 -0.6397  0.4168  3.5877
 4607SOL    HW225281   2.053   2.312   4.697  0.0768 -2.3734  0.6125
 4608SOL     OW25282   3.570   3.094  10.380  0.0927  0.0645 -0.6875
 4608SOL    HW125283   3.521   3.018  10.411 -1.0993  1.7896  1.5934
 4608SOL    HW225284   3.554   3.095  10.286 -2.2466  0.9200 -0.2644
 4609SOL     OW25285   3.325   0.667   7.838  0.4209  0.3622  0.3878
 4609SOL    HW125286   3.243   0.701   7.874  0.8666  1.3466  0.4845
 4609SOL    HW225287   3.359   0.601   7.899 -1.0391 -1.8234 -1.1786
 4610SOL     OW25288   3.050   1.261   8.116 -0.1191  0.4809 -0.7359
 4610SOL    HW125289   2.970   1.262   8.169  0.7616  0.0627  0.6066
 4610SOL    HW225290   3.005   1.311   8.048  0.6416  1.3337 -0.6087
 4611SOL     OW25291   1.341   2.486   5.039 -0.1799 -0.2109  0.3043
 4611SOL    HW125292   1.416   2.545   5.033 -0.7015  0.2250 -1.9670
 4611SOL    HW225293   1.329   2.489   5.134  1.3301  2.5008  0.4089
 4612SOL     OW25294   4.695   3.666   1.582 -0.2707  0.2364 -0.1021
 4612SOL    HW125295   0.053   3.712   1.587 -0.7664  1.2189 -0.6635
 4612SOL    HW225296   4.633   3.712   1.638  0.6352  0.3228  0.8504
 4613SOL     OW25297   0.464   2.971   3.273  0.6832  0.3475  0.4812
 4613SOL    HW125298   0.446   2.931   3.358  1.0973  1.9754  1.3391
 4613SOL    HW225299   0.413   2.910   3.220 -1.0664  0.4316  2.0599
 4614SOL     OW25300   3.248   0.423   4.173  0.5523  0.5167  0.0946
 4614SOL    HW125301   3.197   0.364   4.118 -0.3257  1.0361  0.3463
 4614SOL    HW225302   3.311   0.443   4.104 -0.1971 -0.0250 -0.7529
 4615SOL     OW25303   1.825   3.303   8.626 -0.4591 -0.1161 -0.1879
 4615SOL    HW125304   1.903   3.358   8.629  0.5087 -1.5194 -0.1272
 4615SOL    HW225305   1.857   3.225   8.581 -0.5854  0.1949 -0.8193
 4616SOL     OW25306   3.897   3.506  12.221  0.2533 -0.0379 -0.3611
 4616SOL    HW125307   3.938   3.420  12.215 -0.5122 -0.3750 -0.7001
 4616SOL    HW225308   3.966   3.566  12.250  0.9319 -1.3418  0.7479
 4617SOL     OW25309   1.031   0.144   4.177 -0.2316 -0.1479  0.2684
 4617SOL    HW125310   1.066   0.057   4.158  2.3389  0.0760  3.9095
 4617SOL    HW225311   0.975   0.118   4.250  0.7804 -1.4229  0.6081
 4618SOL     OW25312   2.128   4.638   7.648 -0.4817  0.1908  0.0738
 4618SOL    HW125313   2.088   4.723   7.627 -0.3135  0.0305 -0.8909
 4618SOL    HW225314   2.208   4.676   7.684  0.8718 -0.8168 -1.8556
 4619SOL     OW25315   0.497   3.181   2.654 -0.3471  0.1273 -0.0025
 4619SOL    HW125316   0.499   3.112   2.721  0.2273  0.1791  0.0392
 4619SOL    HW225317   0.522   3.131   2.577 -0.6538 -0.1599  0.0871
 4620SOL     OW25318   2.088   4.232   6.565 -0.1061  0.1836 -0.2874
 4620SOL    HW125319   2.079   4.137   6.560  1.5081  0.0354 -0.2963
 4620SOL    HW225320   2.004   4.262   6.529  1.5341  2.5842 -2.1107
 4621SOL     OW25321   3.147   0.286  15.372 -0.0783 -0.1024 -0.5657
 4621SOL    HW125322   3.091   0.339  15.429 -0.3455 -1.5197  0.4628
 4621SOL    HW225323   3.224   0.342  15.360 -0.0462  0.4379  2.1615
 4622SOL     OW25324   2.053   1.223   9.147  0.2449 -0.2070 -0.0131
 4622SOL    HW125325   2.117   1.218   9.077  1.3504 -1.5385  1.1007
 4622SOL    HW225326   2.091   1.162   9.211  0.5567  0.3430  0.3239
 4623SOL     OW25327   1.037   2.802   8.866  0.3901  0.3641 -0.4366
 4623SOL    HW125328   0.979   2.727   8.880  0.6443  0.1287 -0.6327
 4623SOL    HW225329   0.981   2.876   8.845  0.8268  1.0661  0.8760
 4624SOL     OW25330   0.488   1.728   0.812 -0.4096  0.0016  0.0671
 4624SOL    HW125331   0.505   1.769   0.728 -0.1875  0.6487  0.4298
 4624SOL    HW225332   0.403   1.688   0.793 -1.2542  1.3634  1.0609
 4625SOL     OW25333   3.848   1.140   3.279 -0.0874 -0.2815 -0.1641
 4625SOL    HW125334   3.910   1.129   3.207 -0.9097 -2.6850 -0.5287
 4625SOL    HW225335   3.758   1.130   3.246 -0.8252  0.8625  1.5193
 4626SOL     OW25336   3.783   2.179  10.689  0.3080 -0.0590  0.1702
 4626SOL    HW125337   3.748   2.255  10.642  0.1000 -0.3029 -0.0694
 4626SOL    HW225338   3.781   2.110  10.622 -1.6652 -1.7660  2.0048
 4627SOL     OW25339   3.414   4.218  12.186 -0.3257  0.5946  0.2139
 4627SOL    HW125340   3.371   4.167  12.256  0.1272 -0.1669 -0.0674
 4627SOL    HW225341   3.507   4.198  12.188 -0.3388  0.4149 -1.2138
 4628SOL     OW25342   2.167   2.632   0.983 -0.5496  0.2658 -0.1482
 4628SOL    HW125343   2.201   2.682   1.058 -0.0236  0.2948 -0.4070
 4628SOL    HW225344   2.246   2.629   0.930  0.4149  2.2351  1.1779
 4629SOL     OW25345   2.565   1.562   3.950  0.4426 -0.3287 -0.0376
 4629SOL    HW125346   2.481   1.517   3.942  0.0724  0.1522  1.0376
 4629SOL    HW225347   2.579   1.585   3.858  0.8586  1.4735  0.4608
 4630SOL     OW25348   0.212   3.847   6.103  0.6771 -0.4364 -0.1149
 4630SOL    HW125349   0.277   3.876   6.168  0.1444 -2.8075  1.4622
 4630SOL    HW225350   0.209   3.928   6.052 -3.3524 -0.4322  0.1788
 4631SOL     OW25351   1.248   1.078   6.198  0.2268 -0.5600 -0.2909
 4631SOL    HW125352   1.272   1.143   6.264 -0.3221 -0.7208  0.0684
 4631SOL    HW225353   1.177   1.129   6.160 -1.4470 -0.1962  3.2505
 4632SOL     OW25354   2.346   1.764   1.518  0.2114  0.6070  0.6508
 4632SOL    HW125355   2.288   1.751   1.443  4.7148  0.1926 -2.7447
 4632SOL    HW225356   2.369   1.672   1.532 -1.0015  0.0674 -0.9565
 4633SOL     OW25357   0.864   2.014   0.131  0.4125 -0.0914 -0.5415
 4633SOL    HW125358   0.840   2.106   0.136  5.7887  1.2997 -0.5593
 4633SOL    HW225359   0.860   1.990   0.039  1.0915  0.0662 -0.6131
 4634SOL     OW25360   0.132   3.381   5.865  0.1015 -0.0353 -0.1739
 4634SOL    HW125361   0.203   3.433   5.828  0.6763 -1.1477 -0.6555
 4634SOL    HW225362   0.115   3.441   5.937  0.0537 -0.1890 -0.0556
 4635SOL     OW25363   0.067   0.521   4.418  0.2141 -0.1268 -0.1478
 4635SOL    HW125364   4.723   0.464   4.449  0.9116 -2.0044 -2.0222
 4635SOL    HW225365   0.138   0.457   4.410  1.5512  1.3902 -0.4856
 4636SOL     OW25366   2.652   2.345  15.212 -0.1209  0.4038 -0.0364
 4636SOL    HW125367   2.641   2.401  15.135 -0.6574 -0.9532 -0.9476
 4636SOL    HW225368   2.564   2.355  15.249 -0.2302  2.3199 -0.7684
 4637SOL     OW25369   0.975   2.443   8.180  1.2058 -0.5629 -0.1352
 4637SOL    HW125370   1.048   2.496   8.148  0.9091  0.1209  0.3264
 4637SOL    HW225371   1.023   2.388   8.242  0.4305  0.2246  1.1677
 4638SOL     OW25372   1.404   2.663   7.727 -0.0682 -0.0790 -0.2871
 4638SOL    HW125373   1.351   2.614   7.665  1.3832 -3.2590  0.9812
 4638SOL    HW225374   1.408   2.745   7.678 -0.0666  0.0793 -0.0246
 4639SOL     OW25375   3.199   2.469  16.594 -0.7865 -0.4189  0.0840
 4639SOL    HW125376   3.108   2.499  16.598 -0.6169  0.1454 -0.3669
 4639SOL    HW225377   3.230   2.474  16.684 -1.7353 -0.3372  0.4042
 4640SOL     OW25378   4.218   2.848  17.194 -0.3076  0.1162  0.2207
 4640SOL    HW125379   4.191   2.760  17.219  2.2692 -0.8046 -0.1535
 4640SOL    HW225380   4.310   2.835  17.168 -0.4316  1.1350 -0.7318
 4641SOL     OW25381   3.411   2.390   7.011  0.1443  0.2961  0.0192
 4641SOL    HW125382   3.440   2.474   6.975 -1.0801  0.1975 -1.1688
 4641SOL    HW225383   3.365   2.420   7.090 -1.8643 -1.3333 -0.5423
 4642SOL     OW25384   4.514   2.308   6.988 -0.3876  0.0666 -0.3820
 4642SOL    HW125385   4.462   2.383   7.017  1.2113  0.2275  2.0093
 4642SOL    HW225386   4.484   2.244   7.053  0.5924 -0.0672 -0.0746
 4643SOL     OW25387   2.614   2.592  16.764  0.2518  0.2965 -0.2010
 4643SOL    HW125388   2.605   2.568  16.856  1.6203  1.4511  0.2505
 4643SOL    HW225389   2.524   2.621  16.753  0.8634  2.4919  0.3532
 4644SOL     OW25390   2.966   3.917   0.081  0.8792 -0.3927 -0.4752
 4644SOL    HW125391   2.894   3.884   0.027  0.5816  0.1841 -0.4272
 4644SOL    HW225392   2.942   4.004   0.113  1.4376  0.3163 -1.9891
 4645SOL     OW25393   3.720   2.431   7.515 -0.2343 -0.4820  0.0395
 4645SOL    HW125394   3.701   2.394   7.429  0.3427 -0.9582  0.1186
 4645SOL    HW225395   3.670   2.512   7.505  0.6028 -0.3918 -3.4379
 4646SOL     OW25396   1.639   3.391   6.329  0.3034 -0.0350  0.2005
 4646SOL    HW125397   1.554   3.414   6.292  1.5528  0.6306 -2.2933
 4646SOL    HW225398   1.598   3.343   6.400  0.6325 -0.4193  0.1322
 4647SOL     OW25399   1.700   2.591   5.158 -0.2566 -0.6703 -0.3094
 4647SOL    HW125400   1.721   2.504   5.123 -0.6755 -1.1558  0.6506
 4647SOL    HW225401   1.693   2.578   5.252 -0.2164  0.2074 -0.1913
 4648SOL     OW25402   1.276   0.764   1.907 -0.9372 -0.1683  0.2655
 4648SOL    HW125403   1.215   0.837   1.897 -0.8085 -0.3407 -1.7263
 4648SOL    HW225404   1.317   0.775   1.821  0.1732 -3.3402  0.3850
 4649SOL     OW25405   3.224   1.190   1.790  0.4553 -0.4101  0.3956
 4649SOL    HW125406   3.262   1.198   1.878 -0.0411  0.3833  0.5381
 4649SOL    HW225407   3.250   1.104   1.759  2.1083  0.9043 -1.8424
 4650SOL     OW25408   2.049   3.175  15.476 -0.3046 -0.3177  0.4527
 4650SOL    HW125409   2.003   3.233  15.416  0.0706  0.1146  0.5831
 4650SOL    HW225410   2.044   3.091  15.431 -3.1236  0.5258 -0.8322
 4651SOL     OW25411   2.818   1.003   6.830 -0.5840 -0.1030  0.3511
 4651SOL    HW125412   2.833   0.940   6.759 -0.8217 -0.7325  0.8519
 4651SOL    HW225413   2.750   1.057   6.792 -0.4176 -1.6282 -2.1320
 4652SOL     OW25414   3.565   3.214   9.064  0.1532  0.7822 -0.0579
 4652SOL    HW125415   3.497   3.263   9.110 -0.2540  0.4835 -0.3415
 4652SOL    HW225416   3.589   3.160   9.139 -2.2211  0.1979  0.2887
 4653SOL     OW25417   0.941   0.880   3.523 -0.0688  0.3455 -0.0849
 4653SOL    HW125418   0.893   0.800   3.543 -0.7081  0.7692  0.0745
 4653SOL    HW225419   0.907   0.891   3.434 -1.0539 -2.2960 -0.0290
 4654SOL     OW25420   0.898   3.858   7.483  0.1309 -0.3511  0.1192
 4654SOL    HW125421   0.883   3.939   7.531  0.5377 -0.0647 -0.2369
 4654SOL    HW225422   0.978   3.876   7.434 -0.7857 -1.7477 -1.8988
 4655SOL     OW25423   0.291   4.604  15.997  0.1911 -0.3644  0.0636
 4655SOL    HW125424   0.293   4.662  16.074 -0.1630 -2.2040  1.4466
 4655SOL    HW225425   0.216   4.553  16.029 -0.1543 -0.9821 -1.7558
 4656SOL     OW25426   2.310   4.667   0.901 -0.2888 -0.6556  0.1803
 4656SOL    HW125427   2.388   4.716   0.874 -0.2392 -0.0013  1.5403
 4656SOL    HW225428   2.332   4.575   0.885  0.3642 -0.1290 -1.9904
 4657SOL     OW25429   4.110   2.681   3.575  0.2194 -0.5175 -0.3552
 4657SOL    HW125430   4.154   2.621   3.635  0.1001 -0.0830  0.1609
 4657SOL    HW225431   4.141   2.655   3.488  1.9661 -2.5525  0.8777
 4658SOL     OW25432   2.551   3.691   7.652 -0.6131  0.3603  0.5205
 4658SOL    HW125433   2.457   3.696   7.669 -0.8521 -1.6426 -0.1426
 4658SOL    HW225434   2.551   3.705   7.558  0.8183  0.7927  0.5885
 4659SOL     OW25435   0.748   4.555   6.453  0.0799  0.2647 -0.0476
 4659SOL    HW125436   0.674   4.616   6.459 -0.5411 -0.5532  0.6853
 4659SOL    HW225437   0.748   4.514   6.540  3.0388 -1.4420 -0.8569
 4660SOL     OW25438   1.908   3.533   3.232 -0.1070  0.1419  0.0239
 4660SOL    HW125439   1.833   3.485   3.198 -2.8280  3.4579  1.2780
 4660SOL    HW225440   1.953   3.558   3.152  1.1300 -1.0513  0.3482
 4661SOL     OW25441   0.298   0.612   7.713 -0.5875  0.6186 -0.0214
 4661SOL    HW125442   0.374   0.578   7.667 -0.6100  2.0904 -1.1484
 4661SOL    HW225443   0.251   0.651   7.640  0.6700 -0.8393 -1.6020
 4662SOL     OW25444   3.725   4.048   7.946 -0.1835  0.0093  0.0552
 4662SOL    HW125445   3.661   4.033   8.016  0.3236 -0.7118  0.3679
 4662SOL    HW225446   3.806   4.025   7.992  0.4107  0.8088 -0.6038
 4663SOL     OW25447   3.414   1.435   1.723  0.4399 -0.2321  0.0332
 4663SOL    HW125448   3.413   1.342   1.698  0.3563  0.0264 -0.9184
 4663SOL    HW225449   3.412   1.483   1.640  1.8624 -0.4582 -0.1300
 4664SOL     OW25450   1.229   3.253  13.926  0.3040  1.3028  0.3328
 4664SOL    HW125451   1.215   3.345  13.948 -0.6819  0.6074  2.5750
 4664SOL    HW225452   1.247   3.253  13.832 -1.0320  0.2559  0.0644
 4665SOL     OW25453   4.482   2.903   4.056 -0.4113 -0.1393 -0.0032
 4665SOL    HW125454   4.571   2.876   4.078 -0.5990  1.8534  3.1179
 4665SOL    HW225455   4.501   2.995   4.040 -1.6568  0.3102  1.1063
 4666SOL     OW25456   2.785   3.595  12.165  0.1714  0.2891  0.1492
 4666SOL    HW125457   2.822   3.532  12.227 -1.2048 -1.2798 -0.6267
 4666SOL    HW225458   2.865   3.639  12.138 -0.9020  1.8555 -0.4700
 4667SOL     OW25459   0.798   1.347   7.762  0.0997 -0.0712 -0.5972
 4667SOL    HW125460   0.884   1.310   7.782  0.7496  1.5474 -0.4541
 4667SOL    HW225461   0.799   1.423   7.820  0.2708  1.1072 -2.1310
 4668SOL     OW25462   0.481   0.652   8.735  0.0055  0.0504  0.2466
 4668SOL    HW125463   0.554   0.594   8.712  0.5944  1.3116 -1.0222
 4668SOL    HW225464   0.419   0.581   8.753  2.2861 -1.5890  1.6382
 4669SOL     OW25465   2.667   0.756   1.328  0.3257  0.7878  0.3375
 4669SOL    HW125466   2.746   0.708   1.300 -0.2250  0.5289 -0.7577
 4669SOL    HW225467   2.709   0.823   1.382 -1.9172  1.9121  0.6845
 4670SOL     OW25468   2.495   1.892   8.013  0.0013 -0.6485  0.4520
 4670SOL    HW125469   2.558   1.825   7.986 -1.3691 -1.2536 -1.1842
 4670SOL    HW225470   2.505   1.947   7.935  0.8863 -3.0327 -1.1342
 4671SOL     OW25471   1.904   3.996  16.081 -0.3959 -0.3866 -0.7120
 4671SOL    HW125472   1.992   3.964  16.062  0.1971  1.3622 -0.9614
 4671SOL    HW225473   1.844   3.927  16.052  0.1727 -0.9422 -0.5630
 4672SOL     OW25474   0.215   0.307   7.061  0.2316  0.4576 -0.0543
 4672SOL    HW125475   0.200   0.302   6.967 -0.8536 -3.6077  0.3278
 4672SOL    HW225476   0.293   0.254   7.075 -0.4577 -0.7787 -0.8606
 4673SOL     OW25477   0.246   3.121   5.839  0.6521  0.0798 -0.2116
 4673SOL    HW125478   0.191   3.196   5.860  1.9871  1.1292 -0.4797
 4673SOL    HW225479   0.276   3.086   5.923 -0.9910 -1.0563 -0.0864
 4674SOL     OW25480   0.785   4.602  17.290 -0.1847 -0.2382 -0.2602
 4674SOL    HW125481   0.701   4.623  17.332  1.3093  0.8717  2.1495
 4674SOL    HW225482   0.801   4.514  17.326 -2.9279 -1.2869 -1.5857
 4675SOL     OW25483   3.696   0.265   4.983 -0.0940  0.5475  0.6565
 4675SOL    HW125484   3.624   0.261   4.920  1.5541 -2.2124 -1.0547
 4675SOL    HW225485   3.641   0.269   5.061  0.3094 -2.3793  1.0932
 4676SOL     OW25486   0.571   4.520   4.451  0.1551 -0.0542  0.0391
 4676SOL    HW125487   0.517   4.489   4.524 -0.2191 -1.2463 -0.7428
 4676SOL    HW225488   0.622   4.596   4.480  1.7002 -0.6353 -1.1671
 4677SOL     OW25489   3.288   0.536   6.175  0.0355 -0.1095  0.2210
 4677SOL    HW125490   3.194   0.524   6.162  0.0551  0.4554 -0.4611
 4677SOL    HW225491   3.278   0.558   6.268 -1.1540  2.0591 -0.4050
 4678SOL     OW25492   4.411   0.927  16.933 -0.5392  0.0193  0.7324
 4678SOL    HW125493   4.380   1.002  16.983  2.6481  1.5072  0.4738
 4678SOL    HW225494   4.345   0.936  16.865  0.3689  1.2043  0.0162
 4679SOL     OW25495   3.502   3.180  11.260  0.4173 -1.0458 -0.1475
 4679SOL    HW125496   3.534   3.091  11.247 -0.7319 -1.4206 -0.4609
 4679SOL    HW225497   3.426   3.176  11.202 -0.4621 -0.0140  0.9306
 4680SOL     OW25498   2.086   1.676  17.606  0.0594 -0.1352  0.1110
 4680SOL    HW125499   2.054   1.765  17.595 -0.6306 -0.2762  1.0026
 4680SOL    HW225500   2.162   1.680  17.664  0.4517  2.8342 -0.6265
 4681SOL     OW25501   1.597   2.888   4.814  0.1233  0.1265 -0.0915
 4681SOL    HW125502   1.507   2.913   4.794  0.1819  0.7431  0.3986
 4681SOL    HW225503   1.650   2.929   4.744  0.5111  0.8014  0.5964
 4682SOL     OW25504   0.942   1.653  16.542 -0.0529  0.2769  0.1956
 4682SOL    HW125505   0.966   1.584  16.481 -3.1503 -1.0724  0.5065
 4682SOL    HW225506   0.889   1.613  16.611 -0.8945 -0.8365 -1.1145
 4683SOL     OW25507   0.308   1.344   3.613  0.5209  0.2474 -0.7257
 4683SOL    HW125508   0.219   1.352   3.578  0.6333  2.2536 -0.5844
 4683SOL    HW225509   0.359   1.393   3.549 -0.4374 -2.6711 -3.7615
 4684SOL     OW25510   1.578   0.462   2.019  0.3946  0.7984 -0.0676
 4684SOL    HW125511   1.623   0.378   2.013 -2.7249 -0.7536 -1.7599
 4684SOL    HW225512   1.601   0.515   1.943 -0.0812 -1.3920 -1.7130
 4685SOL     OW25513   4.565   3.584   4.417 -0.0601 -0.2061 -0.0156
 4685SOL    HW125514   4.477   3.546   4.409  0.6617 -2.0094  0.7087
 4685SOL    HW225515   4.612   3.559   4.337 -2.2509 -1.2784 -0.9790
 4686SOL     OW25516   1.005   4.473   2.005 -0.1277  0.5640 -0.3039
 4686SOL    HW125517   1.088   4.427   2.011 -0.1305  0.4075 -1.4354
 4686SOL    HW225518   0.941   4.402   2.016 -0.2736  0.7093 -0.2159
 4687SOL     OW25519   3.395   0.171   4.196  0.1010  0.7012 -0.5067
 4687SOL    HW125520   3.450   0.181   4.274 -1.9097 -1.6452  1.1890
 4687SOL    HW225521   3.309   0.192   4.233 -0.0739 -0.0104 -0.5107
 4688SOL     OW25522   1.055   1.308   5.787 -0.3973  0.4444  0.3454
 4688SOL    HW125523   1.107   1.234   5.756 -1.2062 -0.2944  0.7527
 4688SOL    HW225524   1.010   1.328   5.705  0.0749  0.6429  0.1360
 4689SOL     OW25525   0.125   1.964   5.677 -0.3429  0.0911 -0.1096
 4689SOL    HW125526   0.122   1.919   5.761 -1.1516 -2.9329 -1.7732
 4689SOL    HW225527   0.133   1.889   5.619 -1.3347  1.1803 -1.6571
 4690SOL     OW25528   0.114   1.642   6.707  0.0940 -0.3300 -0.3431
 4690SOL    HW125529   0.064   1.676   6.632  1.1002  0.7828 -0.5090
 4690SOL    HW225530   0.050   1.619   6.774  0.0754 -1.2307 -0.6678
 4691SOL     OW25531   2.791   4.538   6.510 -0.4993  0.2031 -0.2438
 4691SOL    HW125532   2.697   4.536   6.527 -0.2006 -2.5671  1.1430
 4691SOL    HW225533   2.808   4.624   6.548  0.4388  0.1387 -0.5325
 4692SOL     OW25534   1.429   1.780  11.632  0.4895 -0.3892 -0.9591
 4692SOL    HW125535   1.393   1.789  11.544  0.6264 -1.1943 -1.0982
 4692SOL    HW225536   1.519   1.811  11.623  1.2012 -2.0071  0.6121
 4693SOL     OW25537   1.094   2.737   4.804 -0.4810 -0.1475  0.1188
 4693SOL    HW125538   1.151   2.663   4.823 -2.1091 -1.4603 -0.1195
 4693SOL    HW225539   1.016   2.696   4.841 -1.3030  0.1043 -1.3124
 4694SOL     OW25540   0.526   3.764  16.080  0.3481 -0.3690  0.5390
 4694SOL    HW125541   0.486   3.693  16.031  2.3933 -1.2906  0.2122
 4694SOL    HW225542   0.480   3.836  16.037 -0.5392 -0.3412  1.5420
 4695SOL     OW25543   2.150   0.357   5.427  0.4921 -0.1276  0.2737
 4695SOL    HW125544   2.214   0.311   5.372  0.0682 -1.2860  0.7621
 4695SOL    HW225545   2.094   0.386   5.355  0.7667 -0.0668  0.0859
 4696SOL     OW25546   3.707   3.348  13.853  0.0308  0.0595  0.1330
 4696SOL    HW125547   3.791   3.335  13.811 -0.2561  3.9724 -1.6652
 4696SOL    HW225548   3.730   3.371  13.943  0.8431 -0.1506 -0.0274
 4697SOL     OW25549   1.712   1.848   1.328  0.4254  1.1906 -0.2072
 4697SOL    HW125550   1.803   1.826   1.345 -0.3672 -1.2587  0.9420
 4697SOL    HW225551   1.693   1.812   1.241  1.8452 -0.8856  0.3460
 4698SOL     OW25552   0.116   3.311   2.528  0.2779 -0.3133 -0.5688
 4698SOL    HW125553   0.179   3.379   2.504  1.9063 -0.9161  1.9805
 4698SOL    HW225554   0.102   3.333   2.619 -2.7928  1.0841 -1.4105
 4699SOL     OW25555   3.598   1.243   0.016  0.2580 -0.0401  0.1544
 4699SOL    HW125556   3.657   1.252   0.090 -0.1459  1.2712  0.3121
 4699SOL    HW225557   3.516   1.282   0.045  0.8080  2.7461 -2.0519
 4700SOL     OW25558   0.802   0.622   1.605  0.1477 -0.4297 -0.5300
 4700SOL    HW125559   0.802   0.682   1.531 -0.5036  1.8440  1.3211
 4700SOL    HW225560   0.714   0.585   1.592  0.5065 -1.7741  0.8335
 4701SOL     OW25561   0.407   0.471   3.594 -0.2608  0.3173 -0.2644
 4701SOL    HW125562   0.350   0.407   3.636  2.2209 -0.6629  1.5737
 4701SOL    HW225563   0.409   0.537   3.663  0.8814 -0.1817  0.1892
 4702SOL     OW25564   4.140   3.541   9.750  0.2912 -1.1472 -0.0272
 4702SOL    HW125565   4.074   3.490   9.704 -0.4068 -0.3159  0.0643
 4702SOL    HW225566   4.120   3.520   9.841  4.0867  1.6215  1.4617
 4703SOL     OW25567   2.153   2.650   4.615  0.3267 -0.3108  0.3625
 4703SOL    HW125568   2.211   2.692   4.678 -2.0178  3.9752 -0.3752
 4703SOL    HW225569   2.065   2.670   4.648 -0.6559 -1.0613 -1.7655
 4704SOL     OW25570   0.103   2.834   0.026 -0.0935  0.0365 -0.3369
 4704SOL    HW125571   0.076   2.764   0.086  0.0374  0.9305  0.7585
 4704SOL    HW225572   0.058   2.824  17.649 -0.8401  3.7233 -0.3681
 4705SOL     OW25573   2.126   1.733   2.401  0.2589  0.3400  0.1247
 4705SOL    HW125574   2.121   1.698   2.490 -1.6437  0.0359 -0.0959
 4705SOL    HW225575   2.192   1.667   2.380  1.3037  1.3073  0.4196
 4706SOL     OW25576   4.068   1.183  16.924  0.0197 -0.4682 -0.3338
 4706SOL    HW125577   4.067   1.279  16.924  2.7703 -0.4320 -1.1432
 4706SOL    HW225578   3.985   1.174  16.878 -0.2780 -0.0893  0.1244
 4707SOL     OW25579   1.357   1.757   3.437 -0.3373  0.2147  0.1404
 4707SOL    HW125580   1.444   1.795   3.427  0.8919 -3.0970 -1.7929
 4707SOL    HW225581   1.297   1.829   3.455 -0.6381  0.3793 -1.5851
 4708SOL     OW25582   2.730   1.175   4.925  0.4712 -0.4593 -0.7121
 4708SOL    HW125583   2.690   1.094   4.955 -0.4307  0.0268 -0.5870
 4708SOL    HW225584   2.667   1.238   4.962  3.8146  1.2478  2.0185
 4709SOL     OW25585   0.801   3.615  12.229  0.0966  0.2523 -0.0526
 4709SOL    HW125586   0.743   3.551  12.189  1.0394 -0.1471 -0.7724
 4709SOL    HW225587   0.734   3.683  12.235 -2.1075 -2.1608  2.8659
 4710SOL     OW25588   2.596   4.682   0.863 -0.5916  0.7493  0.1699
 4710SOL    HW125589   2.656   4.723   0.925  0.6734  0.6829 -0.9999
 4710SOL    HW225590   2.619   4.591   0.883  0.3288  1.1622  1.0158
 4711SOL     OW25591   0.434   2.965   4.934 -0.3298 -0.2498  0.2807
 4711SOL    HW125592   0.438   3.051   4.976 -0.7282 -0.7322  1.2845
 4711SOL    HW225593   0.528   2.947   4.939 -1.1872 -5.3146 -1.8403
 4712SOL     OW25594   4.213   3.286  12.220 -0.1326  0.6431  0.2579
 4712SOL    HW125595   4.210   3.204  12.172  0.4697 -0.1281  1.5411
 4712SOL    HW225596   4.279   3.339  12.176 -0.4548  0.4412 -0.4749
 4713SOL     OW25597   4.286   0.688  17.675 -0.4899 -0.1740 -0.4354
 4713SOL    HW125598   4.205   0.738  17.666  0.1310  0.7648 -0.8244
 4713SOL    HW225599   4.330   0.726  17.599  0.8589  1.0446  0.9441
 4714SOL     OW25600   0.734   3.866   7.243 -1.0418 -0.6161  0.2910
 4714SOL    HW125601   0.774   3.873   7.329 -0.1728 -2.5487  0.0562
 4714SOL    HW225602   0.649   3.827   7.261 -0.7835 -0.8873  0.9481
 4715SOL     OW25603   0.178   2.241  12.386 -0.5870  0.1959 -0.0461
 4715SOL    HW125604   0.137   2.240  12.472 -0.5764  1.4332 -0.0205
 4715SOL    HW225605   0.251   2.183  12.404  0.0721  0.6861 -1.1156
 4716SOL     OW25606   2.605   4.390   7.203 -0.4194 -0.3752  0.6061
 4716SOL    HW125607   2.566   4.465   7.248  1.0920  0.1872  0.9791
 4716SOL    HW225608   2.540   4.327   7.234  0.3309 -1.5108 -0.1533
 4717SOL     OW25609   2.180   1.185   2.289  0.3271 -0.6539 -0.1643
 4717SOL    HW125610   2.174   1.108   2.345 -0.7321 -2.4252 -2.7039
 4717SOL    HW225611   2.157   1.151   2.202  0.1463 -0.4726 -0.1886
 4718SOL     OW25612   1.922   0.121   3.892  0.0217  0.0441 -0.1248
 4718SOL    HW125613   1.873   0.172   3.828  0.1961 -1.5666 -1.5654
 4718SOL    HW225614   1.939   0.189   3.957 -1.4297  0.8470 -0.5828
 4719SOL     OW25615   0.000   2.767   0.807 -0.3665 -0.6803 -0.3466
 4719SOL    HW125616   4.649   2.733   0.764  0.5031 -2.4290 -0.5159
 4719SOL    HW225617   0.059   2.696   0.783  1.5877  0.7348  0.2887
 4720SOL     OW25618   2.948   0.561   8.760 -0.5665 -0.2760  0.3079
 4720SOL    HW125619   2.936   0.638   8.815 -3.0725 -2.1079  2.3713
 4720SOL    HW225620   3.007   0.514   8.818  0.6620  1.1591  0.1959
 4721SOL     OW25621   4.418   1.219  12.997 -0.3971 -1.0017  0.1549
 4721SOL    HW125622   4.445   1.216  13.089  0.7100 -0.4300 -0.1488
 4721SOL    HW225623   4.504   1.226  12.957 -0.2013 -0.9676  0.5796
 4722SOL     OW25624   3.262   2.984   4.685  0.4712 -0.5555  0.0033
 4722SOL    HW125625   3.283   3.005   4.776  1.0946  1.3792 -0.6053
 4722SOL    HW225626   3.225   3.067   4.656  2.7758  0.0911 -1.0749
 4723SOL     OW25627   4.606   2.711   6.656 -0.2871  0.1604 -0.4595
 4723SOL    HW125628   4.673   2.713   6.724  1.7012 -4.5734 -2.3033
 4723SOL    HW225629   4.554   2.790   6.672 -1.4234 -0.9727  1.4523
 4724SOL     OW25630   4.388   4.607  11.793 -0.5243  0.0921  0.4613
 4724SOL    HW125631   4.459   4.563  11.839  0.1810  1.4199  0.6419
 4724SOL    HW225632   4.432   4.689  11.770 -1.1953 -0.2142 -1.9106
 4725SOL     OW25633   3.267   1.538   6.125  0.3922 -0.2941  0.5790
 4725SOL    HW125634   3.287   1.613   6.069 -0.7495  0.4320  1.1495
 4725SOL    HW225635   3.287   1.461   6.071 -1.3116 -0.2083 -0.1614
 4726SOL     OW25636   2.166   2.201  10.675  0.2652  0.3562 -0.1324
 4726SOL    HW125637   2.085   2.155  10.696  0.3955  0.2805  0.2098
 4726SOL    HW225638   2.146   2.250  10.595  0.5187 -0.2778 -0.5919
 4727SOL     OW25639   0.697   1.965   4.381  0.3098 -0.0700  0.0247
 4727SOL    HW125640   0.684   1.871   4.392 -0.0655  0.1406  1.3316
 4727SOL    HW225641   0.789   1.990   4.376  0.4318 -0.9291 -2.2400
 4728SOL     OW25642   4.528   0.092   8.695 -0.0746 -0.6798 -0.9950
 4728SOL    HW125643   4.607   0.039   8.686  0.4227 -0.2682  0.7846
 4728SOL    HW225644   4.468   0.023   8.724 -0.7979  0.0115 -0.8492
 4729SOL     OW25645   4.344   4.090   7.295 -0.5516 -0.3146 -0.2360
 4729SOL    HW125646   4.379   4.160   7.351 -0.1071  1.2315 -2.4550
 4729SOL    HW225647   4.287   4.143   7.241  0.2011  0.3841 -0.3458
 4730SOL     OW25648   1.826   4.239   1.296 -0.4882 -0.1374 -0.1059
 4730SOL    HW125649   1.799   4.305   1.231 -1.8860 -0.0768  0.5392
 4730SOL    HW225650   1.816   4.301   1.369 -3.6786 -0.6395 -0.1246
 4731SOL     OW25651   2.855   3.632   5.735 -0.1813  0.2575 -0.1418
 4731SOL    HW125652   2.922   3.675   5.681 -0.4352  1.8792  0.8286
 4731SOL    HW225653   2.869   3.674   5.820  0.9668 -2.9704  1.2848
 4732SOL     OW25654   3.581   3.867   4.516  0.3680  0.9361  0.0907
 4732SOL    HW125655   3.645   3.859   4.445  2.2560 -2.3686  2.1360
 4732SOL    HW225656   3.548   3.956   4.511 -1.2115  0.2007 -2.7654
 4733SOL     OW25657   2.386   4.174   3.436  0.6708 -0.0459  0.3106
 4733SOL    HW125658   2.405   4.105   3.500 -0.2903 -1.2986 -0.7391
 4733SOL    HW225659   2.319   4.216   3.491  0.6038  1.1669 -0.7181
 4734SOL     OW25660   4.676   0.165   7.633  0.6266 -0.1795  0.8765
 4734SOL    HW125661   4.713   0.246   7.667 -2.9820  2.0799 -0.5434
 4734SOL    HW225662   4.701   0.159   7.541  0.0557 -1.2269  0.7878
 4735SOL     OW25663   2.763   1.391  13.590  0.0450 -0.1504  0.5046
 4735SOL    HW125664   2.675   1.358  13.612 -0.9732  1.7153 -0.7918
 4735SOL    HW225665   2.758   1.404  13.495  1.4680 -1.1676  0.2869
 4736SOL     OW25666   2.500   0.346   9.471  0.0379 -0.1249  0.2913
 4736SOL    HW125667   2.514   0.251   9.469 -0.0027 -0.1450  0.9118
 4736SOL    HW225668   2.566   0.367   9.536 -1.8448 -0.3042  2.2744
 4737SOL     OW25669   0.475   3.577   8.684 -0.0166  0.4303  0.3111
 4737SOL    HW125670   0.537   3.523   8.636  0.6438  0.7811  0.7658
 4737SOL    HW225671   0.531   3.598   8.760 -3.2161  2.9804  1.9564
 4738SOL     OW25672   4.724   3.261   2.292 -0.2813 -0.2793 -0.0047
 4738SOL    HW125673   0.001   3.331   2.227 -0.1085 -1.0743 -0.8554
 4738SOL    HW225674   0.043   3.296   2.368 -1.3759  1.0652  0.0305
 4739SOL     OW25675   1.610   0.761   5.508 -0.4589  0.1116  0.3465
 4739SOL    HW125676   1.586   0.696   5.442  1.2687 -0.8496  0.6842
 4739SOL    HW225677   1.704   0.746   5.518 -0.4622 -0.5823 -0.6559
 4740SOL     OW25678   1.279   2.431   8.087 -0.0673  0.6580  1.1020
 4740SOL    HW125679   1.304   2.383   8.165  0.4064 -2.6182 -1.0855
 4740SOL    HW225680   1.276   2.368   8.015 -0.6260  2.4232 -0.4399
 4741SOL     OW25681   3.809   3.920   5.897  0.3372  0.0649 -0.7990
 4741SOL    HW125682   3.726   3.888   5.932  0.8831 -0.5624 -0.0870
 4741SOL    HW225683   3.847   3.977   5.963  1.2882 -1.3848 -0.0947
 4742SOL     OW25684   0.364   2.000  14.723  0.0961 -0.0866  0.1839
 4742SOL    HW125685   0.375   2.053  14.644  2.1372 -0.9036 -0.0922
 4742SOL    HW225686   0.292   2.044  14.767 -0.0405  2.5612 -2.6986
 4743SOL     OW25687   2.359   3.091   8.027  0.1599 -0.5429  0.4214
 4743SOL    HW125688   2.385   3.168   8.079 -0.2388 -1.1905  1.5646
 4743SOL    HW225689   2.342   3.025   8.094 -3.0105 -0.0673  0.0957
 4744SOL     OW25690   2.417   2.386  14.159 -0.1250  0.3328  0.1085
 4744SOL    HW125691   2.376   2.311  14.116 -3.6878  0.7959  2.7559
 4744SOL    HW225692   2.483   2.400  14.090 -2.2960  0.9939 -1.8250
 4745SOL     OW25693   0.306   3.916   0.273  0.0696 -0.0144 -0.3843
 4745SOL    HW125694   0.297   3.994   0.328 -0.6760  0.3783 -1.0683
 4745SOL    HW225695   0.252   3.850   0.316  0.1066  0.1651 -0.0593
 4746SOL     OW25696   2.532   1.300  13.685 -0.1685  0.1872 -0.3257
 4746SOL    HW125697   2.477   1.223  13.703 -0.2064  0.3081  0.0794
 4746SOL    HW225698   2.463   1.361  13.658 -0.2000  0.5066  0.4715
 4747SOL     OW25699   4.076   0.689  14.359  0.2474 -0.0983  0.0450
 4747SOL    HW125700   4.094   0.718  14.449  0.5074 -0.5645  0.1420
 4747SOL    HW225701   4.153   0.720  14.311  0.4127  1.3511  1.2308
 4748SOL     OW25702   2.701   1.070   1.853 -0.3694  0.1263 -0.0986
 4748SOL    HW125703   2.794   1.057   1.835 -0.3915 -1.3999  0.8547
 4748SOL    HW225704   2.668   1.102   1.769  1.1017 -0.0057 -0.7261
 4749SOL     OW25705   3.430   1.112   2.920  0.8647  0.4988 -0.2728
 4749SOL    HW125706   3.400   1.201   2.939  0.0277 -0.2001  1.7088
 4749SOL    HW225707   3.522   1.135   2.906  1.4247 -1.1399  0.7686
 4750SOL     OW25708   3.446   3.160   3.006  0.7053 -0.1892 -0.3299
 4750SOL    HW125709   3.468   3.078   3.049  0.8416 -0.0132 -0.0644
 4750SOL    HW225710   3.458   3.140   2.913 -0.6873 -1.4237 -0.2602
 4751SOL     OW25711   4.456   0.181  11.167 -0.0464  0.6515  0.3957
 4751SOL    HW125712   4.381   0.239  11.152  1.3754  2.5338  0.6682
 4751SOL    HW225713   4.523   0.241  11.198 -1.0235  1.6424  0.5999
 4752SOL     OW25714   1.837   3.005   6.459  0.9375  0.3013  0.9978
 4752SOL    HW125715   1.881   2.963   6.533  0.2564  0.0014  1.2368
 4752SOL    HW225716   1.898   3.041   6.394 -0.8995  2.5681  0.5363
 4753SOL     OW25717   2.097   0.302   8.297  0.6819  0.1425  0.5495
 4753SOL    HW125718   2.117   0.335   8.385  1.3053  1.2090  0.0125
 4753SOL    HW225719   2.134   0.214   8.296 -1.4303 -0.8035  2.9108
 4754SOL     OW25720   1.229   1.331   6.347 -0.2168 -0.4959  0.2897
 4754SOL    HW125721   1.236   1.415   6.303  0.0920 -1.0893 -0.7830
 4754SOL    HW225722   1.240   1.361   6.438  2.4899  0.4745 -0.3703
 4755SOL     OW25723   2.156   3.411   8.584  0.0446  0.4905  0.4325
 4755SOL    HW125724   2.168   3.367   8.499  1.9532 -0.3717  1.1435
 4755SOL    HW225725   2.240   3.457   8.592  0.0048  1.1499 -2.9074
 4756SOL     OW25726   0.355   0.130   5.236 -0.1225 -0.3802  0.2261
 4756SOL    HW125727   0.375   0.223   5.222  0.8064 -0.1706  2.9746
 4756SOL    HW225728   0.303   0.095   5.163  1.6036  0.1813 -1.2653
 4757SOL     OW25729   3.446   1.030   8.883  0.2284 -0.3672 -0.1853
 4757SOL    HW125730   3.368   1.061   8.928 -1.6323 -2.3931 -1.9892
 4757SOL    HW225731   3.442   1.053   8.790  1.1321  0.2649 -0.0648
 4758SOL     OW25732   0.152   1.137   2.816 -0.6436 -0.6096  0.0626
 4758SOL    HW125733   0.201   1.151   2.897  0.8994 -0.6822 -0.8544
 4758SOL    HW225734   0.062   1.124   2.847 -0.5431 -0.6812  0.3322
 4759SOL     OW25735   0.973   4.544   5.319  0.5123  0.2185 -0.0529
 4759SOL    HW125736   0.983   4.574   5.228  1.9442 -1.3742 -0.4209
 4759SOL    HW225737   0.977   4.630   5.361  0.4743  0.7588 -1.1548
 4760SOL     OW25738   0.525   0.501  10.105  0.3652  0.0354 -0.1637
 4760SOL    HW125739   0.565   0.547  10.179 -0.4604 -1.9490  1.5054
 4760SOL    HW225740   0.471   0.570  10.067  1.7796  2.8433  2.9878
 4761SOL     OW25741   3.045   3.123   6.559  0.1372 -0.1322  0.1887
 4761SOL    HW125742   3.027   3.032   6.536  1.3852 -0.5118  0.7056
 4761SOL    HW225743   2.969   3.170   6.524  1.2398  0.9751 -0.7036
 4762SOL     OW25744   0.264   1.182  14.042 -0.2024  0.4263  0.7888
 4762SOL    HW125745   0.225   1.095  14.054 -1.1658  0.6672 -0.5356
 4762SOL    HW225746   0.191   1.240  14.019  0.5331  1.1453  0.2708
 4763SOL     OW25747   1.245   2.225  11.554 -0.4546  0.6265 -0.1020
 4763SOL    HW125748   1.265   2.216  11.647 -0.7166  1.1944  0.0115
 4763SOL    HW225749   1.165   2.172  11.549  1.5244 -1.8737 -4.5724
 4764SOL     OW25750   2.330   1.898  12.772 -0.4314 -0.6159  0.0421
 4764SOL    HW125751   2.374   1.818  12.800  1.1241 -0.4162 -1.7861
 4764SOL    HW225752   2.410   1.952  12.765 -0.8206 -0.2750 -1.7685
 4765SOL     OW25753   4.280   2.109   1.912  0.3318  0.1933 -0.2750
 4765SOL    HW125754   4.294   2.167   1.837  0.1816  0.4770 -0.0846
 4765SOL    HW225755   4.374   2.100   1.931  0.5996  2.2139 -0.6391
 4766SOL     OW25756   1.456   3.404  16.710 -0.1609 -0.0292 -0.4495
 4766SOL    HW125757   1.382   3.349  16.684 -1.4120  1.7110 -0.5450
 4766SOL    HW225758   1.490   3.420  16.622 -0.7914 -0.5295 -0.7809
 4767SOL     OW25759   3.648   2.815   2.965  0.2342  0.8601  0.3440
 4767SOL    HW125760   3.742   2.826   2.975  0.2830 -1.0536  2.0110
 4767SOL    HW225761   3.620   2.882   2.902  0.5374  0.4944 -0.1753
 4768SOL     OW25762   2.146   1.761   9.519  0.2635 -0.0233 -0.2288
 4768SOL    HW125763   2.054   1.737   9.534 -0.2700  1.4856 -1.1470
 4768SOL    HW225764   2.144   1.736   9.427  2.0602 -0.4979 -0.1397
 4769SOL     OW25765   3.320   1.553  10.302  0.0891 -0.5804  0.1845
 4769SOL    HW125766   3.299   1.646  10.290  1.6076 -0.2060  0.4003
 4769SOL    HW225767   3.234   1.516  10.320  0.1796 -2.2280 -2.8919
 4770SOL     OW25768   1.216   3.149  13.267  1.0097 -0.3204  0.1600
 4770SOL    HW125769   1.265   3.156  13.185  2.2136 -1.2904  0.7836
 4770SOL    HW225770   1.289   3.174  13.324 -0.8834 -1.3397  3.0221
 4771SOL     OW25771   3.314   0.956   4.648 -0.3032 -0.3398 -0.4431
 4771SOL    HW125772   3.232   0.906   4.650  0.5153 -1.6814 -1.5009
 4771SOL    HW225773   3.327   0.966   4.554  1.2212 -1.2723 -0.3260
 4772SOL     OW25774   0.619   3.882   6.864  0.6026  0.4925  0.3271
 4772SOL    HW125775   0.529   3.851   6.854  0.4048  1.2736 -0.3523
 4772SOL    HW225776   0.616   3.939   6.941  0.4655 -0.6827  1.1912
 4773SOL     OW25777   4.032   0.125   7.225 -0.4850  0.3399  0.3429
 4773SOL    HW125778   3.986   0.111   7.142  0.0414  0.2166  0.0762
 4773SOL    HW225779   4.118   0.153   7.195  0.1968  0.3676  2.3069
 4774SOL     OW25780   1.592   4.335   7.040  0.3152  0.3937 -0.8240
 4774SOL    HW125781   1.552   4.402   6.985  1.7544  1.5338 -0.5043
 4774SOL    HW225782   1.659   4.296   6.985 -0.0306 -0.0385 -0.9339
 4775SOL     OW25783   1.569   4.346  11.268 -0.1435  0.2401 -0.3452
 4775SOL    HW125784   1.611   4.264  11.242 -4.4779 -2.0866 -0.0865
 4775SOL    HW225785   1.646   4.400  11.286 -1.3409  2.0472 -0.6657
 4776SOL     OW25786   1.793   1.514  17.032 -0.0134  0.4413 -0.3211
 4776SOL    HW125787   1.804   1.513  16.937 -0.3163  0.6728 -0.3558
 4776SOL    HW225788   1.789   1.420  17.049 -0.1412 -0.0821 -3.1521
 4777SOL     OW25789   0.635   4.482  15.383 -0.0533 -0.3462  0.4803
 4777SOL    HW125790   0.561   4.529  15.346 -0.1573  0.2158  1.3860
 4777SOL    HW225791   0.660   4.421  15.314 -1.7613 -0.3221 -0.1610
 4778SOL     OW25792   0.405   1.127   9.587  0.2956 -0.1275 -0.5176
 4778SOL    HW125793   0.463   1.054   9.607  0.2870 -0.9042 -3.3013
 4778SOL    HW225794   0.334   1.074   9.551  0.6050  0.0546 -1.3872
 4779SOL     OW25795   2.739   1.072  13.678  0.3424  0.1056 -0.1357
 4779SOL    HW125796   2.792   1.095  13.755  0.1110  1.5706 -0.4059
 4779SOL    HW225797   2.660   1.120  13.704  0.8748  0.5847  0.5865
 4780SOL     OW25798   1.725   3.541   0.301  0.3081  0.6266 -0.0301
 4780SOL    HW125799   1.757   3.499   0.221 -1.9021 -0.9858 -0.0531
 4780SOL    HW225800   1.774   3.484   0.360 -0.6552 -1.4972 -1.2803
 4781SOL     OW25801   1.880   0.081  10.021 -0.5333 -0.1707  0.3595
 4781SOL    HW125802   1.825   0.121  10.088  1.1309 -1.5041  2.5056
 4781SOL    HW225803   1.937   0.157  10.013  1.1187 -1.4272  0.3446
 4782SOL     OW25804   2.172   2.811   6.339 -0.5084  0.2736 -0.1124
 4782SOL    HW125805   2.205   2.892   6.379  3.0798 -2.3145  2.1231
 4782SOL    HW225806   2.243   2.749   6.356 -1.1826 -0.4384  0.1133
 4783SOL     OW25807   3.858   2.001   6.726  0.3689  0.0918 -0.0440
 4783SOL    HW125808   3.814   1.979   6.643  2.6598 -0.4528 -1.1116
 4783SOL    HW225809   3.784   2.000   6.787 -0.0295  0.8862 -0.5165
 4784SOL     OW25810   3.332   3.023  13.055 -0.1940 -0.5547 -0.1825
 4784SOL    HW125811   3.350   3.091  13.120  0.0054  0.7118 -1.5774
 4784SOL    HW225812   3.422   2.992  13.048 -0.4390 -0.4973 -3.5044
 4785SOL     OW25813   3.210   4.530   6.189 -0.1257 -0.0015  0.0886
 4785SOL    HW125814   3.127   4.508   6.233 -0.9289  0.1166 -1.3677
 4785SOL    HW225815   3.245   4.441   6.186 -0.1865 -0.0099 -0.4186
 4786SOL     OW25816   2.016   4.360   6.083 -0.1174 -0.0559 -0.6945
 4786SOL    HW125817   2.106   4.368   6.114  0.1112  1.2316 -1.7077
 4786SOL    HW225818   1.991   4.298   6.151  0.8865 -1.1212 -1.2896
 4787SOL     OW25819   3.273   4.448   2.601 -0.5338  0.1088  0.5543
 4787SOL    HW125820   3.326   4.378   2.564  0.2458  1.9798 -1.8985
 4787SOL    HW225821   3.217   4.400   2.663  1.6111 -4.0661 -0.7882
 4788SOL     OW25822   0.894   1.089   8.987 -0.0657  0.4389 -0.0202
 4788SOL    HW125823   0.835   1.159   8.958  1.1923  1.9876  1.1804
 4788SOL    HW225824   0.960   1.137   9.036  0.8973 -0.1919 -0.6970
 4789SOL     OW25825   3.606   0.225  14.431  0.1812 -1.0303  0.7172
 4789SOL    HW125826   3.541   0.218  14.501 -0.1381  4.4640  0.9906
 4789SOL    HW225827   3.661   0.148  14.441 -0.5132 -1.3054  2.3514
 4790SOL     OW25828   0.850   3.110   2.829 -0.1494  0.0072 -0.2583
 4790SOL    HW125829   0.796   3.186   2.852 -0.8576 -1.1309  1.8014
 4790SOL    HW225830   0.936   3.151   2.824  0.4478 -1.0832  1.3782
 4791SOL     OW25831   0.916   1.135   7.389  0.4271  0.3971 -0.0603
 4791SOL    HW125832   0.853   1.102   7.453 -0.1861  3.0123  0.7103
 4791SOL    HW225833   0.932   1.058   7.336 -0.7241 -0.6954  1.1943
 4792SOL     OW25834   0.814   2.944   7.457 -0.6602  0.8007 -0.2394
 4792SOL    HW125835   0.838   3.035   7.474 -0.3786  1.0307 -1.9013
 4792SOL    HW225836   0.732   2.954   7.409  0.6644  2.6903 -2.1215
 4793SOL     OW25837   0.846   1.840   2.588 -0.1041  0.0299  0.0307
 4793SOL    HW125838   0.864   1.747   2.573 -2.7210 -0.7473  1.7619
 4793SOL    HW225839   0.928   1.883   2.613  1.2926 -0.6834 -3.3394
 4794SOL     OW25840   3.310   1.852   7.539  0.1558 -0.3039  0.1522
 4794SOL    HW125841   3.262   1.890   7.466  2.2929  0.0427 -1.0746
 4794SOL    HW225842   3.260   1.770   7.546  0.7113 -0.7584 -1.1959
 4795SOL     OW25843   1.730   1.372  11.287 -0.2872 -0.3891  0.0790
 4795SOL    HW125844   1.645   1.410  11.309 -0.3365 -0.7252  0.4576
 4795SOL    HW225845   1.776   1.451  11.258  1.7131 -0.9082  1.8750
 4796SOL     OW25846   4.103   1.561   4.616 -0.3180  0.1161  0.5173
 4796SOL    HW125847   4.011   1.584   4.609 -0.6465 -0.6910  2.1032
 4796SOL    HW225848   4.155   1.641   4.622  0.9676 -0.6219 -0.5175
 4797SOL     OW25849   3.529   1.282   8.333  0.1255 -0.3579  0.2319
 4797SOL    HW125850   3.509   1.326   8.416 -1.1579  2.4717 -1.5511
 4797SOL    HW225851   3.497   1.349   8.273  0.1870 -0.2687  0.2981
 4798SOL     OW25852   3.130   2.467   2.181 -0.0161  0.2631 -0.4164
 4798SOL    HW125853   3.037   2.468   2.158  0.4132 -0.1208 -2.1810
 4798SOL    HW225854   3.119   2.511   2.264 -0.6082 -2.4209  0.9427
 4799SOL     OW25855   0.776   4.441   6.720 -0.4064  0.3725  0.6361
 4799SOL    HW125856   0.850   4.390   6.753 -0.2292  0.2621  0.0731
 4799SOL    HW225857   0.808   4.526   6.750 -1.1080  1.7481 -2.4856
 4800SOL     OW25858   4.505   3.550   2.371 -0.6313 -0.3673 -0.0280
 4800SOL    HW125859   4.539   3.525   2.285 -1.9990  0.2979 -0.7727
 4800SOL    HW225860   4.442   3.618   2.348  1.1180  1.0347 -0.6450
 4801SOL     OW25861   2.967   2.699   8.633 -0.0913 -0.4044 -0.4573
 4801SOL    HW125862   2.992   2.740   8.550 -0.8641 -0.1575 -0.5624
 4801SOL    HW225863   3.048   2.666   8.672  0.2159  0.2490 -0.5326
 4802SOL     OW25864   1.257   1.436   3.515 -0.1880 -0.5558  0.2621
 4802SOL    HW125865   1.218   1.355   3.484 -1.6231 -0.4033  1.7011
 4802SOL    HW225866   1.195   1.504   3.489 -0.2748 -0.4720  0.6940
 4803SOL     OW25867   0.292   0.453   5.945 -0.0619 -0.4377  0.1102
 4803SOL    HW125868   0.236   0.387   5.903  0.9343 -2.1873  1.4916
 4803SOL    HW225869   0.255   0.524   5.894 -1.0111 -1.8406 -1.1613
 4804SOL     OW25870   2.270   4.046  13.852 -0.4792  0.3381 -0.2860
 4804SOL    HW125871   2.239   4.135  13.833 -0.8435  1.0504  3.7249
 4804SOL    HW225872   2.248   3.993  13.776  2.1105 -0.6016 -0.4012
 4805SOL     OW25873   3.814   3.483   8.057 -0.8119  0.4038 -0.3142
 4805SOL    HW125874   3.834   3.573   8.081  0.7770 -0.6535  2.3546
 4805SOL    HW225875   3.836   3.444   8.142  0.4340 -1.0631 -1.3248
 4806SOL     OW25876   3.172   1.009   8.136  0.0964  0.4939 -0.0579
 4806SOL    HW125877   3.112   1.041   8.069  1.8850  0.1773 -1.7931
 4806SOL    HW225878   3.133   1.032   8.220 -0.1288  0.6298 -0.1987
 4807SOL     OW25879   0.946   1.056   0.245 -0.1762  0.2409 -0.4247
 4807SOL    HW125880   0.950   1.061   0.341 -0.5339  1.1977 -0.4589
 4807SOL    HW225881   1.037   1.030   0.230 -0.9036 -2.1509 -0.6191
 4808SOL     OW25882   1.268   0.003  16.948  0.2422  0.3210 -0.3781
 4808SOL    HW125883   1.240   4.717  17.039 -0.3001 -0.5133 -0.6620
 4808SOL    HW225884   1.362   4.713  16.949  0.4195  1.3158 -0.4370
 4809SOL     OW25885   1.950   1.161  11.717  0.5370  0.2354  0.1995
 4809SOL    HW125886   1.913   1.241  11.754 -0.0668 -0.8430  1.9201
 4809SOL    HW225887   1.882   1.149  11.651  0.6632 -3.5085  0.7593
 4810SOL     OW25888   1.438   2.516   6.685  0.7265  0.7895  0.1972
 4810SOL    HW125889   1.495   2.572   6.738  0.0036  0.7075  1.0604
 4810SOL    HW225890   1.356   2.558   6.710  0.3687 -1.1641  2.2556
 4811SOL     OW25891   2.365   4.221   4.903 -0.2007  0.3261  0.5249
 4811SOL    HW125892   2.379   4.148   4.842  1.0017 -1.0849  2.4867
 4811SOL    HW225893   2.444   4.271   4.885 -1.1106  0.9438 -1.8613
 4812SOL     OW25894   0.419   3.072  16.343  0.2133  0.1782 -0.1751
 4812SOL    HW125895   0.385   3.112  16.423  3.8601 -1.8090  2.3353
 4812SOL    HW225896   0.496   3.025  16.375  0.6351  1.6585  0.9968
 4813SOL     OW25897   1.790   4.076   4.246  0.8943 -0.0037  0.0481
 4813SOL    HW125898   1.879   4.051   4.219  0.0768 -0.1976 -2.4915
 4813SOL    HW225899   1.762   4.121   4.166 -0.4566  0.3603  0.7208
 4814SOL     OW25900   0.146   3.500   8.240 -0.5396  0.0582  0.5582
 4814SOL    HW125901   0.226   3.526   8.284  0.7273 -1.3635 -0.8925
 4814SOL    HW225902   0.092   3.572   8.273  0.6413  1.3261 -0.2604
 4815SOL     OW25903   3.136   0.469   2.254  0.0237 -0.1150  0.1411
 4815SOL    HW125904   3.056   0.499   2.210 -0.3262 -0.7332  0.3394
 4815SOL    HW225905   3.199   0.470   2.182  0.5974 -0.6530  0.6322
 4816SOL     OW25906   3.514   4.464   5.571  0.0766 -0.1409 -0.7368
 4816SOL    HW125907   3.518   4.489   5.479  3.8333  0.3588 -0.4159
 4816SOL    HW225908   3.421   4.474   5.591  0.0766 -1.4771 -0.0629
 4817SOL     OW25909   0.855   4.695   9.782 -0.1959  0.5292 -0.1557
 4817SOL    HW125910   0.820   4.635   9.716  1.2873 -0.6929  0.1709
 4817SOL    HW225911   0.821   0.048   9.742 -0.2184  0.8310  0.4772
 4818SOL     OW25912   3.549   2.307   6.254 -0.2467 -0.5720 -0.0407
 4818SOL    HW125913   3.476   2.257   6.290 -0.7506  0.0275 -0.2346
 4818SOL    HW225914   3.568   2.377   6.317  1.3084  0.8774 -2.0915
 4819SOL     OW25915   3.838   0.837   1.978  0.7561 -0.1087  0.2498
 4819SOL    HW125916   3.814   0.913   1.926  0.5611 -0.8602 -0.7423
 4819SOL    HW225917   3.923   0.857   2.020  1.4538 -1.4736 -0.5139
 4820SOL     OW25918   3.555   4.698   3.637 -0.3998  0.2991  0.5762
 4820SOL    HW125919   3.601   0.020   3.569 -2.2977 -0.1243 -1.0175
 4820SOL    HW225920   3.628   4.645   3.667 -0.1196  0.4828  0.2187
 4821SOL     OW25921   3.938   1.230  13.477  0.5031  0.1426  0.6086
 4821SOL    HW125922   3.844   1.213  13.484  0.8928 -1.8297  0.9718
 4821SOL    HW225923   3.968   1.140  13.483  1.2834  0.4178  0.7878
 4822SOL     OW25924   3.980   1.693  13.316 -0.0570  0.3945  0.2858
 4822SOL    HW125925   4.004   1.760  13.380  1.5438 -0.9484  1.1042
 4822SOL    HW225926   3.992   1.737  13.232  1.3613  0.3038  0.4440
 4823SOL     OW25927   2.951   1.091   5.419 -0.0113  0.1162 -0.5495
 4823SOL    HW125928   2.857   1.082   5.435  0.3987 -0.6658  1.4452
 4823SOL    HW225929   2.978   1.099   5.510 -0.5953 -0.0314 -0.3630
 4824SOL     OW25930   2.314   2.294   7.096  0.0064  0.3704 -0.3125
 4824SOL    HW125931   2.317   2.233   7.023  0.5902  0.6005 -0.4798
 4824SOL    HW225932   2.230   2.339   7.084 -0.0912  0.9947  2.7218
 4825SOL     OW25933   0.411   0.390   5.201 -0.4884 -0.5972  0.6825
 4825SOL    HW125934   0.328   0.436   5.218 -0.6399 -1.8381  3.3262
 4825SOL    HW225935   0.437   0.424   5.116 -3.4187 -0.0768 -0.0187
 4826SOL     OW25936   2.732   3.162  15.460  0.1302 -0.1403  0.6627
 4826SOL    HW125937   2.748   3.072  15.433  2.7325  0.4862  0.1420
 4826SOL    HW225938   2.793   3.186  15.530  0.2572  0.2557  0.4154
 4827SOL     OW25939   4.507   2.787   2.337  0.9118 -0.2288 -0.5109
 4827SOL    HW125940   4.601   2.799   2.328  0.7782  0.2422 -1.2730
 4827SOL    HW225941   4.464   2.865   2.302  0.3554 -0.0788  0.5001
 4828SOL     OW25942   0.700   3.746   4.315 -0.6660 -1.3949 -0.1908
 4828SOL    HW125943   0.795   3.746   4.302 -0.4612 -0.4187  1.3251
 4828SOL    HW225944   0.700   3.661   4.359 -4.0328 -1.6120 -0.5895
 4829SOL     OW25945   1.539   3.230  14.121 -0.4940 -0.0441 -0.2393
 4829SOL    HW125946   1.498   3.316  14.125 -0.7963 -0.2266  0.4249
 4829SOL    HW225947   1.482   3.176  14.175 -2.4161  2.8158  0.5893
 4830SOL     OW25948   1.372   1.149   3.732 -0.5035 -0.0874 -0.1371
 4830SOL    HW125949   1.422   1.226   3.755 -1.4576  0.3372  0.5044
 4830SOL    HW225950   1.318   1.132   3.809 -0.8063  0.4612 -0.2267
 4831SOL     OW25951   4.529   3.073   2.336  0.4704 -0.1141 -0.8840
 4831SOL    HW125952   4.525   3.064   2.431  0.1689  0.0650 -0.8800
 4831SOL    HW225953   4.587   3.149   2.325  0.5175 -0.2465 -1.5731
 4832SOL     OW25954   4.630   2.917   2.816 -0.3162  0.0858  0.0474
 4832SOL    HW125955   4.560   2.852   2.819  1.0366 -1.3414  0.9320
 4832SOL    HW225956   4.599   2.979   2.751  1.2696  0.9254  0.0897
 4833SOL     OW25957   0.222   1.064  10.892  0.4081 -0.0331 -0.5108
 4833SOL    HW125958   0.161   1.090  10.822 -0.5980  0.4113  0.5367
 4833SOL    HW225959   0.191   1.123  10.961 -2.6479 -0.5541 -1.4635
 4834SOL     OW25960   2.622   3.270  11.949  0.2013 -0.3415  0.3323
 4834SOL    HW125961   2.686   3.313  11.892  1.1647  0.2103  1.8358
 4834SOL    HW225962   2.573   3.224  11.881 -0.4712 -0.8899  1.1848
 4835SOL     OW25963   2.254   3.308   2.316 -0.0885 -0.4945 -0.1698
 4835SOL    HW125964   2.184   3.370   2.336  0.7699  0.7871 -1.1750
 4835SOL    HW225965   2.284   3.329   2.228  1.6259  1.3923  0.8655
 4836SOL     OW25966   1.721   2.343   0.463 -0.2109 -0.1745  0.2074
 4836SOL    HW125967   1.676   2.261   0.486 -0.9296  0.2694  0.3534
 4836SOL    HW225968   1.665   2.401   0.514 -2.6327 -0.4787 -2.1081
 4837SOL     OW25969   4.083   3.767   6.201  0.0516  0.0370  0.1668
 4837SOL    HW125970   4.030   3.687   6.199 -1.5111  1.0936 -1.2202
 4837SOL    HW225971   4.163   3.741   6.156 -0.7968  0.2870 -1.4793
 4838SOL     OW25972   1.722   3.899   5.622 -0.2742  0.1586  0.6873
 4838SOL    HW125973   1.707   3.978   5.674 -1.1610  0.9076 -0.7284
 4838SOL    HW225974   1.725   3.944   5.538 -0.6416 -1.9475 -0.4687
 4839SOL     OW25975   2.978   1.355  15.998 -0.2199 -0.1677 -0.0189
 4839SOL    HW125976   2.967   1.261  15.987 -1.1585  0.0741 -1.1460
 4839SOL    HW225977   2.903   1.394  15.953  0.3413 -0.0313 -0.8420
 4840SOL     OW25978   4.557   2.143   4.038 -0.4865  0.1279  0.1631
 4840SOL    HW125979   4.582   2.127   4.129 -2.8371 -0.4235  0.7148
 4840SOL    HW225980   4.609   2.078   3.990 -0.1365  1.3315 -1.0990
 4841SOL     OW25981   3.769   4.124   2.354  0.1634  0.9153  0.9715
 4841SOL    HW125982   3.849   4.074   2.337  1.0945  3.1449 -1.1544
 4841SOL    HW225983   3.709   4.051   2.370 -1.4331  1.9227 -0.4217
 4842SOL     OW25984   3.197   1.590   3.367  0.4875 -0.6526 -0.1007
 4842SOL    HW125985   3.155   1.517   3.321  1.0913 -1.3371  0.4272
 4842SOL    HW225986   3.152   1.598   3.451  1.3044  0.5993  0.2200
 4843SOL     OW25987   4.496   4.263   7.495 -0.0087  0.2152 -0.1393
 4843SOL    HW125988   4.579   4.226   7.524 -0.7697 -0.2678  1.4446
 4843SOL    HW225989   4.517   4.357   7.496  0.9033 -0.0143  2.0322
 4844SOL     OW25990   1.248   0.666   8.011  0.2822 -0.4166 -0.1704
 4844SOL    HW125991   1.245   0.669   8.107  0.6022 -2.0051 -0.1054
 4844SOL    HW225992   1.334   0.705   7.997  1.0422 -1.4242  1.6104
 4845SOL     OW25993   0.835   0.342   8.869  0.0631 -0.5008 -0.7753
 4845SOL    HW125994   0.908   0.297   8.826 -0.6119 -0.4267 -1.9815
 4845SOL    HW225995   0.800   0.270   8.922  0.6908 -1.5791 -1.8154
 4846SOL     OW25996   1.437   1.983   0.730 -0.1805 -0.0524 -0.3449
 4846SOL    HW125997   1.342   1.994   0.734 -0.0316  0.8214  0.9972
 4846SOL    HW225998   1.464   2.032   0.808 -0.9363 -0.4184  0.1469
 4847SOL     OW25999   0.260   0.784  10.891 -0.0630  0.3974 -0.0777
 4847SOL    HW126000   0.260   0.879  10.896 -1.7197  0.4403 -0.8208
 4847SOL    HW226001   0.171   0.751  10.904  0.6781 -1.5664  0.1059
 4848SOL     OW26002   2.940   1.748   2.844  0.7725 -0.0142  0.0497
 4848SOL    HW126003   2.922   1.781   2.756  0.6282 -0.3406 -0.0426
 4848SOL    HW226004   2.964   1.827   2.892  2.1312  0.5073 -1.4874
 4849SOL     OW26005   1.969   1.452  14.441 -0.3672 -0.1436 -0.4653
 4849SOL    HW126006   1.959   1.504  14.361 -0.1054 -0.3462 -0.6310
 4849SOL    HW226007   1.894   1.483  14.492  0.5018 -0.2860  0.9096
 4850SOL     OW26008   1.901   4.605   9.820  0.5309  0.3761  0.6710
 4850SOL    HW126009   1.986   4.577   9.854 -0.6944 -3.9745  0.1651
 4850SOL    HW226010   1.882   4.678   9.878 -0.4342  0.0447  0.7808
 4851SOL     OW26011   0.277   3.185   4.520  0.0797 -0.3015 -0.0051
 4851SOL    HW126012   0.304   3.123   4.453 -0.9203 -2.6036  1.7074
 4851SOL    HW226013   0.192   3.143   4.538 -0.2203 -0.2338 -1.2451
 4852SOL     OW26014   3.159   0.029   2.202 -0.3458 -0.0356 -0.3052
 4852SOL    HW126015   3.232   4.702   2.172  0.1930  0.3086  0.4187
 4852SOL    HW226016   3.126   0.071   2.122 -1.1328  2.3674  1.2883
 4853SOL     OW26017   3.129   0.148  16.602  0.2022  0.4684  0.1025
 4853SOL    HW126018   3.057   0.092  16.630  1.7341 -1.3068  0.5126
 4853SOL    HW226019   3.143   0.139  16.508 -3.0708 -2.1849 -0.1104
 4854SOL     OW26020   2.969   2.947   1.439 -0.4730  0.0740 -0.2621
 4854SOL    HW126021   3.065   2.940   1.437 -0.4924 -0.4348  0.3585
 4854SOL    HW226022   2.946   3.002   1.364  2.4845 -2.3258 -2.9616
 4855SOL     OW26023   2.154   3.999  16.461 -0.1520 -0.2149  0.0959
 4855SOL    HW126024   2.136   3.951  16.542 -1.4965  1.7494  0.9617
 4855SOL    HW226025   2.141   3.935  16.391  1.9860 -0.6082  0.0295
 4856SOL     OW26026   4.053   0.465   3.861 -0.5212 -0.2244 -0.1195
 4856SOL    HW126027   3.964   0.463   3.896  0.3390  2.1947  2.1614
 4856SOL    HW226028   4.108   0.452   3.937  0.3541 -2.4386 -1.1266
 4857SOL     OW26029   0.656   2.045   2.652 -0.3812  0.5648  0.6225
 4857SOL    HW126030   0.623   2.111   2.591  2.1602  0.5011 -0.8178
 4857SOL    HW226031   0.686   1.971   2.598  0.3807 -0.9226  3.0619
 4858SOL     OW26032   0.010   1.647   5.564 -0.0789 -0.1983  0.2754
 4858SOL    HW126033   4.693   1.562   5.552 -0.4718  0.2860 -1.6576
 4858SOL    HW226034   4.681   1.689   5.630  0.0832 -0.3222  0.4926
 4859SOL     OW26035   2.623   2.373   1.509  0.0930  0.1134 -0.4812
 4859SOL    HW126036   2.673   2.352   1.588 -0.9562  1.0689  0.4221
 4859SOL    HW226037   2.544   2.320   1.519 -0.3871  1.3877  2.4852
 4860SOL     OW26038   1.932   0.338   8.641  0.6615 -0.3473 -0.1518
 4860SOL    HW126039   2.001   0.272   8.650 -1.3467 -2.7149 -2.1053
 4860SOL    HW226040   1.865   0.289   8.595 -0.0346 -0.0536  0.5539
 4861SOL     OW26041   2.894   1.331  14.211  0.5032  0.4260  0.9115
 4861SOL    HW126042   2.898   1.381  14.293  0.7035 -0.4866  1.4560
 4861SOL    HW226043   2.921   1.402  14.153 -0.1126 -1.0480 -1.1777
 4862SOL     OW26044   4.656   2.111   5.066 -0.6975  0.8989  0.2215
 4862SOL    HW126045   4.584   2.152   5.019 -0.3147 -1.8156 -2.7370
 4862SOL    HW226046   4.632   2.018   5.071  0.2039  0.6005 -0.7936
 4863SOL     OW26047   1.058   4.084   2.246 -0.0498  0.3604 -0.1143
 4863SOL    HW126048   1.107   4.106   2.325  0.6859  1.3872 -0.8579
 4863SOL    HW226049   1.050   3.989   2.244 -0.3638  0.3884 -0.1846
 4864SOL     OW26050   3.590   1.656   8.743  0.0062  0.0915 -0.2177
 4864SOL    HW126051   3.540   1.736   8.761 -1.8066 -0.9484 -0.7089
 4864SOL    HW226052   3.642   1.650   8.824 -0.8322 -0.4277  0.2758
 4865SOL     OW26053   0.484   3.928   1.338 -0.0546  0.0126  0.4954
 4865SOL    HW126054   0.391   3.908   1.345 -0.3254  1.6167  1.6031
 4865SOL    HW226055   0.517   3.923   1.428  2.4959 -1.7492 -0.5607
 4866SOL     OW26056   2.698   1.890   6.827 -0.6172 -0.0975  0.8553
 4866SOL    HW126057   2.724   1.806   6.789  0.6182 -0.3873  2.3674
 4866SOL    HW226058   2.682   1.941   6.747 -0.2100 -0.2415  0.6778
 4867SOL     OW26059   2.828   2.068  10.425 -0.3879 -0.3996  0.3946
 4867SOL    HW126060   2.912   2.091  10.465  0.5829 -3.5383  0.1598
 4867SOL    HW226061   2.837   2.077  10.330 -0.1626  0.8116  0.5310
 4868SOL     OW26062   2.903   1.497   4.047  0.7193  0.4658 -0.6608
 4868SOL    HW126063   2.888   1.582   4.007  2.4288  1.5539  1.0586
 4868SOL    HW226064   2.961   1.447   3.990  0.7432 -1.9847  1.5142
 4869SOL     OW26065   3.438   3.322   1.431 -0.5751  0.0370  0.2764
 4869SOL    HW126066   3.353   3.319   1.473  0.3770 -1.0246  2.0965
 4869SOL    HW226067   3.412   3.292   1.344 -1.4441 -0.5135  0.7316
 4870SOL     OW26068   3.769   2.393   9.930  0.1911  0.3864 -0.1971
 4870SOL    HW126069   3.737   2.480   9.951 -0.1854 -0.4809  2.8233
 4870SOL    HW226070   3.691   2.356   9.889 -0.2250  1.6753 -0.5464
 4871SOL     OW26071   1.870   3.015   5.714 -0.3833 -0.6547  0.0904
 4871SOL    HW126072   1.789   3.040   5.760  0.1678 -1.5390  1.5462
 4871SOL    HW226073   1.935   3.077   5.747  0.7911 -1.2941 -1.0413
 4872SOL     OW26074   1.427   4.190   9.000  0.7950  0.6105  0.2331
 4872SOL    HW126075   1.485   4.119   9.027  0.1672 -1.2103 -3.2513
 4872SOL    HW226076   1.437   4.207   8.906 -0.6638 -3.0891 -0.5613
 4873SOL     OW26077   4.219   2.397   4.485 -0.8841 -0.1714  0.2583
 4873SOL    HW126078   4.246   2.406   4.393 -1.2776  1.4646  0.3153
 4873SOL    HW226079   4.197   2.303   4.486  1.2811 -0.6633  2.2618
 4874SOL     OW26080   2.745   3.660   4.017  0.4634  0.6848 -0.6313
 4874SOL    HW126081   2.655   3.676   4.045 -0.0701 -3.1527 -0.1193
 4874SOL    HW226082   2.789   3.744   4.028  1.1594  0.2997 -0.4769
 4875SOL     OW26083   3.666   2.739   7.468  0.0227 -0.1698  0.2903
 4875SOL    HW126084   3.616   2.742   7.386  0.1155  2.2770  0.3127
 4875SOL    HW226085   3.716   2.819   7.455  0.0719 -0.0311  1.3140
 4876SOL     OW26086   1.769   2.499   8.950 -0.3694  0.0161  0.4413
 4876SOL    HW126087   1.699   2.517   9.013  1.7103 -0.5474  2.9118
 4876SOL    HW226088   1.831   2.453   9.006 -2.6501 -1.7680  1.5375
 4877SOL     OW26089   3.690   1.970   6.925  0.5733  0.1746  0.4136
 4877SOL    HW126090   3.692   1.912   7.001  0.7021  0.5436  0.6871
 4877SOL    HW226091   3.721   2.054   6.958 -1.2872  0.9184  0.2849
 4878SOL     OW26092   2.291   3.709   8.708  0.1911 -0.1417  0.5382
 4878SOL    HW126093   2.376   3.668   8.689  0.4382 -0.8651  3.2083
 4878SOL    HW226094   2.245   3.722   8.625  0.0539 -0.5269  0.5552
 4879SOL     OW26095   3.415   0.321  16.299  0.3402  0.7482 -0.3241
 4879SOL    HW126096   3.429   0.336  16.206 -1.1363  2.7190 -0.2193
 4879SOL    HW226097   3.322   0.335  16.314  0.4758  2.9990 -1.5913
 4880SOL     OW26098   4.038   0.111  14.652 -0.4167 -0.2124  0.5650
 4880SOL    HW126099   4.133   0.103  14.649 -0.2384  1.1782  2.0464
 4880SOL    HW226100   4.018   0.176  14.720  2.1057  1.9787 -0.7693
 4881SOL     OW26101   4.513   3.519   7.497  0.5243 -0.5286 -0.2137
 4881SOL    HW126102   4.493   3.604   7.458 -0.8804 -0.5754  0.4033
 4881SOL    HW226103   4.606   3.511   7.479  0.6500 -2.1112  1.1698
 4882SOL     OW26104   1.426   4.350  16.592  0.3426 -0.4750 -0.2932
 4882SOL    HW126105   1.443   4.374  16.501 -1.7015  0.0780 -0.5285
 4882SOL    HW226106   1.453   4.428  16.640  0.9542 -1.5775  1.1604
 4883SOL     OW26107   2.718   0.132   3.593  0.8658 -0.1425  0.5970
 4883SOL    HW126108   2.722   0.042   3.626 -0.9661 -1.0498 -1.6236
 4883SOL    HW226109   2.699   0.123   3.499  1.0356  0.0852  0.5402
 4884SOL     OW26110   0.248   2.016   3.471 -0.1170 -0.1604  0.0056
 4884SOL    HW126111   0.198   2.018   3.389 -2.1063 -0.4119  1.1966
 4884SOL    HW226112   0.336   2.035   3.439 -0.3996  1.2279  0.0580
 4885SOL     OW26113   0.695   4.227  10.682 -0.0159 -0.2340  0.1943
 4885SOL    HW126114   0.775   4.198  10.726  0.8893  0.0664 -1.2880
 4885SOL    HW226115   0.680   4.314  10.720  0.2546 -0.6054  1.1521
 4886SOL     OW26116   1.828   0.547   5.595  0.4146  0.0394 -0.4798
 4886SOL    HW126117   1.910   0.499   5.597 -0.6252 -1.6810  0.9273
 4886SOL    HW226118   1.850   0.618   5.534  2.4587  1.6618  2.1172
 4887SOL     OW26119   3.243   2.644  15.338  0.1638 -0.8928  0.8622
 4887SOL    HW126120   3.205   2.699  15.269 -0.8598 -0.0185  2.1133
 4887SOL    HW226121   3.330   2.684  15.341 -0.8891  1.4376  0.4604
 4888SOL     OW26122   3.337   0.892   3.852 -0.4671  0.1059  0.5290
 4888SOL    HW126123   3.361   0.806   3.817 -1.5568  0.0914 -0.1703
 4888SOL    HW226124   3.243   0.883   3.869 -0.5744  0.1162 -0.0580
 4889SOL     OW26125   4.154   2.944   5.776 -0.3350  0.1301  0.0651
 4889SOL    HW126126   4.231   3.001   5.784 -1.0802  1.1575 -0.0223
 4889SOL    HW226127   4.188   2.863   5.812 -1.8964 -0.4375  0.2635
 4890SOL     OW26128   3.898   3.374   8.304  0.0853 -0.1479  0.4690
 4890SOL    HW126129   3.858   3.313   8.365  0.0712 -0.4318  0.1768
 4890SOL    HW226130   3.966   3.413   8.358  0.0017 -0.4676  0.8039
 4891SOL     OW26131   1.682   1.929   3.359  0.1751  0.2417 -0.0509
 4891SOL    HW126132   1.678   1.995   3.290  0.2248  1.4877  1.1391
 4891SOL    HW226133   1.619   1.961   3.423 -0.7121 -0.6097 -0.4860
 4892SOL     OW26134   1.024   3.465  12.298 -0.4341  0.3119 -0.0139
 4892SOL    HW126135   0.970   3.535  12.263 -0.1988  0.3262 -0.3424
 4892SOL    HW226136   0.983   3.446  12.383  2.0404 -3.9223  0.2312
 4893SOL     OW26137   3.568   4.085   3.517  0.1034  0.1785 -0.7106
 4893SOL    HW126138   3.512   4.162   3.528  0.5609  0.8757 -3.2645
 4893SOL    HW226139   3.550   4.068   3.425 -1.6681  1.1687 -0.5432
 4894SOL     OW26140   3.782   0.459   3.935 -0.1560 -0.1925 -0.7029
 4894SOL    HW126141   3.758   0.366   3.933 -0.5804 -0.0775 -0.8144
 4894SOL    HW226142   3.785   0.470   4.030 -1.6349 -0.4455 -0.6346
 4895SOL     OW26143   1.582   2.456  13.218 -0.2367 -0.1386 -0.0750
 4895SOL    HW126144   1.628   2.454  13.134 -2.3357  0.9963 -1.2582
 4895SOL    HW226145   1.532   2.374  13.211  0.6363 -0.8316  1.8851
 4896SOL     OW26146   3.008   3.182   8.837  0.0349  0.1580  0.2487
 4896SOL    HW126147   2.955   3.168   8.916  0.3062  2.4455  0.8293
 4896SOL    HW226148   3.033   3.274   8.833 -1.6966  0.6667  1.2630
 4897SOL     OW26149   0.059   4.001   5.196  0.8033 -0.0005 -0.0418
 4897SOL    HW126150   0.013   3.936   5.248  1.2582 -1.5826 -1.5957
 4897SOL    HW226151   4.721   4.046   5.142  0.4745  0.7847  1.0034
 4898SOL     OW26152   1.333   4.365   6.479  0.0953  0.1935  0.0808
 4898SOL    HW126153   1.240   4.366   6.454 -0.1946  0.9361  1.2352
 4898SOL    HW226154   1.348   4.272   6.498 -0.9172 -0.7786 -3.7658
 4899SOL     OW26155   2.925   0.139   6.905 -0.1017 -0.3274 -0.2960
 4899SOL    HW126156   2.847   0.176   6.947 -0.5439  0.3914 -1.7558
 4899SOL    HW226157   3.004   0.181   6.939 -0.8977  0.5671  0.4578
 4900SOL     OW26158   0.639   0.219   9.357 -0.5785  0.5674 -0.0879
 4900SOL    HW126159   0.671   0.284   9.295 -0.3318  1.1998  0.6965
 4900SOL    HW226160   0.686   0.139   9.336 -0.6661  0.3988  0.3457
 4901SOL     OW26161   1.908   1.397  13.956  0.1899  0.4348 -0.6070
 4901SOL    HW126162   1.827   1.367  13.998  0.3512 -0.5663 -1.0021
 4901SOL    HW226163   1.959   1.438  14.025 -0.7817  0.8312 -0.1338
 4902SOL     OW26164   4.589   3.784  15.793  0.1383 -0.6352  0.6325
 4902SOL    HW126165   4.631   3.775  15.879  0.0662 -0.5909  0.6720
 4902SOL    HW226166   4.654   3.839  15.749 -0.8401 -0.2447 -0.3217
 4903SOL     OW26167   2.764   1.329   6.876 -0.1467 -1.0234 -0.0627
 4903SOL    HW126168   2.718   1.269   6.818  1.7256  0.5282 -3.1647
 4903SOL    HW226169   2.792   1.400   6.818 -1.5279 -0.5308 -0.1161
 4904SOL     OW26170   2.368   3.395  16.265 -0.2479 -0.2129  0.1572
 4904SOL    HW126171   2.288   3.415  16.216  1.6223  1.1726 -2.3041
 4904SOL    HW226172   2.420   3.354  16.197 -0.3899  0.2155 -0.2050
 4905SOL     OW26173   1.013   0.946   4.524  0.0310  0.0850 -0.1075
 4905SOL    HW126174   0.942   0.881   4.520  0.2921 -0.2754  0.9932
 4905SOL    HW226175   1.096   0.900   4.515  0.5569  1.0496 -0.1689
 4906SOL     OW26176   1.290   3.957   7.932 -0.5931  0.2024 -0.2109
 4906SOL    HW126177   1.357   4.001   7.880 -0.7770 -1.6420 -1.9949
 4906SOL    HW226178   1.215   4.017   7.925  1.3162  2.5306 -0.5801
 4907SOL     OW26179   4.105   4.210  14.754 -0.1947 -0.0830  0.9508
 4907SOL    HW126180   4.057   4.281  14.796 -1.4065  0.0143 -0.6020
 4907SOL    HW226181   4.173   4.195  14.819  1.7238 -0.0198 -1.0378
 4908SOL     OW26182   1.862   2.730   6.004  0.6871  0.5218  0.0463
 4908SOL    HW126183   1.944   2.746   6.051  0.7820  1.0235 -0.2924
 4908SOL    HW226184   1.902   2.730   5.917  0.3573  1.4508 -0.1105
 4909SOL     OW26185   2.979   1.689  10.103 -0.0592 -0.3714 -0.6182
 4909SOL    HW126186   2.907   1.674  10.164 -0.3892 -2.2427 -1.4751
 4909SOL    HW226187   2.991   1.597  10.078  3.0335 -0.3060  0.5619
 4910SOL     OW26188   3.336   2.197   6.356  0.0021 -0.4797  0.0081
 4910SOL    HW126189   3.270   2.171   6.420  0.0528 -0.9368 -0.1301
 4910SOL    HW226190   3.285   2.213   6.277  0.2035 -2.3077 -0.4757
 4911SOL     OW26191   2.057   2.874   1.265  0.4027  0.0214  0.2147
 4911SOL    HW126192   2.084   2.862   1.356  1.5951  2.9203  0.2404
 4911SOL    HW226193   2.144   2.892   1.230  0.0306  3.3864  1.0003
 4912SOL     OW26194   1.167   2.667   6.791  0.0008  0.0518  0.1915
 4912SOL    HW126195   1.113   2.713   6.855 -0.0363  2.0874 -1.3062
 4912SOL    HW226196   1.215   2.732   6.739  0.0100 -0.7885 -0.8465
 4913SOL     OW26197   0.749   0.767   2.617  0.1972  0.2252  0.0387
 4913SOL    HW126198   0.821   0.734   2.564  0.5523  2.0673 -0.6220
 4913SOL    HW226199   0.791   0.846   2.651  0.5845  0.4215 -0.9119
 4914SOL     OW26200   4.710   3.396   9.176 -0.3718 -0.8306  0.5370
 4914SOL    HW126201   4.628   3.410   9.129 -1.0859 -0.2009  1.9580
 4914SOL    HW226202   4.687   3.341   9.251 -0.9124 -1.1724  0.1159
 4915SOL     OW26203   4.295   0.078   3.360  0.8074 -0.0718  0.3295
 4915SOL    HW126204   4.211   0.092   3.316  1.7598  1.3536 -1.0493
 4915SOL    HW226205   4.342   0.142   3.306  0.3487 -1.8343 -2.1483
 4916SOL     OW26206   3.248   4.630   4.446  0.6068 -0.3104 -0.4723
 4916SOL    HW126207   3.257   4.708   4.392 -1.0296 -0.8394 -1.5098
 4916SOL    HW226208   3.315   4.579   4.400  0.8147 -0.0854 -0.4208
 4917SOL     OW26209   1.965   4.564   8.754 -0.3467 -0.1011  0.2695
 4917SOL    HW126210   2.036   4.563   8.817  0.5402  0.7693 -0.7144
 4917SOL    HW226211   1.900   4.507   8.797 -0.2100 -1.2854 -1.0992
 4918SOL     OW26212   1.729   4.442   8.847 -0.2278 -0.4312  0.0485
 4918SOL    HW126213   1.666   4.460   8.916 -0.8511 -3.4601  0.2487
 4918SOL    HW226214   1.752   4.350   8.855 -0.6084 -0.3946  1.6084
 4919SOL     OW26215   3.748   3.239   6.421 -0.0733  0.2711  0.5324
 4919SOL    HW126216   3.689   3.201   6.485  0.1668 -1.0799 -0.0430
 4919SOL    HW226217   3.678   3.249   6.356  1.5053 -1.6372 -1.4628
 4920SOL     OW26218   2.122   0.834   0.520  0.1458 -0.1697  0.2763
 4920SOL    HW126219   2.193   0.858   0.461  1.0511 -3.4969 -0.0213
 4920SOL    HW226220   2.060   0.904   0.499  1.7418  0.4753 -2.3230
 4921SOL     OW26221   1.956   1.099   3.898  0.1801  0.2246  0.3664
 4921SOL    HW126222   1.907   1.178   3.877  1.3421  0.6193 -0.8080
 4921SOL    HW226223   1.953   1.055   3.813  0.1635 -1.9342  1.4894
 4922SOL     OW26224   4.644   1.512  16.722  0.3933  0.5225  0.2578
 4922SOL    HW126225   4.680   1.574  16.658 -0.0116  1.0628  0.5548
 4922SOL    HW226226   4.570   1.475  16.672 -0.0780  0.8381  0.7299
 4923SOL     OW26227   1.300   1.211  15.229  0.0972 -0.5121  0.2700
 4923SOL    HW126228   1.226   1.151  15.229  0.2699 -0.7207 -0.5740
 4923SOL    HW226229   1.273   1.272  15.160 -0.0423 -1.9309 -0.9180
 4924SOL     OW26230   2.678   2.499   3.696  0.5313 -0.2685  0.9667
 4924SOL    HW126231   2.705   2.503   3.788  0.1519  0.1578  1.0612
 4924SOL    HW226232   2.674   2.404   3.682 -3.5719 -0.0435  0.7557
 4925SOL     OW26233   0.869   3.779   3.106  0.6783 -0.0490 -0.4491
 4925SOL    HW126234   0.837   3.718   3.173 -2.8633  1.9317 -0.3338
 4925SOL    HW226235   0.785   3.816   3.079  1.3168  0.7178 -1.3941
 4926SOL     OW26236   2.358   1.136   4.755  0.0535 -0.3862 -0.3164
 4926SOL    HW126237   2.342   1.044   4.737  1.9405 -0.8113  0.2257
 4926SOL    HW226238   2.412   1.166   4.682  0.9724  0.5727  0.7557
 4927SOL     OW26239   3.504   1.354   3.136  0.1046 -0.0666  0.3821
 4927SOL    HW126240   3.517   1.390   3.049 -0.5996 -0.7342  0.0054
 4927SOL    HW226241   3.527   1.422   3.199 -0.1483  1.8377 -1.5949
 4928SOL     OW26242   2.244   0.018   2.499 -0.0118  0.1446  0.5092
 4928SOL    HW126243   2.166   0.015   2.443  0.3065  2.2605 -0.0437
 4928SOL    HW226244   2.245   4.653   2.527  1.8961 -0.1414 -0.5528
 4929SOL     OW26245   4.219   4.405   7.767  0.1157 -0.1779  0.2565
 4929SOL    HW126246   4.173   4.457   7.702 -2.5583  1.1551  3.2058
 4929SOL    HW226247   4.212   4.462   7.843 -0.4553 -0.2674  0.2728
 4930SOL     OW26248   2.381   3.539   9.501  0.0985  0.3382 -0.0734
 4930SOL    HW126249   2.310   3.553   9.564  1.3379  0.0403  1.4074
 4930SOL    HW226250   2.331   3.537   9.420 -0.5915  1.4833  0.3309
 4931SOL     OW26251   3.334   4.220   7.482 -0.1708  0.0408 -0.3604
 4931SOL    HW126252   3.253   4.270   7.492 -0.6653 -0.9196  0.4345
 4931SOL    HW226253   3.342   4.203   7.576 -0.2354  2.2957  0.0490
 4932SOL     OW26254   2.730   0.642   1.857 -0.1654 -0.0220 -0.2986
 4932SOL    HW126255   2.657   0.587   1.829  1.7346 -2.4317 -0.4008
 4932SOL    HW226256   2.685   0.707   1.912  0.1062  0.0883 -0.2099
 4933SOL     OW26257   1.397   0.191   7.532 -0.5252 -0.1089 -0.0336
 4933SOL    HW126258   1.409   0.280   7.567  2.7639 -0.9874  1.0725
 4933SOL    HW226259   1.401   0.139   7.612 -2.3293 -0.5066 -0.2276
 4934SOL     OW26260   2.639   3.436  10.018  0.1424 -0.0138 -0.0402
 4934SOL    HW126261   2.717   3.470  10.063  0.6619 -0.7130 -0.4130
 4934SOL    HW226262   2.621   3.355  10.067 -2.2571  1.6799  1.9152
 4935SOL     OW26263   0.803   3.967   2.424  0.2925 -0.8290 -0.0138
 4935SOL    HW126264   0.803   3.875   2.451  0.3298 -0.5806  0.8612
 4935SOL    HW226265   0.735   4.005   2.481  0.8365  0.7464 -0.4197
 4936SOL     OW26266   4.251   0.315   9.826  0.4732 -0.0120  0.0641
 4936SOL    HW126267   4.255   0.231   9.872 -1.0529  1.0736  2.2014
 4936SOL    HW226268   4.329   0.367   9.845 -0.8765  1.2336  2.1850
 4937SOL     OW26269   1.066   0.680   4.263  0.4758  0.0340 -0.0693
 4937SOL    HW126270   1.067   0.590   4.296 -0.9882  0.4827  1.2012
 4937SOL    HW226271   1.104   0.726   4.338 -0.9340  0.6720  0.2527
 4938SOL     OW26272   3.564   1.723  10.954  0.4193  0.3474 -0.2290
 4938SOL    HW126273   3.601   1.703  10.868 -0.0913 -1.6404  0.0113
 4938SOL    HW226274   3.470   1.719  10.938  0.0522  0.3384  1.9380
 4939SOL     OW26275   1.063   2.338   6.413 -0.0870 -0.0534  0.2197
 4939SOL    HW126276   1.043   2.401   6.482  0.9260 -1.5752  1.9162
 4939SOL    HW226277   1.086   2.263   6.469 -1.8243 -0.5157  0.3200
 4940SOL     OW26278   0.714   4.445   5.248 -0.0624  0.2237  0.1599
 4940SOL    HW126279   0.749   4.510   5.187  0.5550  0.2082  0.4901
 4940SOL    HW226280   0.771   4.460   5.324  0.2150  0.8285 -0.1720
 4941SOL     OW26281   3.772   0.212   4.529  0.0895 -0.6924  0.5957
 4941SOL    HW126282   3.771   0.306   4.510 -0.3958 -1.3914 -2.7826
 4941SOL    HW226283   3.678   0.198   4.515 -0.2160  0.7321  1.1587
 4942SOL     OW26284   4.210   4.334   6.487  0.1435 -0.8615 -0.1744
 4942SOL    HW126285   4.139   4.313   6.426 -0.0590  2.6018 -1.1391
 4942SOL    HW226286   4.227   4.249   6.527  1.0721 -0.8912 -0.6307
 4943SOL     OW26287   4.220   0.350   7.184  0.6970 -0.6172  0.0396
 4943SOL    HW126288   4.301   0.315   7.221  0.6638  0.5329  1.2051
 4943SOL    HW226289   4.203   0.423   7.244  0.7117  0.9831 -1.8841
 4944SOL     OW26290   1.169   3.696   7.131 -0.3576  0.3979  0.1195
 4944SOL    HW126291   1.250   3.723   7.175 -0.1133 -1.0737  0.5701
 4944SOL    HW226292   1.126   3.631   7.187  0.2402 -0.2677 -0.1918
 4945SOL     OW26293   0.846   2.454   9.255 -0.0646  0.6288 -0.0878
 4945SOL    HW126294   0.900   2.375   9.247 -1.3737 -0.4749  1.8178
 4945SOL    HW226295   0.877   2.485   9.340  0.3573 -1.4084  0.5013
 4946SOL     OW26296   4.638   2.774  10.815 -0.2153  0.1289  0.1000
 4946SOL    HW126297   4.676   2.802  10.899  1.3517 -1.9835  0.0850
 4946SOL    HW226298   4.555   2.822  10.818 -0.2455  0.0535  0.4419
 4947SOL     OW26299   4.375   3.593   6.310  0.4043  0.2629  0.4332
 4947SOL    HW126300   4.327   3.595   6.228 -0.0076 -0.1795  0.6597
 4947SOL    HW226301   4.312   3.551   6.370 -0.9574  0.5075 -0.8244
 4948SOL     OW26302   3.672   2.994   3.711 -0.6929  0.4001  0.1783
 4948SOL    HW126303   3.759   3.023   3.683 -0.7994 -0.2210 -0.8104
 4948SOL    HW226304   3.614   3.069   3.700 -1.0704 -0.2987 -2.5394
 4949SOL     OW26305   3.696   3.528   6.707  0.1797  0.3808  0.5931
 4949SOL    HW126306   3.630   3.465   6.676 -1.0429  0.8447  2.2795
 4949SOL    HW226307   3.765   3.464   6.723 -0.7650 -1.1386 -1.3573
 4950SOL     OW26308   2.958   0.200   6.173  0.0768 -0.3997 -0.0562
 4950SOL    HW126309   3.050   0.205   6.148  0.1456 -1.0079  0.0719
 4950SOL    HW226310   2.942   0.109   6.147  1.4655  0.2529 -3.1655
 4951SOL     OW26311   4.515   3.090  11.953 -0.5403  0.5190  0.2011
 4951SOL    HW126312   4.509   3.159  12.018  2.4967  1.6779 -0.7291
 4951SOL    HW226313   4.553   3.016  12.000 -0.6065 -0.6626 -1.6019
 4952SOL     OW26314   4.646   1.311   5.955  0.0230 -0.3698 -0.3913
 4952SOL    HW126315   4.568   1.260   5.978 -0.5649 -0.0233 -1.6182
 4952SOL    HW226316   4.613   1.361   5.880  0.2025 -1.6162 -1.2940
 4953SOL     OW26317   3.083   3.658   4.537 -0.0749 -0.0254  0.4113
 4953SOL    HW126318   3.132   3.740   4.532 -1.7175  0.9843  0.9463
 4953SOL    HW226319   3.130   3.630   4.615  1.3773  0.6879 -0.1938
 4954SOL     OW26320   4.402   3.936   7.529  0.1290 -0.0491 -0.5016
 4954SOL    HW126321   4.471   3.998   7.554 -0.8411  0.7907  0.0827
 4954SOL    HW226322   4.367   3.980   7.452  1.4636 -0.0619 -1.1224
 4955SOL     OW26323   1.275   1.852   6.970  0.4822  0.6293  0.0898
 4955SOL    HW126324   1.343   1.917   6.987 -1.0500  2.0154  1.0237
 4955SOL    HW226325   1.255   1.878   6.880 -3.0986  1.4459  1.0893
 4956SOL     OW26326   1.553   3.857   6.260  0.0398 -0.1100 -0.0807
 4956SOL    HW126327   1.519   3.811   6.337  1.3090 -2.6494 -1.0372
 4956SOL    HW226328   1.609   3.784   6.234 -0.0505 -0.5958  1.0512
 4957SOL     OW26329   4.675   1.576   3.829 -0.1748  0.3651  0.5022
 4957SOL    HW126330   0.020   1.639   3.842  0.0339  0.3186 -0.3970
 4957SOL    HW226331   4.655   1.577   3.735  1.1919 -2.2943  0.1862
 4958SOL     OW26332   4.570   2.762   8.603 -0.3935  0.3280 -0.7532
 4958SOL    HW126333   4.656   2.785   8.638 -1.5785  0.1038  2.2899
 4958SOL    HW226334   4.557   2.669   8.620 -0.3419  0.2138 -1.3226
 4959SOL     OW26335   3.249   2.692   3.620  0.3201 -0.4296 -0.2307
 4959SOL    HW126336   3.337   2.723   3.597 -0.0723  1.0000  0.2302
 4959SOL    HW226337   3.258   2.598   3.602  0.5350 -0.4607  0.0413
 4960SOL     OW26338   3.302   0.260   2.913 -0.5418  0.5255 -0.3330
 4960SOL    HW126339   3.321   0.306   2.995  1.0620  0.7225 -0.8087
 4960SOL    HW226340   3.215   0.221   2.920 -0.9419  1.9386  2.6884
 4961SOL     OW26341   0.952   3.027   7.126 -0.6522 -0.0559 -0.0198
 4961SOL    HW126342   0.993   3.113   7.139 -1.9803  0.8023 -1.3702
 4961SOL    HW226343   0.859   3.045   7.143 -0.0926  1.1152  1.7231
 4962SOL     OW26344   2.484   3.939   3.223 -0.0373  0.2747  0.6039
 4962SOL    HW126345   2.449   3.962   3.309 -0.6298  0.0671  0.4173
 4962SOL    HW226346   2.456   3.848   3.234  2.9882 -0.7665 -0.4551
 4963SOL     OW26347   2.639   2.129   8.271  0.3491 -0.2265 -0.2326
 4963SOL    HW126348   2.642   2.145   8.177  0.8212 -1.6663 -0.4570
 4963SOL    HW226349   2.554   2.162   8.301 -0.6062 -1.8528 -1.1892
 4964SOL     OW26350   3.033   3.479   1.835 -0.1782  0.3061  0.1972
 4964SOL    HW126351   2.958   3.517   1.789 -0.9545 -1.5651 -0.1024
 4964SOL    HW226352   3.101   3.493   1.769  0.0322 -0.5107  0.2368
 4965SOL     OW26353   1.911   1.778   7.366 -0.1106  0.4286 -0.3714
 4965SOL    HW126354   1.955   1.863   7.372  1.5716 -0.4536 -0.3369
 4965SOL    HW226355   1.825   1.814   7.346 -0.6458 -1.0137 -0.6930
 4966SOL     OW26356   1.971   3.124   0.957 -0.1643 -0.0164  0.2347
 4966SOL    HW126357   1.924   3.171   1.025 -0.2623 -2.8778  2.1637
 4966SOL    HW226358   2.020   3.190   0.908  0.2749  1.3285  2.4934
 4967SOL     OW26359   1.539   1.917   5.371 -0.2137  0.1379  0.1214
 4967SOL    HW126360   1.508   1.977   5.303 -0.4473  0.4237  0.4807
 4967SOL    HW226361   1.619   1.965   5.389 -0.3928 -0.0326  1.3557
 4968SOL     OW26362   1.301   3.554   8.851  0.1670 -0.0107 -0.6174
 4968SOL    HW126363   1.356   3.541   8.928 -2.5185 -2.4036  0.8603
 4968SOL    HW226364   1.303   3.463   8.821  0.1175 -0.4632  0.7542
 4969SOL     OW26365   4.194   1.640   6.947 -0.1968 -0.2255 -0.2557
 4969SOL    HW126366   4.170   1.586   6.872  0.4924  0.2031 -0.7793
 4969SOL    HW226367   4.266   1.692   6.913 -0.2197  0.0624  0.1401
 4970SOL     OW26368   2.644   2.386   6.210 -0.0753  0.0666  0.2755
 4970SOL    HW126369   2.627   2.480   6.212  2.1555  0.4117  2.7126
 4970SOL    HW226370   2.580   2.355   6.146  1.1063  0.1379 -0.9430
 4971SOL     OW26371   3.808   1.554  14.930 -0.1072 -0.0904 -0.0253
 4971SOL    HW126372   3.900   1.542  14.904 -0.2762 -0.2531 -0.5325
 4971SOL    HW226373   3.804   1.649  14.931 -1.2792 -0.1538  1.4938
 4972SOL     OW26374   0.041   0.877   8.829  0.4599  0.0718  0.1858
 4972SOL    HW126375   0.104   0.811   8.800 -1.7613 -1.7097 -0.5865
 4972SOL    HW226376   0.032   0.931   8.750 -0.4651 -0.3317  0.0107
 4973SOL     OW26377   4.097   0.717   7.563  0.2046  0.4787 -0.5397
 4973SOL    HW126378   4.113   0.689   7.473  0.2773 -0.5325 -0.2132
 4973SOL    HW226379   4.005   0.694   7.576 -0.0107  1.2646 -0.6945
 4974SOL     OW26380   2.598   4.439   5.163  0.0916  0.3234 -0.3726
 4974SOL    HW126381   2.632   4.351   5.179  0.5263  0.4706 -0.4605
 4974SOL    HW226382   2.515   4.427   5.209 -1.3568 -1.7296 -3.4944
 4975SOL     OW26383   0.074   3.973   8.694  0.1269  0.3256 -0.2148
 4975SOL    HW126384   0.169   3.971   8.699  0.0762  1.4955  1.1470
 4975SOL    HW226385   0.044   3.885   8.671  0.8903  0.0339 -0.0836
 4976SOL     OW26386   2.147   4.182  12.095 -0.1772 -0.0364 -0.6450
 4976SOL    HW126387   2.156   4.277  12.109 -0.3922  0.1730 -1.9311
 4976SOL    HW226388   2.190   4.177  12.010  4.5076 -1.1097  1.8047
 4977SOL     OW26389   1.653   0.430   1.480 -0.8726 -0.0862 -0.5905
 4977SOL    HW126390   1.735   0.469   1.510 -1.5724  0.0174  1.1434
 4977SOL    HW226391   1.605   0.503   1.440 -1.0014  0.2974  0.2751
 4978SOL     OW26392   1.110   2.896   5.744  0.1077 -0.4459 -0.1918
 4978SOL    HW126393   1.197   2.937   5.743 -0.3606  0.5640  1.5776
 4978SOL    HW226394   1.068   2.948   5.675 -0.9718 -1.3669 -0.2235
 4979SOL     OW26395   3.753   4.191   4.144  0.1433  0.3043 -0.0564
 4979SOL    HW126396   3.689   4.135   4.100 -1.0912  0.6431  1.3095
 4979SOL    HW226397   3.780   4.138   4.219  3.3099  0.3265 -1.1776
 4980SOL     OW26398   2.322   0.886   4.666 -0.0834 -0.2714 -0.4215
 4980SOL    HW126399   2.357   0.803   4.698 -0.2968  0.5175  1.8188
 4980SOL    HW226400   2.335   0.873   4.572  1.7895 -0.1036 -0.2016
 4981SOL     OW26401   1.480   4.295  10.762 -0.5089  0.0930 -0.4587
 4981SOL    HW126402   1.468   4.201  10.745  1.5444 -0.3747  0.5903
 4981SOL    HW226403   1.572   4.304  10.738 -0.6393 -1.0801 -1.3880
 4982SOL     OW26404   2.891   3.423   0.195  0.2525 -0.1447  0.0877
 4982SOL    HW126405   2.811   3.378   0.221  0.0322  0.4113  0.3724
 4982SOL    HW226406   2.862   3.499   0.144  0.9262  0.1688  0.1645
 4983SOL     OW26407   4.339   3.969   8.307 -0.0203 -0.2081 -0.4526
 4983SOL    HW126408   4.288   3.945   8.385  0.2167  1.1951  0.1409
 4983SOL    HW226409   4.284   4.037   8.267  0.9440 -0.1253 -1.6235
 4984SOL     OW26410   1.174   0.854   6.046  0.2421  0.0656 -0.1235
 4984SOL    HW126411   1.225   0.894   6.117 -2.5445 -1.5398  2.8013
 4984SOL    HW226412   1.085   0.882   6.068 -0.3110 -1.7431 -0.0917
 4985SOL     OW26413   2.273   4.528   8.885  0.0567  0.1879  0.4711
 4985SOL    HW126414   2.224   4.600   8.924  0.4322  1.4049 -1.3259
 4985SOL    HW226415   2.358   4.567   8.864  0.7596 -1.8300 -0.4872
 4986SOL     OW26416   3.028   1.813   9.843 -0.9294 -0.8551  0.4801
 4986SOL    HW126417   3.023   1.767   9.927 -0.9255  0.6916  1.3179
 4986SOL    HW226418   3.004   1.900   9.874  1.3560 -0.1903  0.3937
 4987SOL     OW26419   0.324   4.609  12.049  0.4277 -0.3599 -0.0407
 4987SOL    HW126420   0.302   4.549  12.121  1.0181  0.2475  0.6397
 4987SOL    HW226421   0.233   4.628  12.025  0.5383  1.8200  1.2690
 4988SOL     OW26422   2.882   0.556   5.545  0.1109  0.1337  0.5005
 4988SOL    HW126423   2.873   0.480   5.488 -0.1612  0.9279 -0.5041
 4988SOL    HW226424   2.937   0.612   5.490  0.4200 -1.2854 -0.6149
 4989SOL     OW26425   0.090   1.949   2.464 -0.0086  0.7404 -0.0102
 4989SOL    HW126426   0.055   1.930   2.551  1.6537  1.6320  0.8568
 4989SOL    HW226427   0.040   2.028   2.445  3.5570  2.5418 -1.9076
 4990SOL     OW26428   2.991   0.995   7.885 -0.4925  0.1394 -0.3577
 4990SOL    HW126429   3.072   1.036   7.852  0.1118 -1.3594 -0.7081
 4990SOL    HW226430   2.922   1.054   7.854  0.3340 -0.4140 -3.1838
 4991SOL     OW26431   3.921   3.068   4.561 -0.1841 -0.6077 -0.5576
 4991SOL    HW126432   3.910   3.103   4.473  0.4542  1.0304  0.0275
 4991SOL    HW226433   4.014   3.084   4.573 -0.5252  1.5328 -0.8868
 4992SOL     OW26434   0.105   3.490   7.979 -0.0282 -0.3958 -0.1369
 4992SOL    HW126435   0.143   3.507   8.066  0.0946  0.2918 -0.3247
 4992SOL    HW226436   0.017   3.526   7.984 -0.5354 -1.6589  0.0929
 4993SOL     OW26437   4.207   2.202  16.058  0.3074  0.3290 -0.2366
 4993SOL    HW126438   4.253   2.123  16.082  1.2005  0.5792 -1.1072
 4993SOL    HW226439   4.237   2.266  16.122 -1.2043  0.9321 -0.1223
 4994SOL     OW26440   3.442   2.847  15.129  0.2926 -0.1674  0.6769
 4994SOL    HW126441   3.441   2.941  15.147 -1.1011 -0.1957  0.6859
 4994SOL    HW226442   3.362   2.823  15.082  0.4838 -1.8674  1.2108
 4995SOL     OW26443   0.677   0.239   3.636 -0.0071 -0.2141  0.2206
 4995SOL    HW126444   0.631   0.166   3.594 -0.2568  1.1488 -1.8951
 4995SOL    HW226445   0.669   0.213   3.728  2.4684  1.4437  0.9038
 4996SOL     OW26446   3.195   3.911   5.057  0.0692  0.3053  0.4732
 4996SOL    HW126447   3.170   3.830   5.012  2.5650 -0.1870 -0.0647
 4996SOL    HW226448   3.219   3.970   4.986 -0.6526  0.1421  0.0945
 4997SOL     OW26449   0.234   2.509  16.298  0.7635 -0.0471 -0.6792
 4997SOL    HW126450   0.288   2.474  16.227  1.1178  0.9099 -0.8788
 4997SOL    HW226451   0.223   2.427  16.346 -1.0724  0.1682 -0.7477
 4998SOL     OW26452   2.198   0.749   9.277  0.0691  0.4986  0.2493
 4998SOL    HW126453   2.139   0.760   9.202  1.9269 -0.8009 -1.4140
 4998SOL    HW226454   2.225   0.657   9.279 -0.3421  0.3475 -1.0850
 4999SOL     OW26455   1.985   3.786  14.108 -1.0164 -0.3520  0.0800
 4999SOL    HW126456   1.960   3.827  14.190  2.1881  2.7134 -0.4828
 4999SOL    HW226457   2.078   3.802  14.090 -0.9397 -4.1140 -2.8810
 5000SOL     OW26458   1.607   4.317   6.550 -0.4458  0.4488  0.3180
 5000SOL    HW126459   1.592   4.223   6.564  0.7289  0.6807  3.2397
 5000SOL    HW226460   1.525   4.361   6.529 -0.7663 -1.9948 -3.5902
 5001SOL     OW26461   2.057   0.404  13.864 -0.6056 -0.0659 -0.5733
 5001SOL    HW126462   2.060   0.328  13.922  0.2525  0.5893  0.2425
 5001SOL    HW226463   2.147   0.436  13.863 -0.9064  0.7641 -0.4421
 5002SOL     OW26464   0.014   2.361   5.919  0.1794 -0.4220 -0.1111
 5002SOL    HW126465   4.684   2.439   5.923  0.8580  0.1562 -1.9906
 5002SOL    HW226466   4.696   2.303   5.981  0.1755  2.9752  3.0825
 5003SOL     OW26467   4.515   4.374   8.068 -0.4027  0.0311 -0.6927
 5003SOL    HW126468   4.505   4.372   8.163  0.0661 -0.2173 -0.6495
 5003SOL    HW226469   4.426   4.342   8.049 -1.2628  1.3154  1.1497
 5004SOL     OW26470   0.455   2.398   3.828  0.8057  0.6502  0.1714
 5004SOL    HW126471   0.499   2.432   3.750 -0.6118 -1.3307 -1.4782
 5004SOL    HW226472   0.376   2.361   3.790  0.5778  2.4961 -1.1579
 5005SOL     OW26473   4.315   3.539   1.745 -0.1150  0.6403  1.0058
 5005SOL    HW126474   4.322   3.446   1.725  1.6071  0.4152  2.6693
 5005SOL    HW226475   4.222   3.545   1.727  0.1498 -0.0769 -0.6232
 5006SOL     OW26476   4.534   1.022   6.935 -0.3184 -0.0824  0.0758
 5006SOL    HW126477   4.526   1.116   6.952 -0.4357 -0.3464  1.4306
 5006SOL    HW226478   4.477   1.018   6.858 -2.2164 -1.1752  1.5214
 5007SOL     OW26479   4.561   4.456   4.057  0.0177  0.0190 -0.3510
 5007SOL    HW126480   4.524   4.453   4.145  0.6628 -0.4621 -0.0891
 5007SOL    HW226481   4.574   4.550   4.051 -0.6022 -0.0218 -2.4321
 5008SOL     OW26482   3.386   4.655   2.967 -0.2061 -0.1143 -0.2333
 5008SOL    HW126483   3.341   4.702   3.038 -1.6812  1.4738 -2.2298
 5008SOL    HW226484   3.460   4.714   2.954 -0.4457  0.4600  0.9593
 5009SOL     OW26485   0.273   4.477   8.031 -0.3684  0.2933  0.0022
 5009SOL    HW126486   0.236   4.565   8.020 -2.1408 -0.4234  0.3686
 5009SOL    HW226487   0.193   4.428   8.010  1.2227 -2.4788  0.3819
 5010SOL     OW26488   1.015   1.714   6.295 -0.1576 -0.4108  0.4499
 5010SOL    HW126489   1.103   1.697   6.328  1.0252  2.2217 -1.2654
 5010SOL    HW226490   1.026   1.735   6.202  0.3247 -2.5248  0.0253
 5011SOL     OW26491   4.126   1.558  11.378  0.2808  0.1027 -0.1175
 5011SOL    HW126492   4.073   1.520  11.448 -0.2156  0.2934 -0.3818
 5011SOL    HW226493   4.204   1.503  11.380  0.7939  0.7419 -2.0758
 5012SOL     OW26494   0.779   2.322   8.053 -0.0394 -0.0843  0.4190
 5012SOL    HW126495   0.803   2.292   7.966  0.2526 -0.2541  0.5593
 5012SOL    HW226496   0.855   2.373   8.080 -0.1955  0.2519  0.2252
 5013SOL     OW26497   0.472   3.768   2.484  0.2353 -0.3607 -0.4430
 5013SOL    HW126498   0.393   3.821   2.495 -0.8089 -2.3258  1.3219
 5013SOL    HW226499   0.478   3.717   2.565  0.3440 -0.0118 -0.2286
 5014SOL     OW26500   0.103   3.265   7.003 -0.0507  0.5463 -0.4239
 5014SOL    HW126501   0.119   3.197   6.937  0.0976  0.0139  0.1670
 5014SOL    HW226502   0.144   3.333   6.950  2.1660 -0.3421  0.1850
 5015SOL     OW26503   2.856   3.287   6.435  0.0830  0.7609  0.2989
 5015SOL    HW126504   2.796   3.295   6.361 -0.7654  1.7591  1.1022
 5015SOL    HW226505   2.812   3.327   6.510  1.7213  0.4870  1.4118
 5016SOL     OW26506   4.469   1.707   7.534 -0.0181  0.1902  0.9708
 5016SOL    HW126507   4.407   1.698   7.606 -0.3445 -1.0024  0.5430
 5016SOL    HW226508   4.472   1.802   7.520 -1.1045 -0.0166 -0.7269
 5017SOL     OW26509   3.110   4.326   3.617 -0.4679  0.6423 -0.5256
 5017SOL    HW126510   3.127   4.343   3.710 -1.0912 -0.6229 -0.1874
 5017SOL    HW226511   3.042   4.259   3.617  1.8570 -1.7323 -0.4694
 5018SOL     OW26512   3.298   4.244   3.243  0.5014 -0.2892 -0.5103
 5018SOL    HW126513   3.318   4.222   3.152 -0.6223 -0.3783 -0.7376
 5018SOL    HW226514   3.234   4.315   3.230  1.2586 -0.1284 -3.3354
 5019SOL     OW26515   0.556   1.620   3.848 -0.0291  0.7279 -0.4522
 5019SOL    HW126516   0.607   1.544   3.877 -1.3818  0.2934  0.7747
 5019SOL    HW226517   0.464   1.603   3.869  0.8402 -0.4733  2.3274
 5020SOL     OW26518   2.862   3.712  11.333  0.3727 -0.1930  0.1070
 5020SOL    HW126519   2.818   3.755  11.259 -2.5275 -1.7660  0.9359
 5020SOL    HW226520   2.948   3.749  11.314 -0.2792 -0.6036 -3.7837
 5021SOL     OW26521   4.502   3.420   3.450 -0.7469 -0.3333 -0.2696
 5021SOL    HW126522   4.586   3.465   3.445  0.5041 -2.5783  0.4765
 5021SOL    HW226523   4.527   3.349   3.509  0.0657 -0.0413 -0.2556
 5022SOL     OW26524   0.363   0.167   9.393 -0.0669 -0.3198 -0.5796
 5022SOL    HW126525   0.457   0.152   9.378 -0.4586 -1.2370 -2.1759
 5022SOL    HW226526   0.370   0.204   9.481  0.8028  1.8967 -1.5713
 5023SOL     OW26527   1.624   0.078   6.376 -0.0485 -0.1957 -0.2041
 5023SOL    HW126528   1.604   4.716   6.347  0.0768  0.2224 -1.5576
 5023SOL    HW226529   1.707   0.062   6.421 -0.5622 -0.4299  0.6753
 5024SOL     OW26530   4.158   1.653  14.987 -0.3932 -0.0192 -0.2519
 5024SOL    HW126531   4.153   1.577  14.929 -0.0765  0.1722 -0.5278
 5024SOL    HW226532   4.096   1.639  15.059 -0.1673  2.2653  0.3747
 5025SOL     OW26533   3.417   2.465   2.728 -0.5439 -0.1157 -0.4579
 5025SOL    HW126534   3.367   2.541   2.756  1.1031  0.6559  0.4221
 5025SOL    HW226535   3.496   2.471   2.783 -0.3618 -0.8177 -0.6384
 5026SOL     OW26536   1.867   1.730   5.493  0.5711  0.4922 -0.0318
 5026SOL    HW126537   1.894   1.768   5.409  2.1526  0.4558  0.4524
 5026SOL    HW226538   1.865   1.643   5.453 -2.1686  1.1867 -1.3696
 5027SOL     OW26539   2.961   2.003   5.120 -0.7194 -0.5373 -0.4743
 5027SOL    HW126540   2.965   1.998   5.024 -0.6434 -1.7355 -0.4159
 5027SOL    HW226541   2.868   2.010   5.142 -0.3991 -1.0725  1.0254
 5028SOL     OW26542   1.406   3.566   2.296  0.0814  0.3352 -0.0087
 5028SOL    HW126543   1.433   3.521   2.216 -0.4676 -1.6075  0.9020
 5028SOL    HW226544   1.419   3.492   2.356  1.2029 -0.0280 -0.6937
 5029SOL     OW26545   4.326   3.071   9.980  0.8068  0.0230  0.7200
 5029SOL    HW126546   4.372   3.046  10.060 -0.1682 -4.7556 -0.2189
 5029SOL    HW226547   4.250   3.013   9.982  0.3302  0.6990  3.3047
 5030SOL     OW26548   3.507   4.166   5.361 -0.3708  0.6332 -0.1643
 5030SOL    HW126549   3.412   4.182   5.360 -0.6310 -0.8700  0.9853
 5030SOL    HW226550   3.528   4.141   5.271 -1.4110 -0.1971 -0.1769
 5031SOL     OW26551   1.205   1.056   1.575  0.7371 -0.5468 -0.7765
 5031SOL    HW126552   1.133   1.058   1.639  1.5134 -1.3185  0.1239
 5031SOL    HW226553   1.153   1.038   1.497 -0.1271  2.3615 -0.8525
 5032SOL     OW26554   2.989   1.023   1.711  0.3438 -1.2164 -0.0929
 5032SOL    HW126555   3.051   1.096   1.717  0.1681 -1.2057  1.4056
 5032SOL    HW226556   3.044   0.950   1.739 -1.1829 -1.4088  2.3964
 5033SOL     OW26557   0.305   2.062   4.736  0.3679 -0.2039  0.5830
 5033SOL    HW126558   0.263   2.014   4.664 -0.7531  0.1036  1.0304
 5033SOL    HW226559   0.382   2.009   4.759  1.1433  0.7968  0.2862
 5034SOL     OW26560   4.719   0.297   3.243  0.8035  0.4416 -0.0656
 5034SOL    HW126561   4.665   0.294   3.322  2.5885 -0.6802  1.1253
 5034SOL    HW226562   4.720   0.390   3.222 -1.6741  0.0264 -2.0366
 5035SOL     OW26563   1.901   1.182  10.335  0.2346  0.4182 -0.5285
 5035SOL    HW126564   1.808   1.202  10.322  0.1814  0.0979 -0.6312
 5035SOL    HW226565   1.908   1.227  10.419 -1.6503  1.3559 -0.8597
 5036SOL     OW26566   2.128   0.230   9.988  0.4861 -0.1907 -0.8201
 5036SOL    HW126567   2.103   0.322   9.993  0.9102 -0.1095 -0.2284
 5036SOL    HW226568   2.204   0.229  10.046 -1.3552  2.4772  1.5932
 5037SOL     OW26569   1.126   1.095   2.084 -0.6169 -0.0055  0.3616
 5037SOL    HW126570   1.075   1.166   2.045 -0.6624 -0.1761  0.1077
 5037SOL    HW226571   1.072   1.018   2.065  1.6198 -1.4313 -0.1696
 5038SOL     OW26572   2.511   2.951   4.625 -0.4688  0.1567 -0.1435
 5038SOL    HW126573   2.425   2.970   4.665 -0.7108  0.4920 -0.8214
 5038SOL    HW226574   2.548   2.906   4.701 -1.5496  1.0733  0.9438
 5039SOL     OW26575   3.308   1.355   6.916 -0.5718 -0.1755 -0.7824
 5039SOL    HW126576   3.237   1.388   6.971 -0.4398  2.5245 -2.2315
 5039SOL    HW226577   3.332   1.285   6.976 -1.3907  0.8257  0.7094
 5040SOL     OW26578   3.118   0.879   5.541 -0.3510  0.5700 -0.5599
 5040SOL    HW126579   3.141   0.827   5.617 -0.9492  1.3012  0.1190
 5040SOL    HW226580   3.028   0.904   5.560 -0.0005  0.6251  1.0077
 5041SOL     OW26581   3.893   4.178   7.158  0.6297  0.2639  0.7827
 5041SOL    HW126582   3.873   4.086   7.143  1.5393  0.1703  0.1434
 5041SOL    HW226583   3.910   4.179   7.252 -0.9822  0.4545  1.0837
 5042SOL     OW26584   1.272   2.482  11.467 -0.4197  0.0037  0.0181
 5042SOL    HW126585   1.367   2.495  11.465 -0.4077 -0.3994 -2.4979
 5042SOL    HW226586   1.277   2.391  11.493  3.1394 -0.3977 -2.0067
 5043SOL     OW26587   0.280   4.528   7.293  0.0088 -0.0545  0.1307
 5043SOL    HW126588   0.287   4.515   7.388  0.3270  0.8129  0.2327
 5043SOL    HW226589   0.328   4.611   7.285 -1.8201  0.8625 -1.2893
 5044SOL     OW26590   2.189   3.639   7.723  0.4057 -0.1579 -0.1780
 5044SOL    HW126591   2.110   3.608   7.679 -0.7402  3.6793 -0.8483
 5044SOL    HW226592   2.157   3.654   7.812  1.0637  0.3299 -0.0204
 5045SOL     OW26593   2.083   0.264   9.608 -0.5374  0.1891 -0.5111
 5045SOL    HW126594   2.125   0.198   9.663 -0.5609  0.3018 -0.3612
 5045SOL    HW226595   1.995   0.245   9.640 -0.2412  0.5170  0.4811
 5046SOL     OW26596   1.811   4.409   3.419  0.0197 -0.1918  0.0035
 5046SOL    HW126597   1.716   4.408   3.411  0.0536  1.6622 -0.5821
 5046SOL    HW226598   1.811   4.374   3.509  0.5209 -0.8322 -0.2387
 5047SOL     OW26599   3.835   3.798  12.150  0.2168  0.2447  0.0835
 5047SOL    HW126600   3.785   3.722  12.120  1.7847  0.3412 -2.7845
 5047SOL    HW226601   3.882   3.823  12.070  1.7282 -2.6649  0.0924
 5048SOL     OW26602   0.580   1.388   2.381 -0.7542  0.0839 -1.0905
 5048SOL    HW126603   0.553   1.318   2.441  0.5813  0.4713 -0.0468
 5048SOL    HW226604   0.503   1.444   2.376 -0.7773  0.0548 -1.0614
 5049SOL     OW26605   4.116   3.591   6.865  0.6703  0.2793  0.1881
 5049SOL    HW126606   4.082   3.639   6.789  1.3439  0.5440  0.0546
 5049SOL    HW226607   4.200   3.557   6.833  0.7030 -0.2891  0.8889
 5050SOL     OW26608   0.076   2.360  15.984  0.4463  0.4322 -0.2908
 5050SOL    HW126609   0.123   2.396  16.059 -3.3593  2.0262  1.3275
 5050SOL    HW226610   4.717   2.371  16.024  0.8917 -0.4485  0.9285
 5051SOL     OW26611   0.188   0.519   3.024  0.0389 -0.5750 -0.3470
 5051SOL    HW126612   0.241   0.519   2.944  2.1104  0.3770  1.0506
 5051SOL    HW226613   0.195   0.427   3.048  2.0678  0.4472  2.8574
 5052SOL     OW26614   3.720   3.404   5.309 -0.1638  0.2168 -0.5280
 5052SOL    HW126615   3.714   3.312   5.281  1.1649  0.5781 -2.0227
 5052SOL    HW226616   3.811   3.421   5.284 -0.4995  1.2719 -1.0250
 5053SOL     OW26617   0.072   4.442   5.825  0.1992 -0.4349 -0.7026
 5053SOL    HW126618   0.148   4.393   5.793 -0.9105 -1.6074 -1.5152
 5053SOL    HW226619   0.024   4.429   5.744  0.5478 -0.2477 -0.9385
 5054SOL     OW26620   3.505   3.437   6.938  0.4212  0.3295 -0.3258
 5054SOL    HW126621   3.549   3.500   6.880  0.3354 -0.5037 -1.2912
 5054SOL    HW226622   3.560   3.458   7.013  0.2860 -2.0567  0.4376
 5055SOL     OW26623   2.010   4.297  11.103 -0.5109  0.1043  0.6742
 5055SOL    HW126624   2.018   4.271  11.195  2.0249 -0.6875  0.2268
 5055SOL    HW226625   2.088   4.262  11.061 -0.7751 -0.0660  0.3244
 5056SOL     OW26626   4.702   0.432   4.829 -0.0381  0.3670  0.2143
 5056SOL    HW126627   4.618   0.386   4.823  0.6025 -0.7762 -0.1196
 5056SOL    HW226628   4.721   0.404   4.918  2.2067 -1.5205 -0.8428
 5057SOL     OW26629   2.746   4.429  14.941  1.0175 -0.3704  0.1958
 5057SOL    HW126630   2.749   4.344  14.987 -0.6340  0.2950  1.5193
 5057SOL    HW226631   2.667   4.424  14.888  1.0157 -0.6234  0.2210
 5058SOL     OW26632   1.542   1.028   7.106 -0.3712  0.3440 -0.1028
 5058SOL    HW126633   1.553   1.115   7.068  1.5273 -0.4101 -1.2939
 5058SOL    HW226634   1.558   0.971   7.030 -0.7074 -1.5882  1.2929
 5059SOL     OW26635   2.208   4.666   6.771 -0.0926  0.1534  0.6541
 5059SOL    HW126636   2.216   4.663   6.866  0.6525  3.4410  0.6855
 5059SOL    HW226637   2.295   4.665   6.731 -1.6381 -0.3438 -2.7359
 5060SOL     OW26638   0.344   0.336   8.918 -0.0724 -0.0988  0.5868
 5060SOL    HW126639   0.373   0.338   8.827  0.0682 -0.5715  0.6191
 5060SOL    HW226640   0.424   0.365   8.961  1.8071 -2.9871 -0.9318
 5061SOL     OW26641   4.468   4.261   7.043  0.0856  0.2607  0.1565
 5061SOL    HW126642   4.437   4.329   7.102 -0.9306 -0.5415  0.5443
 5061SOL    HW226643   4.404   4.255   6.971  0.6154 -2.4307 -0.0644
 5062SOL     OW26644   1.311   1.473   8.988 -0.2166 -0.0885  0.1428
 5062SOL    HW126645   1.400   1.448   9.011  0.8632  2.7817 -0.9337
 5062SOL    HW226646   1.311   1.568   8.976  1.3327  0.0368  1.1310
 5063SOL     OW26647   1.305   3.422   4.068  0.0055  0.4308  1.1440
 5063SOL    HW126648   1.323   3.513   4.045  0.9701  0.0146  0.3006
 5063SOL    HW226649   1.225   3.410   4.016  2.2529  2.3581 -2.6932
 5064SOL     OW26650   3.669   1.175  13.539 -0.7849 -0.5311  0.4637
 5064SOL    HW126651   3.585   1.218  13.527 -0.1138  0.8107  0.5948
 5064SOL    HW226652   3.642   1.083  13.540  0.5091 -0.9139  0.2611
 5065SOL     OW26653   3.157   2.041  11.711  0.1829  0.1600 -0.5547
 5065SOL    HW126654   3.186   1.964  11.759  0.2013  0.4052 -0.1747
 5065SOL    HW226655   3.147   2.000  11.625 -0.0311 -1.1059  0.0754
 5066SOL     OW26656   0.242   2.117   8.247 -0.3008  0.4137 -0.1325
 5066SOL    HW126657   0.279   2.074   8.323  0.9451  2.6959  0.5529
 5066SOL    HW226658   0.323   2.158   8.216  0.4377 -0.3163  0.8625
 5067SOL     OW26659   1.583   4.148   8.440 -0.0752 -0.4526  1.0031
 5067SOL    HW126660   1.633   4.114   8.513 -2.0716  0.2110  2.6760
 5067SOL    HW226661   1.519   4.077   8.435  0.0132 -0.6504  2.9802
 5068SOL     OW26662   4.580   3.922   5.841 -0.2138 -0.2888  0.1233
 5068SOL    HW126663   4.590   3.874   5.759 -2.5248  0.5008 -0.6246
 5068SOL    HW226664   4.541   4.001   5.803  0.8562 -0.0374 -0.4412
 5069SOL     OW26665   2.122   2.371   6.555  0.0968 -0.0130  0.3371
 5069SOL    HW126666   2.042   2.320   6.548  0.6792 -0.7668 -0.7614
 5069SOL    HW226667   2.076   2.453   6.542 -0.6240 -0.6129 -0.8406
 5070SOL     OW26668   2.462   2.142  14.659 -0.1530 -0.2348  0.1947
 5070SOL    HW126669   2.438   2.175  14.745 -2.3867  0.6360 -0.7750
 5070SOL    HW226670   2.387   2.104  14.613 -0.1154  0.0386 -0.0936
 5071SOL     OW26671   4.383   3.385  17.516 -0.0920  0.1619 -0.7662
 5071SOL    HW126672   4.341   3.437  17.448  0.3079  1.6479  0.1318
 5071SOL    HW226673   4.420   3.457  17.566  1.0703 -0.4358 -0.7823
 5072SOL     OW26674   2.563   3.005  11.161 -0.3708  0.5422 -0.0454
 5072SOL    HW126675   2.582   3.045  11.077 -0.8701  0.0802 -0.3798
 5072SOL    HW226676   2.627   2.935  11.176 -1.4507 -0.3010  0.6562
 5073SOL     OW26677   2.695   1.245   3.685  0.6455 -0.0876 -0.0070
 5073SOL    HW126678   2.696   1.334   3.650 -0.7813  0.5043  1.4485
 5073SOL    HW226679   2.775   1.220   3.638  0.9200  0.5216  0.1379
 5074SOL     OW26680   3.505   0.045   6.693  0.2231 -0.3087  0.8394
 5074SOL    HW126681   3.440   0.080   6.754 -1.5631 -3.9829  1.0768
 5074SOL    HW226682   3.506   4.682   6.725 -1.0490 -0.7916 -0.4692
 5075SOL     OW26683   2.759   3.789  10.783  0.0586  0.4051  0.0968
 5075SOL    HW126684   2.713   3.775  10.701  0.7724  3.4412 -0.8305
 5075SOL    HW226685   2.686   3.779  10.845 -0.0721  0.5676 -0.0309
 5076SOL     OW26686   0.369   3.401   8.989 -0.3613  0.3774  0.1107
 5076SOL    HW126687   0.383   3.355   9.072 -1.3589  0.4196  0.3027
 5076SOL    HW226688   0.449   3.369   8.948  0.0118 -0.0611  1.1714
 5077SOL     OW26689   1.072   1.689   7.379  0.1784 -0.3980  0.1510
 5077SOL    HW126690   1.014   1.758   7.411  0.4397  0.2827 -0.8432
 5077SOL    HW226691   1.034   1.674   7.292  0.1351  1.6843 -0.2044
 5078SOL     OW26692   3.350   0.986   4.372 -0.4654 -0.3244 -0.1142
 5078SOL    HW126693   3.411   0.927   4.328  0.4768  0.1866  0.5176
 5078SOL    HW226694   3.267   0.939   4.358 -0.3058 -1.0227  1.2923
 5079SOL     OW26695   2.621   3.472   6.204  1.2126 -0.3456 -0.2013
 5079SOL    HW126696   2.641   3.379   6.220  2.1038 -0.3736 -1.4494
 5079SOL    HW226697   2.648   3.510   6.288  0.8915  0.3066 -0.3936
 5080SOL     OW26698   0.116   3.157   8.385  0.7072 -0.5665  0.0900
 5080SOL    HW126699   0.179   3.222   8.416 -0.1432 -0.6517  2.0122
 5080SOL    HW226700   0.147   3.069   8.407  2.2668 -0.0107  0.1181
 5081SOL     OW26701   2.326   0.066   7.771 -0.0145  0.2406 -0.0412
 5081SOL    HW126702   2.374   4.714   7.796  2.0126  1.0668 -1.3305
 5081SOL    HW226703   2.295   0.098   7.855 -0.2138  1.2373 -0.4924
 5082SOL     OW26704   0.665   3.409   7.302 -0.3444 -0.3887  0.2440
 5082SOL    HW126705   0.618   3.411   7.385  0.0409  0.5804  0.4306
 5082SOL    HW226706   0.757   3.407   7.325 -0.5849 -1.0514  1.1561
 5083SOL     OW26707   3.718   1.585  12.478 -0.0332 -0.0057  0.3273
 5083SOL    HW126708   3.678   1.671  12.466 -1.6996 -0.5970  1.5582
 5083SOL    HW226709   3.651   1.529  12.438  0.3590 -0.2215 -0.0304
 5084SOL     OW26710   2.630   3.683   2.921 -0.5152  0.4546  0.7027
 5084SOL    HW126711   2.632   3.664   3.015 -0.0847  0.1919  0.6404
 5084SOL    HW226712   2.652   3.776   2.922 -1.9444  0.8046 -1.3702
 5085SOL     OW26713   2.824   1.403  10.424 -0.0180 -0.0401  0.1079
 5085SOL    HW126714   2.916   1.416  10.445  0.0893  1.6050 -1.3670
 5085SOL    HW226715   2.826   1.344  10.348  0.8046 -1.4093  1.1998
 5086SOL     OW26716   1.405   2.528   8.849 -0.2049  0.4229  0.1710
 5086SOL    HW126717   1.466   2.459   8.872 -0.0994  1.3443  2.6582
 5086SOL    HW226718   1.352   2.524   8.929 -0.2510 -1.3470  0.0484
 5087SOL     OW26719   1.696   3.633   6.190 -0.4915 -0.1448 -0.0489
 5087SOL    HW126720   1.784   3.620   6.155 -0.9110 -1.6295 -0.5789
 5087SOL    HW226721   1.676   3.553   6.238  0.6930 -0.3596  0.0952
 5088SOL     OW26722   4.106   3.191   1.247  0.8263  0.1581 -0.2979
 5088SOL    HW126723   4.155   3.238   1.314 -0.6700 -1.6127  2.0566
 5088SOL    HW226724   4.046   3.261   1.223  0.7092  1.2691  3.2115
 5089SOL     OW26725   0.608   3.639   6.348 -0.4391 -0.1857  0.1708
 5089SOL    HW126726   0.656   3.692   6.411 -0.7022 -0.1740  0.3640
 5089SOL    HW226727   0.625   3.691   6.270 -0.6538  1.0308  0.9344
 5090SOL     OW26728   3.444   3.466   0.787 -0.8096  0.5974  0.5408
 5090SOL    HW126729   3.477   3.386   0.746  0.4041  1.7856 -0.7924
 5090SOL    HW226730   3.405   3.508   0.710  1.1251 -0.7719 -1.1728
 5091SOL     OW26731   4.181   3.978   6.937  0.1456 -0.1377 -0.8173
 5091SOL    HW126732   4.089   3.954   6.930  0.2395 -1.3192  1.8203
 5091SOL    HW226733   4.169   4.067   6.968 -0.6221 -0.3642 -0.4802
 5092SOL     OW26734   2.841   0.652   3.373 -0.0325  0.2394 -0.6249
 5092SOL    HW126735   2.899   0.686   3.304  0.7763 -0.5534 -0.3374
 5092SOL    HW226736   2.766   0.710   3.361 -0.8213 -0.7184 -0.2714
 5093SOL     OW26737   4.525   0.413   7.790 -0.1984  0.6696  0.4472
 5093SOL    HW126738   4.432   0.400   7.810 -0.4568  2.3389  0.3806
 5093SOL    HW226739   4.523   0.412   7.695  2.8620 -1.0922  0.4236
 5094SOL     OW26740   4.643   3.668   6.983  0.1022 -0.2902  0.1460
 5094SOL    HW126741   4.691   3.692   6.903  1.0968 -1.6716  0.3246
 5094SOL    HW226742   4.579   3.739   6.974  1.7185  1.0528 -0.9856
 5095SOL     OW26743   0.136   2.489   2.608  0.2407  0.2674  0.8036
 5095SOL    HW126744   0.146   2.497   2.513  0.7139 -1.0646  0.7415
 5095SOL    HW226745   0.120   2.577   2.641  0.2710  1.0726 -1.3605
 5096SOL     OW26746   3.894   2.573  10.115 -0.0100  0.0934  0.1799
 5096SOL    HW126747   3.979   2.532  10.098  1.1315  2.5276 -0.0300
 5096SOL    HW226748   3.910   2.656  10.069 -2.1136  0.5703  0.3401
 5097SOL     OW26749   4.152   4.519   7.043 -0.2886  0.2024 -0.3144
 5097SOL    HW126750   4.210   4.573   6.990  1.0186 -1.0484 -0.1665
 5097SOL    HW226751   4.224   4.489   7.098  0.4552  0.9369 -0.8882
 5098SOL     OW26752   2.049   2.995   5.116 -0.4424  0.7200  0.2347
 5098SOL    HW126753   2.056   3.062   5.185 -0.5402  0.4199  0.5345
 5098SOL    HW226754   1.968   3.021   5.072 -0.4174 -0.4383 -0.4774
 5099SOL     OW26755   3.852   1.181   2.153  0.2201 -1.0313  0.3629
 5099SOL    HW126756   3.779   1.243   2.161  0.8873 -0.1611 -0.4339
 5099SOL    HW226757   3.899   1.221   2.080 -0.0306 -0.2139  0.6450
 5100SOL     OW26758   3.859   4.476   6.630  0.0519  0.1676 -0.3801
 5100SOL    HW126759   3.799   4.431   6.690  0.6684  1.0475  0.8936
 5100SOL    HW226760   3.944   4.497   6.670 -1.1719  3.0228  0.7581
 5101SOL     OW26761   1.512   4.044   2.322  0.3348  0.3174  0.7580
 5101SOL    HW126762   1.438   4.001   2.279  0.7315  1.6141 -1.2121
 5101SOL    HW226763   1.511   4.013   2.413 -1.9721 -2.9386 -0.3730
 5102SOL     OW26764   3.530   0.547  15.918 -0.5084  0.1415 -0.2336
 5102SOL    HW126765   3.581   0.610  15.868  0.7468  1.8750  3.2238
 5102SOL    HW226766   3.454   0.602  15.935 -0.4333 -0.4321  1.9540
 5103SOL     OW26767   0.982   4.650   1.543  0.8164  0.2368 -0.4782
 5103SOL    HW126768   0.978   4.722   1.479  3.0248  1.4553  0.7161
 5103SOL    HW226769   0.979   4.580   1.478 -1.9926  0.0147 -0.0736
 5104SOL     OW26770   3.802   3.345   1.816  0.3795 -0.1045  0.7425
 5104SOL    HW126771   3.801   3.434   1.851  1.7180 -0.3845  1.4803
 5104SOL    HW226772   3.836   3.301   1.894 -0.7730 -0.9458  0.7738
 5105SOL     OW26773   1.954   4.487  15.772 -0.0336 -0.6556  0.3642
 5105SOL    HW126774   1.966   4.546  15.698 -0.9027 -0.4192  0.4130
 5105SOL    HW226775   1.866   4.453  15.756 -0.5219  0.5229  0.5761
 5106SOL     OW26776   1.735   0.982   2.437 -0.4005  0.3403  0.5050
 5106SOL    HW126777   1.662   1.039   2.462 -0.0589  1.7152 -1.6602
 5106SOL    HW226778   1.814   1.026   2.467 -0.2577  0.3436  0.1333
 5107SOL     OW26779   0.287   2.613  12.926  0.3451 -0.0960 -0.0329
 5107SOL    HW126780   0.358   2.586  12.985  0.9704 -0.5414 -0.9638
 5107SOL    HW226781   0.302   2.698  12.885 -2.2460  0.2211 -0.3194
 5108SOL     OW26782   1.188   0.897   2.739  0.6983  0.3333 -0.1403
 5108SOL    HW126783   1.275   0.858   2.740  1.1505  1.2973 -1.5230
 5108SOL    HW226784   1.124   0.853   2.795  0.9686  3.2685  2.4773
 5109SOL     OW26785   3.902   4.651   7.039  0.1712 -0.8355  0.0076
 5109SOL    HW126786   3.840   4.579   7.051  1.3560 -1.6577  1.1397
 5109SOL    HW226787   3.979   4.596   7.025  0.9833 -0.1009  1.6083
 5110SOL     OW26788   2.410   0.782  12.239  0.1110  0.5972 -0.4734
 5110SOL    HW126789   2.451   0.868  12.246  1.2784  0.1229 -1.5289
 5110SOL    HW226790   2.335   0.803  12.182 -0.7088 -0.2935  0.2767
 5111SOL     OW26791   4.680   4.575   4.651 -0.0872 -0.5597 -0.0852
 5111SOL    HW126792   4.619   4.595   4.723  1.5269 -0.0111  1.1252
 5111SOL    HW226793   4.628   4.501   4.620  0.3199 -0.7335 -0.3451
 5112SOL     OW26794   2.150   1.566   0.200 -0.1259 -0.6422 -0.5097
 5112SOL    HW126795   2.204   1.549   0.122 -0.8077  0.3603 -1.1996
 5112SOL    HW226796   2.138   1.659   0.178 -1.7929 -1.1836 -1.8766
 5113SOL     OW26797   1.173   4.620   4.215  0.2461 -0.2538 -0.3762
 5113SOL    HW126798   1.193   4.625   4.309  1.6120  2.4516 -0.8135
 5113SOL    HW226799   1.159   4.528   4.192 -1.1908  0.1501 -1.1453
 5114SOL     OW26800   0.547   2.564   2.396 -0.1803  0.6039  0.0193
 5114SOL    HW126801   0.467   2.614   2.385 -1.6253 -1.5566  0.7402
 5114SOL    HW226802   0.551   2.548   2.491 -0.5680  3.9598  0.5839
 5115SOL     OW26803   4.421   2.638   5.355  0.8676 -0.7829 -0.1485
 5115SOL    HW126804   4.441   2.646   5.448 -0.3432 -0.7155  0.1049
 5115SOL    HW226805   4.415   2.543   5.346  1.6603 -0.8318 -0.1045
 5116SOL     OW26806   0.462   4.265   1.651  0.3316  0.0749  0.4015
 5116SOL    HW126807   0.391   4.321   1.683  0.6932  0.3828  0.6718
 5116SOL    HW226808   0.535   4.318   1.683  0.6106  0.0975 -0.2918
 5117SOL     OW26809   4.612   0.390  12.747  0.6896  0.0302  0.3734
 5117SOL    HW126810   4.532   0.427  12.784 -0.1655  0.8452 -2.2819
 5117SOL    HW226811   4.619   0.312  12.802 -0.7985  0.2569  0.8653
 5118SOL     OW26812   4.717   0.240   7.927  0.4796 -0.1119 -0.4066
 5118SOL    HW126813   4.676   0.289   7.856 -0.8344  1.3720  1.3576
 5118SOL    HW226814   4.673   0.273   8.006 -0.6188  0.2382 -1.1579
 5119SOL     OW26815   1.208   0.432  12.437 -0.3793  0.1161  0.2285
 5119SOL    HW126816   1.155   0.353  12.425 -0.1725  0.0045  0.0578
 5119SOL    HW226817   1.267   0.409  12.509 -0.1949 -2.9394 -0.8954
 5120SOL     OW26818   3.963   0.755   3.047  0.2489  0.0338  0.0366
 5120SOL    HW126819   3.921   0.796   2.971 -1.6570 -0.6457  0.7261
 5120SOL    HW226820   3.962   0.823   3.114 -1.0739  0.0031  0.0576
 5121SOL     OW26821   3.451   1.662   6.294 -0.4976 -0.5143 -0.4262
 5121SOL    HW126822   3.373   1.616   6.263 -0.5016 -0.8730  0.1324
 5121SOL    HW226823   3.424   1.672   6.385  2.8038 -2.1993  0.7478
 5122SOL     OW26824   3.753   0.482  13.043 -0.1032  0.5293  0.4130
 5122SOL    HW126825   3.806   0.522  13.112  1.3923  0.1481 -0.5215
 5122SOL    HW226826   3.822   0.460  12.980 -0.4796  2.6032 -0.7375
 5123SOL     OW26827   1.454   0.459   7.893  0.1820 -0.1671  0.0207
 5123SOL    HW126828   1.490   0.510   7.965 -0.0074 -1.1206  0.7927
 5123SOL    HW226829   1.471   0.370   7.925 -0.4586  0.4083  1.9232
 5124SOL     OW26830   1.139   0.430   2.731  0.0280 -0.5128 -0.1579
 5124SOL    HW126831   1.093   0.384   2.800  1.3800  0.2638  1.2533
 5124SOL    HW226832   1.232   0.411   2.742 -0.1670 -1.5772 -0.4134
 5125SOL     OW26833   0.274   4.082   0.514  0.4730 -0.2052 -0.0523
 5125SOL    HW126834   0.267   4.161   0.568  1.2337  0.2078 -0.5577
 5125SOL    HW226835   0.206   4.036   0.564  0.8623 -3.1791 -2.2489
 5126SOL     OW26836   1.158   1.864   1.258  0.5651 -0.2547  0.3035
 5126SOL    HW126837   1.240   1.841   1.302 -1.0427  0.2096  3.5304
 5126SOL    HW226838   1.142   1.776   1.223  1.5299 -0.9566  1.6142
 5127SOL     OW26839   0.912   2.103  12.632  0.1599  0.6027  0.0223
 5127SOL    HW126840   1.007   2.115  12.633  0.2013  0.2736  0.1401
 5127SOL    HW226841   0.891   2.119  12.724  0.2418 -2.0209  0.5060
 5128SOL     OW26842   2.507   0.799   9.182  0.0677 -0.1164 -0.0164
 5128SOL    HW126843   2.432   0.858   9.179 -0.4997 -0.8838 -0.7298
 5128SOL    HW226844   2.550   0.821   9.098 -0.1291 -0.3942 -0.1887
 5129SOL     OW26845   2.346   4.330  13.121  0.1996  0.4067  0.2051
 5129SOL    HW126846   2.424   4.364  13.165 -0.8418  1.2758  1.3655
 5129SOL    HW226847   2.371   4.331  13.029  2.0063  0.1522  0.6976
 5130SOL     OW26848   0.134   4.051   3.428 -0.4702  0.2414  0.0431
 5130SOL    HW126849   0.063   4.005   3.383 -0.5688 -0.3903  0.8427
 5130SOL    HW226850   0.132   4.134   3.380 -1.3380  0.4129  0.3817
 5131SOL     OW26851   2.972   2.133   3.609  0.2981 -0.3656 -0.1517
 5131SOL    HW126852   3.058   2.163   3.638  0.9390 -0.4982 -1.8716
 5131SOL    HW226853   2.995   2.095   3.524  1.3104 -1.1591  0.4818
 5132SOL     OW26854   4.197   2.495   7.211  0.0904  0.1978 -0.0801
 5132SOL    HW126855   4.200   2.587   7.240 -2.0055  0.1209  0.3659
 5132SOL    HW226856   4.271   2.451   7.254  0.8064  1.2942 -0.1940
 5133SOL     OW26857   4.287   2.743   1.905  0.0201  0.2526 -0.5640
 5133SOL    HW126858   4.317   2.704   1.823  0.4197 -2.6003  0.9099
 5133SOL    HW226859   4.319   2.683   1.973 -0.1142 -0.9554 -1.5756
 5134SOL     OW26860   4.144   4.092  12.619  0.2113 -0.1194 -0.1834
 5134SOL    HW126861   4.197   4.017  12.593  0.5539  0.1471 -0.2587
 5134SOL    HW226862   4.122   4.085  12.712 -0.6714 -0.2533 -0.4075
 5135SOL     OW26863   4.178   3.116   4.593  0.7988 -0.2343 -0.1554
 5135SOL    HW126864   4.226   3.061   4.531  1.6026 -0.4828  0.6810
 5135SOL    HW226865   4.251   3.139   4.650  1.1556  0.6502 -0.9623
 5136SOL     OW26866   0.749   0.301   8.304  0.2082  0.4425 -0.0876
 5136SOL    HW126867   0.831   0.264   8.272  0.8887  1.5982  0.3124
 5136SOL    HW226868   0.683   0.232   8.302 -1.2887  1.8579  0.1558
 5137SOL     OW26869   1.954   3.624   8.548  0.6415 -0.1281 -0.2388
 5137SOL    HW126870   2.011   3.554   8.581  1.5356  1.5019  1.6620
 5137SOL    HW226871   1.942   3.597   8.457 -0.4705  1.0410 -0.4337
 5138SOL     OW26872   3.487   0.408  10.827  0.2520 -0.0251 -0.1867
 5138SOL    HW126873   3.546   0.447  10.763 -1.5314  2.0648 -0.5264
 5138SOL    HW226874   3.479   0.318  10.794  0.4174 -0.0094 -0.2687
 5139SOL     OW26875   2.944   2.435   4.906 -0.3404 -0.3501  0.1127
 5139SOL    HW126876   2.964   2.382   4.829  1.1581  0.3842 -0.0132
 5139SOL    HW226877   2.944   2.525   4.872 -1.6185 -0.2063  0.4825
 5140SOL     OW26878   1.874   0.085   2.637 -0.5581  0.0776 -0.0350
 5140SOL    HW126879   1.865   0.001   2.682  0.1332  2.0170  3.6985
 5140SOL    HW226880   1.949   0.056   2.584  0.3957  0.0963  1.3074
 5141SOL     OW26881   0.651   4.222   7.880  0.5661 -0.1389 -0.0415
 5141SOL    HW126882   0.618   4.194   7.794  1.9378 -0.6419 -0.3992
 5141SOL    HW226883   0.612   4.309   7.877  1.3706  0.2345  0.5886
 5142SOL     OW26884   0.084   0.027  17.026  0.3314  0.4557 -0.4012
 5142SOL    HW126885   0.100   0.087  16.953 -0.3196 -0.0383 -0.9471
 5142SOL    HW226886   4.717   0.011  17.017  0.5900 -0.6528 -1.1212
 5143SOL     OW26887   2.416   2.392  15.331  0.2820  0.1544  0.0209
 5143SOL    HW126888   2.356   2.320  15.314 -0.6386  0.6102  1.3866
 5143SOL    HW226889   2.375   2.435  15.406 -0.9377 -0.7405 -0.1353
 5144SOL     OW26890   2.908   4.259   6.564  0.3744  0.0042  0.5416
 5144SOL    HW126891   2.868   4.341   6.535 -1.7667 -1.1701  0.1883
 5144SOL    HW226892   2.999   4.273   6.537  0.4770 -0.1732  0.7912
 5145SOL     OW26893   2.339   2.143  10.948 -0.4364  0.1887  0.0915
 5145SOL    HW126894   2.323   2.139  11.042  1.2631 -1.6898  0.2935
 5145SOL    HW226895   2.400   2.069  10.944 -1.3544 -0.6129  0.8152
 5146SOL     OW26896   1.429   2.289  13.653  0.5934  0.2674 -0.4107
 5146SOL    HW126897   1.473   2.350  13.593 -0.9051  0.9369 -0.8252
 5146SOL    HW226898   1.458   2.329  13.735  1.3226 -0.5010 -0.2895
 5147SOL     OW26899   2.728   1.263   5.276  0.5033 -0.2730 -0.1529
 5147SOL    HW126900   2.683   1.276   5.192  0.1967 -0.9464 -0.0904
 5147SOL    HW226901   2.722   1.350   5.315  0.7666 -0.6477  0.7149
 5148SOL     OW26902   3.780   1.857   2.277 -0.3343 -0.0489  0.0943
 5148SOL    HW126903   3.795   1.935   2.224 -3.5935  0.8933  0.5663
 5148SOL    HW226904   3.703   1.828   2.228 -0.6423 -0.4574  0.8310
 5149SOL     OW26905   3.805   0.311  10.057 -0.0222 -0.1335  0.4287
 5149SOL    HW126906   3.740   0.261  10.008  1.0625 -1.1740  0.0484
 5149SOL    HW226907   3.876   0.324   9.994  2.1164  3.0439  3.4960
 5150SOL     OW26908   4.517   2.085   6.788  0.1486  0.2565 -0.2782
 5150SOL    HW126909   4.560   2.126   6.864  1.3214  1.2598 -1.4926
 5150SOL    HW226910   4.600   2.061   6.747  0.1284  2.0413 -1.3803
 5151SOL     OW26911   2.514   2.978  15.651 -0.1269  0.0797  0.1700
 5151SOL    HW126912   2.532   3.055  15.598 -1.0101 -1.1361 -1.8774
 5151SOL    HW226913   2.587   2.967  15.712 -0.9157  0.8158  1.2517
 5152SOL     OW26914   3.844   2.020   8.776  0.4941 -0.4247  0.1344
 5152SOL    HW126915   3.754   2.034   8.746  0.3924  0.1120  0.7008
 5152SOL    HW226916   3.848   2.093   8.837 -1.0033  1.1850 -1.6947
 5153SOL     OW26917   3.954   4.020   0.234 -0.1423  0.3848  0.5182
 5153SOL    HW126918   3.865   3.990   0.255  1.0006 -1.6910  2.3717
 5153SOL    HW226919   3.975   4.074   0.310  0.7668 -0.9148  1.1915
 5154SOL     OW26920   0.675   1.312  11.195  0.4434  0.1059 -0.5880
 5154SOL    HW126921   0.651   1.360  11.115  1.0642 -0.1599 -0.9308
 5154SOL    HW226922   0.601   1.332  11.252  1.0349  0.1230  0.1797
 5155SOL     OW26923   1.233   0.468  10.923 -0.0845  0.1724  0.4176
 5155SOL    HW126924   1.307   0.408  10.922 -0.3729 -0.1205 -2.1667
 5155SOL    HW226925   1.156   0.415  10.903 -0.3315  0.4124  0.7217
 5156SOL     OW26926   0.647   2.107   6.044 -0.5163  0.1580  0.2646
 5156SOL    HW126927   0.727   2.060   6.069 -1.6778 -1.1663  1.5127
 5156SOL    HW226928   0.666   2.101   5.951  0.0246 -0.6396  0.4279
 5157SOL     OW26929   3.496   0.268  15.859 -0.4046 -0.1622  0.8546
 5157SOL    HW126930   3.518   0.361  15.860 -0.9995 -0.0194  0.3092
 5157SOL    HW226931   3.581   0.228  15.877 -0.5536 -0.4134  1.0048
 5158SOL     OW26932   2.699   1.625   5.941 -0.6652  0.8698 -0.3955
 5158SOL    HW126933   2.776   1.572   5.924 -1.0660  0.3325 -0.5581
 5158SOL    HW226934   2.733   1.713   5.955 -2.6033  1.5832 -0.1027
 5159SOL     OW26935   2.000   3.960   1.642 -0.4219  0.3095 -0.2642
 5159SOL    HW126936   1.935   3.914   1.696  2.3420 -2.6825  0.5829
 5159SOL    HW226937   1.975   3.938   1.552  0.8363  3.9354 -1.4685
 5160SOL     OW26938   1.171   3.819  16.058  0.2353 -0.6220  0.2730
 5160SOL    HW126939   1.153   3.773  16.140 -0.2662 -0.1798  0.4091
 5160SOL    HW226940   1.181   3.909  16.090  1.0008 -0.9826  1.0701
 5161SOL     OW26941   2.160   0.476  12.441  0.2584 -0.0142 -0.0986
 5161SOL    HW126942   2.223   0.404  12.451 -0.3364 -0.5012  0.0764
 5161SOL    HW226943   2.091   0.450  12.380  0.4509 -2.6311  0.8219
 5162SOL     OW26944   3.824   1.814   4.224  0.3501  0.1691  0.3267
 5162SOL    HW126945   3.856   1.876   4.290 -1.2665 -0.1139  1.3976
 5162SOL    HW226946   3.738   1.850   4.203  0.5074  0.6621  0.5221
 5163SOL     OW26947   3.911   0.556   2.517  0.0958 -0.5842  0.2878
 5163SOL    HW126948   3.846   0.611   2.474  0.7669 -0.7238 -0.9086
 5163SOL    HW226949   3.967   0.545   2.440 -1.1441  0.7721 -0.7976
 5164SOL     OW26950   4.389   4.210  12.283  0.2499  0.4416  0.9836
 5164SOL    HW126951   4.395   4.124  12.324 -1.2445 -0.0257  0.2331
 5164SOL    HW226952   4.324   4.254  12.339 -0.1814 -1.6178  2.1300
 5165SOL     OW26953   2.911   2.059   8.345 -0.1463 -0.2678  0.1289
 5165SOL    HW126954   2.890   1.966   8.332  1.1022 -0.4715 -0.3965
 5165SOL    HW226955   2.822   2.093   8.354 -0.2517  0.2913 -3.1775
 5166SOL     OW26956   3.777   4.555   3.709  0.1025  0.2325 -0.3060
 5166SOL    HW126957   3.766   4.514   3.624 -3.4581  1.7118 -0.5511
 5166SOL    HW226958   3.863   4.598   3.707 -0.3000  0.9773 -1.0255
 5167SOL     OW26959   3.794   3.407   3.555 -0.3709 -0.0916 -0.4939
 5167SOL    HW126960   3.767   3.453   3.634  0.5182 -0.5235  0.0644
 5167SOL    HW226961   3.786   3.470   3.483  0.4975  0.2363 -0.3076
 5168SOL     OW26962   1.902   3.904   6.310  0.0166  0.3996 -0.5764
 5168SOL    HW126963   1.903   3.855   6.227  3.6657 -1.3515  0.5001
 5168SOL    HW226964   1.847   3.859   6.373  0.4453  2.2348  1.0867
 5169SOL     OW26965   3.598   3.548   2.430  0.0410 -0.0051 -0.2662
 5169SOL    HW126966   3.621   3.474   2.373  0.1022 -0.5464  0.4625
 5169SOL    HW226967   3.664   3.613   2.405  0.5001 -0.0212  0.9267
 5170SOL     OW26968   2.489   3.864  10.113 -0.7702 -0.2772  0.3289
 5170SOL    HW126969   2.568   3.904  10.150 -1.1972  0.5092  0.3719
 5170SOL    HW226970   2.454   3.939  10.066  0.8039  1.6821  2.2866
 5171SOL     OW26971   0.633   3.791   6.107 -0.2755  0.3722 -0.6045
 5171SOL    HW126972   0.656   3.871   6.061  0.7466 -0.7423 -2.0552
 5171SOL    HW226973   0.595   3.734   6.040  2.8575 -1.5153 -0.8349
 5172SOL     OW26974   1.689   3.344  13.909 -0.1809  0.6217 -0.1906
 5172SOL    HW126975   1.659   3.297  13.987 -0.3771  1.8569  0.4916
 5172SOL    HW226976   1.611   3.396  13.889 -0.4539 -0.2608 -1.3845
 5173SOL     OW26977   4.682   3.423   5.152  0.4740 -0.7622  0.1535
 5173SOL    HW126978   4.618   3.413   5.082  0.1751 -1.9558  0.5988
 5173SOL    HW226979   4.651   3.497   5.206 -1.3606 -2.3275  1.2554
 5174SOL     OW26980   3.701   0.144   7.040  0.0794  0.3890 -0.1811
 5174SOL    HW126981   3.748   0.061   7.048  0.4946  0.5337 -1.2394
 5174SOL    HW226982   3.612   0.117   7.064  0.6763  0.5515  2.2602
 5175SOL     OW26983   3.683   2.099   8.379  0.4114  0.5867 -0.1657
 5175SOL    HW126984   3.729   2.182   8.365  1.5886  0.0747  0.6810
 5175SOL    HW226985   3.747   2.038   8.415  1.3720  2.1231  0.7289
 5176SOL     OW26986   0.273   2.974   7.183  0.2714  0.0089 -0.0959
 5176SOL    HW126987   0.190   2.983   7.228 -0.1145 -1.8656 -0.4099
 5176SOL    HW226988   0.336   2.952   7.251  1.7377  1.5933 -0.9188
 5177SOL     OW26989   1.443   2.488   4.401 -0.0718  0.3406 -0.1064
 5177SOL    HW126990   1.452   2.555   4.333  2.3237  1.7476  1.6174
 5177SOL    HW226991   1.478   2.529   4.480 -0.5956 -1.3348  0.9905
 5178SOL     OW26992   4.065   1.496  14.792  0.5095 -0.5128  0.1647
 5178SOL    HW126993   4.039   1.549  14.717  0.0654  0.3741  0.9569
 5178SOL    HW226994   4.117   1.440  14.733  0.7961 -1.9968  1.8143
 5179SOL     OW26995   2.235   1.125   7.916  0.3197  0.1293 -0.0061
 5179SOL    HW126996   2.296   1.055   7.938  0.9349  1.1351  1.4792
 5179SOL    HW226997   2.208   1.153   8.003 -0.2451 -0.2668 -0.0557
 5180SOL     OW26998   1.151   1.232   9.027  0.4046  0.5566  0.7723
 5180SOL    HW126999   1.185   1.181   9.100  2.6400 -1.3153 -1.5854
 5180SOL    HW227000   1.206   1.309   9.023 -1.2337  1.6139 -1.1711
 5181SOL     OW27001   2.768   0.757   2.396  0.0900 -0.9274 -0.0004
 5181SOL    HW127002   2.762   0.826   2.462 -1.7976  0.9181 -2.0708
 5181SOL    HW227003   2.728   0.807   2.324  0.4464  3.2525  2.7065
 5182SOL     OW27004   1.202   0.675   7.435  0.1898 -0.1943 -0.3569
 5182SOL    HW127005   1.231   0.681   7.343 -0.1125  0.6543 -0.3955
 5182SOL    HW227006   1.278   0.715   7.479 -0.2116  1.3719 -1.0752
 5183SOL     OW27007   2.855   3.540   7.892 -0.0932  0.1775  0.7275
 5183SOL    HW127008   2.902   3.460   7.917  1.5650  0.8742 -0.1695
 5183SOL    HW227009   2.857   3.518   7.799  1.2519 -1.1358  1.0609
 5184SOL     OW27010   1.924   4.206   0.023  0.3706  1.0790 -0.1622
 5184SOL    HW127011   1.926   4.253   0.106  3.4348 -1.5919  1.2871
 5184SOL    HW227012   1.938   4.114   0.043  1.1530  1.0501 -0.8211
 5185SOL     OW27013   1.881   4.365  12.473  0.3305  0.2527  0.2853
 5185SOL    HW127014   1.872   4.276  12.440 -0.4845  0.7542 -0.8461
 5185SOL    HW227015   1.887   4.343  12.566 -0.3282 -1.4569 -0.0815
 5186SOL     OW27016   3.721   4.471  10.722 -0.6457  0.3343 -0.1588
 5186SOL    HW127017   3.816   4.481  10.716 -0.6892 -0.8084 -2.8849
 5186SOL    HW227018   3.691   4.520  10.645  0.6594  0.1010 -0.8067
 5187SOL     OW27019   0.102   0.862  13.336  0.5541  0.1354  0.3168
 5187SOL    HW127020   0.108   0.956  13.323 -0.5595  0.3614  1.4447
 5187SOL    HW227021   0.112   0.863  13.432 -1.0443 -1.7559  0.5137
 5188SOL     OW27022   0.197   3.876  15.853 -0.2490 -0.7556  0.2821
 5188SOL    HW127023   0.273   3.930  15.872 -1.1984  1.7502 -2.9819
 5188SOL    HW227024   0.139   3.926  15.796  0.5675  0.3630  0.4423
 5189SOL     OW27025   2.672   3.203   6.233  0.4496 -0.8205  0.2009
 5189SOL    HW127026   2.604   3.154   6.279 -0.2365  0.0987  0.1507
 5189SOL    HW227027   2.689   3.162   6.148  0.9625 -0.8713  0.3248
 5190SOL     OW27028   1.434   3.920   8.450  0.3146  0.8391 -0.2711
 5190SOL    HW127029   1.407   3.876   8.370  1.2508 -0.1026 -0.0662
 5190SOL    HW227030   1.430   3.849   8.514 -0.1159  2.3558  1.3989
 5191SOL     OW27031   1.810   1.553   4.343  0.8774  0.7333 -0.4616
 5191SOL    HW127032   1.719   1.562   4.314  0.7246  0.2670 -0.1325
 5191SOL    HW227033   1.803   1.579   4.435  0.9701 -0.3559 -0.1480
 5192SOL     OW27034   0.466   0.850   5.764  0.9890 -0.6806  0.3766
 5192SOL    HW127035   0.382   0.890   5.788 -0.3000 -2.1394 -1.6593
 5192SOL    HW227036   0.516   0.928   5.741  1.7308 -1.1462  0.4368
 5193SOL     OW27037   3.468   0.188  10.654  0.1137  1.1545 -0.4769
 5193SOL    HW127038   3.556   0.151  10.642 -1.7971 -3.7100  0.3018
 5193SOL    HW227039   3.420   0.106  10.664  2.0239  0.1352  0.3598
 5194SOL     OW27040   0.109   0.750   2.862 -0.3727 -0.1089 -0.0527
 5194SOL    HW127041   0.100   0.661   2.897 -0.4171  0.5239  1.5422
 5194SOL    HW227042   0.202   0.775   2.859 -0.0803 -1.2380 -0.7676
 5195SOL     OW27043   4.611   4.330   0.662 -0.1757  0.2599  0.1354
 5195SOL    HW127044   4.516   4.316   0.663  0.0065 -1.0034 -0.0151
 5195SOL    HW227045   4.625   4.378   0.744  0.6160 -0.4298  0.4043
 5196SOL     OW27046   4.504   3.482   2.820 -0.3387 -0.1024 -0.0696
 5196SOL    HW127047   4.501   3.495   2.914  2.0262 -2.5641  0.3437
 5196SOL    HW227048   4.593   3.446   2.819 -0.6328 -0.7802 -1.4590
 5197SOL     OW27049   3.338   2.259   1.530  0.1999  0.6787 -0.1543
 5197SOL    HW127050   3.308   2.328   1.590 -0.4750 -0.9908  1.4207
 5197SOL    HW227051   3.432   2.270   1.546  0.1533  2.2671 -0.9320
 5198SOL     OW27052   0.825   2.299  17.589  0.2451  0.3108 -0.3662
 5198SOL    HW127053   0.831   2.204  17.576  0.4380  0.2921 -0.1434
 5198SOL    HW227054   0.786   2.292  17.677  1.1369  1.6506  0.1390
 5199SOL     OW27055   0.030   1.636   5.982  0.7319 -0.1060 -0.0959
 5199SOL    HW127056   0.048   1.557   5.931  0.0235 -0.8584  0.8202
 5199SOL    HW227057   0.080   1.622   6.062  0.0899  2.9646  0.8449
 5200SOL     OW27058   1.394   2.113  12.203 -0.2235 -0.0820 -0.2930
 5200SOL    HW127059   1.432   2.133  12.288 -0.1363 -2.4345  0.2196
 5200SOL    HW227060   1.373   2.199  12.167 -0.8660 -0.9464 -2.0360
 5201SOL     OW27061   0.345   2.099   2.347  0.1068  0.4950 -0.3014
 5201SOL    HW127062   0.270   2.084   2.289 -2.0859 -0.9694  2.9485
 5201SOL    HW227063   0.298   2.129   2.424 -0.6001  0.6508 -0.7916
 5202SOL     OW27064   1.629   3.096   4.348  0.2989  0.0640  0.5102
 5202SOL    HW127065   1.692   3.028   4.326 -1.0222 -0.3812 -1.9362
 5202SOL    HW227066   1.553   3.045   4.319  2.1995 -1.7424 -1.3413
 5203SOL     OW27067   3.801   2.957   2.283  0.1605 -0.3005 -0.2547
 5203SOL    HW127068   3.749   2.912   2.216 -0.8664  0.6847 -0.1246
 5203SOL    HW227069   3.881   2.906   2.270 -0.7514 -1.6197 -0.7047
 5204SOL     OW27070   2.977   2.406  15.348  0.1649  0.3900  0.1810
 5204SOL    HW127071   3.053   2.438  15.397 -2.2607  3.0299  2.2124
 5204SOL    HW227072   2.997   2.406  15.255  1.6081 -0.1960  0.4898
 5205SOL     OW27073   0.462   0.832   9.259 -0.2132  0.2828 -0.0306
 5205SOL    HW127074   0.515   0.908   9.236 -0.1322  0.6554  1.3689
 5205SOL    HW227075   0.498   0.768   9.197 -0.4909  1.5791 -1.5177
 5206SOL     OW27076   3.759   2.618  10.405 -0.6433 -0.0064  0.3654
 5206SOL    HW127077   3.772   2.713  10.408 -1.3233  0.1144 -0.2360
 5206SOL    HW227078   3.791   2.589  10.320 -2.7760  0.5358 -0.6262
 5207SOL     OW27079   4.493   1.651  10.155 -0.5091 -0.1495  0.5169
 5207SOL    HW127080   4.400   1.632  10.163 -0.9848  1.8172 -0.2991
 5207SOL    HW227081   4.524   1.589  10.220 -2.2341 -0.9617  0.5680
 5208SOL     OW27082   0.052   0.846   2.082 -0.6168  0.5009  0.3435
 5208SOL    HW127083   0.107   0.912   2.040  0.3170 -0.8694 -0.5728
 5208SOL    HW227084   0.115   0.813   2.146 -1.0614 -1.2186 -0.0877
 5209SOL     OW27085   0.108   3.515  12.362 -0.3178  0.1653 -0.5675
 5209SOL    HW127086   0.201   3.527  12.382 -0.8678  0.1403  1.9718
 5209SOL    HW227087   0.073   3.514  12.451  1.1472 -0.6212  0.0117
 5210SOL     OW27088   1.475   0.755   1.216  0.0583 -0.0783 -0.4435
 5210SOL    HW127089   1.488   0.850   1.208 -1.4610  0.1811  0.0734
 5210SOL    HW227090   1.501   0.736   1.126 -2.4366  0.0618 -1.2027
 5211SOL     OW27091   0.323   2.059  11.054 -0.2009  0.0403 -0.3559
 5211SOL    HW127092   0.232   2.029  11.045 -0.6037  1.6315 -1.8349
 5211SOL    HW227093   0.328   2.092  11.143  1.0608  0.6010 -0.6379
 5212SOL     OW27094   0.959   3.343   5.607 -0.1212 -0.4451  0.2332
 5212SOL    HW127095   1.026   3.402   5.642 -2.4847  3.0786 -1.1127
 5212SOL    HW227096   0.896   3.357   5.678  0.0906  1.6761 -0.0046
 5213SOL     OW27097   3.609   0.865  13.542 -0.3912  0.1958 -1.0691
 5213SOL    HW127098   3.525   0.884  13.583 -0.1113  0.1922 -0.5041
 5213SOL    HW227099   3.609   0.771  13.558  0.2943  0.5335  0.9142
 5214SOL     OW27100   2.489   1.826   7.041 -0.0479  0.1450  0.0870
 5214SOL    HW127101   2.504   1.878   7.120  3.8988  0.6304 -0.9712
 5214SOL    HW227102   2.566   1.847   6.988  0.0139  1.5927  0.7521
 5215SOL     OW27103   0.695   0.738  12.841 -0.4339  0.0399  0.5840
 5215SOL    HW127104   0.744   0.779  12.769  1.2550 -0.4595  1.4359
 5215SOL    HW227105   0.634   0.805  12.870 -1.0627 -0.3109  0.0767
 5216SOL     OW27106   3.126   0.568   0.915 -0.5993  0.1045 -1.0693
 5216SOL    HW127107   3.134   0.606   1.003  0.5712 -1.4626 -0.4905
 5216SOL    HW227108   3.217   0.559   0.886 -0.6578 -0.0616 -1.2011
 5217SOL     OW27109   0.896   0.797   3.867  1.0799 -0.0648  0.2684
 5217SOL    HW127110   0.959   0.735   3.903 -0.2517 -0.9064  1.1745
 5217SOL    HW227111   0.841   0.737   3.816  3.1463 -0.8755 -0.9919
 5218SOL     OW27112   1.155   3.831  12.472  0.8223 -0.2413  0.2697
 5218SOL    HW127113   1.208   3.789  12.539  0.9570  0.6645  0.7351
 5218SOL    HW227114   1.069   3.794  12.493 -0.5954  1.8653 -1.8427
 5219SOL     OW27115   1.135   2.328  14.062 -0.0921 -0.3162 -0.5529
 5219SOL    HW127116   1.123   2.303  13.971 -0.0512  2.1983 -1.2452
 5219SOL    HW227117   1.103   2.418  14.060  0.3086 -0.0906  2.1553
 5220SOL     OW27118   1.404   1.378   5.968 -0.3473 -0.0412 -0.0744
 5220SOL    HW127119   1.447   1.336   6.042  1.2530 -0.3536 -1.1739
 5220SOL    HW227120   1.410   1.311   5.899 -1.4574  1.7778 -1.9432
 5221SOL     OW27121   4.558   1.158  15.219 -0.1361 -0.0097  0.1099
 5221SOL    HW127122   4.529   1.164  15.128 -1.6106  3.9660  0.8264
 5221SOL    HW227123   4.652   1.171  15.206 -0.3630 -0.8796 -2.4119
 5222SOL     OW27124   4.214   1.157   7.940 -1.1601  0.1102 -0.1687
 5222SOL    HW127125   4.257   1.113   8.014  0.5430 -0.4913 -1.5298
 5222SOL    HW227126   4.135   1.103   7.928 -0.5641 -0.8305  0.0807
 5223SOL     OW27127   1.950   0.836  13.044  0.4168  0.4687 -0.2012
 5223SOL    HW127128   2.021   0.900  13.048  0.4723  0.3660  0.6016
 5223SOL    HW227129   1.879   0.887  13.005  0.2649  0.7809  0.4830
 5224SOL     OW27130   3.870   3.963   0.643  0.4417  0.4250  0.5566
 5224SOL    HW127131   3.825   3.878   0.641 -0.7806  1.1313 -1.8791
 5224SOL    HW227132   3.958   3.926   0.638  0.0056 -0.8869  2.4955
 5225SOL     OW27133   1.862   4.374   6.470 -0.4972 -0.1160 -0.3351
 5225SOL    HW127134   1.885   4.439   6.537  0.8307  0.7833 -1.6580
 5225SOL    HW227135   1.774   4.349   6.499  0.1702 -1.4226  0.5719
 5226SOL     OW27136   2.714   4.201  15.137 -0.4394  0.0009  0.5927
 5226SOL    HW127137   2.633   4.151  15.146  0.5804 -1.9022 -0.8633
 5226SOL    HW227138   2.691   4.273  15.196 -0.1158 -1.3848  2.4223
 5227SOL     OW27139   4.719   2.564   3.710 -0.2840 -0.0333  0.2144
 5227SOL    HW127140   4.719   2.580   3.616 -0.0281 -3.0426 -0.2968
 5227SOL    HW227141   4.656   2.493   3.722 -0.9161  0.2691 -1.3306
 5228SOL     OW27142   0.017   0.426   3.699 -0.3074  0.1122 -0.0269
 5228SOL    HW127143   4.719   0.483   3.771  0.7854  2.0274 -1.1459
 5228SOL    HW227144   0.088   0.375   3.738 -0.0021 -0.8930 -1.8896
 5229SOL     OW27145   2.670   4.136   8.408 -0.2330 -0.3532  0.9121
 5229SOL    HW127146   2.698   4.130   8.317 -1.0992  1.0741  0.5444
 5229SOL    HW227147   2.754   4.134   8.454  0.7283  0.5412 -0.7982
 5230SOL     OW27148   1.294   1.988   9.280  0.0270 -0.2042  0.2341
 5230SOL    HW127149   1.353   1.963   9.209  1.9421  2.1014  0.9921
 5230SOL    HW227150   1.287   2.083   9.279  0.4669 -0.1773 -0.0752
 5231SOL     OW27151   2.239   1.028   3.925 -0.2570 -0.3320  0.2971
 5231SOL    HW127152   2.167   1.091   3.931 -0.2188 -0.0992 -1.7003
 5231SOL    HW227153   2.260   1.025   3.832 -0.6969  1.1377  0.1574
 5232SOL     OW27154   3.957   1.605   7.622 -0.0972 -0.1587  0.2321
 5232SOL    HW127155   3.920   1.591   7.708 -2.7738  1.6869 -0.6132
 5232SOL    HW227156   3.932   1.696   7.604 -0.0175 -0.1518  0.1537
 5233SOL     OW27157   3.562   4.069   5.124 -0.4293 -0.1295 -0.1807
 5233SOL    HW127158   3.581   4.053   5.031  1.3287  0.6394  0.0323
 5233SOL    HW227159   3.531   3.980   5.140 -0.1977 -0.2553 -0.4376
 5234SOL     OW27160   4.655   3.782   0.052 -0.1299 -0.9637 -0.3201
 5234SOL    HW127161   4.686   3.824  17.679 -1.0090  1.8242  0.7904
 5234SOL    HW227162   4.719   3.810   0.117  0.9776 -2.2516 -0.8441
 5235SOL     OW27163   2.395   3.190  10.826  0.2700  0.0145  0.0291
 5235SOL    HW127164   2.426   3.221  10.911 -3.2502  1.0297  0.9782
 5235SOL    HW227165   2.429   3.261  10.771 -0.5881 -0.2636 -0.8790
 5236SOL     OW27166   4.446   2.357   2.706 -0.4789 -0.3584  0.0626
 5236SOL    HW127167   4.366   2.347   2.655 -0.8670  4.1036 -0.2067
 5236SOL    HW227168   4.411   2.365   2.794  0.4706  1.1458  0.3032
 5237SOL     OW27169   2.939   4.719   5.840  0.2649 -0.1503  0.1525
 5237SOL    HW127170   2.965   4.697   5.750 -1.0799 -0.8486 -0.0593
 5237SOL    HW227171   3.015   4.679   5.884  0.7261  0.2513 -0.2740
 5238SOL     OW27172   0.087   0.209   2.837 -0.0889 -0.1500 -0.2108
 5238SOL    HW127173   0.080   0.113   2.838  2.0822 -0.3139 -0.5699
 5238SOL    HW227174   0.155   0.224   2.771  1.5160  3.0876  2.1844
 5239SOL     OW27175   2.969   0.658   9.263 -0.2630  0.5357  0.1477
 5239SOL    HW127176   2.876   0.671   9.280  0.3020  1.8255  2.2028
 5239SOL    HW227177   2.982   0.592   9.331  0.6677 -0.2600 -0.8005
 5240SOL     OW27178   4.241   0.993   2.961  0.0933 -0.7784  0.7313
 5240SOL    HW127179   4.247   0.907   3.004 -1.0545 -0.3640  1.7320
 5240SOL    HW227180   4.217   0.961   2.874 -1.9947 -0.2238  1.0908
 5241SOL     OW27181   2.346   4.445   5.283  0.5108  0.3166  0.4009
 5241SOL    HW127182   2.351   4.362   5.331  0.2323  0.7971  1.2508
 5241SOL    HW227183   2.315   4.504   5.352 -1.4104 -1.1958  0.8368
 5242SOL     OW27184   1.650   0.806   6.547 -1.2993 -0.3721  0.1820
 5242SOL    HW127185   1.653   0.870   6.618  2.0877  0.2788 -0.5275
 5242SOL    HW227186   1.566   0.762   6.560 -1.3873 -0.3583 -0.3227
 5243SOL     OW27187   4.295   3.552   4.688 -0.2758  0.7965  0.0987
 5243SOL    HW127188   4.389   3.569   4.682 -0.2897  0.6304 -0.7037
 5243SOL    HW227189   4.290   3.502   4.770  0.5949  2.0160  0.8860
 5244SOL     OW27190   0.787   1.169   1.474  0.3899  0.1829 -0.4300
 5244SOL    HW127191   0.800   1.261   1.449  0.4044  1.0336  2.6606
 5244SOL    HW227192   0.790   1.121   1.392 -0.9133 -0.8683  0.1418
 5245SOL     OW27193   0.932   1.028   5.350  0.0621 -0.3606 -0.7572
 5245SOL    HW127194   0.896   0.942   5.328 -3.0087  0.3276  1.6036
 5245SOL    HW227195   0.917   1.032   5.445 -0.8630 -0.8693 -0.8827
 5246SOL     OW27196   1.538   4.227   9.298  0.4318 -0.8821 -0.3311
 5246SOL    HW127197   1.558   4.309   9.344  1.4168 -1.1366 -0.3135
 5246SOL    HW227198   1.615   4.178   9.326  0.6564 -0.4341 -0.1676
 5247SOL     OW27199   3.259   0.272   5.894  0.4778  0.0685 -0.1989
 5247SOL    HW127200   3.219   0.244   5.976  0.2345 -1.0630 -0.7128
 5247SOL    HW227201   3.316   0.199   5.871 -0.5733 -0.6929 -0.3610
 5248SOL     OW27202   2.044   2.517   9.075  0.1882 -0.2611  0.4076
 5248SOL    HW127203   2.097   2.534   9.153 -0.9355 -1.3239  1.3937
 5248SOL    HW227204   2.095   2.446   9.037 -0.4331 -0.5198  0.0461
 5249SOL     OW27205   4.140   2.058   6.102 -0.6227  0.0462  0.4384
 5249SOL    HW127206   4.113   2.139   6.146 -2.9929 -1.5379  1.8328
 5249SOL    HW227207   4.077   2.058   6.030 -1.9069 -0.5449  1.5696
 5250SOL     OW27208   4.536   0.640   1.472 -0.8279  0.0547  0.0759
 5250SOL    HW127209   4.516   0.715   1.528  0.1058 -1.0820  1.9311
 5250SOL    HW227210   4.590   0.677   1.402  0.7925  0.5487  1.5839
 5251SOL     OW27211   0.422   1.889   4.070 -0.0547  0.2593 -0.0118
 5251SOL    HW127212   0.396   1.962   4.014 -0.4273  0.4940  0.4611
 5251SOL    HW227213   0.365   1.819   4.039 -1.7642  0.8935  1.6438
 5252SOL     OW27214   3.931   0.824  15.596 -0.0719 -0.2769 -0.3595
 5252SOL    HW127215   3.844   0.839  15.557 -0.1492 -3.4070 -1.3122
 5252SOL    HW227216   3.965   0.912  15.615 -0.1949  0.0037 -1.4445
 5253SOL     OW27217   4.018   1.575   1.681 -0.1151  0.6384  0.0875
 5253SOL    HW127218   4.086   1.620   1.630  0.5002 -0.4131 -0.0254
 5253SOL    HW227219   4.068   1.557   1.761  0.1716  0.3366 -0.1572
 5254SOL     OW27220   0.432   2.091   8.452  0.0522 -0.0117 -0.5630
 5254SOL    HW127221   0.475   2.011   8.421 -0.0202 -0.3429  0.1963
 5254SOL    HW227222   0.502   2.151   8.426 -0.6978  1.5157  0.9526
 5255SOL     OW27223   2.775   1.201   2.663 -0.4776  0.3513 -0.2237
 5255SOL    HW127224   2.849   1.197   2.603 -0.2691  2.9042 -0.1482
 5255SOL    HW227225   2.731   1.276   2.624  2.0654  1.6973 -0.4590
 5256SOL     OW27226   2.644   1.002  14.884  0.2204 -0.0347 -0.6153
 5256SOL    HW127227   2.702   1.047  14.945  0.0122 -0.4899 -0.0811
 5256SOL    HW227228   2.662   1.059  14.809  1.1221  0.7823  0.2205
 5257SOL     OW27229   2.101   4.448   2.811  0.1260  0.0075 -0.4900
 5257SOL    HW127230   2.190   4.477   2.829  0.0473 -0.3359  0.4328
 5257SOL    HW227231   2.116   4.355   2.798 -0.2376 -0.1707  0.3718
 5258SOL     OW27232   0.187   3.701   3.758 -0.2688 -0.3212  0.0211
 5258SOL    HW127233   0.141   3.782   3.734  0.4452 -0.4368 -1.7646
 5258SOL    HW227234   0.115   3.645   3.730  1.1071 -2.4978  0.8349
 5259SOL     OW27235   1.823   3.101   5.003  0.6291 -0.0748 -0.2150
 5259SOL    HW127236   1.774   3.157   5.063  0.1721 -1.9671  1.2012
 5259SOL    HW227237   1.832   3.159   4.927  1.4366  0.8003  0.5438
 5260SOL     OW27238   0.822   2.522   0.609 -0.1494 -0.0254  0.2834
 5260SOL    HW127239   0.816   2.618   0.603 -2.6416 -0.1937  0.0643
 5260SOL    HW227240   0.794   2.506   0.518 -0.3296  0.0565  0.3232
 5261SOL     OW27241   1.586   0.228   2.619  0.5538  0.0415 -0.0465
 5261SOL    HW127242   1.566   0.142   2.656  0.2358 -0.2194 -0.8110
 5261SOL    HW227243   1.617   0.216   2.529  0.6139  0.5933 -0.1015
 5262SOL     OW27244   4.495   3.829   8.029  0.0912 -0.0156  0.3441
 5262SOL    HW127245   4.427   3.896   8.019 -1.3563 -1.2168  1.9775
 5262SOL    HW227246   4.498   3.820   8.124  1.2056 -1.5665  0.1539
 5263SOL     OW27247   2.455   2.758   6.993  0.2988 -0.2865 -0.1736
 5263SOL    HW127248   2.439   2.685   6.933 -0.5918  0.9579 -1.4457
 5263SOL    HW227249   2.515   2.713   7.052  0.6675  0.7729  0.2540
 5264SOL     OW27250   4.023   1.061   7.736 -0.7336 -0.3077  0.2782
 5264SOL    HW127251   3.976   1.102   7.809  0.3546 -2.0396  1.9657
 5264SOL    HW227252   3.969   0.983   7.728 -1.2349  0.2788 -1.9598
 5265SOL     OW27253   0.643   1.871   5.399 -0.4647  0.1575 -0.3108
 5265SOL    HW127254   0.733   1.902   5.382 -1.3558  3.4542  0.9594
 5265SOL    HW227255   0.661   1.783   5.432  1.9181  1.5026  2.0222
 5266SOL     OW27256   1.808   3.006   6.749 -0.5523  0.0890  0.1840
 5266SOL    HW127257   1.747   2.936   6.726  2.0238 -1.3566 -2.2357
 5266SOL    HW227258   1.829   2.983   6.840  0.9600 -0.5667 -0.3228
 5267SOL     OW27259   0.898   1.985   8.391 -0.1930 -0.3289  0.0090
 5267SOL    HW127260   0.956   2.035   8.449  3.6224 -3.0832 -1.3794
 5267SOL    HW227261   0.881   1.903   8.439  1.1987 -1.1242 -0.8526
 5268SOL     OW27262   0.152   2.420   2.277 -0.1943  0.4694 -0.5187
 5268SOL    HW127263   0.244   2.410   2.300 -0.7823 -0.8584  1.2649
 5268SOL    HW227264   0.142   2.457   2.189 -1.3423  0.9492 -0.1904
 5269SOL     OW27265   2.424   2.340   7.826  0.4171 -0.1253 -0.3862
 5269SOL    HW127266   2.365   2.416   7.826  1.2327  0.5078 -0.8418
 5269SOL    HW227267   2.473   2.364   7.747  1.0054  0.8315  0.2775
 5270SOL     OW27268   1.901   2.310   1.931 -0.2823 -0.0814  0.0981
 5270SOL    HW127269   1.808   2.333   1.929 -0.2956 -0.2407 -1.2757
 5270SOL    HW227270   1.903   2.246   2.001 -0.6535  0.6288  0.7592
 5271SOL     OW27271   1.128   2.579   7.148 -0.3033  0.0838  0.0867
 5271SOL    HW127272   1.110   2.486   7.161 -1.6732  0.0744 -1.8670
 5271SOL    HW227273   1.080   2.613   7.224 -2.9033  0.3234 -1.6444
 5272SOL     OW27274   4.614   1.100   2.884  0.3436  0.1531  0.1667
 5272SOL    HW127275   4.544   1.132   2.941  0.2255 -0.3597  0.3093
 5272SOL    HW227276   4.566   1.075   2.805  2.4538 -0.0069 -1.0648
 5273SOL     OW27277   1.991   0.372  12.276 -0.0720  0.3814 -0.3353
 5273SOL    HW127278   1.929   0.302  12.259 -0.3396  0.7454 -0.8724
 5273SOL    HW227279   2.023   0.392  12.188  1.7406 -3.7938 -0.6089
 5274SOL     OW27280   1.474   2.163  13.079 -0.5773 -0.2623  0.6851
 5274SOL    HW127281   1.408   2.231  13.068 -0.1465  0.6339  3.5460
 5274SOL    HW227282   1.492   2.164  13.173  0.8208 -1.5361  0.4427
 5275SOL     OW27283   4.037   1.780   2.495 -0.1372 -0.6587  0.2709
 5275SOL    HW127284   4.085   1.783   2.412  0.2198  1.6795  0.5772
 5275SOL    HW227285   4.059   1.690   2.519  1.8309 -0.5066 -0.9535
 5276SOL     OW27286   4.599   0.020   1.684  0.4574 -0.1497  0.2512
 5276SOL    HW127287   4.514   0.049   1.651  1.3140  2.9849  0.7901
 5276SOL    HW227288   4.641   0.103   1.660  0.7245 -0.5894 -0.7975
 5277SOL     OW27289   3.763   0.858   2.877  0.2462 -0.1329 -0.7157
 5277SOL    HW127290   3.704   0.824   2.810  0.3527  0.9400 -1.3698
 5277SOL    HW227291   3.704   0.841   2.950  2.5520  1.0068  1.4524
 5278SOL     OW27292   2.730   4.361   4.070 -0.2160 -0.2607 -0.2724
 5278SOL    HW127293   2.787   4.310   4.127 -0.6798 -0.1220  0.3208
 5278SOL    HW227294   2.650   4.309   4.074 -0.5878  0.3613  0.4268
 5279SOL     OW27295   3.937   4.184  12.464  0.0849 -0.3512  0.9486
 5279SOL    HW127296   4.000   4.167  12.534 -0.2851  2.8423  2.0441
 5279SOL    HW227297   3.987   4.229  12.397 -0.1265 -1.2487  0.1906
 5280SOL     OW27298   0.711   4.094   5.949  0.2014 -0.8797  0.5706
 5280SOL    HW127299   0.706   4.189   5.960 -1.3030 -0.8107 -0.7706
 5280SOL    HW227300   0.637   4.083   5.889 -0.9927  2.3532  1.4832
 5281SOL     OW27301   0.749   2.214  13.748 -0.4273 -0.5526  0.1181
 5281SOL    HW127302   0.690   2.251  13.683 -0.4897  1.5930  1.3649
 5281SOL    HW227303   0.818   2.174  13.695  0.0333  0.4798 -0.0810
 5282SOL     OW27304   2.974   3.138  11.826 -0.3460 -0.2945  0.8518
 5282SOL    HW127305   3.046   3.179  11.777 -0.3265  1.4376  2.3198
 5282SOL    HW227306   2.912   3.098  11.765  0.2033  3.2389 -2.0531
 5283SOL     OW27307   1.116   2.723  16.297  0.2530 -0.2601  0.0123
 5283SOL    HW127308   1.067   2.776  16.234 -3.5691 -0.0191  3.2124
 5283SOL    HW227309   1.206   2.751  16.280  0.9251 -1.5371  1.5404
 5284SOL     OW27310   2.904   1.881   7.087 -0.2278  0.0595  0.7148
 5284SOL    HW127311   2.843   1.807   7.081  0.3804 -0.4035  0.2985
 5284SOL    HW227312   2.867   1.936   7.018  0.6533  1.8807  1.6889
 5285SOL     OW27313   4.337   2.233   6.244 -0.3841  0.0776  0.2161
 5285SOL    HW127314   4.246   2.204   6.253 -0.0699 -0.7767  0.6287
 5285SOL    HW227315   4.338   2.309   6.303  0.9049  0.6717 -0.5801
 5286SOL     OW27316   3.910   3.946   7.618 -0.0247 -0.0274  0.2928
 5286SOL    HW127317   3.918   4.026   7.567  1.2822  0.6864  1.6346
 5286SOL    HW227318   4.000   3.914   7.626  0.5375  1.2842 -0.8049
 5287SOL     OW27319   4.604   0.828   2.602  0.3097  0.1115 -0.0428
 5287SOL    HW127320   4.562   0.914   2.604  0.3175  0.1527 -1.9785
 5287SOL    HW227321   4.688   0.859   2.636 -0.4525  0.3956  1.5843
 5288SOL     OW27322   0.870   1.837   5.114  0.5153 -0.2924 -0.3097
 5288SOL    HW127323   0.891   1.744   5.127  0.9239 -0.2719 -0.8477
 5288SOL    HW227324   0.846   1.859   5.204 -1.4932  3.1839 -1.7174
 5289SOL     OW27325   2.904   4.375   9.421 -0.1441 -0.1367 -0.5194
 5289SOL    HW127326   2.825   4.322   9.437 -0.4362  0.1978 -0.8619
 5289SOL    HW227327   2.944   4.307   9.367  1.8848  1.0983 -0.5669
 5290SOL     OW27328   4.183   1.171   9.233 -0.1377 -0.1389 -0.1605
 5290SOL    HW127329   4.177   1.130   9.319  2.2104  0.3471  0.2272
 5290SOL    HW227330   4.230   1.100   9.190 -0.5044  0.1822 -1.1002
 5291SOL     OW27331   1.453   4.313   7.287 -0.2675  0.4717  0.5048
 5291SOL    HW127332   1.511   4.322   7.211 -0.9358  2.6773  0.2533
 5291SOL    HW227333   1.520   4.344   7.347 -0.5362  1.7711  0.1499
 5292SOL     OW27334   3.070   1.350   3.887 -0.2529 -0.3949 -0.5024
 5292SOL    HW127335   3.149   1.336   3.940  0.3845  0.8363 -1.1293
 5292SOL    HW227336   3.113   1.406   3.822  1.6810 -0.9966  0.2514
 5293SOL     OW27337   0.237   0.904   6.110 -0.2772 -0.5727 -0.4773
 5293SOL    HW127338   0.168   0.864   6.164  0.9938 -1.5683  0.4309
 5293SOL    HW227339   0.194   0.986   6.089 -0.4307 -0.7041 -0.6744
 5294SOL     OW27340   1.077   2.639   5.960 -0.4463 -0.7455 -0.1137
 5294SOL    HW127341   1.062   2.703   5.890 -0.7552 -1.2606 -0.5232
 5294SOL    HW227342   1.159   2.600   5.928 -0.6741 -0.6336 -0.8493
 5295SOL     OW27343   0.627   2.748   2.028  1.0373 -0.4926  0.2389
 5295SOL    HW127344   0.593   2.661   2.009  2.4779 -1.4432  1.9779
 5295SOL    HW227345   0.676   2.764   1.947  0.6968 -0.4199  0.0502
 5296SOL     OW27346   0.585   2.860   2.695 -0.4124 -0.5593 -0.5995
 5296SOL    HW127347   0.623   2.775   2.718  0.4192 -0.4204 -1.4312
 5296SOL    HW227348   0.511   2.878   2.752  0.0444  0.7676 -0.4215
 5297SOL     OW27349   0.735   0.515   8.614 -0.4775  0.6667 -0.1631
 5297SOL    HW127350   0.774   0.451   8.673 -0.0272  0.8223 -0.2891
 5297SOL    HW227351   0.762   0.594   8.662  0.2592  0.4444 -0.2077
 5298SOL     OW27352   0.872   0.992   7.958 -0.0696  0.5499  0.0500
 5298SOL    HW127353   0.946   0.932   7.945 -2.3101 -2.0017 -0.7420
 5298SOL    HW227354   0.836   0.962   8.041 -0.3396 -2.1560 -1.0492
 5299SOL     OW27355   3.830   4.689   4.981 -0.5700 -0.5553 -0.0215
 5299SOL    HW127356   3.819   4.701   4.887  2.6979 -0.9798 -0.4359
 5299SOL    HW227357   3.878   0.042   5.000  0.0127 -0.6165 -1.2490
 5300SOL     OW27358   3.713   3.904   5.509 -0.1576  0.4729 -0.4743
 5300SOL    HW127359   3.742   3.949   5.429 -1.1705 -0.5415 -1.4214
 5300SOL    HW227360   3.701   3.814   5.478 -0.2278  0.8848 -1.6756
 5301SOL     OW27361   0.091   2.710   2.915  0.0475  0.3565 -0.0026
 5301SOL    HW127362   0.016   2.682   2.863 -1.1416  0.5874  1.5886
 5301SOL    HW227363   0.039   2.735   2.991  1.5191  1.2143  0.7217
 5302SOL     OW27364   4.497   0.794   6.189  0.3321 -0.2479 -0.0498
 5302SOL    HW127365   4.422   0.757   6.142 -0.1785 -1.2252  1.5397
 5302SOL    HW227366   4.459   0.865   6.240  0.7993 -1.4272  1.9602
 5303SOL     OW27367   1.192   2.790   8.494 -0.4475 -0.2048  0.2431
 5303SOL    HW127368   1.186   2.710   8.547 -2.3409  0.2988  0.7871
 5303SOL    HW227369   1.257   2.758   8.432 -1.7873  0.0326 -1.2714
 5304SOL     OW27370   4.330   2.344   5.375  0.8520  0.5883 -0.3341
 5304SOL    HW127371   4.338   2.252   5.349 -0.7586  0.7414 -1.3663
 5304SOL    HW227372   4.376   2.344   5.459 -2.4261  0.0282  1.4679
 5305SOL     OW27373   3.999   3.412   6.415  0.4306  0.3688  0.0209
 5305SOL    HW127374   3.918   3.371   6.446  1.8538 -2.0629  0.4881
 5305SOL    HW227375   3.989   3.383   6.324 -0.3469  0.6351  0.0145
 5306SOL     OW27376   3.151   3.878   6.821  0.6784  0.6217  0.0721
 5306SOL    HW127377   3.085   3.851   6.758 -1.8390  0.7059  2.6469
 5306SOL    HW227378   3.121   3.963   6.853  0.4190  0.6071 -0.1333
 5307SOL     OW27379   4.421   2.792  16.395  0.2744  0.7195  0.6119
 5307SOL    HW127380   4.426   2.886  16.378  0.6031  0.7267  0.7681
 5307SOL    HW227381   4.354   2.787  16.463  0.3563 -0.2556  0.6230
 5308SOL     OW27382   2.052   3.652  13.276  0.2415 -0.0584  0.0278
 5308SOL    HW127383   2.050   3.657  13.180 -0.5174  2.6150  0.1753
 5308SOL    HW227384   1.992   3.577  13.277 -0.4291  0.4577 -0.4801
 5309SOL     OW27385   1.921   1.514   8.149  0.1954 -0.6454  0.1508
 5309SOL    HW127386   2.004   1.562   8.154  0.4535 -1.1391  0.6815
 5309SOL    HW227387   1.926   1.451   8.078  2.3763 -0.5185  0.1798
 5310SOL     OW27388   0.185   2.251  13.856  0.4300 -0.0039  0.3129
 5310SOL    HW127389   0.100   2.217  13.828  0.0283  2.8438 -1.9426
 5310SOL    HW227390   0.232   2.167  13.857 -0.9300 -0.7300  1.9812
 5311SOL     OW27391   0.478   3.089   5.687  0.1990  0.5961 -0.6092
 5311SOL    HW127392   0.409   3.086   5.753  0.7788 -0.5221 -0.0407
 5311SOL    HW227393   0.449   3.169   5.645  0.2500  1.3900  0.8586
 5312SOL     OW27394   3.679   1.114  12.140 -0.5849  0.0878 -0.1374
 5312SOL    HW127395   3.664   1.053  12.068  1.8177 -3.3004  2.2411
 5312SOL    HW227396   3.742   1.066  12.194  1.5681  0.4032 -2.3842
 5313SOL     OW27397   3.562   0.648   8.529 -0.0840 -0.2610  0.6449
 5313SOL    HW127398   3.557   0.687   8.441  0.3665 -1.4843  0.0717
 5313SOL    HW227399   3.472   0.614   8.534  1.2028 -4.0341 -1.8432
 5314SOL     OW27400   4.219   4.179  14.020  0.2893  0.3310  0.1961
 5314SOL    HW127401   4.125   4.188  14.004  0.0095 -1.0788  1.0033
 5314SOL    HW227402   4.237   4.109  13.957  0.8307  1.3174 -0.7471
 5315SOL     OW27403   4.637   1.120  14.318 -0.0549  0.4480  0.0207
 5315SOL    HW127404   4.614   1.097  14.228  0.3758 -0.4587  0.1448
 5315SOL    HW227405   4.555   1.084  14.354 -0.3292  0.2985 -0.7473
 5316SOL     OW27406   1.417   1.222   1.592  0.6329  0.2309 -0.1413
 5316SOL    HW127407   1.327   1.190   1.586  1.1930 -1.4840  0.7970
 5316SOL    HW227408   1.420   1.226   1.687 -1.6843 -0.2745 -0.0600
 5317SOL     OW27409   4.003   2.057   9.014  0.2900  0.1365  0.2022
 5317SOL    HW127410   4.002   2.152   9.004  0.2939  0.4710  3.4328
 5317SOL    HW227411   4.092   2.036   8.987  0.1416  0.6555 -0.6752
 5318SOL     OW27412   2.384   3.984   7.194 -0.0213 -0.2007 -0.2475
 5318SOL    HW127413   2.311   4.026   7.239  0.6737  1.2958 -0.5221
 5318SOL    HW227414   2.376   4.020   7.106 -0.2968 -2.2221 -1.0517
 5319SOL     OW27415   0.256   4.354   1.805  0.6334 -0.1265  0.2723
 5319SOL    HW127416   0.205   4.434   1.798 -0.1919 -0.7643 -0.9124
 5319SOL    HW227417   0.180   4.302   1.782 -0.5172  1.2574  0.9785
 5320SOL     OW27418   1.450   3.011   3.643  0.0933 -0.1960  0.2818
 5320SOL    HW127419   1.500   3.049   3.571  0.1705 -0.3640  0.2480
 5320SOL    HW227420   1.378   2.968   3.598 -0.3789 -0.9969  1.7785
 5321SOL     OW27421   0.355   3.807  10.076  0.4088  0.0337 -0.0796
 5321SOL    HW127422   0.281   3.826  10.019  0.5438  0.5929 -0.0692
 5321SOL    HW227423   0.420   3.873  10.052  0.2488  0.3491  0.3435
 5322SOL     OW27424   4.060   2.516   2.631  0.0808 -0.0200  0.0075
 5322SOL    HW127425   4.060   2.460   2.554  0.8889 -0.2683  0.1882
 5322SOL    HW227426   4.154   2.521   2.648 -0.2714  0.1773  1.9204
 5323SOL     OW27427   2.134   0.084   3.429  0.5699  0.3192 -0.1755
 5323SOL    HW127428   2.123   0.051   3.519  1.4830 -0.4061 -0.3279
 5323SOL    HW227429   2.226   0.058   3.419 -0.0573 -2.5248  1.3800
 5324SOL     OW27430   4.091   4.343   2.360 -0.3121 -1.0798  0.1424
 5324SOL    HW127431   4.043   4.424   2.344  1.4943  0.3858  2.1285
 5324SOL    HW227432   4.023   4.275   2.361 -3.5577  2.1407  1.7001
 5325SOL     OW27433   2.797   2.772   0.917 -0.0092  0.1893 -0.3686
 5325SOL    HW127434   2.753   2.687   0.924  0.3313  0.0589  0.1955
 5325SOL    HW227435   2.841   2.774   0.832  4.1908  1.7070  1.8443
 5326SOL     OW27436   1.660   3.803  11.853 -0.1919 -0.1748  0.1645
 5326SOL    HW127437   1.723   3.843  11.794  0.6163  1.5092  2.1511
 5326SOL    HW227438   1.725   3.757  11.907  0.9678  1.0903 -0.1499
 5327SOL     OW27439   2.821   3.683  10.109 -0.8411  0.0429 -0.5987
 5327SOL    HW127440   2.769   3.746  10.058 -0.7523  0.1707 -0.5315
 5327SOL    HW227441   2.843   3.737  10.185 -0.7027  0.0094 -0.6161
 5328SOL     OW27442   2.310   0.832   3.638  0.4210 -0.2298  0.0273
 5328SOL    HW127443   2.238   0.780   3.673  1.5868 -0.8461  1.4851
 5328SOL    HW227444   2.382   0.771   3.654  3.2535  3.1981  0.3300
 5329SOL     OW27445   4.459   3.496   8.442  0.2913 -0.1846  0.6786
 5329SOL    HW127446   4.546   3.478   8.408  0.0314 -0.6428  0.2465
 5329SOL    HW227447   4.433   3.410   8.474  2.7254 -0.4288  1.9665
 5330SOL     OW27448   4.139   2.067   7.164 -0.2034  0.0224 -0.1761
 5330SOL    HW127449   4.170   2.025   7.084  2.1815  0.9293  0.2969
 5330SOL    HW227450   4.094   2.145   7.133  0.8224 -0.7596 -3.6343
 5331SOL     OW27451   0.523   2.411   8.036 -0.0762  0.4478 -0.4501
 5331SOL    HW127452   0.600   2.354   8.047  0.9479  1.7570 -0.8218
 5331SOL    HW227453   0.531   2.476   8.105  2.1927 -0.4506  0.1404
 5332SOL     OW27454   2.563   0.205   4.813  1.4002 -0.3270  0.4033
 5332SOL    HW127455   2.538   0.231   4.901  0.2921  0.6833 -0.2125
 5332SOL    HW227456   2.496   0.250   4.762 -0.0783 -2.5970  0.3312
 5333SOL     OW27457   1.366   4.355  16.077  0.2925  0.3211 -0.2121
 5333SOL    HW127458   1.359   4.433  16.023 -1.8724 -0.0109 -0.3914
 5333SOL    HW227459   1.332   4.387  16.160  0.0463 -0.6349  0.0569
 5334SOL     OW27460   0.626   4.011  10.300  0.2190  0.1079  0.4633
 5334SOL    HW127461   0.562   4.081  10.283 -1.8008 -1.6013  0.9907
 5334SOL    HW227462   0.687   4.064  10.351  1.6975 -1.9171  0.7924
 5335SOL     OW27463   2.994   0.531   5.777  0.1360 -0.1753 -0.0791
 5335SOL    HW127464   2.945   0.556   5.699 -1.2176 -2.1594  0.1439
 5335SOL    HW227465   3.008   0.438   5.763 -2.2203 -0.0714 -3.0210
 5336SOL     OW27466   0.424   0.711   6.354  0.3649  0.1712 -0.3824
 5336SOL    HW127467   0.362   0.656   6.307  0.0054  0.8022 -0.6354
 5336SOL    HW227468   0.381   0.705   6.440  0.2297  0.1830 -0.4499
 5337SOL     OW27469   2.735   0.476   7.949  0.5261 -0.4025  0.6288
 5337SOL    HW127470   2.649   0.489   7.911  0.5620  0.5694  0.8775
 5337SOL    HW227471   2.790   0.451   7.874  0.8401 -0.8563  1.0051
 5338SOL     OW27472   1.792   2.659   2.932  0.5213 -0.0939 -0.4237
 5338SOL    HW127473   1.830   2.739   2.966 -1.5049  1.0164 -0.7925
 5338SOL    HW227474   1.861   2.616   2.881  0.1124 -0.4906 -0.6512
 5339SOL     OW27475   2.775   2.959   3.665  0.3053  0.2255 -0.0087
 5339SOL    HW127476   2.817   2.872   3.671  0.0920  0.1105 -0.2000
 5339SOL    HW227477   2.782   2.964   3.570  0.7101  0.0456  0.0074
 5340SOL     OW27478   2.050   4.359   9.181 -0.1852  0.5446  0.2702
 5340SOL    HW127479   2.056   4.272   9.221  2.0797  0.8931  0.7124
 5340SOL    HW227480   2.116   4.406   9.232  1.7446 -1.0679 -0.7236
 5341SOL     OW27481   0.329   3.282   8.506 -0.0133 -0.2765 -0.6151
 5341SOL    HW127482   0.389   3.276   8.580 -0.8402  4.2025  0.4281
 5341SOL    HW227483   0.377   3.328   8.437  1.6234  0.7649  1.2206
 5342SOL     OW27484   2.875   4.147   0.167 -0.0094 -0.3413 -0.4494
 5342SOL    HW127485   2.906   4.217   0.109  1.6664 -0.1621  0.6534
 5342SOL    HW227486   2.784   4.170   0.187 -0.2562 -2.4305  0.8230
 5343SOL     OW27487   2.201   3.850  15.663 -0.3740  0.0323  0.0171
 5343SOL    HW127488   2.252   3.784  15.710  0.6754  1.1816  0.4595
 5343SOL    HW227489   2.268   3.888  15.607 -1.6409 -0.1804 -1.6721
 5344SOL     OW27490   3.445   0.233   8.215 -0.0456 -0.1034  0.2894
 5344SOL    HW127491   3.471   0.175   8.143 -0.9827 -0.1181 -0.0425
 5344SOL    HW227492   3.508   0.203   8.280 -1.5620 -0.4768  1.5891
 5345SOL     OW27493   1.889   2.073   7.012 -0.6212 -0.2134 -0.0061
 5345SOL    HW127494   1.862   2.093   6.923 -1.9449  1.6349  0.8256
 5345SOL    HW227495   1.954   2.002   7.006  0.1356  0.3365  1.7491
 5346SOL     OW27496   0.786   1.427   0.180  0.2151 -0.0209 -0.4748
 5346SOL    HW127497   0.750   1.352   0.229  2.1308 -1.1621 -0.8240
 5346SOL    HW227498   0.811   1.374   0.104 -1.3109 -0.8598 -0.4046
 5347SOL     OW27499   0.089   2.426   1.343 -0.1486  0.6052 -0.3352
 5347SOL    HW127500   0.094   2.359   1.411 -1.2835 -1.2635 -2.0901
 5347SOL    HW227501   0.038   2.500   1.376 -1.0540 -0.0356 -0.2607
 5348SOL     OW27502   1.707   2.186   5.374  0.3508 -0.4857  0.7697
 5348SOL    HW127503   1.683   2.210   5.463 -3.4156 -1.6914  0.0829
 5348SOL    HW227504   1.624   2.192   5.326  1.0786 -0.6838 -0.5184
 5349SOL     OW27505   3.895   3.994   5.334 -0.8485 -0.4262 -0.0386
 5349SOL    HW127506   3.958   3.940   5.286 -0.7739 -0.2192 -0.1711
 5349SOL    HW227507   3.945   4.066   5.372 -1.3590  0.8918 -1.8295
 5350SOL     OW27508   0.430   2.501   7.506  0.4728  0.6681 -0.1761
 5350SOL    HW127509   0.403   2.557   7.434 -0.3318 -1.3219 -1.4210
 5350SOL    HW227510   0.382   2.419   7.492  1.4253  0.3533 -1.5827
 5351SOL     OW27511   2.608   4.692   4.689  0.2964  0.0628 -0.1469
 5351SOL    HW127512   2.582   0.056   4.706  1.0878 -0.1574  2.2404
 5351SOL    HW227513   2.687   4.690   4.742  1.4501  0.3412 -1.8411
 5352SOL     OW27514   4.643   3.266   9.393 -0.1272 -0.4634 -0.1996
 5352SOL    HW127515   4.726   3.219   9.397 -1.5633 -3.1285 -1.9201
 5352SOL    HW227516   4.594   3.223   9.463 -0.2545  0.3840  0.2253
 5353SOL     OW27517   1.181   1.124  16.063  0.1439  0.2685 -0.3888
 5353SOL    HW127518   1.158   1.054  16.125  1.2863 -0.1037 -0.3830
 5353SOL    HW227519   1.136   1.095  15.984 -0.4951  2.9022 -0.9841
 5354SOL     OW27520   1.644   1.314   7.106 -1.1601 -0.4745 -0.0325
 5354SOL    HW127521   1.707   1.297   7.176 -0.1676  2.1753 -0.2976
 5354SOL    HW227522   1.620   1.406   7.122 -2.7150 -0.7353 -0.8052
 5355SOL     OW27523   3.140   1.018  16.156  0.7895 -0.2204 -0.7117
 5355SOL    HW127524   3.181   1.040  16.072 -0.9780  0.5228 -1.3609
 5355SOL    HW227525   3.137   0.922  16.153  0.1865 -0.1764 -1.6586
 5356SOL     OW27526   3.957   3.058   3.017  0.2678 -0.5170 -0.6745
 5356SOL    HW127527   4.018   3.131   3.016 -0.1829 -0.1094  1.0335
 5356SOL    HW227528   3.883   3.107   2.982  0.9508  1.7973  1.1098
 5357SOL     OW27529   2.096   1.286   0.297  0.3714 -0.2833 -0.3685
 5357SOL    HW127530   2.116   1.379   0.305 -2.7572  0.4180 -0.9304
 5357SOL    HW227531   2.051   1.277   0.214  1.0736  0.0649 -0.7846
 5358SOL     OW27532   0.039   3.100   8.108  0.2362 -0.3624  0.5562
 5358SOL    HW127533   0.063   3.139   8.192 -1.8401  1.0662  0.4880
 5358SOL    HW227534   0.083   3.016   8.117 -0.0026 -0.3217  2.2004
 5359SOL     OW27535   0.344   2.528   5.011 -0.0590  0.2461  0.3476
 5359SOL    HW127536   0.426   2.514   5.058 -0.8107 -3.7482  0.5230
 5359SOL    HW227537   0.310   2.612   5.042  1.0448  0.5171  0.8159
 5360SOL     OW27538   2.265   0.689   5.582 -0.3429 -0.4980  0.0566
 5360SOL    HW127539   2.218   0.758   5.628 -1.8359 -1.5465  0.0974
 5360SOL    HW227540   2.239   0.613   5.633 -1.3114 -0.1643  0.0653
 5361SOL     OW27541   2.045   0.522   6.403  0.2057  0.0666 -0.1343
 5361SOL    HW127542   1.998   0.598   6.437  0.0006  0.2047 -0.7381
 5361SOL    HW227543   2.064   0.477   6.485 -1.7780 -0.6604 -0.0686
 5362SOL     OW27544   2.263   2.269   3.651  0.0235  0.3578  0.6802
 5362SOL    HW127545   2.191   2.231   3.701 -1.0175  1.6217  0.1530
 5362SOL    HW227546   2.284   2.202   3.585 -0.4972  1.2467 -0.3876
 5363SOL     OW27547   3.819   0.939  17.008  0.2275 -0.0524 -0.0642
 5363SOL    HW127548   3.835   0.997  17.082  0.4153 -0.0583 -0.1001
 5363SOL    HW227549   3.727   0.955  16.988 -0.0817 -1.4154  0.2451
 5364SOL     OW27550   1.324   4.376   7.954  0.1875 -0.4746 -0.5102
 5364SOL    HW127551   1.334   4.447   7.890  0.5842  1.6355  1.9047
 5364SOL    HW227552   1.230   4.360   7.955  0.0359  0.5126  0.2774
 5365SOL     OW27553   2.462   0.651  12.010  0.7440 -0.4004  0.2738
 5365SOL    HW127554   2.460   0.689  12.098  0.8761  1.3107 -0.4589
 5365SOL    HW227555   2.518   0.716  11.966  1.1739 -0.5720  0.5714
 5366SOL     OW27556   0.137   2.150   5.250 -0.0923 -0.1891 -0.2098
 5366SOL    HW127557   0.109   2.116   5.335  0.0165  2.8685  1.0430
 5366SOL    HW227558   0.059   2.134   5.196 -0.5760  0.1447  0.3829
 5367SOL     OW27559   2.128   0.359   6.625  0.6405 -0.5210 -0.1127
 5367SOL    HW127560   2.201   0.341   6.565  1.3431  0.6340  0.4056
 5367SOL    HW227561   2.154   0.299   6.694  0.7725 -2.3698 -1.7717
 5368SOL     OW27562   0.204   4.512   4.741  0.0497  0.1268 -0.6110
 5368SOL    HW127563   0.232   4.450   4.673 -0.1568  0.3410 -0.8959
 5368SOL    HW227564   0.124   4.540   4.696 -0.6612 -1.3508 -0.2823
 5369SOL     OW27565   4.182   3.762   5.336 -0.0196 -0.2005  0.2141
 5369SOL    HW127566   4.156   3.739   5.246  0.4402  1.8740 -0.4475
 5369SOL    HW227567   4.227   3.845   5.322 -0.9973  0.4997  1.2379
 5370SOL     OW27568   3.074   3.066   2.834  0.0699  0.5979 -0.6103
 5370SOL    HW127569   3.042   2.987   2.878  3.0636  0.2961  1.0392
 5370SOL    HW227570   3.144   3.020   2.787  0.8234  1.1340 -0.0165
 5371SOL     OW27571   2.685   1.787   5.330 -0.2702 -0.1024 -0.0531
 5371SOL    HW127572   2.608   1.824   5.288 -0.8731 -0.1722  0.9793
 5371SOL    HW227573   2.721   1.864   5.375 -0.2147 -0.1011 -0.1001
 5372SOL     OW27574   3.567   1.725   4.688 -0.5235  0.1619  0.1620
 5372SOL    HW127575   3.537   1.744   4.777  0.4024 -1.7499  0.8881
 5372SOL    HW227576   3.507   1.779   4.637  1.4007  2.3375  0.2354
 5373SOL     OW27577   2.614   1.361   5.631  0.3828 -0.3001 -0.1828
 5373SOL    HW127578   2.688   1.392   5.578 -0.2796 -0.9178 -1.4551
 5373SOL    HW227579   2.551   1.351   5.560 -1.1804 -1.2270  1.3340
 5374SOL     OW27580   2.698   1.849   7.813  0.3276  0.1097 -0.3201
 5374SOL    HW127581   2.668   1.781   7.753  1.5683 -0.7650  0.0440
 5374SOL    HW227582   2.768   1.810   7.865  0.8263  1.6228  0.1656
 5375SOL     OW27583   2.874   2.334   2.770  0.9535 -0.1442 -0.2015
 5375SOL    HW127584   2.929   2.329   2.848  1.3310 -2.2117 -0.6113
 5375SOL    HW227585   2.819   2.409   2.793 -0.9801 -2.0881  1.4450
 5376SOL     OW27586   0.504   1.353   6.913  0.3701  0.6140 -0.4686
 5376SOL    HW127587   0.522   1.340   6.820  0.7100 -0.6443 -0.2207
 5376SOL    HW227588   0.446   1.429   6.911  1.8726  1.8200  1.8871
 5377SOL     OW27589   4.316   2.496   6.405 -0.1575 -0.1009 -0.1946
 5377SOL    HW127590   4.263   2.576   6.404 -1.4311 -0.9311  0.9420
 5377SOL    HW227591   4.362   2.498   6.489 -0.5773  3.0715 -0.0480
 5378SOL     OW27592   2.821   3.093   5.395 -0.1430 -0.1033  0.0322
 5378SOL    HW127593   2.854   3.178   5.424 -1.5179  0.4014  0.1650
 5378SOL    HW227594   2.741   3.120   5.349 -1.6452 -1.8961  1.5824
 5379SOL     OW27595   1.233   3.887   3.923 -0.1230  0.7138  0.6866
 5379SOL    HW127596   1.235   3.980   3.945  1.4797  0.9567 -0.5023
 5379SOL    HW227597   1.144   3.866   3.950  0.9192 -3.7348  0.6042
 5380SOL     OW27598   0.236   1.492   3.052  0.0287 -0.4139  0.0144
 5380SOL    HW127599   0.276   1.407   3.039 -0.0118 -0.5861  1.0163
 5380SOL    HW227600   0.254   1.538   2.969  0.2175 -1.7190 -0.6668
 5381SOL     OW27601   0.749   2.838   3.340 -0.2971 -0.2712 -0.0538
 5381SOL    HW127602   0.740   2.788   3.259 -2.7806 -0.2316  0.2077
 5381SOL    HW227603   0.684   2.909   3.336 -0.8062 -0.6641  1.6941
 5382SOL     OW27604   1.801   4.283   3.054  0.1043 -0.3054  0.0695
 5382SOL    HW127605   1.804   4.301   2.960  3.3027 -1.3401 -0.0288
 5382SOL    HW227606   1.847   4.358   3.092  0.7444 -0.2303 -0.8623
 5383SOL     OW27607   3.281   1.671  10.859 -0.1111 -0.4569 -0.1131
 5383SOL    HW127608   3.262   1.599  10.799  0.5117 -1.3472  0.7616
 5383SOL    HW227609   3.258   1.748  10.807 -0.8453 -2.2912 -2.4632
 5384SOL     OW27610   1.885   3.379   4.906 -0.1611 -0.1356 -0.2823
 5384SOL    HW127611   1.950   3.435   4.949 -0.1725 -0.7779  0.5716
 5384SOL    HW227612   1.906   3.384   4.812 -0.0956  0.3754 -0.2428
 5385SOL     OW27613   0.341   4.565   6.370 -0.4048  0.2603 -0.8822
 5385SOL    HW127614   0.263   4.599   6.413 -0.9565 -0.7143 -1.1234
 5385SOL    HW227615   0.404   4.635   6.388 -1.8563  1.7118 -1.4404
 5386SOL     OW27616   0.293   0.706   8.361  0.0912  0.2192  0.8530
 5386SOL    HW127617   0.303   0.667   8.274 -0.6142 -0.4265  1.0532
 5386SOL    HW227618   0.251   0.791   8.352 -2.6284 -1.2183 -0.0715
 5387SOL     OW27619   1.653   0.722  17.685 -0.0485 -0.2058 -0.2297
 5387SOL    HW127620   1.583   0.677  17.639 -2.0182  2.7775 -0.1494
 5387SOL    HW227621   1.609   0.756   0.054  1.3508 -2.3422  1.5385
 5388SOL     OW27622   0.925   0.098   3.899 -0.3960  0.6025  0.0373
 5388SOL    HW127623   0.854   0.120   3.958 -0.9371  1.8714 -1.0823
 5388SOL    HW227624   0.983   0.174   3.908  0.9518 -0.5915  1.3808
 5389SOL     OW27625   0.809   3.068   4.465  0.0192 -0.0771  0.5649
 5389SOL    HW127626   0.864   3.102   4.536  1.0327  0.8216 -0.6605
 5389SOL    HW227627   0.847   3.111   4.389 -0.7591 -0.7830 -0.2147
 5390SOL     OW27628   2.539   0.300   5.439  0.4502 -0.6392  0.6483
 5390SOL    HW127629   2.614   0.246   5.415 -0.7455 -1.2023 -1.7971
 5390SOL    HW227630   2.470   0.235   5.424  1.4227 -1.4287 -0.4397
 5391SOL     OW27631   0.890   4.355  14.509  0.1317 -0.4330 -0.6452
 5391SOL    HW127632   0.914   4.302  14.585 -0.7556 -2.4357 -1.7607
 5391SOL    HW227633   0.814   4.403  14.540 -0.4777 -0.9686 -1.3044
 5392SOL     OW27634   4.260   1.449  10.062 -0.7714 -0.2290  0.7223
 5392SOL    HW127635   4.193   1.516  10.051  0.8205  1.5544  1.8941
 5392SOL    HW227636   4.225   1.374  10.013  1.2705 -0.0270 -1.0757
 5393SOL     OW27637   1.393   3.996   2.916  0.0611 -0.6287 -0.2973
 5393SOL    HW127638   1.314   3.960   2.957 -0.1589  0.3689  0.1776
 5393SOL    HW227639   1.448   3.918   2.918  2.5936  1.1801  0.0311
 5394SOL     OW27640   1.292   2.294   7.859 -0.8075 -0.5046 -0.1415
 5394SOL    HW127641   1.227   2.352   7.819  0.3151  0.1374 -1.0308
 5394SOL    HW227642   1.335   2.266   7.779 -0.8466 -1.1482  0.0655
 5395SOL     OW27643   0.289   3.200   4.127 -0.2542  0.2501 -0.7751
 5395SOL    HW127644   0.352   3.227   4.194 -1.2804 -2.2330  1.1961
 5395SOL    HW227645   0.340   3.128   4.091  0.4871  1.2212 -1.6766
 5396SOL     OW27646   2.285   2.509   1.333  0.2635  0.2879  0.6335
 5396SOL    HW127647   2.254   2.551   1.253 -1.0459 -0.5105  0.7272
 5396SOL    HW227648   2.264   2.420   1.305 -0.8756  0.9744 -0.6536
 5397SOL     OW27649   4.574   0.301   3.492  0.1336  0.0114 -0.0021
 5397SOL    HW127650   4.611   0.364   3.553  0.4379  1.1405 -1.3397
 5397SOL    HW227651   4.529   0.239   3.549 -1.3010 -1.0129 -2.2380
 5398SOL     OW27652   2.406   2.600   2.496  0.8739  0.4008 -1.2012
 5398SOL    HW127653   2.387   2.563   2.409  2.1579  0.5209 -1.5351
 5398SOL    HW227654   2.350   2.678   2.496 -0.9740 -0.9185 -0.7018
 5399SOL     OW27655   1.637   3.129   6.079  0.0262  0.2008 -0.2529
 5399SOL    HW127656   1.719   3.170   6.106  0.6469 -1.2540  0.0612
 5399SOL    HW227657   1.633   3.147   5.985  0.1155 -0.5585 -0.3995
 5400SOL     OW27658   3.409   3.828   5.181 -0.6131  0.2181 -0.1338
 5400SOL    HW127659   3.363   3.851   5.262 -0.4489 -0.0702  0.0453
 5400SOL    HW227660   3.335   3.841   5.122 -0.6801  0.6239  0.0366
 5401SOL     OW27661   0.776   4.273   8.212 -0.2024 -0.3456 -0.1534
 5401SOL    HW127662   0.807   4.209   8.147  1.7094 -1.1818  1.6094
 5401SOL    HW227663   0.857   4.279   8.262 -1.3833  1.4684  1.5093
 5402SOL     OW27664   4.715   0.468   4.019 -0.3077  0.2715  0.1609
 5402SOL    HW127665   0.041   0.389   4.029 -2.6087 -1.5462 -2.3651
 5402SOL    HW227666   4.632   0.421   4.011  0.2637 -0.6453 -0.3390
 5403SOL     OW27667   0.172   0.258   4.485  0.3651  0.5677 -0.2922
 5403SOL    HW127668   0.241   0.198   4.510  0.2544  0.7802  0.5378
 5403SOL    HW227669   0.093   0.204   4.492 -0.0119  1.2295  0.5407
 5404SOL     OW27670   0.465   2.247  14.208 -0.1096  0.3455  0.5100
 5404SOL    HW127671   0.514   2.247  14.290 -0.0616 -1.6241  0.4814
 5404SOL    HW227672   0.524   2.258  14.133  0.6931  1.8931  1.3761
 5405SOL     OW27673   3.796   0.359  17.558  0.6364  0.2976  0.8710
 5405SOL    HW127674   3.731   0.395  17.619 -0.5138  1.4359 -1.0241
 5405SOL    HW227675   3.836   0.285  17.604  1.1225  0.0558  0.0672
 5406SOL     OW27676   2.072   0.054   0.873  0.4407 -0.5140  0.2361
 5406SOL    HW127677   2.017   4.707   0.900 -2.4068  1.6891  0.4291
 5406SOL    HW227678   2.153   0.021   0.912  1.1717 -0.3884 -1.1987
 5407SOL     OW27679   2.995   2.431   6.920  0.3564  0.3500  0.0461
 5407SOL    HW127680   3.004   2.383   7.002 -1.5801 -1.3185 -0.7257
 5407SOL    HW227681   2.900   2.437   6.935  0.5194  0.6181  0.9356
 5408SOL     OW27682   0.083   1.457   3.487  0.5990 -0.1068 -0.8247
 5408SOL    HW127683   0.145   1.518   3.448  2.3281  1.1542  3.9239
 5408SOL    HW227684   0.009   1.514   3.505  1.4875  1.0916 -0.9990
 5409SOL     OW27685   1.065   1.951   8.694 -0.6445  0.4975  0.1088
 5409SOL    HW127686   1.088   1.912   8.610 -0.8378 -1.2667  0.8783
 5409SOL    HW227687   1.036   2.041   8.676  0.7413  0.9338  0.0221
 5410SOL     OW27688   1.388   0.048  14.297  0.0388  0.7290 -0.0879
 5410SOL    HW127689   1.481   0.031  14.312 -0.0795  0.9930  0.9328
 5410SOL    HW227690   1.351   4.696  14.256  0.4038  0.7508 -0.4541
 5411SOL     OW27691   2.104   2.364  10.461 -0.7460  0.4264  0.1976
 5411SOL    HW127692   2.138   2.286  10.417 -2.9150 -1.7463  2.3853
 5411SOL    HW227693   2.166   2.429  10.428  0.3663  0.1234  1.6651
 5412SOL     OW27694   0.259   3.137  10.845 -0.6140  0.2219 -0.3143
 5412SOL    HW127695   0.186   3.166  10.791 -0.6421 -0.0971 -0.4473
 5412SOL    HW227696   0.205   3.095  10.911 -1.4440  2.4309  0.4170
 5413SOL     OW27697   4.352   3.226   8.460  0.0604  0.5729  0.0804
 5413SOL    HW127698   4.391   3.215   8.374 -1.5882  0.7637 -0.6925
 5413SOL    HW227699   4.310   3.140   8.465 -0.1562  0.7326  1.0806
 5414SOL     OW27700   3.343   0.938   1.721 -0.6609  0.2716  0.3766
 5414SOL    HW127701   3.356   0.849   1.689  0.8544  0.2244  1.1278
 5414SOL    HW227702   3.392   0.928   1.803 -1.6434  0.7387  1.0211
 5415SOL     OW27703   3.592   2.313   1.594  0.4516 -0.3538  0.0438
 5415SOL    HW127704   3.637   2.392   1.623 -1.6972  0.6915  0.4855
 5415SOL    HW227705   3.659   2.248   1.616  2.0348  1.3374  0.1894
 5416SOL     OW27706   1.274   0.543   9.846 -0.4447  0.2347  0.4653
 5416SOL    HW127707   1.338   0.585   9.904  2.1732 -1.7344 -0.9705
 5416SOL    HW227708   1.278   0.455   9.883 -1.0726 -0.6645 -1.6083
 5417SOL     OW27709   3.430   3.273  14.854  0.8378 -0.4306 -0.0954
 5417SOL    HW127710   3.465   3.331  14.786 -0.9149  0.7059 -0.0498
 5417SOL    HW227711   3.510   3.255  14.902  1.1958  0.9803 -0.1578
 5418SOL     OW27712   4.244   3.578  10.144  0.1461 -0.2582 -1.0483
 5418SOL    HW127713   4.298   3.627  10.082 -0.2095  1.6505  0.1706
 5418SOL    HW227714   4.205   3.506  10.094  0.0640 -1.8994  1.3902
 5419SOL     OW27715   1.411   3.888   7.528  0.3421 -0.6755 -0.0479
 5419SOL    HW127716   1.450   3.820   7.583  0.1522  0.0731  1.0104
 5419SOL    HW227717   1.414   3.954   7.597 -1.5978 -0.9166  0.2772
 5420SOL     OW27718   3.254   1.371   7.392 -0.2101 -0.9704  0.0988
 5420SOL    HW127719   3.345   1.342   7.385  0.2301  0.5601 -0.5070
 5420SOL    HW227720   3.209   1.289   7.372  1.3978 -2.0939  1.1155
 5421SOL     OW27721   3.266   3.149  11.761  0.7714 -0.8337  0.2322
 5421SOL    HW127722   3.288   3.092  11.835 -0.3059 -0.0257  1.1542
 5421SOL    HW227723   3.329   3.220  11.773 -0.8273  0.8906 -1.5278
 5422SOL     OW27724   4.287   0.054  10.655  0.2625 -0.2602  0.3112
 5422SOL    HW127725   4.221   0.051  10.585  1.6273 -1.0410 -0.9412
 5422SOL    HW227726   4.242   0.038  10.738 -1.5487  1.2443 -0.3821
 5423SOL     OW27727   1.989   1.520   6.264  0.4520 -0.3851  0.2528
 5423SOL    HW127728   1.930   1.586   6.300  1.5361  0.4610  0.4995
 5423SOL    HW227729   2.040   1.496   6.341 -0.3833 -1.1219  0.5677
 5424SOL     OW27730   0.059   2.302   4.025 -0.4407 -0.1617 -0.1493
 5424SOL    HW127731   4.700   2.261   4.011 -0.0409 -1.4827  1.2920
 5424SOL    HW227732   0.034   2.385   4.066 -0.2646 -1.1131  1.8741
 5425SOL     OW27733   2.563   0.902   8.445  0.5653  0.2780 -0.0457
 5425SOL    HW127734   2.574   0.824   8.391  0.8620 -0.3784  0.9474
 5425SOL    HW227735   2.540   0.857   8.527  0.5518  1.2834  0.4999
 5426SOL     OW27736   1.178   0.757   4.036  0.4773 -0.2110  0.4878
 5426SOL    HW127737   1.136   0.735   4.120  2.1738 -0.7472  1.2057
 5426SOL    HW227738   1.268   0.736   4.058  0.7668  1.0108  0.4561
 5427SOL     OW27739   1.961   2.260   5.848  0.0175  0.4016 -0.3627
 5427SOL    HW127740   1.873   2.243   5.883 -0.9835  1.7133 -2.2583
 5427SOL    HW227741   1.957   2.243   5.754 -0.0686 -1.8455  0.0579
 5428SOL     OW27742   0.104   1.882   9.624 -0.1086  0.3966  0.1562
 5428SOL    HW127743   0.175   1.947   9.621  0.4345 -0.2627 -1.4431
 5428SOL    HW227744   0.070   1.888   9.534  0.1356 -2.3067 -0.1091
 5429SOL     OW27745   3.342   0.755  13.647 -0.2934 -0.3700  0.1902
 5429SOL    HW127746   3.283   0.769  13.720  2.4400  0.0733  2.3049
 5429SOL    HW227747   3.304   0.815  13.582 -1.0576 -0.6801  0.3605
 5430SOL     OW27748   1.081   2.148   2.181 -0.2057  0.6949  0.3664
 5430SOL    HW127749   1.158   2.205   2.176  0.9132 -0.8250  0.1086
 5430SOL    HW227750   1.029   2.187   2.111  0.1193 -1.2006 -0.9037
 5431SOL     OW27751   4.127   3.128  12.006  0.1966  0.3477  0.2784
 5431SOL    HW127752   4.175   3.061  12.055  0.3891  1.9716  2.3395
 5431SOL    HW227753   4.041   3.088  12.011 -0.2712  1.5554  2.2135
 5432SOL     OW27754   4.278   2.490  17.170 -0.1048  0.3196  0.1654
 5432SOL    HW127755   4.244   2.527  17.251  0.6016 -0.2688  0.7237
 5432SOL    HW227756   4.357   2.543  17.163 -0.8201  1.2792 -0.6876
 5433SOL     OW27757   2.595   1.927   2.677 -0.0802 -0.3285  0.5522
 5433SOL    HW127758   2.688   1.908   2.661 -0.5355 -0.8161 -1.4602
 5433SOL    HW227759   2.570   1.972   2.597  0.2733 -3.8662 -1.5423
 5434SOL     OW27760   2.971   1.227   6.443  0.2000  0.0212 -0.2234
 5434SOL    HW127761   2.986   1.155   6.505 -0.9956  1.9999  2.3434
 5434SOL    HW227762   3.059   1.263   6.432  0.1650  0.6186  1.5825
 5435SOL     OW27763   4.082   1.822   3.010 -0.2242 -0.6415 -0.1549
 5435SOL    HW127764   4.118   1.747   2.963 -2.1391 -0.7789 -1.4201
 5435SOL    HW227765   4.137   1.888   2.968 -1.2744 -1.1188 -2.2563
 5436SOL     OW27766   4.451   2.639  11.796 -0.1916 -0.1795  0.0611
 5436SOL    HW127767   4.452   2.731  11.823 -2.2394  0.1406 -1.0117
 5436SOL    HW227768   4.442   2.655  11.702  0.2925 -2.3421 -0.3507
 5437SOL     OW27769   3.001   0.452   4.391 -0.2919 -0.1223 -0.0182
 5437SOL    HW127770   2.908   0.438   4.375 -0.6769  1.8995  0.4200
 5437SOL    HW227771   3.030   0.508   4.319 -0.5065  3.4439  2.6725
 5438SOL     OW27772   0.611   0.310  13.111 -0.3467  0.1852 -0.1011
 5438SOL    HW127773   0.588   0.392  13.068 -1.0115 -0.6938 -1.4054
 5438SOL    HW227774   0.686   0.287  13.057  0.9244 -0.6587  2.0148
 5439SOL     OW27775   4.585   2.699  15.166  0.1421  0.1240 -0.6299
 5439SOL    HW127776   4.557   2.790  15.153  0.2993  0.5270  1.8286
 5439SOL    HW227777   4.538   2.661  15.092 -0.8465 -0.1240  0.1267
 5440SOL     OW27778   1.081   2.029   5.851  0.1728 -0.8423 -0.0525
 5440SOL    HW127779   0.999   2.078   5.846  1.6875  1.6251 -0.5340
 5440SOL    HW227780   1.066   1.975   5.774 -1.6600 -0.1933 -0.1564
 5441SOL     OW27781   1.635   3.156   5.796  0.3632 -0.0325  0.2494
 5441SOL    HW127782   1.540   3.145   5.789  0.4237  0.8402 -2.1491
 5441SOL    HW227783   1.656   3.240   5.755 -0.2424 -0.3402 -0.6844
 5442SOL     OW27784   2.532   0.548   5.342 -0.4482  0.1361 -0.4721
 5442SOL    HW127785   2.608   0.539   5.285  0.1345 -3.0240  0.7805
 5442SOL    HW227786   2.519   0.459   5.375 -0.3071  0.3038  0.0264
 5443SOL     OW27787   3.194   3.227  11.292  0.2160 -0.0729 -0.4683
 5443SOL    HW127788   3.207   3.141  11.332 -0.9812  0.1892  0.5056
 5443SOL    HW227789   3.168   3.275  11.371  0.1763  0.4525 -0.7995
 5444SOL     OW27790   2.980   0.271  12.166 -0.5469  0.6866  0.3974
 5444SOL    HW127791   2.991   0.365  12.180  2.1641  0.3280  0.6410
 5444SOL    HW227792   2.958   0.278  12.073  1.8001 -2.6225 -0.3874
 5445SOL     OW27793   3.392   0.487   8.071 -0.0484 -0.7109  0.1683
 5445SOL    HW127794   3.340   0.559   8.107 -0.0226  0.8237 -2.8672
 5445SOL    HW227795   3.398   0.434   8.151  0.9466 -1.2357 -0.2585
 5446SOL     OW27796   2.140   2.869  11.977  0.1998  0.0204  0.9167
 5446SOL    HW127797   2.051   2.868  12.012  0.6978 -1.5885  2.1465
 5446SOL    HW227798   2.189   2.927  12.035 -0.8145 -0.7569  2.5482
 5447SOL     OW27799   1.309   4.336  10.547 -0.0512  0.4843  0.4257
 5447SOL    HW127800   1.357   4.356  10.627 -0.3535  0.1436  0.6949
 5447SOL    HW227801   1.300   4.242  10.562 -0.5827  0.5016  0.2093
 5448SOL     OW27802   0.116   0.204   7.371 -0.4382 -0.1588  0.4781
 5448SOL    HW127803   0.063   0.263   7.316  0.0275 -1.2960 -1.1635
 5448SOL    HW227804   0.179   0.261   7.414 -0.4168  1.0768 -1.1982
 5449SOL     OW27805   1.505   1.075   8.152 -0.5067 -0.0912  0.3712
 5449SOL    HW127806   1.578   1.136   8.155 -1.9779  1.7052 -0.1710
 5449SOL    HW227807   1.503   1.033   8.238 -0.2958 -0.2321  0.3056
 5450SOL     OW27808   0.816   2.749   6.234  0.3073 -0.0583 -0.2247
 5450SOL    HW127809   0.768   2.686   6.181 -3.4852  1.7516  0.9764
 5450SOL    HW227810   0.800   2.702   6.316 -1.5221  2.2945  0.8033
 5451SOL     OW27811   2.761   2.812   1.311 -0.3329 -0.0325  0.4878
 5451SOL    HW127812   2.761   2.724   1.350  2.3339 -1.0419 -1.7540
 5451SOL    HW227813   2.832   2.853   1.360  0.6380 -1.3235  0.1777
 5452SOL     OW27814   2.423   2.573   1.554  0.1959  0.6214 -0.4950
 5452SOL    HW127815   2.365   2.553   1.482 -2.0608 -0.5506  1.6496
 5452SOL    HW227816   2.484   2.514   1.510  1.0250  1.1228 -0.0280
 5453SOL     OW27817   4.377   0.230   5.653  0.3671 -0.3312 -0.0092
 5453SOL    HW127818   4.468   0.253   5.674  0.2231  0.8805 -0.7171
 5453SOL    HW227819   4.337   0.311   5.686  2.6911 -0.4322  3.0813
 5454SOL     OW27820   3.072   1.657  11.969  0.8635  0.0034 -0.0411
 5454SOL    HW127821   3.144   1.594  11.976 -1.6343 -2.6587  1.7201
 5454SOL    HW227822   3.097   1.710  11.893  3.8327 -3.7949 -1.7143
 5455SOL     OW27823   3.707   0.603   3.692 -0.0943  0.5592  0.5651
 5455SOL    HW127824   3.730   0.525   3.744 -2.6100  1.1860  2.6300
 5455SOL    HW227825   3.744   0.588   3.605 -1.4725  2.0441 -0.2817
 5456SOL     OW27826   1.708   1.263   5.547  0.0075  0.0579  0.5251
 5456SOL    HW127827   1.671   1.209   5.618 -1.3758 -0.6176 -0.7195
 5456SOL    HW227828   1.627   1.274   5.497  0.7674  3.9022  0.1331
 5457SOL     OW27829   4.235   4.049   4.341 -0.0377 -0.1388  0.3464
 5457SOL    HW127830   4.217   4.143   4.331  0.7997  0.0741  0.8369
 5457SOL    HW227831   4.316   4.030   4.294  0.4576  0.3438  0.9949
 5458SOL     OW27832   0.593   0.173   3.883 -0.1056  0.3086 -0.2124
 5458SOL    HW127833   0.510   0.131   3.902  0.2736  0.1100  1.0127
 5458SOL    HW227834   0.643   0.145   3.960  1.5049 -0.6641 -1.5971
 5459SOL     OW27835   1.431   4.542  13.581 -0.0854 -0.3630  0.7428
 5459SOL    HW127836   1.365   4.568  13.645 -1.6191 -1.3134 -0.4720
 5459SOL    HW227837   1.463   4.632  13.572  0.4635 -0.6684 -0.4582
 5460SOL     OW27838   4.278   2.309   3.439 -0.0700 -0.5905 -0.0785
 5460SOL    HW127839   4.221   2.321   3.362 -1.2467  1.4799  1.1058
 5460SOL    HW227840   4.213   2.307   3.508 -0.5494 -0.2594 -0.5183
 5461SOL     OW27841   1.041   1.526   4.196 -0.0180  0.3074 -0.1365
 5461SOL    HW127842   1.082   1.472   4.263 -2.8114 -1.0993  0.4299
 5461SOL    HW227843   0.980   1.571   4.254 -0.5745 -0.1861 -0.3400
 5462SOL     OW27844   0.679   1.238   8.087  0.2628  0.2090  0.3944
 5462SOL    HW127845   0.773   1.255   8.092 -0.1951  3.0143 -0.2382
 5462SOL    HW227846   0.664   1.248   7.993  1.4412 -0.0332  0.1816
 5463SOL     OW27847   2.081   3.071   2.704 -0.8124 -0.2295 -1.2345
 5463SOL    HW127848   2.041   3.023   2.777 -0.0059  1.5283  0.3641
 5463SOL    HW227849   2.165   3.026   2.692 -1.3104 -1.5083  0.1469
 5464SOL     OW27850   0.973   3.076   5.555  0.2059  0.5596 -0.0291
 5464SOL    HW127851   0.885   3.041   5.544 -1.1595  3.9077  0.2718
 5464SOL    HW227852   0.949   3.168   5.556 -1.1019  0.2108  1.3400
 5465SOL     OW27853   1.499   1.656   9.508  0.3014  0.1726 -0.1304
 5465SOL    HW127854   1.575   1.619   9.463 -0.1130 -1.2223  0.3185
 5465SOL    HW227855   1.525   1.667   9.600 -1.4860  0.0689  0.3789
 5466SOL     OW27856   3.252   2.987   8.936  0.2478 -0.1561  0.2845
 5466SOL    HW127857   3.184   3.043   8.974  0.0499 -2.1879  2.9847
 5466SOL    HW227858   3.189   2.931   8.890  0.0893 -0.7764  1.2563
 5467SOL     OW27859   2.879   2.882   2.496  0.0818  0.4708 -0.1861
 5467SOL    HW127860   2.961   2.846   2.461 -0.1743 -2.3937  2.0984
 5467SOL    HW227861   2.822   2.866   2.421 -0.9443  2.1704  0.2541
 5468SOL     OW27862   1.860   0.573   3.965 -0.2906 -0.3101  0.5446
 5468SOL    HW127863   1.783   0.519   3.946 -0.4441 -0.3337  1.2004
 5468SOL    HW227864   1.915   0.546   3.892 -1.4501 -1.1652 -0.0209
 5469SOL     OW27865   0.228   3.735   2.111 -0.1329  0.4644  0.1577
 5469SOL    HW127866   0.180   3.687   2.044 -1.2620  1.1431  0.4887
 5469SOL    HW227867   0.228   3.824   2.078 -1.5372  0.9215  1.3816
 5470SOL     OW27868   2.864   1.472   7.335  0.0184  0.0418 -0.7767
 5470SOL    HW127869   2.811   1.546   7.363  0.9910  0.5020 -0.1413
 5470SOL    HW227870   2.853   1.414   7.411  0.8674 -1.2933 -1.6750
 5471SOL     OW27871   1.828   4.231  16.297 -0.3183 -0.1528  0.3918
 5471SOL    HW127872   1.875   4.167  16.243 -1.8805 -0.9805  0.0026
 5471SOL    HW227873   1.899   4.295  16.301  0.3114 -0.8505  0.3286
 5472SOL     OW27874   3.800   3.487   6.074 -0.2446 -0.0163  0.2864
 5472SOL    HW127875   3.884   3.498   6.028  0.0052 -1.8863  0.2937
 5472SOL    HW227876   3.750   3.438   6.009  1.7979  0.7537 -1.8725
 5473SOL     OW27877   0.968   3.854   6.276  0.0179  0.5375  0.1071
 5473SOL    HW127878   1.035   3.918   6.301  1.9720 -1.7110  0.5290
 5473SOL    HW227879   0.888   3.901   6.301  0.2421  0.6976  0.5228
 5474SOL     OW27880   1.307   3.106   6.525  0.6304  0.1972 -0.3171
 5474SOL    HW127881   1.402   3.114   6.520  0.5680  1.4211  0.3897
 5474SOL    HW227882   1.273   3.145   6.445  0.8381  0.6873 -0.1637
 5475SOL     OW27883   3.021   0.717   8.982  0.4020  0.2982 -0.6493
 5475SOL    HW127884   2.999   0.732   9.074  0.1649  2.0661 -0.9871
 5475SOL    HW227885   3.064   0.632   8.980  0.0643  0.0716  1.8849
 5476SOL     OW27886   3.585   0.710  17.574 -0.2510 -0.1569 -0.1735
 5476SOL    HW127887   3.669   0.742  17.608 -0.4014 -2.0906  1.9872
 5476SOL    HW227888   3.535   0.772  17.626  0.9589  0.2342  0.5437
 5477SOL     OW27889   4.057   2.690   4.760  0.2567 -0.1208  0.1445
 5477SOL    HW127890   4.070   2.717   4.850  0.8561 -3.6801  1.1228
 5477SOL    HW227891   4.148   2.691   4.730 -0.2820  1.0810 -1.4613
 5478SOL     OW27892   4.180   1.182   8.358 -0.0876  0.2409 -0.1721
 5478SOL    HW127893   4.237   1.223   8.293  0.7020  0.4700  0.6587
 5478SOL    HW227894   4.212   1.229   8.436 -1.0040 -0.1713  0.4535
 5479SOL     OW27895   0.827   3.916   1.583 -0.1229  0.2696  0.2115
 5479SOL    HW127896   0.768   3.972   1.532  2.1918  1.6904 -0.9023
 5479SOL    HW227897   0.821   3.955   1.670 -1.0540  0.5835  0.0074
 5480SOL     OW27898   2.880   4.260  13.768  0.0014 -0.2580 -0.2855
 5480SOL    HW127899   2.832   4.321  13.824 -0.4899  0.4836 -1.4883
 5480SOL    HW227900   2.897   4.192  13.832  2.2004  1.4300  0.9108
 5481SOL     OW27901   2.662   4.273   9.492  0.6536 -0.1651 -0.6060
 5481SOL    HW127902   2.663   4.223   9.574  0.3904 -0.1804 -0.6145
 5481SOL    HW227903   2.619   4.358   9.501 -0.1733 -0.4978 -1.4389
 5482SOL     OW27904   4.453   0.344   8.626  0.3984  0.5788 -0.4178
 5482SOL    HW127905   4.478   0.252   8.627 -0.3763  0.3730 -0.2735
 5482SOL    HW227906   4.477   0.377   8.713  0.4320  0.2735 -0.3131
 5483SOL     OW27907   0.925   0.765  12.997 -0.4012 -0.2523 -0.3720
 5483SOL    HW127908   0.845   0.737  12.953  0.8256  1.3117 -3.5790
 5483SOL    HW227909   0.961   0.676  13.003  0.6852  0.4012  2.5804
 5484SOL     OW27910   4.558   1.775   2.021  0.1793  0.3274 -0.0442
 5484SOL    HW127911   4.582   1.693   1.979 -2.1773 -0.1950 -0.3634
 5484SOL    HW227912   4.631   1.814   2.070  0.4391 -0.4446  0.1799
 5485SOL     OW27913   0.377   2.182   9.116 -0.5267 -0.0436  0.2768
 5485SOL    HW127914   0.336   2.101   9.145 -1.0393 -0.2590 -1.0451
 5485SOL    HW227915   0.407   2.224   9.197 -1.7983  1.6389 -0.1159
 5486SOL     OW27916   0.773   1.340   1.257  0.1944  0.1049  0.2929
 5486SOL    HW127917   0.849   1.282   1.267  0.5532  0.5963  0.4232
 5486SOL    HW227918   0.713   1.280   1.215  0.4941 -0.2141  0.3185
 5487SOL     OW27919   2.593   0.869   7.606 -0.0850 -0.1034 -0.2441
 5487SOL    HW127920   2.627   0.795   7.557  2.0629 -0.0731  1.2117
 5487SOL    HW227921   2.611   0.940   7.545 -2.7105 -0.0605 -1.0002
 5488SOL     OW27922   0.113   0.308   6.790 -0.1530  0.1333  0.8176
 5488SOL    HW127923   0.040   0.369   6.799 -0.3219  0.3345 -2.0470
 5488SOL    HW227924   0.133   0.332   6.700 -0.1908 -1.2149  0.4507
 5489SOL     OW27925   0.500   1.279  14.437  0.2556 -0.2116 -0.1582
 5489SOL    HW127926   0.525   1.369  14.461  1.8973 -1.0044  1.0407
 5489SOL    HW227927   0.526   1.264  14.346 -0.9050  1.4865 -0.7730
 5490SOL     OW27928   1.300   2.809  17.668  0.3295  0.0622 -0.0558
 5490SOL    HW127929   1.270   2.889   0.004 -0.2161  0.7372 -1.6572
 5490SOL    HW227930   1.219   2.768  17.638 -0.1423  0.7273  0.3094
 5491SOL     OW27931   3.430   0.939   3.267 -0.6285 -0.3465 -0.3340
 5491SOL    HW127932   3.442   0.852   3.306 -0.5312  1.6307  4.0473
 5491SOL    HW227933   3.369   0.983   3.327 -0.4923 -0.3140 -0.2193
 5492SOL     OW27934   4.310   3.491   0.210  1.0379  0.4438 -0.5025
 5492SOL    HW127935   4.365   3.550   0.158 -0.0887  1.5159 -0.4690
 5492SOL    HW227936   4.232   3.544   0.224  0.0303 -1.7966  2.3135
 5493SOL     OW27937   1.150   3.605   0.902  0.1187 -0.0142 -0.4843
 5493SOL    HW127938   1.186   3.594   0.814 -1.8339 -0.1912 -1.2532
 5493SOL    HW227939   1.217   3.553   0.947  0.5482 -0.1866 -1.3088
 5494SOL     OW27940   0.342   3.306  16.987 -0.3593  0.7111 -0.2020
 5494SOL    HW127941   0.363   3.242  17.055  1.7620  0.2984 -1.2550
 5494SOL    HW227942   0.346   3.392  17.027 -0.9685 -0.1218  1.6511
 5495SOL     OW27943   0.309   1.234   3.064 -0.4389 -0.1316  0.6318
 5495SOL    HW127944   0.336   1.142   3.065  0.9557  0.3176  2.1152
 5495SOL    HW227945   0.270   1.240   3.151 -0.9596  0.6535  0.3507
 5496SOL     OW27946   1.638   1.234   2.703  0.2805 -0.0986 -0.3321
 5496SOL    HW127947   1.612   1.231   2.611 -1.7151 -0.4149  0.2381
 5496SOL    HW227948   1.559   1.209   2.751 -0.8388  0.3121 -1.9724
 5497SOL     OW27949   3.571   2.558   6.414  0.2593  0.1370 -0.4277
 5497SOL    HW127950   3.481   2.586   6.394 -0.1593 -0.7675  0.1705
 5497SOL    HW227951   3.612   2.644   6.405 -0.1142  0.2331 -1.2187
 5498SOL     OW27952   4.303   2.130  12.136  0.4076 -0.4750  0.6390
 5498SOL    HW127953   4.318   2.049  12.088 -3.2162 -0.1626 -1.0618
 5498SOL    HW227954   4.364   2.194  12.100  0.9338 -0.6900  1.1478
 5499SOL     OW27955   1.757   2.946   7.038 -0.5497 -0.2499  0.1050
 5499SOL    HW127956   1.742   2.876   7.102 -0.5047  0.2833  0.6918
 5499SOL    HW227957   1.852   2.953   7.046 -0.1323 -2.6818 -2.8718
 5500SOL     OW27958   0.199   3.495  10.680  0.0178  0.2158 -0.2569
 5500SOL    HW127959   0.260   3.483  10.753  0.7513  0.7552 -0.7840
 5500SOL    HW227960   0.130   3.545  10.725  0.2673 -0.1187  0.5048
 5501SOL     OW27961   4.099   0.450   6.946  0.0154  0.1639 -0.1778
 5501SOL    HW127962   4.076   0.542   6.960  0.0945 -0.2937  2.8110
 5501SOL    HW227963   4.146   0.436   7.028 -1.5396  1.1850  0.8687
 5502SOL     OW27964   1.568   2.466  13.493 -0.1949 -0.4234 -0.1657
 5502SOL    HW127965   1.653   2.505  13.514 -1.0398  1.1544  0.3787
 5502SOL    HW227966   1.571   2.470  13.398 -0.2767  1.2372 -0.0982
 5503SOL     OW27967   0.520   1.294   6.191  0.5067 -0.0128 -0.7402
 5503SOL    HW127968   0.486   1.352   6.259  3.4550  0.4693  0.2948
 5503SOL    HW227969   0.460   1.222   6.210  0.0480  0.6842  0.4533
 5504SOL     OW27970   1.816   0.900  15.375 -0.3092  0.2002 -0.1180
 5504SOL    HW127971   1.801   0.853  15.293 -0.4943 -0.8861  0.5248
 5504SOL    HW227972   1.902   0.939  15.361 -0.7445  1.9781  2.2064
 5505SOL     OW27973   2.117   3.249   7.321  0.1908  0.4558 -0.0115
 5505SOL    HW127974   2.156   3.306   7.387  0.2583  0.4743 -0.0660
 5505SOL    HW227975   2.181   3.180   7.302  1.3834  0.7575  2.9076
 5506SOL     OW27976   2.871   1.012   4.238  0.7255  0.5225 -0.5038
 5506SOL    HW127977   2.855   1.061   4.157  2.3083  0.4694 -0.8605
 5506SOL    HW227978   2.868   1.084   4.301  0.9202  1.2774 -1.3502
 5507SOL     OW27979   4.271   1.142   3.462 -0.3152 -0.1623 -0.5489
 5507SOL    HW127980   4.195   1.102   3.504 -1.0275  1.2011 -0.5355
 5507SOL    HW227981   4.340   1.104   3.516  0.5095  1.1197 -0.7017
 5508SOL     OW27982   0.724   3.627   5.792  0.1076 -0.0888 -0.0983
 5508SOL    HW127983   0.630   3.642   5.795  0.2458  0.7220  0.1391
 5508SOL    HW227984   0.758   3.689   5.727  0.1140 -0.1891 -0.1905
 5509SOL     OW27985   4.493   3.786  16.993 -0.0221  0.1047 -0.2116
 5509SOL    HW127986   4.507   3.714  17.054  0.9480  1.5081  1.2040
 5509SOL    HW227987   4.434   3.834  17.051  0.8805  0.6602  0.2407
 5510SOL     OW27988   3.922   0.545   4.164  0.6165  0.2688  0.5217
 5510SOL    HW127989   3.927   0.626   4.113 -2.3680  0.6892  0.9046
 5510SOL    HW227990   3.944   0.577   4.251  0.7589  0.6797  0.3322
 5511SOL     OW27991   2.594   1.424   7.562 -0.0398  0.1193 -0.1443
 5511SOL    HW127992   2.609   1.500   7.619 -0.2585  0.3856 -0.4357
 5511SOL    HW227993   2.500   1.436   7.548 -0.1085 -0.0054  0.2127
 5512SOL     OW27994   0.030   0.569   6.995 -0.4315 -0.2043 -0.2943
 5512SOL    HW127995   0.039   0.639   6.930  2.1360 -1.3995 -1.2686
 5512SOL    HW227996   4.688   0.523   6.946 -1.4903  0.6659  0.4048
 5513SOL     OW27997   1.743   3.856  11.193 -0.4174  0.2675  0.4118
 5513SOL    HW127998   1.718   3.793  11.261  1.5457  1.8544  2.5968
 5513SOL    HW227999   1.837   3.847  11.181 -0.0864 -0.7336  3.8806
 5514SOL     OW28000   0.574   4.636   1.292  0.0715  0.5408  0.3030
 5514SOL    HW128001   0.511   4.694   1.249 -0.5585 -2.3686 -2.7089
 5514SOL    HW228002   0.570   4.555   1.241  2.2410  0.2392  0.5870
 5515SOL     OW28003   3.822   4.513  12.403 -0.5446  0.5957  0.2008
 5515SOL    HW128004   3.735   4.539  12.373 -0.5363  2.5410  1.8750
 5515SOL    HW228005   3.804   4.430  12.447 -0.4519  0.0103 -0.8730
 5516SOL     OW28006   0.361   4.139   6.757 -0.1235 -0.0353 -0.2080
 5516SOL    HW128007   0.412   4.162   6.834  0.4500  1.4300 -1.0227
 5516SOL    HW228008   0.411   4.194   6.696 -1.8003  0.9988 -0.6487
 5517SOL     OW28009   4.352   1.505   8.980  0.2223  0.1328 -0.1480
 5517SOL    HW128010   4.349   1.451   8.901  2.9445  1.5258 -1.2228
 5517SOL    HW228011   4.434   1.484   9.024  0.3963  1.0693 -0.0136
 5518SOL     OW28012   0.652   4.533   8.162 -0.0081  0.3348  0.3730
 5518SOL    HW128013   0.708   4.461   8.194 -2.3715 -1.5943  0.1468
 5518SOL    HW228014   0.621   4.493   8.080  0.6048  0.5762  0.0155
 5519SOL     OW28015   3.459   1.333   5.450 -0.5127 -0.2055 -0.4439
 5519SOL    HW128016   3.395   1.264   5.470 -0.4795 -0.6973 -1.9939
 5519SOL    HW228017   3.420   1.419   5.436  0.1177  0.1941  0.2833
 5520SOL     OW28018   3.420   4.026  15.127  0.2641 -0.0643 -0.2961
 5520SOL    HW128019   3.394   4.102  15.075  1.7756  1.5197  1.2690
 5520SOL    HW228020   3.361   4.010  15.201  2.8154 -0.8435  1.5601
 5521SOL     OW28021   0.686   0.900   7.760 -0.8016  0.8284  0.2566
 5521SOL    HW128022   0.750   0.882   7.690  1.0793  1.4245  1.8247
 5521SOL    HW228023   0.752   0.905   7.829 -1.1322 -0.6214  0.6686
 5522SOL     OW28024   0.967   4.001   6.860 -0.4705  0.1596 -0.0575
 5522SOL    HW128025   1.004   3.969   6.943  1.4382  1.2223 -0.4877
 5522SOL    HW228026   0.873   3.999   6.876 -0.1000  1.0362  2.3082
 5523SOL     OW28027   1.979   4.662   2.959 -0.5356  0.4564 -0.0593
 5523SOL    HW128028   1.947   4.610   3.033  1.8534  0.8131  1.2113
 5523SOL    HW228029   1.994   4.599   2.889 -0.2542 -0.1290  0.5330
 5524SOL     OW28030   0.988   4.564   7.465 -0.5563 -0.0309  0.0702
 5524SOL    HW128031   0.934   4.616   7.406  2.1304  2.1479 -0.4306
 5524SOL    HW228032   1.052   4.632   7.487  0.1845 -1.1051  1.2356
 5525SOL     OW28033   4.591   1.526  12.466  0.2311 -0.0082  0.8367
 5525SOL    HW128034   4.590   1.608  12.514  0.0880 -0.3640  1.4450
 5525SOL    HW228035   4.675   1.493  12.498  0.2488 -1.0691 -0.3005
 5526SOL     OW28036   3.475   1.637   8.369  0.0575 -0.3522 -0.1505
 5526SOL    HW128037   3.541   1.706   8.372 -3.8109  3.3514 -1.6950
 5526SOL    HW228038   3.494   1.606   8.458  2.5360  1.3408 -0.0919
 5527SOL     OW28039   2.307   1.163   9.756 -0.1281 -0.0078  0.0253
 5527SOL    HW128040   2.395   1.127   9.744 -0.3801 -0.8478  0.7155
 5527SOL    HW228041   2.255   1.092   9.718  1.0195 -0.2843 -1.0238
 5528SOL     OW28042   3.723   3.275   1.353 -0.6021  0.5006 -0.0133
 5528SOL    HW128043   3.642   3.324   1.366 -1.4166 -1.2011  1.2546
 5528SOL    HW228044   3.735   3.224   1.433 -0.2827  0.5036 -0.0600
 5529SOL     OW28045   1.605   3.107   6.566  0.3446  1.0683 -0.2418
 5529SOL    HW128046   1.672   3.086   6.501  0.6222 -0.1824  0.4560
 5529SOL    HW228047   1.603   3.023   6.612 -0.2721  1.4721  0.4771
 5530SOL     OW28048   2.889   3.748   5.980  0.4787 -0.9371 -0.6364
 5530SOL    HW128049   2.814   3.733   6.037  0.4506 -0.1733 -0.4692
 5530SOL    HW228050   2.929   3.826   6.019  1.7215 -1.7144 -0.3432
 5531SOL     OW28051   2.128   3.869   5.917  0.5088  0.6132 -0.7118
 5531SOL    HW128052   2.122   3.848   5.824  0.2445  1.7236 -0.9455
 5531SOL    HW228053   2.216   3.904   5.929  0.7745 -1.0360  2.1978
 5532SOL     OW28054   3.239   4.330  12.003  0.2526 -0.1110  0.0178
 5532SOL    HW128055   3.287   4.282  12.070  0.0010 -0.5309 -0.1018
 5532SOL    HW228056   3.169   4.268  11.980  0.4514 -0.0534 -0.7487
 5533SOL     OW28057   1.301   4.412   6.201 -0.0576  0.5263  0.5940
 5533SOL    HW128058   1.301   4.507   6.187  0.2063 -0.1067 -3.7320
 5533SOL    HW228059   1.347   4.419   6.285  1.2176  0.3510 -0.0859
 5534SOL     OW28060   3.607   4.407   3.465 -0.0598  0.6959  0.0618
 5534SOL    HW128061   3.583   4.485   3.415  3.5419  2.3141  0.8519
 5534SOL    HW228062   3.522   4.369   3.486 -0.7098  1.5043 -1.1762
 5535SOL     OW28063   3.392   2.392  16.953 -0.3013  0.7680 -0.3466
 5535SOL    HW128064   3.332   2.468  16.951 -0.6652  0.4031 -2.4221
 5535SOL    HW228065   3.341   2.318  16.920 -0.4420  1.4913 -1.7716
 5536SOL     OW28066   3.356   3.783  14.444  0.0578 -0.1879  0.3288
 5536SOL    HW128067   3.370   3.721  14.373 -1.3447  1.6293 -1.5270
 5536SOL    HW228068   3.435   3.771  14.497 -1.3678 -3.4107  1.7245
 5537SOL     OW28069   3.648   3.294   4.501  0.8521 -0.3759 -0.0392
 5537SOL    HW128070   3.709   3.311   4.573 -0.3409 -0.0578  0.8881
 5537SOL    HW228071   3.603   3.378   4.491  0.3002 -0.3853  2.4296
 5538SOL     OW28072   0.567   1.402  15.454 -0.6377  0.6687  0.2479
 5538SOL    HW128073   0.656   1.392  15.419 -1.5035 -0.2312 -1.6877
 5538SOL    HW228074   0.518   1.456  15.392 -0.5346  1.2959  0.7104
 5539SOL     OW28075   1.527   1.605   2.821 -0.2718 -0.0838  0.0712
 5539SOL    HW128076   1.537   1.559   2.737  1.6390  2.0281 -0.8819
 5539SOL    HW228077   1.478   1.683   2.796 -0.7651 -0.3528  0.2098
 5540SOL     OW28078   2.369   4.548   4.832  0.0215  0.0214  0.2788
 5540SOL    HW128079   2.383   4.457   4.859  1.7415  0.8981  2.3205
 5540SOL    HW228080   2.453   4.565   4.790 -0.3590  0.3022 -0.3650
 5541SOL     OW28081   3.012   3.127  11.072 -0.0249 -0.0214  0.3871
 5541SOL    HW128082   3.065   3.138  11.151 -0.7040  0.7348  0.7426
 5541SOL    HW228083   2.971   3.213  11.082  1.4499  0.7662 -0.2734
 5542SOL     OW28084   3.966   3.185   4.313  0.1928  0.0162 -0.8612
 5542SOL    HW128085   3.943   3.270   4.275  1.6416  0.7617 -0.0880
 5542SOL    HW228086   4.002   3.133   4.241  0.9587 -1.7165  0.7674
 5543SOL     OW28087   1.112   2.085   3.237 -0.1017 -0.4836  0.5833
 5543SOL    HW128088   1.062   2.164   3.215 -1.5867 -1.8542 -0.9839
 5543SOL    HW228089   1.094   2.036   3.157  0.2417 -0.1573  0.3072
 5544SOL     OW28090   3.158   3.405   5.405 -0.2460 -0.3139 -0.5722
 5544SOL    HW128091   3.063   3.407   5.401 -0.1839  1.3322 -1.6505
 5544SOL    HW228092   3.171   3.329   5.461 -1.0754  0.4058  0.5853
 5545SOL     OW28093   2.543   2.216   8.609  0.2366 -0.2447  0.1891
 5545SOL    HW128094   2.496   2.280   8.556 -1.2418 -0.1211  1.6465
 5545SOL    HW228095   2.624   2.193   8.563  0.1317 -1.0299  0.4033
 5546SOL     OW28096   3.968   0.183   5.014 -0.2695  0.6120  0.3257
 5546SOL    HW128097   3.985   0.188   4.920 -0.5341  1.1897  0.3116
 5546SOL    HW228098   3.891   0.239   5.018 -0.0694  0.9058  0.0570
 5547SOL     OW28099   4.154   3.264   6.133  0.0163 -0.2195 -0.1628
 5547SOL    HW128100   4.219   3.226   6.074 -1.0836 -0.0797 -1.4844
 5547SOL    HW228101   4.186   3.244   6.220 -1.9760  1.7067  1.0176
 5548SOL     OW28102   2.799   1.884   5.960 -0.2437  0.7246  0.1591
 5548SOL    HW128103   2.752   1.967   5.962 -0.4573  0.5274  2.6568
 5548SOL    HW228104   2.892   1.903   5.951  0.0860 -0.2805  1.4753
 5549SOL     OW28105   1.486   1.944   7.144  0.2145 -0.3417 -0.8716
 5549SOL    HW128106   1.561   1.964   7.201 -1.6558  0.9646  1.1500
 5549SOL    HW228107   1.440   1.877   7.194 -1.5171  2.2378  1.0102
 5550SOL     OW28108   0.940   0.155   8.132 -0.0669  0.1184  0.0586
 5550SOL    HW128109   0.976   0.076   8.093  1.6801 -0.3141  2.5415
 5550SOL    HW228110   0.861   0.161   8.078 -0.3254 -2.4104  0.1727
 5551SOL     OW28111   0.655   2.588  15.289 -0.6253 -0.7185  0.6857
 5551SOL    HW128112   0.609   2.555  15.366  0.3279 -3.2893  0.1870
 5551SOL    HW228113   0.643   2.518  15.224 -1.9270 -0.2400  0.4221
 5552SOL     OW28114   2.072   4.433   5.165 -0.0635 -0.0519 -0.3849
 5552SOL    HW128115   1.988   4.401   5.199  0.7354 -0.2739  1.4035
 5552SOL    HW228116   2.092   4.511   5.216  2.1803 -2.6609  2.7623
 5553SOL     OW28117   3.906   1.626   8.434 -0.4084 -0.1261 -0.3627
 5553SOL    HW128118   3.954   1.559   8.386  0.1033 -0.5236  0.7014
 5553SOL    HW228119   3.974   1.660   8.492 -1.0755 -0.1744  0.4487
 5554SOL     OW28120   4.010   2.690  17.687 -0.0411  0.6504 -0.2077
 5554SOL    HW128121   3.951   2.710  17.614  1.2457  0.9483 -1.1468
 5554SOL    HW228122   4.060   2.770  17.703  0.4880  0.4502 -0.8949
 5555SOL     OW28123   0.241   0.574   6.207 -0.1781 -0.3832  0.5523
 5555SOL    HW128124   0.155   0.614   6.218  0.0689  0.2191  0.3057
 5555SOL    HW228125   0.247   0.563   6.112  0.7518 -0.5160  0.6235
 5556SOL     OW28126   1.530   1.031   4.258 -0.1013 -0.0404  0.3286
 5556SOL    HW128127   1.533   0.950   4.309 -0.7079  0.8232  1.7426
 5556SOL    HW228128   1.615   1.031   4.214 -0.9230 -0.3947 -1.2606
 5557SOL     OW28129   2.802   4.352   2.786  0.4351  0.2923 -0.3261
 5557SOL    HW128130   2.816   4.258   2.794  1.0029  0.2478 -1.9812
 5557SOL    HW228131   2.743   4.365   2.861  1.9472 -0.4198  0.9770
 5558SOL     OW28132   1.408   3.699  11.793 -0.2329  0.1597 -0.5724
 5558SOL    HW128133   1.352   3.751  11.850 -0.3716  0.0541 -0.6124
 5558SOL    HW228134   1.496   3.727  11.818  0.6640 -0.5117 -2.9677
 5559SOL     OW28135   0.010   3.599  17.401 -0.0481  0.0004  0.2116
 5559SOL    HW128136   0.063   3.530  17.361  0.1599 -1.5954  3.1561
 5559SOL    HW228137   4.668   3.617  17.337 -0.4390 -0.7307  0.4206
 5560SOL     OW28138   2.280   1.229   4.379 -0.4067 -0.2944 -0.2404
 5560SOL    HW128139   2.302   1.136   4.374  1.2168  0.1446 -1.2885
 5560SOL    HW228140   2.221   1.245   4.305 -0.5717  1.6722  0.3020
 5561SOL     OW28141   1.688   4.500   0.750  0.1178  0.9589  0.2031
 5561SOL    HW128142   1.706   4.512   0.656 -0.5172 -0.8655 -0.1445
 5561SOL    HW228143   1.691   4.407   0.770  0.1175  1.3240  1.9258
 5562SOL     OW28144   4.157   0.157   6.134 -0.1368  0.4133 -0.0106
 5562SOL    HW128145   4.141   0.201   6.218  1.3098 -2.4101  1.7370
 5562SOL    HW228146   4.238   0.111   6.154 -0.6957  0.4434  2.2998
 5563SOL     OW28147   1.551   2.480   7.859 -0.4579 -0.2427  0.1812
 5563SOL    HW128148   1.512   2.549   7.806  1.6088  0.4626 -0.4454
 5563SOL    HW228149   1.480   2.417   7.871  0.1786 -1.4689 -2.4882
 5564SOL     OW28150   2.419   1.397   5.442 -0.5294  0.0976 -0.2685
 5564SOL    HW128151   2.439   1.469   5.383 -2.8028  2.5212  1.9350
 5564SOL    HW228152   2.353   1.442   5.495 -0.0668  1.5016 -0.8830
 5565SOL     OW28153   1.916   2.397   8.149  0.3596 -0.0181 -0.2787
 5565SOL    HW128154   1.940   2.424   8.238 -0.6688  0.3184 -0.1100
 5565SOL    HW228155   1.866   2.468   8.108  1.7695 -0.1429 -2.2194
 5566SOL     OW28156   0.833   0.600   1.173 -0.0948 -0.0900 -0.3942
 5566SOL    HW128157   0.744   0.564   1.164  0.0923 -0.4270 -0.8850
 5566SOL    HW228158   0.849   0.621   1.081 -0.8821  0.9231 -0.3063
 5567SOL     OW28159   0.497   0.680   1.844  0.3644  0.1317 -0.2019
 5567SOL    HW128160   0.491   0.612   1.777 -0.4709  1.9760 -2.0140
 5567SOL    HW228161   0.528   0.758   1.797 -0.0655 -0.4007 -1.3696
 5568SOL     OW28162   3.976   3.167   9.971  0.5734 -0.1460  0.2610
 5568SOL    HW128163   3.962   3.187  10.063 -1.7293  0.8423 -0.3137
 5568SOL    HW228164   4.024   3.084   9.978 -0.2493 -0.8135 -1.7001
 5569SOL     OW28165   2.251   0.811   7.153 -0.3012  0.2310 -0.3485
 5569SOL    HW128166   2.234   0.890   7.204 -0.9161  0.7245 -1.3065
 5569SOL    HW228167   2.167   0.765   7.147  0.0718 -0.5893  0.8625
 5570SOL     OW28168   2.360   0.856  14.068 -0.2641 -0.0917 -0.2523
 5570SOL    HW128169   2.407   0.825  14.145 -0.0033 -2.9944 -1.5726
 5570SOL    HW228170   2.308   0.923  14.111  0.3766 -0.5118  1.1682
 5571SOL     OW28171   0.421   1.128   2.267 -0.6162  0.0434  0.3154
 5571SOL    HW128172   0.478   1.108   2.340  0.5513 -2.7062 -1.3629
 5571SOL    HW228173   0.349   1.073   2.297 -0.9643  1.0024  1.2555
 5572SOL     OW28174   3.784   1.731  11.111 -0.5030  0.9100  0.2326
 5572SOL    HW128175   3.845   1.751  11.040  0.4902  0.1356  0.8746
 5572SOL    HW228176   3.712   1.701  11.055 -1.7888  0.8200  1.9234
 5573SOL     OW28177   4.425   0.014  16.210  0.2044  0.6090 -0.6612
 5573SOL    HW128178   4.486   0.063  16.265 -0.1615 -1.3058  1.4666
 5573SOL    HW228179   4.458   0.038  16.123  0.1564  0.0602 -0.8288
 5574SOL     OW28180   1.997   0.839   6.149 -0.5845 -0.6179 -0.2394
 5574SOL    HW128181   1.981   0.787   6.070  2.9701  1.6042 -2.3818
 5574SOL    HW228182   1.916   0.850   6.199  0.1418  0.5426  0.6653
 5575SOL     OW28183   0.262   2.774   4.851 -0.0394  0.0047 -0.6569
 5575SOL    HW128184   0.233   2.754   4.940  2.7066  0.5654  0.3632
 5575SOL    HW228185   0.315   2.851   4.869  0.6803 -0.3707 -1.1885
 5576SOL     OW28186   3.731   2.151   7.569 -0.2211 -0.2427  0.0563
 5576SOL    HW128187   3.710   2.240   7.597  0.3924  0.2388 -1.0371
 5576SOL    HW228188   3.661   2.104   7.615  1.5818 -2.9628  0.0149
 5577SOL     OW28189   1.680   0.706  10.818  0.0278 -0.2815  0.1362
 5577SOL    HW128190   1.657   0.633  10.761  1.1533  0.8912 -1.7872
 5577SOL    HW228191   1.615   0.700  10.889 -0.2805  2.0046  0.0606
 5578SOL     OW28192   0.299   1.575   3.815  0.5301 -0.2969  0.7057
 5578SOL    HW128193   0.261   1.646   3.763  0.9690 -0.2573  0.4274
 5578SOL    HW228194   0.284   1.497   3.763 -0.6759  0.3772  0.0364
 5579SOL     OW28195   4.006   2.664  13.573 -0.3402 -0.1401  0.8101
 5579SOL    HW128196   4.054   2.593  13.616  0.4724  0.9161  1.6420
 5579SOL    HW228197   3.950   2.694  13.645 -0.3561 -0.1332  0.7948
 5580SOL     OW28198   0.764   2.494  11.863  0.1141 -0.3947 -0.3526
 5580SOL    HW128199   0.768   2.453  11.776  1.5055 -1.3591  0.1596
 5580SOL    HW228200   0.776   2.587  11.844  0.9831 -0.4947 -0.2883
 5581SOL     OW28201   3.129   3.694   7.398  0.4384 -0.4946 -0.1475
 5581SOL    HW128202   3.181   3.749   7.456 -1.8810  0.3074  1.1739
 5581SOL    HW228203   3.199   3.647   7.353 -1.6143 -2.5854 -1.1390
 5582SOL     OW28204   3.477   0.807   0.354  0.4690 -0.5147 -0.4424
 5582SOL    HW128205   3.412   0.840   0.293 -0.4846 -2.6572 -0.5890
 5582SOL    HW228206   3.536   0.882   0.366  1.0612 -0.6831 -2.2851
 5583SOL     OW28207   2.913   2.216   8.725 -0.1506  0.5433  0.8866
 5583SOL    HW128208   2.964   2.207   8.644  0.8893  1.0497  1.4794
 5583SOL    HW228209   2.840   2.154   8.719  0.2693  0.2219 -0.9735
 5584SOL     OW28210   2.300   1.421   7.486 -0.5860 -0.9983 -0.1468
 5584SOL    HW128211   2.285   1.404   7.579  1.1024 -2.0685 -0.0735
 5584SOL    HW228212   2.225   1.377   7.446 -1.0840  1.3325 -1.7677
 5585SOL     OW28213   1.251   0.267   1.967  0.1850  0.2773  0.0705
 5585SOL    HW128214   1.226   0.355   1.937  0.8703  0.8704  1.2306
 5585SOL    HW228215   1.333   0.288   2.012  1.1778 -0.7828 -1.2793
 5586SOL     OW28216   3.326   3.527  14.591 -0.2296  0.0622  0.2483
 5586SOL    HW128217   3.257   3.586  14.621  0.4377  1.0073 -0.0613
 5586SOL    HW228218   3.284   3.480  14.519 -1.5134 -1.7003  2.1424
 5587SOL     OW28219   2.679   3.738   7.238  0.2666 -0.4995  0.1253
 5587SOL    HW128220   2.655   3.830   7.249 -1.3750 -1.0800  1.3352
 5587SOL    HW228221   2.774   3.755   7.244  0.1553  0.3667 -0.6257
 5588SOL     OW28222   2.006   3.462   3.912  0.2633 -0.1947  0.0647
 5588SOL    HW128223   1.948   3.537   3.927 -0.0845 -0.4295 -0.0866
 5588SOL    HW228224   1.980   3.403   3.983  0.8766 -1.4019 -0.7050
 5589SOL     OW28225   4.460   2.360   8.824  0.4025 -0.4380 -0.3051
 5589SOL    HW128226   4.411   2.430   8.869  1.0474  0.3431 -0.8147
 5589SOL    HW228227   4.475   2.404   8.741  1.5773 -0.1465  0.0665
 5590SOL     OW28228   1.766   4.294   4.067 -0.1096  0.2010  0.1035
 5590SOL    HW128229   1.847   4.336   4.098 -0.7651  2.3949 -1.1730
 5590SOL    HW228230   1.791   4.236   3.994 -3.4141  0.2467 -1.0495
 5591SOL     OW28231   4.524   1.033   3.862  0.2863  0.2226 -0.7858
 5591SOL    HW128232   4.556   1.123   3.862 -0.4580  0.4911  1.1641
 5591SOL    HW228233   4.461   1.041   3.934  0.6800 -1.8094 -0.2122
 5592SOL     OW28234   2.973   0.923   0.703  0.4033  0.0193  0.2161
 5592SOL    HW128235   2.995   1.015   0.690 -0.7352 -0.0355 -2.1162
 5592SOL    HW228236   3.048   0.879   0.664 -1.4054 -0.3913 -2.7865
 5593SOL     OW28237   2.081   2.717   4.373  0.5826 -0.8488  0.5512
 5593SOL    HW128238   2.039   2.633   4.356  1.7011 -1.5119  1.0598
 5593SOL    HW228239   2.134   2.693   4.449  1.7041 -2.1224 -0.6437
 5594SOL     OW28240   4.512   4.331   4.771  0.3105 -0.2147  0.2111
 5594SOL    HW128241   4.586   4.276   4.747  0.4249 -0.3513  0.8617
 5594SOL    HW228242   4.449   4.262   4.790  0.5289 -0.3040  0.6245
 5595SOL     OW28243   0.099   3.779   6.501 -0.1773 -0.4723 -0.0846
 5595SOL    HW128244   0.107   3.869   6.469 -2.0771 -0.5883 -0.8486
 5595SOL    HW228245   0.119   3.726   6.424  0.7812 -1.2451  0.6743
 5596SOL     OW28246   3.018   4.165  12.419 -0.0422  0.4140 -0.7282
 5596SOL    HW128247   3.044   4.127  12.335  0.8361 -0.9242  0.1480
 5596SOL    HW228248   3.093   4.152  12.477 -0.0431  0.8538 -0.6287
 5597SOL     OW28249   4.396   1.227   2.980 -0.7628  0.0670  0.1669
 5597SOL    HW128250   4.324   1.165   2.990 -1.1266 -0.0173 -2.9923
 5597SOL    HW228251   4.426   1.235   3.070 -0.3196  0.6615 -0.0340
 5598SOL     OW28252   0.635   1.611   5.523  0.1210 -0.6355  0.1664
 5598SOL    HW128253   0.708   1.574   5.473 -0.7747  0.2280 -1.7522
 5598SOL    HW228254   0.681   1.621   5.607 -0.7371 -0.2083  0.5847
 5599SOL     OW28255   2.021   1.320   1.334 -0.2684 -0.1461 -0.5849
 5599SOL    HW128256   2.007   1.277   1.250 -0.9731 -2.3508  0.6763
 5599SOL    HW228257   2.079   1.257   1.377 -0.2693  0.5781  0.4691
 5600SOL     OW28258   2.099   0.610   6.914  0.2181 -0.4397 -0.0901
 5600SOL    HW128259   2.144   0.666   6.852  2.1388 -0.2946  1.4476
 5600SOL    HW228260   2.028   0.668   6.941  1.0270  0.1658  0.7176
 5601SOL     OW28261   4.337   3.265   9.795 -0.0105 -0.2712 -0.0155
 5601SOL    HW128262   4.274   3.220   9.740  0.0612  0.3303 -0.5868
 5601SOL    HW228263   4.349   3.196   9.860  2.4291  0.0078 -0.1355
 5602SOL     OW28264   4.475   1.958  13.597  0.1754  0.0392  0.2079
 5602SOL    HW128265   4.531   1.953  13.675 -0.7540  2.3508  1.0385
 5602SOL    HW228266   4.510   2.034  13.551 -0.2103 -0.8783 -1.5695
 5603SOL     OW28267   1.201   0.050   7.212  0.6806  0.2644  0.2807
 5603SOL    HW128268   1.172   4.689   7.187  2.8969  0.2288 -2.1455
 5603SOL    HW228269   1.237   0.032   7.299  1.4502  1.5455  0.2296
 5604SOL     OW28270   4.622   0.041   1.987  0.5243  0.1947 -0.1209
 5604SOL    HW128271   4.575   0.123   1.968  0.7501 -0.0214 -1.6229
 5604SOL    HW228272   4.654   0.070   2.073 -1.7321  0.2574  0.7074
 5605SOL     OW28273   3.589   4.248   7.399  0.1436 -0.3106  0.7998
 5605SOL    HW128274   3.558   4.251   7.308 -1.6544 -0.8331  1.4004
 5605SOL    HW228275   3.504   4.225   7.436 -1.0711 -1.0977 -2.4986
 5606SOL     OW28276   0.612   2.690   5.423  0.0762  0.1985 -0.0055
 5606SOL    HW128277   0.646   2.629   5.489 -1.4938  0.7021  1.2705
 5606SOL    HW228278   0.545   2.635   5.382  0.9492  1.3586 -2.9706
 5607SOL     OW28279   2.532   1.559   6.650 -0.8901 -0.4681  0.2843
 5607SOL    HW128280   2.481   1.630   6.612 -1.2647 -0.3156  1.0768
 5607SOL    HW228281   2.485   1.483   6.616 -2.2106  0.3768  0.2445
 5608SOL     OW28282   0.993   4.030  13.136 -0.7273  0.0233  0.0400
 5608SOL    HW128283   0.915   3.987  13.172  1.0326 -1.5463  1.9881
 5608SOL    HW228284   0.957   4.106  13.090  1.3834 -0.4624 -2.4004
 5609SOL     OW28285   2.073   0.944   0.241  0.2064  0.4421  0.1284
 5609SOL    HW128286   2.050   0.868   0.187 -1.1982  0.6169  0.4911
 5609SOL    HW228287   2.152   0.976   0.198 -0.7827  1.2820 -1.0631
 5610SOL     OW28288   0.207   1.983   6.785  0.0763  0.3610 -0.1459
 5610SOL    HW128289   0.256   1.939   6.716 -1.7135  1.9180 -2.3726
 5610SOL    HW228290   0.136   2.022   6.735  1.5578  1.4884 -1.3483
 5611SOL     OW28291   0.166   1.788   8.979  0.0086 -0.3835 -0.1327
 5611SOL    HW128292   0.188   1.876   9.009  2.0011 -0.4493 -1.4555
 5611SOL    HW228293   0.105   1.797   8.905  1.6376 -0.2456 -1.4555
 5612SOL     OW28294   4.164   3.865   7.670  0.5618  0.4208  0.2867
 5612SOL    HW128295   4.246   3.842   7.626 -0.5664 -0.6885 -1.2219
 5612SOL    HW228296   4.191   3.946   7.715 -0.2666 -0.3009  2.0726
 5613SOL     OW28297   3.765   2.409   6.858  0.0936 -0.2514  0.0542
 5613SOL    HW128298   3.834   2.350   6.827 -0.4723  0.5626 -2.7986
 5613SOL    HW228299   3.717   2.361   6.925 -1.7983  1.2197 -0.2298
 5614SOL     OW28300   3.846   3.122  11.815 -0.1383  0.4397  0.5134
 5614SOL    HW128301   3.854   3.071  11.896  1.2445 -0.2286 -0.0475
 5614SOL    HW228302   3.823   3.208  11.850 -2.1851 -1.6051  4.1171
 5615SOL     OW28303   0.908   0.978   0.782  0.1280 -0.6059 -0.3511
 5615SOL    HW128304   0.926   0.888   0.755 -0.5604 -0.4874 -1.2423
 5615SOL    HW228305   0.897   0.966   0.877  0.0171  1.3092 -0.1211
 5616SOL     OW28306   2.473   3.700   4.055 -0.1893  0.6108 -0.3488
 5616SOL    HW128307   2.453   3.611   4.083 -1.7890  0.9365 -0.4697
 5616SOL    HW228308   2.423   3.754   4.116 -0.5608  1.1480 -1.1309
 5617SOL     OW28309   1.064   3.317   7.119  0.3241  0.1484  0.6251
 5617SOL    HW128310   1.158   3.332   7.114 -0.1588  2.3583 -1.8154
 5617SOL    HW228311   1.036   3.388   7.061  1.3768 -0.6202 -0.8099
 5618SOL     OW28312   2.005   0.534   7.907 -0.0260  0.5803 -0.0007
 5618SOL    HW128313   1.995   0.468   7.976  0.2143  1.2565  0.6813
 5618SOL    HW228314   1.934   0.592   7.932  0.7830  2.6038 -2.3679
 5619SOL     OW28315   1.109   3.584   1.185  0.2720  0.0825  0.1543
 5619SOL    HW128316   1.142   3.499   1.157  1.1817  0.1806  0.9091
 5619SOL    HW228317   1.112   3.630   1.101 -0.4194 -0.7457 -0.3222
 5620SOL     OW28318   4.725   3.811   4.796 -0.1843 -0.3377  0.4906
 5620SOL    HW128319   0.038   3.786   4.879 -1.0572  4.3066  2.3273
 5620SOL    HW228320   0.065   3.807   4.727 -1.4347  0.5090 -0.7741
 5621SOL     OW28321   1.007   4.352   7.630 -0.3853  0.1705  0.1450
 5621SOL    HW128322   1.095   4.317   7.615 -0.3153  0.1941  0.4929
 5621SOL    HW228323   1.019   4.418   7.562 -0.1644  1.2625  1.2323
 5622SOL     OW28324   3.282   2.527   1.703 -0.1105  0.1899 -0.3890
 5622SOL    HW128325   3.313   2.617   1.697 -0.5354  0.3141 -0.7496
 5622SOL    HW228326   3.190   2.526   1.675 -0.5761 -1.3288  1.1672
 5623SOL     OW28327   3.296   2.071   8.235 -0.4320  0.1724 -0.3049
 5623SOL    HW128328   3.270   2.025   8.314 -0.4511 -0.7303 -0.8355
 5623SOL    HW228329   3.375   2.018   8.218 -0.0292  1.2552 -1.8240
 5624SOL     OW28330   0.492   0.992  14.482  0.3332 -0.1064 -0.2227
 5624SOL    HW128331   0.580   0.955  14.487  0.7834  0.7662 -1.9161
 5624SOL    HW228332   0.491   1.046  14.403  1.6870  0.0152 -0.1610
 5625SOL     OW28333   0.767   0.837   1.408  0.0693 -0.0502 -0.0052
 5625SOL    HW128334   0.747   0.801   1.322  1.1510  0.8772 -0.6327
 5625SOL    HW228335   0.783   0.929   1.384  1.0884 -0.2351 -0.0260
 5626SOL     OW28336   0.714   3.638   0.815  0.6386 -0.1061  0.0247
 5626SOL    HW128337   0.751   3.692   0.885 -0.2824  0.6656 -0.0853
 5626SOL    HW228338   0.790   3.580   0.816  1.0310  0.3928 -1.0075
 5627SOL     OW28339   0.669   2.491   7.627  0.1285  0.7901  0.3035
 5627SOL    HW128340   0.589   2.472   7.578 -0.6681 -1.6223  2.5271
 5627SOL    HW228341   0.668   2.586   7.636  3.2793  0.8123  0.4822
 5628SOL     OW28342   0.050   3.525   7.436 -0.1023 -0.4740  0.3598
 5628SOL    HW128343   0.065   3.529   7.341  0.3567  0.6816  0.4817
 5628SOL    HW228344   0.037   3.430   7.435 -0.8983 -0.3754  0.9644
 5629SOL     OW28345   0.792   2.704   2.485  0.0759  0.1225  0.5084
 5629SOL    HW128346   0.798   2.770   2.417 -1.2326  0.6490  0.9041
 5629SOL    HW228347   0.719   2.650   2.455  1.8736 -1.7869 -0.4680
 5630SOL     OW28348   3.045   3.327   7.904  0.2624  0.0386  0.2324
 5630SOL    HW128349   3.096   3.377   7.841 -0.4828  0.4660 -0.0325
 5630SOL    HW228350   3.114   3.316   7.969 -1.7746  0.5707  2.5224
 5631SOL     OW28351   0.476   3.025   2.398 -0.7269  0.0391 -0.1395
 5631SOL    HW128352   0.463   2.947   2.344  0.5456 -0.2010 -0.0913
 5631SOL    HW228353   0.511   3.089   2.335 -0.1115  2.0308  2.2313
 5632SOL     OW28354   1.071   0.592   5.938  0.0228  0.0451 -0.3202
 5632SOL    HW128355   1.108   0.671   5.978 -0.2330 -0.3174  0.6312
 5632SOL    HW228356   1.127   0.575   5.862 -2.1073 -0.8099 -1.7067
 5633SOL     OW28357   4.531   2.044   9.379 -1.0824 -0.2448 -0.3157
 5633SOL    HW128358   4.468   2.031   9.450 -0.3391  1.6442  0.6818
 5633SOL    HW228359   4.524   2.138   9.360 -1.0221 -0.0842  0.4466
 5634SOL     OW28360   0.678   4.539   2.413  0.2594 -0.9889  0.1252
 5634SOL    HW128361   0.752   4.479   2.422 -1.2139 -2.8973 -0.5421
 5634SOL    HW228362   0.665   4.548   2.319 -0.0998 -0.8629  0.1879
 5635SOL     OW28363   1.641   0.627   7.240 -0.0319 -0.0503 -0.2540
 5635SOL    HW128364   1.662   0.574   7.163  1.1718 -0.2932  0.2376
 5635SOL    HW228365   1.575   0.573   7.284 -0.7431  1.2844  0.3128
 5636SOL     OW28366   1.728   0.042   8.815 -0.4890 -0.0002  0.0325
 5636SOL    HW128367   1.809   0.004   8.780 -0.0429  2.3361 -1.4872
 5636SOL    HW228368   1.669   4.694   8.825  2.0557 -1.8850  1.0382
 5637SOL     OW28369   1.689   3.273  16.282 -0.6478  0.3177 -0.8604
 5637SOL    HW128370   1.756   3.318  16.231  1.9406 -0.6292  1.6996
 5637SOL    HW228371   1.647   3.346  16.328 -1.4517 -0.8413  0.2345
 5638SOL     OW28372   0.350   0.690   6.904  0.0789 -0.0368  0.0833
 5638SOL    HW128373   0.444   0.680   6.919  0.0236 -1.7449 -0.7599
 5638SOL    HW228374   0.317   0.601   6.916 -1.3638  0.5230  0.2913
 5639SOL     OW28375   3.187   0.289   8.611 -0.2992  0.0215 -0.6215
 5639SOL    HW128376   3.239   0.230   8.556  0.2094  0.6948 -0.8749
 5639SOL    HW228377   3.258   0.325   8.665  0.6078  0.7290 -2.2875
 5640SOL     OW28378   3.332   1.923  15.477  0.5232  0.0530  0.4131
 5640SOL    HW128379   3.379   1.862  15.420 -3.0546 -0.7602 -1.7015
 5640SOL    HW228380   3.368   2.011  15.469  0.3000  0.1382  0.3411
 5641SOL     OW28381   3.638   0.760  15.785 -0.1247  0.5448  0.0704
 5641SOL    HW128382   3.667   0.762  15.693  0.0882 -2.0810  0.0665
 5641SOL    HW228383   3.684   0.835  15.823  2.1870 -0.6648 -0.3128
 5642SOL     OW28384   4.701   3.523   4.190 -0.0465  0.4670 -0.4475
 5642SOL    HW128385   4.707   3.438   4.148 -0.4674  0.1027  0.2309
 5642SOL    HW228386   0.052   3.511   4.245 -0.1422 -0.2056 -0.4572
 5643SOL     OW28387   3.236   3.407  16.360  0.4008  0.1839  0.2154
 5643SOL    HW128388   3.312   3.429  16.305 -0.8678  0.0550 -1.6008
 5643SOL    HW228389   3.160   3.403  16.301 -0.0703  0.2062  0.8265
 5644SOL     OW28390   0.748   0.661   9.358  0.3310  0.1231 -0.1392
 5644SOL    HW128391   0.753   0.756   9.362  1.3547  0.1448 -2.1618
 5644SOL    HW228392   0.841   0.644   9.375  0.6787  2.7754  0.6173
 5645SOL     OW28393   2.790   2.848   7.782 -0.0146 -0.0954  0.0246
 5645SOL    HW128394   2.825   2.934   7.805 -0.4104 -0.3249  1.5266
 5645SOL    HW228395   2.704   2.857   7.824 -0.7303 -0.8027 -1.2848
 5646SOL     OW28396   1.767   2.767  10.714  0.4518  0.1947  0.0370
 5646SOL    HW128397   1.793   2.681  10.682  3.2748  0.0017  2.9143
 5646SOL    HW228398   1.760   2.810  10.628  0.9354 -0.2283 -0.2130
 5647SOL     OW28399   3.385   3.395   7.550 -0.0092 -0.1740  0.6973
 5647SOL    HW128400   3.380   3.430   7.460  0.4826 -3.4445 -0.5830
 5647SOL    HW228401   3.469   3.436   7.569  0.9549 -1.2282 -1.3202
 5648SOL     OW28402   1.564   3.574   3.440 -0.2799 -0.3124 -0.0212
 5648SOL    HW128403   1.508   3.506   3.477  0.1374 -1.0306 -0.7160
 5648SOL    HW228404   1.600   3.531   3.363  0.5207  0.8522 -0.3020
 5649SOL     OW28405   4.376   3.100   5.731  0.4094  0.2554 -0.0046
 5649SOL    HW128406   4.470   3.085   5.734  0.3183 -0.3128  0.1120
 5649SOL    HW228407   4.368   3.145   5.647  0.6631  0.5895  0.1495
 5650SOL     OW28408   2.481   3.459   6.628  0.5514  0.0853 -0.3219
 5650SOL    HW128409   2.463   3.540   6.675 -3.3701 -0.7190 -0.4707
 5650SOL    HW228410   2.394   3.428   6.606  0.4909 -0.4416  0.6787
 5651SOL     OW28411   2.549   1.638   8.903 -0.0767  0.5243 -0.1539
 5651SOL    HW128412   2.575   1.708   8.963  0.0961 -0.3523  0.7853
 5651SOL    HW228413   2.568   1.566   8.963 -0.4036 -0.6371 -1.4379
 5652SOL     OW28414   3.326   4.214   7.793 -0.4905 -0.3899 -0.2432
 5652SOL    HW128415   3.404   4.179   7.836 -0.6328  1.0744  1.1996
 5652SOL    HW228416   3.260   4.145   7.792 -1.1197  0.2290 -1.2298
 5653SOL     OW28417   3.783   4.564   5.434  0.3128 -0.8883 -0.5722
 5653SOL    HW128418   3.874   4.578   5.461 -0.1008 -0.3687  0.5437
 5653SOL    HW228419   3.728   4.611   5.496  3.3612  1.2751  0.4616
 5654SOL     OW28420   4.389   3.559   6.749  0.0224  0.2660 -0.4625
 5654SOL    HW128421   4.418   3.610   6.673  1.8328 -0.5710 -0.3250
 5654SOL    HW228422   4.463   3.502   6.769  0.3580  1.8156  2.7693
 5655SOL     OW28423   4.164   1.372   9.569  0.3133  0.8932 -0.3816
 5655SOL    HW128424   4.223   1.324   9.627  0.0055  0.2253 -0.6187
 5655SOL    HW228425   4.216   1.372   9.488  1.2047 -1.7201  0.2027
 5656SOL     OW28426   0.903   3.316   8.525 -0.3471 -0.5537 -0.0175
 5656SOL    HW128427   0.977   3.281   8.574  1.2984  0.3730 -1.8130
 5656SOL    HW228428   0.931   3.304   8.434 -0.7853  0.8800 -0.3473
 5657SOL     OW28429   0.668   1.666   9.528  0.0264  0.2399 -0.0185
 5657SOL    HW128430   0.689   1.753   9.563  0.5871  0.5133 -1.0428
 5657SOL    HW228431   0.658   1.618   9.610  0.2082  2.0624  1.0763
 5658SOL     OW28432   4.571   4.539  11.148  0.5713  0.0252  0.6004
 5658SOL    HW128433   4.527   4.454  11.143  0.3448  0.2078 -0.5139
 5658SOL    HW228434   4.658   4.517  11.181  0.2766  0.4923  1.6981
 5659SOL     OW28435   1.210   2.848   7.378 -0.6265 -0.0078 -0.0934
 5659SOL    HW128436   1.240   2.895   7.300  0.1579  0.6542  0.5929
 5659SOL    HW228437   1.115   2.852   7.373 -0.6228  0.9164  0.4957
 5660SOL     OW28438   3.183   0.450   7.040  0.2062  0.2565 -0.1562
 5660SOL    HW128439   3.194   0.500   7.121  1.4964  0.6422 -0.5719
 5660SOL    HW228440   3.184   0.363   7.079  1.0643 -1.4536 -4.0604
 5661SOL     OW28441   3.625   2.738   5.868 -0.3161  0.0416  0.3348
 5661SOL    HW128442   3.708   2.712   5.907  0.2211  1.0693 -0.1366
 5661SOL    HW228443   3.565   2.664   5.885  0.9284 -0.7356  1.3062
 5662SOL     OW28444   0.806   1.082   6.338 -0.0073 -0.0343  0.5508
 5662SOL    HW128445   0.782   1.057   6.427  0.9620 -0.2667  0.7560
 5662SOL    HW228446   0.778   1.173   6.338 -2.7105 -0.8785 -2.1095
 5663SOL     OW28447   1.854   2.558  10.562  0.8057 -0.2880 -0.2168
 5663SOL    HW128448   1.929   2.503  10.541  0.0790 -0.2748 -2.8176
 5663SOL    HW228449   1.793   2.497  10.604  2.4250 -0.4095  2.0057
 5664SOL     OW28450   1.812   2.594  13.571  0.3040  0.2105 -0.2124
 5664SOL    HW128451   1.845   2.678  13.541  0.4859  0.3063  0.2580
 5664SOL    HW228452   1.874   2.525  13.545 -0.0316  0.8388 -2.6380
 5665SOL     OW28453   4.411   2.075   5.367  0.1882 -0.8857  0.0121
 5665SOL    HW128454   4.466   2.000   5.390 -0.9499 -1.6689  0.1686
 5665SOL    HW228455   4.365   2.025   5.299 -1.2316  0.9151 -0.3490
 5666SOL     OW28456   0.907   2.436   6.116  0.5532 -0.1289 -0.5526
 5666SOL    HW128457   0.834   2.400   6.066 -0.1078 -0.2598  0.4885
 5666SOL    HW228458   0.955   2.494   6.057  0.7582  0.2930  0.0290
 5667SOL     OW28459   3.553   2.179   5.238  0.2345  0.1839  0.3339
 5667SOL    HW128460   3.529   2.087   5.230 -0.4201  0.4851 -1.1542
 5667SOL    HW228461   3.515   2.229   5.165  1.0741  0.4847  0.1008
 5668SOL     OW28462   2.387   2.593  11.384 -0.1237  0.3160 -0.1944
 5668SOL    HW128463   2.466   2.647  11.387 -0.6734  1.0785  0.8130
 5668SOL    HW228464   2.411   2.523  11.324 -0.9620  1.6879 -2.1249
 5669SOL     OW28465   3.010   1.523  14.016 -0.0107 -0.2311  0.5342
 5669SOL    HW128466   2.991   1.617  14.014 -1.1584 -0.5252 -1.6786
 5669SOL    HW228467   2.945   1.498  13.950  0.0096  1.4541 -0.1342
 5670SOL     OW28468   1.561   3.913  12.960 -0.2817  0.7573 -0.4077
 5670SOL    HW128469   1.610   3.994  12.954  0.6651  0.2581  0.6002
 5670SOL    HW228470   1.622   3.846  12.991  0.2045  1.3352 -0.1380
 5671SOL     OW28471   2.352   0.054  14.524 -0.1821 -0.6591  0.1925
 5671SOL    HW128472   2.438   0.022  14.496  0.0334 -0.9446  1.1560
 5671SOL    HW228473   2.305   4.702  14.496 -1.5891  0.9513 -1.9589
 5672SOL     OW28474   4.705   1.162   7.898 -0.2285  0.4355  0.6066
 5672SOL    HW128475   4.661   1.101   7.839  0.3336 -0.7695  1.4420
 5672SOL    HW228476   4.663   1.138   7.980 -0.6488  0.0567  0.2844
 5673SOL     OW28477   1.552   3.150   6.913  0.4960  0.1841 -0.0262
 5673SOL    HW128478   1.629   3.099   6.889 -0.3646  0.0801 -2.5464
 5673SOL    HW228479   1.479   3.096   6.883  0.3120 -0.0503  0.8303
 5674SOL     OW28480   1.381   4.125   9.791 -0.2887 -0.8667 -0.2463
 5674SOL    HW128481   1.376   4.173   9.709  0.5865 -1.3396 -0.5744
 5674SOL    HW228482   1.316   4.173   9.843 -1.6563 -2.4069 -0.5059
 5675SOL     OW28483   2.395   1.126   7.461  0.0798  0.4006  0.1072
 5675SOL    HW128484   2.457   1.124   7.534  1.0302  0.9432 -0.6804
 5675SOL    HW228485   2.422   1.206   7.416  0.5956  0.7547  1.0627
 5676SOL     OW28486   3.568   3.660  12.076 -0.0771  0.6616  0.0679
 5676SOL    HW128487   3.493   3.609  12.045 -0.0510  0.8466 -0.3110
 5676SOL    HW228488   3.539   3.751  12.076 -0.8282  0.4221  0.1325
 5677SOL     OW28489   1.782   3.787   1.693 -0.5178  0.5438 -0.0375
 5677SOL    HW128490   1.779   3.781   1.789 -1.3551 -0.8082 -0.1531
 5677SOL    HW228491   1.705   3.843   1.686 -0.5300  0.3111 -1.6484
 5678SOL     OW28492   1.960   2.224   8.536  0.2687  0.2104  0.2388
 5678SOL    HW128493   2.044   2.181   8.556 -0.4598 -0.3461  2.0519
 5678SOL    HW228494   1.942   2.252   8.625 -1.7091 -0.2849 -0.0136
 5679SOL     OW28495   0.220   1.275  14.445  0.3132 -0.0532  0.5954
 5679SOL    HW128496   0.199   1.183  14.430  0.4546 -0.2286  1.5079
 5679SOL    HW228497   0.316   1.270  14.444  0.3874  1.0892  2.1719
 5680SOL     OW28498   2.034   4.577   6.568  0.5553 -0.3502 -0.0695
 5680SOL    HW128499   2.106   4.623   6.611 -0.0641 -2.0076  2.7396
 5680SOL    HW228500   2.079   4.523   6.504  0.9429  2.4035 -2.0964
 5681SOL     OW28501   3.783   0.331   8.212  0.3846 -0.3478 -0.4702
 5681SOL    HW128502   3.810   0.420   8.191  0.8580 -0.2315  0.6843
 5681SOL    HW228503   3.726   0.344   8.288  0.9293  2.1002 -0.4932
 5682SOL     OW28504   3.738   1.199   7.621 -0.0080 -0.5953 -0.3949
 5682SOL    HW128505   3.768   1.232   7.706 -0.6800  0.6092 -0.6309
 5682SOL    HW228506   3.821   1.171   7.582 -0.2727 -0.1450 -1.2735
 5683SOL     OW28507   1.981   1.467   3.321 -0.0130  0.7031  0.3097
 5683SOL    HW128508   1.916   1.533   3.296 -2.3349 -1.8434 -0.2864
 5683SOL    HW228509   2.019   1.457   3.234 -1.5118  1.5226 -0.4317
 5684SOL     OW28510   1.361   4.006   1.995  0.4681 -0.4267  0.6163
 5684SOL    HW128511   1.384   4.096   2.022  0.9460 -0.8070  1.4789
 5684SOL    HW228512   1.266   4.013   2.006  0.2605 -1.4821 -0.5491
 5685SOL     OW28513   1.777   4.360   3.687  0.3287  0.2128  0.3710
 5685SOL    HW128514   1.828   4.288   3.724  0.5908  0.2281  0.0371
 5685SOL    HW228515   1.812   4.437   3.732 -0.2670  3.0333 -3.9864
 5686SOL     OW28516   4.686   4.332  13.472 -0.1213 -0.2722 -0.1826
 5686SOL    HW128517   0.052   4.329  13.493 -0.1190 -0.5189 -0.2284
 5686SOL    HW228518   4.676   4.281  13.391  2.9956  0.3187 -0.9154
 5687SOL     OW28519   4.292   3.265   3.697 -0.5557  0.1966 -0.2778
 5687SOL    HW128520   4.275   3.353   3.730  0.5269  0.5473 -0.6691
 5687SOL    HW228521   4.381   3.262   3.663 -0.0111  0.1502  1.1511
 5688SOL     OW28522   2.771   2.594   3.473  0.1264 -0.0070 -0.0326
 5688SOL    HW128523   2.747   2.535   3.544  0.0070  2.0858  1.6664
 5688SOL    HW228524   2.818   2.667   3.514 -1.2946  1.5169 -1.0978
 5689SOL     OW28525   4.470   1.078   2.630  0.1858 -0.4922  0.5862
 5689SOL    HW128526   4.377   1.073   2.609  0.4953  3.3440 -1.6171
 5689SOL    HW228527   4.490   1.164   2.593  1.7379 -0.0725  2.3832
 5690SOL     OW28528   0.811   4.238   8.968  0.6286  0.3336  0.3834
 5690SOL    HW128529   0.794   4.169   9.032  0.3006 -0.8079 -0.9365
 5690SOL    HW228530   0.787   4.192   8.888  1.2560 -0.2671  0.5418
 5691SOL     OW28531   1.726   2.529   3.380  0.9018  0.1347 -0.4974
 5691SOL    HW128532   1.705   2.622   3.391 -0.5520 -0.1481 -0.8829
 5691SOL    HW228533   1.821   2.531   3.394  1.0098  1.3499 -1.3761
 5692SOL     OW28534   0.039   1.173  11.042  0.2422 -0.1953  0.1870
 5692SOL    HW128535   0.057   1.187  11.135  1.3326 -0.8056  0.0657
 5692SOL    HW228536   0.023   1.079  11.032  1.0521 -0.3274  0.1618
 5693SOL     OW28537   0.235   3.653  11.091 -0.2020  0.0682  0.3538
 5693SOL    HW128538   0.180   3.706  11.035  1.2562 -1.1848 -2.2466
 5693SOL    HW228539   0.287   3.606  11.026 -0.4974  0.2785 -0.0330
 5694SOL     OW28540   4.178   2.992  16.126 -0.6820 -0.2301 -0.3882
 5694SOL    HW128541   4.140   2.978  16.213  0.2884  0.3167  0.1259
 5694SOL    HW228542   4.228   2.911  16.119  0.6129  0.4553  0.9942
 5695SOL     OW28543   0.029   0.973   5.307 -0.5246 -0.0015 -0.0983
 5695SOL    HW128544   0.071   1.055   5.336 -0.9436 -0.1582  0.9715
 5695SOL    HW228545   0.101   0.929   5.262 -0.2769  2.0622 -1.7308
 5696SOL     OW28546   1.228   1.704   3.193  0.3736 -0.1311  0.3293
 5696SOL    HW128547   1.234   1.791   3.155  1.9913 -0.7261 -0.7948
 5696SOL    HW228548   1.278   1.718   3.273 -0.4570 -0.9251  0.9876
 5697SOL     OW28549   3.524   1.641   2.557  0.3027  0.4599 -0.1036
 5697SOL    HW128550   3.590   1.702   2.524 -1.2363  0.7339 -2.6727
 5697SOL    HW228551   3.460   1.691   2.607  0.9298  1.0781  0.0810
 5698SOL     OW28552   4.120   0.213   8.149 -0.4148  0.5374 -0.3899
 5698SOL    HW128553   4.181   0.286   8.139  0.8028 -0.1873  1.8125
 5698SOL    HW228554   4.139   0.192   8.240  1.5311  0.7248 -0.7445
 5699SOL     OW28555   3.554   1.290   7.949 -0.1218 -0.1202 -0.3314
 5699SOL    HW128556   3.477   1.288   8.005  0.2116  0.8542  0.1586
 5699SOL    HW228557   3.504   1.308   7.869  1.4710 -0.8132 -1.4911
 5700SOL     OW28558   3.607   2.147   5.819 -0.8112 -0.2020 -0.5564
 5700SOL    HW128559   3.607   2.237   5.853 -0.2929 -1.0555  1.7370
 5700SOL    HW228560   3.590   2.172   5.728 -2.5648 -0.5836 -0.3332
 5701SOL     OW28561   3.550   3.237   3.714 -0.4391 -0.1836 -0.1852
 5701SOL    HW128562   3.576   3.326   3.688 -1.2605  0.6183  1.7653
 5701SOL    HW228563   3.462   3.248   3.751  0.1602 -1.0008  1.4452
 5702SOL     OW28564   2.816   3.272   3.218  0.0469  0.3697  0.4741
 5702SOL    HW128565   2.814   3.305   3.128  1.1766  1.7151  0.9468
 5702SOL    HW228566   2.721   3.270   3.224 -0.0049  0.2408 -0.2940
 5703SOL     OW28567   1.243   1.010   0.954 -0.3055 -0.3592 -0.4787
 5703SOL    HW128568   1.253   0.945   0.885 -2.3627  0.4741 -1.5687
 5703SOL    HW228569   1.177   0.965   1.008 -0.0015 -0.4231 -0.1602
 5704SOL     OW28570   4.103   2.464   5.521 -0.4160 -0.3165  0.1909
 5704SOL    HW128571   4.154   2.418   5.589 -1.5510 -2.0517 -0.1204
 5704SOL    HW228572   4.167   2.447   5.452  0.3956 -2.8354  1.5238
 5705SOL     OW28573   3.913   4.031   8.170 -0.3840  0.3670  0.3561
 5705SOL    HW128574   3.855   4.038   8.247 -0.3019 -0.5470  0.5019
 5705SOL    HW228575   3.991   4.061   8.217 -0.2927  0.9884 -0.1972
 5706SOL     OW28576   2.799   3.245   9.810 -0.4552  0.5859  0.4083
 5706SOL    HW128577   2.791   3.277   9.720  0.9115  0.3828  0.2279
 5706SOL    HW228578   2.720   3.280   9.852 -0.5487  0.8848 -0.0142
 5707SOL     OW28579   4.666   3.891   2.769  0.2976  0.5049  0.7081
 5707SOL    HW128580   4.627   3.818   2.721 -0.8738  1.0964  0.7425
 5707SOL    HW228581   4.709   3.945   2.703  1.1232 -0.8851  0.1131
 5708SOL     OW28582   1.509   0.193   7.031 -0.3803  0.2915  0.2670
 5708SOL    HW128583   1.452   0.234   6.966  2.4070  2.4963 -0.7379
 5708SOL    HW228584   1.470   0.105   7.027 -0.4496  0.3301  0.1034
 5709SOL     OW28585   4.380   1.786   1.713 -0.1521 -0.3602  0.0212
 5709SOL    HW128586   4.370   1.722   1.643 -0.7639  0.7856 -0.9488
 5709SOL    HW228587   4.365   1.869   1.668  0.8145 -0.7055 -0.9504
 5710SOL     OW28588   0.047   4.616   0.780  0.5988  0.0633 -0.5787
 5710SOL    HW128589   4.720   4.659   0.714 -0.6715  0.5891  0.8192
 5710SOL    HW228590   0.127   4.607   0.727 -0.0362 -0.9264 -1.3634
 5711SOL     OW28591   0.494   0.514   7.562  0.6321  0.4835  0.1396
 5711SOL    HW128592   0.568   0.505   7.623  0.2953 -1.2655  0.2620
 5711SOL    HW228593   0.545   0.571   7.504  1.1302  0.3990  0.4919
 5712SOL     OW28594   1.574   0.437  10.340  0.1784 -0.3446 -0.3950
 5712SOL    HW128595   1.524   0.495  10.282 -0.1925 -0.2195  0.0446
 5712SOL    HW228596   1.652   0.442  10.286  0.4413  2.4290  0.1981
 5713SOL     OW28597   0.546   4.097   8.602  0.2884 -0.2617 -0.1480
 5713SOL    HW128598   0.492   4.019   8.591 -0.6819  0.3298  0.4843
 5713SOL    HW228599   0.474   4.159   8.587 -0.2749 -0.6572  0.9862
 5714SOL     OW28600   0.876   0.157  15.536  0.1432 -0.3005 -0.2391
 5714SOL    HW128601   0.863   0.248  15.563 -1.3501 -0.9721  1.3031
 5714SOL    HW228602   0.869   0.174  15.442 -1.3376  0.8468  0.0827
 5715SOL     OW28603   2.848   2.014   4.426 -0.1175 -0.1337 -0.6169
 5715SOL    HW128604   2.881   2.033   4.513 -0.4491 -0.6645 -0.3750
 5715SOL    HW228605   2.790   1.941   4.445  0.1365 -0.8602 -2.6089
 5716SOL     OW28606   4.163   1.546   2.600  0.2523  0.2310 -0.2576
 5716SOL    HW128607   4.223   1.540   2.675 -0.0981 -0.8742 -0.0543
 5716SOL    HW228608   4.207   1.505   2.526 -1.1345  1.4272 -1.7341
 5717SOL     OW28609   0.298   2.127   1.986  0.1148  0.2613 -0.1266
 5717SOL    HW128610   0.289   2.049   1.931 -0.2697  0.2701 -0.0727
 5717SOL    HW228611   0.389   2.155   1.975  0.2604 -0.1502  0.0113
 5718SOL     OW28612   0.619   1.510   0.939 -0.1523 -0.0796  0.1610
 5718SOL    HW128613   0.536   1.547   0.969  1.9585  1.6642  3.7835
 5718SOL    HW228614   0.675   1.588   0.935  1.2656 -1.1070  0.1137
 5719SOL     OW28615   2.103   1.372   8.698 -0.1050 -0.7858  0.3838
 5719SOL    HW128616   2.155   1.297   8.671 -0.3637 -0.3099 -1.4550
 5719SOL    HW228617   2.044   1.334   8.764 -1.3309 -3.2186 -2.1372
 5720SOL     OW28618   3.547   3.566   1.747 -0.3686 -0.4095  1.0756
 5720SOL    HW128619   3.544   3.472   1.766 -0.7158 -0.6784 -0.2867
 5720SOL    HW228620   3.457   3.577   1.718  0.1588  0.4642 -0.2189
 5721SOL     OW28621   1.771   3.887  13.628  0.3986 -0.0734 -0.2684
 5721SOL    HW128622   1.697   3.946  13.642 -0.7192 -0.5570 -3.9653
 5721SOL    HW228623   1.745   3.814  13.683  1.9067 -0.8266 -0.5642
 5722SOL     OW28624   0.744   4.409   3.359 -1.0685 -0.1493 -0.3841
 5722SOL    HW128625   0.654   4.381   3.339 -1.5015  0.7019  0.3912
 5722SOL    HW228626   0.790   4.375   3.282  0.7127  2.2301 -0.3900
 5723SOL     OW28627   0.803   0.515   7.960  0.5166 -1.0549  0.0707
 5723SOL    HW128628   0.873   0.470   8.007  0.3377 -0.7580  0.6220
 5723SOL    HW228629   0.841   0.580   7.900 -1.4713 -0.9248 -1.0531
 5724SOL     OW28630   3.398   3.569   5.445 -0.3916  0.1413  0.6292
 5724SOL    HW128631   3.306   3.556   5.425 -0.2479  1.3015 -0.8435
 5724SOL    HW228632   3.415   3.485   5.487  0.4149 -0.5204 -0.9856
 5725SOL     OW28633   2.670   1.812   9.062 -0.5436  0.2833 -0.5017
 5725SOL    HW128634   2.676   1.836   9.154  0.2515 -2.2054  0.0904
 5725SOL    HW228635   2.761   1.803   9.034 -1.5797  0.5727 -3.9923
 5726SOL     OW28636   3.866   2.544   7.910 -0.2243  0.0301  0.4170
 5726SOL    HW128637   3.834   2.611   7.850  1.3216  0.5446  0.1926
 5726SOL    HW228638   3.877   2.585   7.996 -0.5954 -1.1871  1.0494
 5727SOL     OW28639   2.325   0.735   5.301 -0.1511 -0.0978  0.6788
 5727SOL    HW128640   2.301   0.693   5.383 -1.1285  0.7772  0.8307
 5727SOL    HW228641   2.413   0.698   5.286  0.3535  0.8848  1.2213
 5728SOL     OW28642   0.546   3.924   8.913  0.0073 -0.4141 -0.0821
 5728SOL    HW128643   0.452   3.930   8.897  0.0455 -0.3881 -0.2977
 5728SOL    HW228644   0.557   3.839   8.956  2.3267 -0.9224 -1.6275
 5729SOL     OW28645   4.498   2.346   3.004 -0.4604  0.0360  0.2897
 5729SOL    HW128646   4.440   2.293   3.059 -0.4948 -0.1452  0.0826
 5729SOL    HW228647   4.582   2.322   3.043  0.0758  0.6582 -0.5017
 5730SOL     OW28648   2.048   2.456   4.286  0.4668  0.1975 -0.7043
 5730SOL    HW128649   1.965   2.432   4.326  0.3495 -1.5061 -1.9535
 5730SOL    HW228650   2.043   2.405   4.205 -0.5548 -0.9909  0.1150
 5731SOL     OW28651   1.443   3.501   1.332 -0.1179 -0.6147 -0.0629
 5731SOL    HW128652   1.402   3.485   1.417  0.1843  1.0138  0.3853
 5731SOL    HW228653   1.388   3.567   1.291 -0.7600 -1.1405 -0.0582
 5732SOL     OW28654   1.002   1.515   3.813 -0.2960 -0.3761  0.1047
 5732SOL    HW128655   1.028   1.424   3.800 -0.4225 -0.2943 -0.7356
 5732SOL    HW228656   0.949   1.513   3.892 -1.4405  1.1548 -0.6146
 5733SOL     OW28657   2.736   2.151   3.065 -0.1139 -0.1086  0.0704
 5733SOL    HW128658   2.686   2.126   2.988 -2.3084 -1.5229  1.9443
 5733SOL    HW228659   2.806   2.086   3.076  0.3698  0.5360  0.8667
 5734SOL     OW28660   3.591   1.467   4.303  0.0693  0.0123  0.5426
 5734SOL    HW128661   3.504   1.507   4.311  0.3653  0.8361 -0.2935
 5734SOL    HW228662   3.620   1.440   4.390  1.4364 -1.6252 -0.4129
 5735SOL     OW28663   2.287   3.781   7.463 -0.3157  0.0286 -0.1944
 5735SOL    HW128664   2.270   3.698   7.419 -2.9540 -0.1103  1.1000
 5735SOL    HW228665   2.280   3.747   7.552 -1.5073 -0.6090 -0.5349
 5736SOL     OW28666   4.081   0.208   0.792 -0.4122 -0.4171 -0.0714
 5736SOL    HW128667   4.093   0.166   0.877 -3.0438 -1.4238 -0.1736
 5736SOL    HW228668   4.035   0.135   0.750 -0.2382 -0.4341 -0.2334
 5737SOL     OW28669   0.515   1.625   7.374  0.5808  0.2242  0.0279
 5737SOL    HW128670   0.587   1.637   7.436  0.0835  0.5838  0.5425
 5737SOL    HW228671   0.554   1.673   7.301  1.2231 -0.8841 -0.3572
 5738SOL     OW28672   0.024   4.044   0.616 -0.3691  0.1988 -0.7745
 5738SOL    HW128673   4.717   4.070   0.702  0.0952  1.3260 -0.9358
 5738SOL    HW228674   4.669   4.053   0.568 -0.7158  3.6090  0.4716
 5739SOL     OW28675   3.823   2.052  14.348  0.6868  0.1066 -0.6220
 5739SOL    HW128676   3.913   2.082  14.335  0.8683 -0.3095 -0.3570
 5739SOL    HW228677   3.766   2.117  14.309  0.0657 -0.9396 -1.4678
 5740SOL     OW28678   0.164   2.042   3.216 -0.6132  0.5963  0.6276
 5740SOL    HW128679   0.120   1.975   3.163  1.0940  0.5377 -0.7215
 5740SOL    HW228680   0.199   2.105   3.153 -0.0329  0.1620  0.5153
 5741SOL     OW28681   3.200   4.136  16.254  0.0524  0.2512  0.4126
 5741SOL    HW128682   3.289   4.142  16.290  0.3950 -2.5328  0.0720
 5741SOL    HW228683   3.154   4.115  16.335  1.0272  1.4860  1.2844
 5742SOL     OW28684   0.739   1.640   7.520  0.3928  0.8873 -0.0061
 5742SOL    HW128685   0.772   1.714   7.469 -0.5394  1.8119  0.7393
 5742SOL    HW228686   0.817   1.596   7.551 -0.4221  0.1207  0.9484
 5743SOL     OW28687   0.679   2.768   7.676  0.3757  0.2390  0.5484
 5743SOL    HW128688   0.606   2.810   7.722 -0.9301  0.3488 -1.6285
 5743SOL    HW228689   0.692   2.832   7.606  3.8023  1.5339  2.3852
 5744SOL     OW28690   1.937   3.015  11.294  0.2448 -0.0371  0.0494
 5744SOL    HW128691   1.939   2.991  11.201 -0.0944 -0.9322  0.2727
 5744SOL    HW228692   1.861   3.074  11.295  0.6444  0.5359 -3.6202
 5745SOL     OW28693   3.268   4.446   5.694 -0.5115  0.2542 -0.3194
 5745SOL    HW128694   3.233   4.467   5.781 -0.1114 -1.1429  0.1758
 5745SOL    HW228695   3.186   4.424   5.651 -1.0083 -1.3634  1.4453
 5746SOL     OW28696   2.016   1.236   0.016 -0.0522  0.0475  0.6802
 5746SOL    HW128697   2.088   1.208  17.667  1.0457  3.1059  0.5616
 5746SOL    HW228698   1.977   1.303  17.666  0.4473 -0.0956  0.1711
 5747SOL     OW28699   1.236   4.670  10.643 -0.0919  0.4407 -0.6956
 5747SOL    HW128700   1.167   4.616  10.604 -1.9845 -0.7296  4.2493
 5747SOL    HW228701   1.303   4.616  10.686 -0.5093  0.2474 -0.2845
 5748SOL     OW28702   0.388   4.372   5.922 -0.3640  0.5915  0.5653
 5748SOL    HW128703   0.311   4.367   5.980 -0.4965 -1.6656  0.1932
 5748SOL    HW228704   0.354   4.333   5.842 -1.4206  3.2324 -0.3003
 5749SOL     OW28705   1.408   4.099  11.909 -0.0071 -0.0876  0.3316
 5749SOL    HW128706   1.404   4.026  11.972 -0.6382 -0.5584 -0.2585
 5749SOL    HW228707   1.350   4.079  11.836 -1.2510  0.5832  1.1418
 5750SOL     OW28708   3.814   1.769  16.189 -0.4081 -0.2400 -0.0712
 5750SOL    HW128709   3.873   1.746  16.260 -2.5578 -2.7506  0.9325
 5750SOL    HW228710   3.875   1.818  16.134  0.6485 -0.2254  1.1369
 5751SOL     OW28711   2.690   3.374   5.921  0.5122 -0.2674 -0.8497
 5751SOL    HW128712   2.650   3.375   6.008 -0.4048 -0.1855 -1.2742
 5751SOL    HW228713   2.777   3.410   5.937  0.6117 -0.2538 -1.4429
 5752SOL     OW28714   4.146   0.275   8.674  0.2839 -0.0130  0.5001
 5752SOL    HW128715   4.141   0.233   8.588  1.4726 -1.3068  1.0647
 5752SOL    HW228716   4.241   0.276   8.686  0.4411  0.6049 -0.7936
 5753SOL     OW28717   0.334   3.358  13.421 -0.5863  0.4920  0.5347
 5753SOL    HW128718   0.239   3.352  13.424 -0.6548  0.7482 -0.9050
 5753SOL    HW228719   0.347   3.342  13.327 -1.9402 -2.3120  0.8073
 5754SOL     OW28720   0.024   2.540   7.714  0.3855  0.1170  0.0394
 5754SOL    HW128721   0.022   2.454   7.671 -2.1229  0.4894 -0.5737
 5754SOL    HW228722   0.116   2.560   7.694  1.2104 -1.4947  2.2213
 5755SOL     OW28723   4.306   0.699   2.102  0.0189 -0.0736  0.2262
 5755SOL    HW128724   4.329   0.725   2.191  0.9182  1.7923 -0.5581
 5755SOL    HW228725   4.351   0.616   2.084 -0.1351 -0.2128  0.4799
 5756SOL     OW28726   4.653   4.001   1.418 -0.5034  0.1231 -0.3373
 5756SOL    HW128727   4.597   3.933   1.381  1.9760 -1.2462 -1.5590
 5756SOL    HW228728   0.011   3.955   1.419 -1.0889 -0.9111  1.6006
 5757SOL     OW28729   1.403   0.381  16.994 -0.2996  0.8581 -0.1425
 5757SOL    HW128730   1.324   0.383  16.939  0.0794  1.9232 -0.6520
 5757SOL    HW228731   1.370   0.385  17.084 -0.0928 -0.8393  0.0099
 5758SOL     OW28732   3.352   4.310   3.499  0.0748 -0.0862 -0.2661
 5758SOL    HW128733   3.265   4.316   3.539  0.1045  0.4558 -0.2778
 5758SOL    HW228734   3.336   4.311   3.405  0.6464 -1.2165 -0.3726
 5759SOL     OW28735   1.706   0.311   5.201  0.3981  0.2199 -0.8587
 5759SOL    HW128736   1.691   0.316   5.295  3.0002 -2.2096 -0.3116
 5759SOL    HW228737   1.631   0.261   5.167  0.8479  0.7347 -2.6214
 5760SOL     OW28738   0.340   3.724   8.037 -0.3760  0.2346 -0.6227
 5760SOL    HW128739   0.329   3.728   8.132  2.0986  0.5068 -0.3413
 5760SOL    HW228740   0.435   3.714   8.029 -0.6844 -1.7930 -1.6199
 5761SOL     OW28741   3.091   3.977  12.211 -0.6815  0.1009 -0.2559
 5761SOL    HW128742   3.108   4.023  12.129  1.4031  0.4065  0.3529
 5761SOL    HW228743   3.174   3.929  12.211 -0.4149  0.5509  0.6156
 5762SOL     OW28744   1.139   0.194  15.337  0.2444 -0.0059 -0.5222
 5762SOL    HW128745   1.099   0.277  15.361  0.1197  0.7038 -3.2512
 5762SOL    HW228746   1.074   0.163  15.274  1.1871  2.4676 -2.6948
 5763SOL     OW28747   1.639   0.630   9.759 -0.0492  0.1332  0.2096
 5763SOL    HW128748   1.556   0.633   9.710 -0.5256  0.3331  1.0298
 5763SOL    HW228749   1.598   0.645   9.844 -3.0788  0.0297 -1.2312
 5764SOL     OW28750   3.017   1.417  10.056 -0.3106 -0.0604 -0.0253
 5764SOL    HW128751   2.996   1.414   9.963 -0.0161 -0.5816 -0.0699
 5764SOL    HW228752   2.931   1.387  10.085  0.2535 -1.5992  0.0514
 5765SOL     OW28753   1.169   3.955   7.401  0.4758  0.4087  0.3625
 5765SOL    HW128754   1.232   3.937   7.471  0.3455  1.4958  0.7536
 5765SOL    HW228755   1.203   4.039   7.368  2.4813 -1.1538 -1.5741
 5766SOL     OW28756   3.834   2.470   5.170  0.5575 -0.0324 -0.1603
 5766SOL    HW128757   3.890   2.476   5.093 -0.8175 -0.2305 -1.1782
 5766SOL    HW228758   3.838   2.377   5.194  0.3889  0.1044  0.3850
 5767SOL     OW28759   4.059   1.443   8.311 -0.0816 -0.0713 -0.3121
 5767SOL    HW128760   4.078   1.438   8.217 -1.6175 -0.8427 -0.5676
 5767SOL    HW228761   4.060   1.349   8.327 -1.5635 -0.0626 -0.2174
 5768SOL     OW28762   4.556   0.959   4.638 -0.2564 -0.1593 -0.1888
 5768SOL    HW128763   4.566   0.888   4.701  0.2097  0.8719  0.8945
 5768SOL    HW228764   4.642   0.949   4.598 -0.4690 -1.0826 -0.4151
 5769SOL     OW28765   4.486   1.274  14.590 -0.1925 -0.1043 -0.5541
 5769SOL    HW128766   4.396   1.306  14.599  0.8758  2.2720  1.2586
 5769SOL    HW228767   4.512   1.362  14.614  0.7125 -0.1278 -1.4414
 5770SOL     OW28768   1.882   0.062   6.464 -0.2291  0.4736 -0.2933
 5770SOL    HW128769   1.916   4.700   6.476  1.4346  1.1779  0.2245
 5770SOL    HW228770   1.961   0.111   6.441  0.2800 -0.3038 -0.2098
 5771SOL     OW28771   0.644   0.281  14.915  0.1359 -0.4523 -0.4578
 5771SOL    HW128772   0.687   0.279  14.830  1.8341 -1.6520  0.4172
 5771SOL    HW228773   0.710   0.324  14.969 -0.7170 -0.4681  0.5936
 5772SOL     OW28774   1.217   2.128   8.080 -0.4266 -0.3710  0.2016
 5772SOL    HW128775   1.132   2.084   8.092 -0.5625  0.7157  3.1068
 5772SOL    HW228776   1.229   2.131   7.985  3.0718  0.9359  0.6988
 5773SOL     OW28777   4.054   4.602   6.189  0.5743  0.2828 -0.0694
 5773SOL    HW128778   4.073   4.659   6.264 -0.4749 -1.1552  1.2766
 5773SOL    HW228779   3.976   4.554   6.216 -0.2576  1.7629  0.1412
 5774SOL     OW28780   4.439   2.403   0.013 -0.0809  0.0769  0.8426
 5774SOL    HW128781   4.465   2.435   0.099 -0.5688 -0.0211  1.0270
 5774SOL    HW228782   4.346   2.422  17.705  0.4843  1.2515 -1.0810
 5775SOL     OW28783   0.054   1.420  14.649  0.4849  0.1014 -0.9479
 5775SOL    HW128784   4.707   1.469  14.610 -1.1642 -1.1362  0.5951
 5775SOL    HW228785   0.089   1.372  14.574 -1.0397  0.5720 -1.9769
 5776SOL     OW28786   3.860   3.606   1.446 -0.3384 -0.3141  0.2210
 5776SOL    HW128787   3.766   3.621   1.453 -0.5363 -0.1082 -2.5922
 5776SOL    HW228788   3.850   3.516   1.414  2.1017 -0.4659 -0.1216
 5777SOL     OW28789   1.954   1.714   4.740 -0.6688  0.5129 -0.3205
 5777SOL    HW128790   1.982   1.692   4.829  0.3641 -1.9429 -1.2591
 5777SOL    HW228791   1.951   1.629   4.697 -1.0959  1.2386 -1.7323
 5778SOL     OW28792   2.772   2.654   8.994 -0.5829 -0.1703 -0.3575
 5778SOL    HW128793   2.827   2.603   8.934  0.5339  1.5299 -0.8099
 5778SOL    HW228794   2.734   2.583   9.045  1.2826 -0.2401  0.9163
 5779SOL     OW28795   0.273   1.403   9.220 -0.2639 -0.0926 -0.0104
 5779SOL    HW128796   0.236   1.317   9.240  0.1190 -0.4586 -0.9129
 5779SOL    HW228797   0.343   1.410   9.286  0.8792  3.0598 -1.5423
 5780SOL     OW28798   1.893   4.626   6.112 -0.0787  0.0328  0.7612
 5780SOL    HW128799   1.917   4.534   6.108  0.3368  0.2079 -0.8572
 5780SOL    HW228800   1.979   4.650   6.144 -1.9095  0.7801  5.1038
 5781SOL     OW28801   2.518   1.144   7.703  0.0322 -0.5216 -0.0634
 5781SOL    HW128802   2.451   1.108   7.762  0.0252 -1.8936 -0.8988
 5781SOL    HW228803   2.546   1.226   7.743  2.2422 -0.9834 -0.6484
 5782SOL     OW28804   0.510   2.579  16.992  0.0922 -0.1674  0.4080
 5782SOL    HW128805   0.430   2.527  16.994 -0.9361  1.3207 -2.0159
 5782SOL    HW228806   0.523   2.585  17.086  0.6058  0.9727  0.2612
 5783SOL     OW28807   1.971   1.846  12.355 -0.1653 -0.3252 -0.0074
 5783SOL    HW128808   1.898   1.907  12.356  0.6708  0.6540  0.4593
 5783SOL    HW228809   2.046   1.896  12.388 -1.1991 -1.4839  4.2180
 5784SOL     OW28810   1.221   1.182   8.635  0.6383 -0.2082  0.1167
 5784SOL    HW128811   1.206   1.273   8.658 -0.5034 -0.3733  0.0272
 5784SOL    HW228812   1.145   1.142   8.676 -0.1228  1.3524  0.2229
 5785SOL     OW28813   4.554   0.760   3.410  0.3074 -0.0247  0.1486
 5785SOL    HW128814   4.520   0.843   3.379 -1.1373 -0.0148  1.7480
 5785SOL    HW228815   4.519   0.694   3.349  0.5780  0.3789 -0.4384
 5786SOL     OW28816   3.657   1.729   5.461 -0.1271  0.5050  0.8333
 5786SOL    HW128817   3.627   1.672   5.391 -1.7693  3.3136 -0.7508
 5786SOL    HW228818   3.705   1.798   5.415  0.5874  0.7552  1.9456
 5787SOL     OW28819   3.844   2.671   6.871  0.2892 -0.6003 -0.3872
 5787SOL    HW128820   3.886   2.662   6.957  0.3791 -2.9328 -0.6702
 5787SOL    HW228821   3.813   2.581   6.863  0.6644 -0.6797 -0.9605
 5788SOL     OW28822   1.902   0.936   0.762 -0.2557 -0.4786 -0.0099
 5788SOL    HW128823   1.905   0.975   0.850  0.2137 -0.8743  0.1520
 5788SOL    HW228824   1.823   0.881   0.763 -0.5780 -0.0193 -0.8330
 5789SOL     OW28825   2.285   1.258   5.004  0.4406  0.0612  0.6284
 5789SOL    HW128826   2.308   1.214   4.922  2.2000  1.2989  0.4592
 5789SOL    HW228827   2.226   1.331   4.984  0.2683  0.1638  1.5100
 5790SOL     OW28828   1.664   0.001   2.374  0.0769  0.2346 -0.0496
 5790SOL    HW128829   1.728   0.007   2.445  0.1595 -2.0539  0.0775
 5790SOL    HW228830   1.694   4.664   2.308 -1.1813 -1.6987  1.2631
 5791SOL     OW28831   0.507   1.851   0.581  0.3069  0.1934 -0.1481
 5791SOL    HW128832   0.565   1.904   0.525  1.9280  0.0761  1.4140
 5791SOL    HW228833   0.422   1.873   0.544  0.6478  0.8419 -0.5498
 5792SOL     OW28834   2.749   0.774  11.707  0.5211 -0.4713 -0.2965
 5792SOL    HW128835   2.826   0.790  11.761 -1.2557 -1.5195  2.5684
 5792SOL    HW228836   2.790   0.792  11.623  0.3833  1.5439  0.0677
 5793SOL     OW28837   2.183   0.831   8.646  0.3307  0.1903  0.2514
 5793SOL    HW128838   2.186   0.738   8.667 -1.9211  0.2027  0.6500
 5793SOL    HW228839   2.234   0.816   8.567 -1.0002 -2.1520 -0.1606
 5794SOL     OW28840   3.421   0.571  14.303  0.4327  0.0280 -0.1388
 5794SOL    HW128841   3.336   0.611  14.319  0.3924  0.0310 -0.3695
 5794SOL    HW228842   3.474   0.627  14.361  2.8908 -1.3710 -1.0239
 5795SOL     OW28843   2.290   3.778  16.690 -0.8948  0.4671 -0.1907
 5795SOL    HW128844   2.275   3.815  16.777 -4.4663 -0.2894 -0.5109
 5795SOL    HW228845   2.259   3.688  16.694 -0.2802  0.2843  0.5014
 5796SOL     OW28846   0.669   3.670  16.342  0.4133 -0.3998 -0.2499
 5796SOL    HW128847   0.591   3.702  16.297  0.9706 -2.0940 -2.4185
 5796SOL    HW228848   0.731   3.644  16.274  0.4465  0.1895 -0.4385
 5797SOL     OW28849   4.250   4.313   5.713 -0.0616 -0.3191  0.3034
 5797SOL    HW128850   4.242   4.318   5.808  1.2915  2.0422  0.3039
 5797SOL    HW228851   4.163   4.279   5.695 -0.6207  1.2298  0.1034
 5798SOL     OW28852   3.154   1.732   4.258 -0.6637  0.1636  0.2085
 5798SOL    HW128853   3.087   1.797   4.235 -1.2689 -0.4839  0.1140
 5798SOL    HW228854   3.205   1.778   4.325  1.4886  0.4110 -1.5989
 5799SOL     OW28855   3.153   4.103   9.386  0.3146  0.1838  0.2430
 5799SOL    HW128856   3.174   4.014   9.358  2.8797  2.1036 -3.8552
 5799SOL    HW228857   3.135   4.140   9.300  0.3597 -0.4168 -0.0251
 5800SOL     OW28858   4.305   0.420   2.755 -0.0263  0.3026 -0.2878
 5800SOL    HW128859   4.354   0.494   2.791 -0.5774 -0.4195  1.9992
 5800SOL    HW228860   4.213   0.433   2.780  0.1633  0.9630  0.0829
 5801SOL     OW28861   0.800   2.086   6.640 -0.6255 -0.4320  0.2785
 5801SOL    HW128862   0.816   2.000   6.678 -2.6697 -2.1296 -2.7596
 5801SOL    HW228863   0.739   2.068   6.569 -1.4236  1.6572  0.4162
 5802SOL     OW28864   4.106   3.663  12.338  0.0438  0.1419  0.4178
 5802SOL    HW128865   4.124   3.739  12.392  1.3262 -1.0351  1.6548
 5802SOL    HW228866   4.145   3.689  12.255 -0.6804  0.1787  0.0851
 5803SOL     OW28867   0.609   2.160   2.386  0.5415  0.3166 -0.9097
 5803SOL    HW128868   0.518   2.138   2.365  0.5360 -1.3356  0.8267
 5803SOL    HW228869   0.643   2.081   2.345 -1.3946 -0.4369 -1.0580
 5804SOL     OW28870   4.570   2.345   2.256 -0.2659 -0.7199 -0.1059
 5804SOL    HW128871   4.618   2.427   2.244  0.6726 -1.6238 -2.5575
 5804SOL    HW228872   4.639   2.290   2.293 -0.7580 -1.1709  0.1486
 5805SOL     OW28873   4.031   3.238   5.529  0.2112 -0.0883  0.0213
 5805SOL    HW128874   4.095   3.290   5.481 -0.0332 -0.2778 -0.5022
 5805SOL    HW228875   4.070   3.150   5.535 -1.4925 -0.7795  1.0275
 5806SOL     OW28876   2.384   1.655   9.907  0.3980 -0.1203 -0.2141
 5806SOL    HW128877   2.366   1.583   9.967  0.5182  2.2677  2.6443
 5806SOL    HW228878   2.297   1.694   9.912  1.3165  1.4994  2.9876
 5807SOL     OW28879   1.199   0.328   6.358  0.2685 -0.6152 -0.6399
 5807SOL    HW128880   1.275   0.381   6.382 -0.6777  1.0522 -1.3057
 5807SOL    HW228881   1.240   0.244   6.379 -0.4914 -0.7308  0.3573
 5808SOL     OW28882   2.108   0.662   4.276 -0.1949 -0.5805  0.0489
 5808SOL    HW128883   2.065   0.683   4.193  0.2684  0.5814  0.1017
 5808SOL    HW228884   2.170   0.735   4.274 -0.0572 -0.7527 -2.1852
 5809SOL     OW28885   4.523   4.397   3.124 -0.5237 -0.3627  0.2009
 5809SOL    HW128886   4.599   4.438   3.083 -1.5892  1.6903  0.2744
 5809SOL    HW228887   4.517   4.449   3.204 -0.3302  1.8361 -1.2176
 5810SOL     OW28888   0.757   4.700   4.938 -0.0210 -0.3068  0.7674
 5810SOL    HW128889   0.705   4.716   5.017 -1.2984 -1.6003  0.1763
 5810SOL    HW228890   0.692   4.649   4.890  0.6147  0.0046 -0.4372
 5811SOL     OW28891   4.484   2.306  12.045 -0.3472 -0.2284  0.3040
 5811SOL    HW128892   4.560   2.288  12.099 -0.1216 -2.0333 -0.6240
 5811SOL    HW228893   4.513   2.373  11.983 -1.0555  0.9469  1.2361
 5812SOL     OW28894   2.132   4.687  12.168  0.1812  0.1810  0.4524
 5812SOL    HW128895   2.126   4.592  12.182  1.3036  0.5924  3.6888
 5812SOL    HW228896   2.223   4.691  12.138  0.8361  0.7276  2.4883
 5813SOL     OW28897   3.528   4.267   0.114  0.4618  0.4879 -0.3301
 5813SOL    HW128898   3.489   4.275   0.201  2.6582  0.6409  0.6186
 5813SOL    HW228899   3.560   4.357   0.106  1.3920  0.2970  1.3617
 5814SOL     OW28900   1.408   2.069   2.484 -0.2444 -0.6046 -0.3715
 5814SOL    HW128901   1.370   2.066   2.396  0.4652  0.2015 -0.7057
 5814SOL    HW228902   1.440   2.158   2.495  1.8628 -1.7651  2.8695
 5815SOL     OW28903   3.768   2.950   3.294 -0.3989  0.3616  0.2684
 5815SOL    HW128904   3.804   3.014   3.355 -0.9490  0.9799 -0.0514
 5815SOL    HW228905   3.793   2.991   3.211  0.7354 -0.3231  0.2800
 5816SOL     OW28906   3.727   0.716   5.209  0.2247 -0.0076 -0.1864
 5816SOL    HW128907   3.770   0.800   5.226 -0.4099  0.4962 -1.0759
 5816SOL    HW228908   3.805   0.665   5.229  0.4691  0.3704 -0.1689
 5817SOL     OW28909   1.375   0.060  15.244 -0.0275  0.1789 -0.0343
 5817SOL    HW128910   1.292   0.098  15.272  1.0313  0.9309  2.0641
 5817SOL    HW228911   1.404   0.032  15.330  2.2350  1.0833 -0.5082
 5818SOL     OW28912   4.464   3.746   0.353 -0.3515 -0.0165  0.1981
 5818SOL    HW128913   4.490   3.813   0.417  1.0992  0.5938 -1.0311
 5818SOL    HW228914   4.389   3.784   0.308  0.9103  2.8083  0.4664
 5819SOL     OW28915   1.077   3.917   1.908  0.0020  0.4927  0.2619
 5819SOL    HW128916   1.063   3.990   1.848 -1.8141  0.6231  0.8520
 5819SOL    HW228917   1.053   3.842   1.854  0.3458  0.7198 -0.2102
 5820SOL     OW28918   2.525   0.096   7.571 -0.3120  0.0291 -0.0515
 5820SOL    HW128919   2.576   0.050   7.638 -1.9370  0.8499  1.7666
 5820SOL    HW228920   2.452   0.138   7.618 -0.9183 -2.8576  1.5842
 5821SOL     OW28921   1.081   2.933   0.337 -0.2316  0.3860 -0.0793
 5821SOL    HW128922   1.074   2.840   0.355 -0.6244  0.2841 -0.7711
 5821SOL    HW228923   1.017   2.938   0.267 -2.6271 -2.0666  1.9273
 5822SOL     OW28924   4.437   1.383   4.384 -0.4519  0.2246  0.2034
 5822SOL    HW128925   4.418   1.466   4.426 -2.3980 -0.2862  0.3162
 5822SOL    HW228926   4.450   1.328   4.461 -1.2537  0.4803  0.5235
 5823SOL     OW28927   1.411   1.563   6.832  0.5036  0.2463 -0.1157
 5823SOL    HW128928   1.476   1.603   6.774  1.2744  0.1410  0.6703
 5823SOL    HW228929   1.373   1.644   6.865  0.2650  0.0165  0.1787
 5824SOL     OW28930   4.668   2.742   3.178  0.4352  0.1356  0.2070
 5824SOL    HW128931   4.584   2.708   3.146  0.4621  1.0898 -0.8747
 5824SOL    HW228932   4.656   2.837   3.185 -2.6283 -0.2098 -0.2467
 5825SOL     OW28933   0.937   1.136   4.318 -0.0920 -0.4229 -0.6168
 5825SOL    HW128934   0.956   1.069   4.383 -1.0115 -0.4814 -0.4057
 5825SOL    HW228935   0.990   1.204   4.360  0.0656 -2.3432  2.2877
 5826SOL     OW28936   3.141   1.750   2.509 -0.1068  0.0008  0.0529
 5826SOL    HW128937   3.138   1.783   2.419  1.0065 -1.8478 -0.6414
 5826SOL    HW228938   3.186   1.815   2.564  0.5875  0.1228 -0.6602
 5827SOL     OW28939   0.623   0.223   4.805  0.5204  0.2203  0.4347
 5827SOL    HW128940   0.623   0.221   4.709  0.3324 -2.1862  0.4896
 5827SOL    HW228941   0.547   0.169   4.825  0.4338 -0.1421 -0.8542
 5828SOL     OW28942   3.746   3.374   5.830 -0.2930 -0.2481  0.4264
 5828SOL    HW128943   3.817   3.319   5.797 -1.8769 -1.9288 -0.1871
 5828SOL    HW228944   3.724   3.423   5.751  0.1618 -2.6471 -1.1886
 5829SOL     OW28945   0.063   2.447  10.652  0.4260  0.1954 -0.1549
 5829SOL    HW128946   0.131   2.408  10.596  3.4059  1.4386  2.6140
 5829SOL    HW228947   0.108   2.441  10.736  0.6927  0.2725 -0.2914
 5830SOL     OW28948   2.863   3.659   3.362  0.6968  0.0579  0.4995
 5830SOL    HW128949   2.900   3.592   3.419  0.7734  0.9120  1.4581
 5830SOL    HW228950   2.901   3.739   3.399 -0.7078  0.7960  0.3567
 5831SOL     OW28951   1.440   2.052  10.070 -0.3289  0.1023 -0.1035
 5831SOL    HW128952   1.393   2.101  10.003  1.4493  2.6922  0.5869
 5831SOL    HW228953   1.452   1.962  10.038 -0.7563  0.5652 -1.5497
 5832SOL     OW28954   0.940   4.413   4.345  0.2747  0.1743  0.0941
 5832SOL    HW128955   0.894   4.329   4.338  1.0187 -0.3751  1.5385
 5832SOL    HW228956   1.032   4.388   4.361 -0.0563 -1.7989 -1.0668
 5833SOL     OW28957   2.027   2.835  12.764 -0.5167 -0.0842 -0.4170
 5833SOL    HW128958   2.009   2.929  12.761  0.1760  0.0805  0.5122
 5833SOL    HW228959   2.092   2.838  12.834 -0.3848  1.4530 -0.5996
 5834SOL     OW28960   1.938   2.270   4.885 -0.2600  0.0372 -0.7629
 5834SOL    HW128961   1.905   2.218   4.813  0.9883  0.1553 -1.4136
 5834SOL    HW228962   1.916   2.227   4.968 -0.9359  3.1672  0.6670
 5835SOL     OW28963   0.825   4.206   3.204 -0.0549  0.1854  0.0397
 5835SOL    HW128964   0.801   4.150   3.278  1.6315  0.5822  0.8921
 5835SOL    HW228965   0.909   4.166   3.181  0.5060  2.5850 -2.1391
 5836SOL     OW28966   2.627   3.412  15.395  0.1329 -0.2593  0.8141
 5836SOL    HW128967   2.646   3.318  15.401  0.8615 -0.0219  2.1173
 5836SOL    HW228968   2.674   3.430  15.313 -1.6977  1.8996  0.2643
 5837SOL     OW28969   1.576   1.599   5.660  0.1308  0.1772  0.2819
 5837SOL    HW128970   1.519   1.640   5.725  0.2262 -0.0042  0.4790
 5837SOL    HW228971   1.646   1.663   5.650 -0.2271  0.5436  0.1295
 5838SOL     OW28972   0.096   1.009   8.575  0.0658 -0.0330 -0.9984
 5838SOL    HW128973   0.117   0.988   8.484  2.3834  0.4386 -0.5882
 5838SOL    HW228974   0.182   1.043   8.600 -0.1866  0.4813 -0.8372
 5839SOL     OW28975   1.003   2.687   2.035  0.5481 -0.5424  0.4285
 5839SOL    HW128976   0.959   2.718   1.955  1.1163  2.7922  1.4017
 5839SOL    HW228977   0.958   2.603   2.035  0.7182 -0.6294 -1.0512
 5840SOL     OW28978   0.444   2.874   7.843  0.6696 -0.5264 -0.6124
 5840SOL    HW128979   0.362   2.913   7.812  0.1132 -0.4541  0.9366
 5840SOL    HW228980   0.493   2.939   7.894 -1.7583  0.6225  0.3019
 5841SOL     OW28981   0.255   3.607  11.968 -0.1933 -0.4193 -0.1311
 5841SOL    HW128982   0.342   3.644  11.950 -0.5100  1.0424  1.3142
 5841SOL    HW228983   0.207   3.686  11.991  0.1413  0.2907 -1.8799
 5842SOL     OW28984   2.277   2.498   8.723 -0.0093  0.0827  0.1772
 5842SOL    HW128985   2.322   2.547   8.792  3.5003 -1.6665 -0.8959
 5842SOL    HW228986   2.190   2.536   8.740  1.2129  1.6053  2.9688
 5843SOL     OW28987   1.558   1.326   6.841 -0.4472 -0.8166  0.4906
 5843SOL    HW128988   1.568   1.296   6.932  0.3242 -0.0366  0.6543
 5843SOL    HW228989   1.509   1.408   6.846  0.1509 -0.4209 -0.1672
 5844SOL     OW28990   3.597   3.733   2.990  0.1241  0.6045 -0.0321
 5844SOL    HW128991   3.662   3.665   3.005 -0.8417 -0.3215 -0.1164
 5844SOL    HW228992   3.523   3.686   2.952  0.9119 -1.5621  1.1378
 5845SOL     OW28993   1.175   3.917   3.639  0.2453  0.4457 -0.1712
 5845SOL    HW128994   1.260   3.899   3.601 -0.3390 -0.9628 -0.8089
 5845SOL    HW228995   1.199   3.908   3.731 -1.6743 -1.6875  0.1436
 5846SOL     OW28996   2.839   4.367  12.379 -0.3910 -0.5235 -0.2328
 5846SOL    HW128997   2.911   4.430  12.380 -0.5389 -0.2811 -4.8130
 5846SOL    HW228998   2.886   4.287  12.402 -0.8409 -1.0348 -1.1411
 5847SOL     OW28999   1.133   0.259   7.858 -0.5730 -0.2171 -0.0842
 5847SOL    HW129000   1.108   0.312   7.935 -0.9393  1.9944 -1.7376
 5847SOL    HW229001   1.112   0.322   7.790 -1.8767  1.2413  1.6446
 5848SOL     OW29002   0.181   3.462   4.349 -0.1647  0.7819 -0.5568
 5848SOL    HW129003   0.255   3.522   4.361  2.1046 -1.4186 -3.6063
 5848SOL    HW229004   0.226   3.380   4.370  0.1752  1.4692  1.3972
 5849SOL     OW29005   3.195   0.560  14.025  0.4340  0.1786 -0.7245
 5849SOL    HW129006   3.237   0.474  14.018  2.9724  1.2152  1.6607
 5849SOL    HW229007   3.114   0.537  14.070  0.6562 -0.7881 -0.7987
 5850SOL     OW29008   0.319   4.388   4.071 -0.2682  0.2773 -0.2120
 5850SOL    HW129009   0.378   4.463   4.069 -0.0844  0.1261 -0.4644
 5850SOL    HW229010   0.333   4.349   4.157  0.2163  2.0989  0.5287
 5851SOL     OW29011   1.502   3.784   1.608  0.2927  0.3504 -0.4253
 5851SOL    HW129012   1.406   3.794   1.606  0.2741 -0.1722 -3.1008
 5851SOL    HW229013   1.527   3.871   1.579 -0.2204  1.2799  1.9374
 5852SOL     OW29014   0.122   0.017   7.895  0.5198  0.9792 -0.2089
 5852SOL    HW129015   0.086   0.105   7.902 -1.3415  0.3622 -1.9896
 5852SOL    HW229016   0.059   4.712   7.830 -0.8977  0.0748  1.6239
 5853SOL     OW29017   0.118   2.513   9.053  0.1877 -0.4294  0.4783
 5853SOL    HW129018   0.032   2.549   9.078 -0.3231 -0.8461 -0.6564
 5853SOL    HW229019   0.114   2.437   9.111  0.0669 -0.3692  0.5478
 5854SOL     OW29020   3.256   4.690   7.281  0.4576  0.1443  0.3694
 5854SOL    HW129021   3.211   4.624   7.228  0.8719  0.0453  0.1381
 5854SOL    HW229022   3.240   4.675   7.374  3.1054 -0.2151  0.7637
 5855SOL     OW29023   1.568   0.354   8.300  0.3987 -0.0977  1.0651
 5855SOL    HW129024   1.524   0.280   8.259 -0.8089  1.3874 -0.2941
 5855SOL    HW229025   1.566   0.420   8.232 -0.4642 -0.2827  0.9163
 5856SOL     OW29026   3.001   2.641   4.403 -1.0062  0.3494  0.0545
 5856SOL    HW129027   2.912   2.630   4.371 -0.0260  0.7299 -2.8415
 5856SOL    HW229028   3.003   2.736   4.415 -4.4357  0.6234 -1.5262
 5857SOL     OW29029   2.532   1.000  12.231  0.2140 -0.9376  0.0307
 5857SOL    HW129030   2.601   1.058  12.262 -0.7810  1.2113 -1.7852
 5857SOL    HW229031   2.453   1.053  12.219  1.8600  1.6517  0.6370
 5858SOL     OW29032   0.959   0.971   6.150 -0.1444 -0.1893 -0.5464
 5858SOL    HW129033   0.902   1.016   6.087  0.3155 -1.0810 -1.6089
 5858SOL    HW229034   0.909   0.982   6.230 -2.4195  0.4524 -2.0551
 5859SOL     OW29035   2.845   0.490   3.926 -0.5704 -0.5370 -0.4351
 5859SOL    HW129036   2.797   0.460   3.849  0.9067 -1.9235 -0.8187
 5859SOL    HW229037   2.818   0.417   3.983 -0.3390 -0.1937  0.1149
 5860SOL     OW29038   0.570   1.197   7.802  0.2712 -0.0211 -0.2867
 5860SOL    HW129039   0.590   1.109   7.770 -1.2567 -0.5929  0.3350
 5860SOL    HW229040   0.639   1.252   7.766  1.0886 -0.9739 -0.1732
 5861SOL     OW29041   2.383   3.970   2.641  0.5609 -0.0207  0.3133
 5861SOL    HW129042   2.436   3.891   2.650  0.0943 -0.4640 -0.7969
 5861SOL    HW229043   2.297   3.949   2.677  1.5447 -2.8132  1.0597
 5862SOL     OW29044   1.139   2.193  14.904 -0.6717  0.1664 -0.7912
 5862SOL    HW129045   1.119   2.274  14.857  0.8743  1.4556  0.7861
 5862SOL    HW229046   1.209   2.165  14.845  2.4082  1.8892  2.0670
 5863SOL     OW29047   1.388   1.697   5.326 -0.0156 -0.1443 -0.2800
 5863SOL    HW129048   1.431   1.772   5.368 -0.3603 -0.2019  0.1846
 5863SOL    HW229049   1.438   1.698   5.245 -1.3597 -3.8772 -1.1706
 5864SOL     OW29050   2.191   3.509  13.860  0.2716 -0.3306 -0.3722
 5864SOL    HW129051   2.160   3.564  13.789  1.3364 -0.9076 -1.2926
 5864SOL    HW229052   2.109   3.508  13.910  0.7097  0.4696  0.3573
 5865SOL     OW29053   3.228   1.700   8.275 -0.3030 -0.1958 -0.0684
 5865SOL    HW129054   3.230   1.779   8.329  0.3750  0.2216 -0.6905
 5865SOL    HW229055   3.295   1.646   8.317 -0.5163  0.0082  0.5351
 5866SOL     OW29056   4.614   1.150   8.968 -0.0991  0.3934  0.0143
 5866SOL    HW129057   4.643   1.072   8.922 -0.1502  0.8963 -0.8641
 5866SOL    HW229058   4.666   1.143   9.049 -1.3857 -0.1916  0.7906
 5867SOL     OW29059   2.110   3.438  10.040 -0.1610  0.5615 -0.3114
 5867SOL    HW129060   2.032   3.442  10.095  0.8041 -1.0748  1.1482
 5867SOL    HW229061   2.079   3.395   9.960  0.0034 -0.0198 -0.0621
 5868SOL     OW29062   1.030   3.451   2.369  0.4743  0.0077  0.7837
 5868SOL    HW129063   1.058   3.398   2.295 -1.9292  0.6924 -0.6060
 5868SOL    HW229064   1.056   3.392   2.440  1.6846 -0.4398 -0.0246
 5869SOL     OW29065   4.130   1.655   7.241  0.1200  0.2061 -0.6551
 5869SOL    HW129066   4.159   1.671   7.151  1.3185  0.2653 -0.2576
 5869SOL    HW229067   4.070   1.584   7.215 -0.1458  0.2108 -0.0489
 5870SOL     OW29068   4.482   0.763   0.640 -0.3616  0.4749  0.1244
 5870SOL    HW129069   4.420   0.752   0.712 -1.5507 -1.3297 -1.1485
 5870SOL    HW229070   4.436   0.718   0.569 -0.7191 -0.8446  1.1821
 5871SOL     OW29071   1.896   4.432  12.999 -0.5091 -0.5790  0.8198
 5871SOL    HW129072   1.954   4.487  13.051  1.1106 -1.2180 -0.3448
 5871SOL    HW229073   1.906   4.349  13.047  0.5961 -0.3070  1.0526
 5872SOL     OW29074   0.637   2.585   6.116 -0.1409  0.5760  0.1763
 5872SOL    HW129075   0.663   2.529   6.043  1.3310  0.5426  0.7325
 5872SOL    HW229076   0.565   2.530   6.146  0.3693  0.1381  0.6060
 5873SOL     OW29077   0.880   1.478  16.053  0.0233  0.2869  0.3734
 5873SOL    HW129078   0.946   1.476  15.983  0.8660  1.1066  1.1263
 5873SOL    HW229079   0.807   1.446  16.001 -0.4293  2.7405 -0.5218
 5874SOL     OW29080   0.434   0.114   4.530  0.4673 -0.3080  0.1247
 5874SOL    HW129081   0.397   0.114   4.618  0.2633 -0.8347  0.0451
 5874SOL    HW229082   0.525   0.088   4.542 -0.0438 -1.5237  1.3325
 5875SOL     OW29083   0.094   2.630   5.319  0.6080 -0.2376  0.0222
 5875SOL    HW129084   0.023   2.566   5.322  1.4998 -1.2081  0.8277
 5875SOL    HW229085   0.158   2.586   5.376 -0.3997 -1.1336  0.4774
 5876SOL     OW29086   4.580   3.156   5.295  0.0737  0.2790  0.4961
 5876SOL    HW129087   4.506   3.183   5.348  0.0499 -0.7587  0.9882
 5876SOL    HW229088   4.619   3.242   5.276 -0.1868  0.2505 -0.1736
 5877SOL     OW29089   2.187   2.413  11.141 -0.0108 -0.5966  0.1188
 5877SOL    HW129090   2.282   2.407  11.131  0.1351  3.6132 -0.9110
 5877SOL    HW229091   2.172   2.327  11.182 -0.3193 -0.6114 -0.0180
 5878SOL     OW29092   3.904   3.357   7.541  0.5325  0.4332 -0.0900
 5878SOL    HW129093   3.989   3.349   7.498  0.2648  0.3774 -0.6021
 5878SOL    HW229094   3.930   3.325   7.628  1.3699  1.2781 -0.0235
 5879SOL     OW29095   1.551   4.158   3.144 -0.7561 -0.1873  0.2058
 5879SOL    HW129096   1.632   4.207   3.129 -0.5019  0.0978  2.5028
 5879SOL    HW229097   1.516   4.143   3.057  0.5215  0.6577 -0.4512
 5880SOL     OW29098   1.378   2.214   7.615 -0.4020 -0.0278 -0.0113
 5880SOL    HW129099   1.409   2.264   7.539 -0.4907  1.4224  0.9026
 5880SOL    HW229100   1.419   2.130   7.594  0.2967  0.2069  0.4014
 5881SOL     OW29101   0.887   1.868  14.468  0.2133 -0.6444  0.3899
 5881SOL    HW129102   0.963   1.922  14.491  0.3718  0.4123 -2.5990
 5881SOL    HW229103   0.884   1.889  14.375 -0.8652  0.4863  0.6891
 5882SOL     OW29104   3.367   0.493  15.653  0.5469  0.7118 -0.7726
 5882SOL    HW129105   3.417   0.508  15.733  0.1394 -0.0463 -0.3823
 5882SOL    HW229106   3.279   0.498  15.688 -0.0367  0.0132 -2.1318
 5883SOL     OW29107   4.481   2.038   3.509  0.5447  0.7841 -0.6078
 5883SOL    HW129108   4.528   2.039   3.593 -1.2199 -1.7519  0.4165
 5883SOL    HW229109   4.396   2.079   3.525  0.0661 -0.0502 -1.0149
 5884SOL     OW29110   2.345   4.232   3.180  0.0577 -0.0633  0.4315
 5884SOL    HW129111   2.289   4.308   3.195  0.9489  0.6067  0.3280
 5884SOL    HW229112   2.351   4.199   3.269 -2.1078  0.7956  0.9041
 5885SOL     OW29113   2.201   3.954   6.789  0.1166  0.1054 -0.2286
 5885SOL    HW129114   2.154   3.930   6.709 -0.5215  1.1521 -0.1522
 5885SOL    HW229115   2.239   3.868   6.808  2.0471  1.0895  0.3517
 5886SOL     OW29116   1.933   3.493  13.980  0.3624 -0.0186  0.5688
 5886SOL    HW129117   1.851   3.447  13.961  1.5643 -0.6949 -3.0968
 5886SOL    HW229118   1.916   3.552  14.053 -1.2325  0.6232 -0.3016
 5887SOL     OW29119   3.267   1.944   3.874  0.4032 -0.0026  0.0602
 5887SOL    HW129120   3.267   2.036   3.900  1.7331 -0.1568  0.5766
 5887SOL    HW229121   3.174   1.927   3.891  1.0136 -1.9070  1.4893
 5888SOL     OW29122   4.018   3.709   5.071 -0.2593 -0.1458  0.5185
 5888SOL    HW129123   3.952   3.770   5.105  0.0114  0.1498  0.5090
 5888SOL    HW229124   4.017   3.729   4.977  0.0530 -0.6130  0.4177
 5889SOL     OW29125   3.983   0.680   6.920 -0.3077  0.0019  0.6757
 5889SOL    HW129126   3.891   0.663   6.941 -0.8016  0.8083 -0.8757
 5889SOL    HW229127   4.006   0.764   6.960  1.8920 -0.9254  1.3541
 5890SOL     OW29128   2.709   0.003   7.747 -0.2499  0.6367 -0.1707
 5890SOL    HW129129   2.704   0.047   7.832  1.3627 -1.1814  0.8737
 5890SOL    HW229130   2.766   4.655   7.765 -0.1486  1.5609  3.2539
 5891SOL     OW29131   2.485   2.274  11.512 -0.4017 -0.2342 -0.2014
 5891SOL    HW129132   2.570   2.231  11.509 -2.2779 -3.8314 -1.4628
 5891SOL    HW229133   2.507   2.367  11.525  1.9117 -0.7576 -0.4615
 5892SOL     OW29134   2.580   2.521   6.796 -0.3218 -0.2963  0.0456
 5892SOL    HW129135   2.493   2.514   6.757 -0.0105  0.6800 -0.8061
 5892SOL    HW229136   2.634   2.548   6.723  0.7632 -2.7332 -0.0438
 5893SOL     OW29137   3.840   1.830   7.541  0.3480  0.1970  0.3368
 5893SOL    HW129138   3.751   1.796   7.531  0.6837 -0.4962 -0.2855
 5893SOL    HW229139   3.831   1.854   7.633  1.3616  2.9352 -0.2704
 5894SOL     OW29140   1.880   1.977   8.398  0.4797  0.1267  0.2836
 5894SOL    HW129141   1.861   2.012   8.311  1.3076 -0.3699 -0.0920
 5894SOL    HW229142   1.889   2.061   8.444  1.1970  1.0030 -1.4508
 5895SOL     OW29143   2.982   1.225   4.595  0.0929  0.6516  0.5774
 5895SOL    HW129144   2.909   1.239   4.535  1.8741  1.2191 -1.4303
 5895SOL    HW229145   2.952   1.150   4.646  1.4082  0.7774  1.5397
 5896SOL     OW29146   3.046   3.227   5.889 -0.0951  0.0465 -0.4960
 5896SOL    HW129147   3.128   3.220   5.938  0.0049  0.4220 -0.6077
 5896SOL    HW229148   3.021   3.314   5.917  0.5494  0.7137 -1.9788
 5897SOL     OW29149   4.150   0.961   2.712 -0.4089 -0.0339  0.2131
 5897SOL    HW129150   4.147   0.972   2.617 -3.8193  1.4869  0.5001
 5897SOL    HW229151   4.091   1.031   2.739 -1.3515  0.0735 -2.1570
 5898SOL     OW29152   4.289   1.764   8.890  0.2429  0.1912 -0.3034
 5898SOL    HW129153   4.328   1.679   8.905 -0.0349  0.3690  1.4416
 5898SOL    HW229154   4.289   1.795   8.981  0.4245 -2.1302  0.4867
 5899SOL     OW29155   3.251   2.198   3.972  0.3846 -0.1595  0.9535
 5899SOL    HW129156   3.286   2.217   4.059 -0.8210  0.6210  1.2796
 5899SOL    HW229157   3.201   2.279   3.964  2.3476  0.8762 -0.5776
 5900SOL     OW29158   3.684   2.494   4.172  0.1106  0.0665 -0.1368
 5900SOL    HW129159   3.653   2.437   4.243  0.0396 -0.1669 -0.3586
 5900SOL    HW229160   3.735   2.552   4.229 -0.1014 -0.1922  0.3151
 5901SOL     OW29161   4.536   2.932   1.637 -0.1410 -0.1295 -0.1608
 5901SOL    HW129162   4.522   3.019   1.599 -0.6942 -0.0433  0.2349
 5901SOL    HW229163   4.502   2.951   1.725 -1.5895  0.1222 -0.7915
 5902SOL     OW29164   0.939   0.157   6.611  0.0400  0.2734  0.3681
 5902SOL    HW129165   0.955   0.092   6.543 -2.6829  0.5998 -0.5867
 5902SOL    HW229166   0.930   0.231   6.550  2.2074  0.7428  0.6364
 5903SOL     OW29167   3.104   1.889  16.206  0.1398  0.1711  0.0638
 5903SOL    HW129168   3.173   1.825  16.225 -1.6021 -1.6923  0.1131
 5903SOL    HW229169   3.091   1.869  16.113 -0.5004 -2.5090  0.7230
 5904SOL     OW29170   2.939   4.289   8.366  0.1875  0.3562 -0.3024
 5904SOL    HW129171   3.027   4.280   8.329  2.1796 -1.2850  4.8917
 5904SOL    HW229172   2.953   4.213   8.422 -1.3436  0.3104  0.0234
 5905SOL     OW29173   4.135   2.561   3.333  0.7594 -0.1074 -0.4283
 5905SOL    HW129174   4.072   2.513   3.387  0.1322  0.0074 -1.0669
 5905SOL    HW229175   4.141   2.509   3.253  1.7385  1.8397 -1.6160
 5906SOL     OW29176   4.534   2.990  11.179 -0.0094  0.2573 -0.4663
 5906SOL    HW129177   4.590   2.938  11.121  1.3081  0.7744  0.3656
 5906SOL    HW229178   4.591   2.994  11.255  0.6324  3.7222 -1.1509
 5907SOL     OW29179   4.467   2.561  10.771 -0.0911  0.1969 -0.1099
 5907SOL    HW129180   4.440   2.580  10.681 -1.5830 -2.5464 -0.2558
 5907SOL    HW229181   4.543   2.618  10.775  0.8159 -0.9830 -0.7622
 5908SOL     OW29182   0.588   4.199   9.574  0.2382  0.4677 -0.1445
 5908SOL    HW129183   0.653   4.261   9.542 -1.2117  1.0374 -1.9886
 5908SOL    HW229184   0.559   4.251   9.649  0.3193  0.7547 -0.3106
 5909SOL     OW29185   0.350   1.253   1.822 -0.3996  0.2989 -0.1778
 5909SOL    HW129186   0.434   1.237   1.866 -0.7698 -0.6228  0.2040
 5909SOL    HW229187   0.385   1.253   1.733  1.7142  1.8656  0.6743
 5910SOL     OW29188   1.844   1.101   0.206  0.5453 -0.0853  0.6954
 5910SOL    HW129189   1.899   1.040   0.255  1.2974  0.4483  0.5235
 5910SOL    HW229190   1.912   1.133   0.147  0.5693  1.4284  1.5488
 5911SOL     OW29191   0.203   2.982   2.512 -0.4879 -0.2347 -0.2376
 5911SOL    HW129192   0.233   3.069   2.485 -2.0085 -0.0226 -1.2476
 5911SOL    HW229193   0.292   2.947   2.507 -0.3060  0.0096  1.2188
 5912SOL     OW29194   2.718   0.380   4.570 -0.3652  0.4485 -0.5169
 5912SOL    HW129195   2.651   0.357   4.634 -0.1611  1.0388 -0.0977
 5912SOL    HW229196   2.774   0.303   4.569 -0.5501  0.3050  0.5687
 5913SOL     OW29197   0.364   4.577   6.847  0.0192  0.0330  0.1143
 5913SOL    HW129198   0.306   4.633   6.796 -2.4541 -0.6240  2.2089
 5913SOL    HW229199   0.298   4.509   6.864  0.5518 -0.5954 -0.3422
 5914SOL     OW29200   3.876   1.574   2.861 -0.0401 -0.1902 -0.2918
 5914SOL    HW129201   3.966   1.586   2.890  0.1418  1.9220 -1.7749
 5914SOL    HW229202   3.886   1.514   2.788 -2.9218 -2.0509  0.8422
 5915SOL     OW29203   2.096   2.017   2.476  0.5882 -0.2244  0.8176
 5915SOL    HW129204   2.106   1.928   2.441 -1.2297 -1.4262  3.3502
 5915SOL    HW229205   2.047   2.005   2.557  1.8194  0.9063  1.7297
 5916SOL     OW29206   3.557   2.376   1.012  0.3515 -0.2224  0.1702
 5916SOL    HW129207   3.464   2.371   0.990  0.6159  1.1866 -1.2919
 5916SOL    HW229208   3.602   2.318   0.952  2.1490  1.2865  0.0396
 5917SOL     OW29209   0.680   1.668   8.771 -0.3634 -0.3249  0.4618
 5917SOL    HW129210   0.596   1.626   8.751  0.2565  0.7164 -4.2215
 5917SOL    HW229211   0.648   1.690   8.859  3.0602  0.7543  1.4469
 5918SOL     OW29212   3.377   3.112   7.507  0.3657  0.2910 -0.4078
 5918SOL    HW129213   3.473   3.111   7.501  0.5631  1.5238  2.4178
 5918SOL    HW229214   3.363   3.201   7.540 -0.6336  0.0146 -0.0867
 5919SOL     OW29215   1.576   0.259   5.539  0.0307 -0.9295 -0.4493
 5919SOL    HW129216   1.560   0.167   5.518  0.3516 -1.0091 -0.3477
 5919SOL    HW229217   1.542   0.253   5.628 -0.8791 -0.6139 -0.7747
 5920SOL     OW29218   0.994   2.956   6.387 -0.5023 -0.1332 -0.1527
 5920SOL    HW129219   0.961   3.045   6.394 -0.7912 -0.1766 -0.9895
 5920SOL    HW229220   0.990   2.925   6.478 -3.0441 -0.4448 -0.3532
 5921SOL     OW29221   1.954   1.507   7.087  0.0450  0.0509 -0.3962
 5921SOL    HW129222   1.865   1.536   7.109 -0.6614 -1.6872 -0.9600
 5921SOL    HW229223   1.935   1.414   7.071  1.2805 -0.6930  2.5115
 5922SOL     OW29224   1.160   1.258   1.301  0.6359  0.2955  0.7863
 5922SOL    HW129225   1.137   1.167   1.321  0.4296 -0.4131 -2.7193
 5922SOL    HW229226   1.113   1.262   1.218  0.3183 -1.4905  0.8657
 5923SOL     OW29227   3.078   3.207   5.597  1.1379 -0.7654 -0.2928
 5923SOL    HW129228   3.026   3.272   5.644  0.0452 -0.4531 -1.9100
 5923SOL    HW229229   3.096   3.150   5.672 -1.2354 -1.8449 -0.5314
 5924SOL     OW29230   3.943   3.869   5.645 -0.3587 -0.4384  0.1655
 5924SOL    HW129231   3.875   3.913   5.696 -0.0298  2.8129 -2.1909
 5924SOL    HW229232   3.908   3.896   5.560 -0.1717 -1.2372 -0.1660
 5925SOL     OW29233   0.301   4.184   3.645  0.0953  0.5511  0.3020
 5925SOL    HW129234   0.229   4.192   3.584  0.6440  2.0058 -0.1600
 5925SOL    HW229235   0.315   4.090   3.637 -0.5108  0.5961 -1.2001
 5926SOL     OW29236   0.044   2.433   6.936 -0.3088 -0.2186  0.0190
 5926SOL    HW129237   4.678   2.416   6.954 -1.0280  2.7973 -0.7795
 5926SOL    HW229238   0.052   2.422   6.841  1.1784  0.3128  0.0808
 5927SOL     OW29239   0.184   1.332   7.485  0.8556  0.2897  0.4226
 5927SOL    HW129240   0.120   1.333   7.556  0.4033 -1.8269  0.0606
 5927SOL    HW229241   0.127   1.313   7.409 -0.6453  0.7722  1.4264
 5928SOL     OW29242   4.126   1.405  13.135  0.1023  0.0898  0.4001
 5928SOL    HW129243   4.086   1.322  13.107 -0.9455  0.4058  0.9662
 5928SOL    HW229244   4.095   1.468  13.071 -0.8794 -2.6079 -1.8024
 5929SOL     OW29245   3.496   2.048   1.743  0.0353 -0.4335 -0.6003
 5929SOL    HW129246   3.486   2.143   1.746 -0.4439 -0.5036  0.0459
 5929SOL    HW229247   3.587   2.040   1.715  0.2628 -2.5532  0.7266
 5930SOL     OW29248   2.725   4.194   5.201 -0.1017 -0.0667  0.0392
 5930SOL    HW129249   2.776   4.170   5.123 -0.7285  4.7869 -1.8339
 5930SOL    HW229250   2.718   4.102   5.229  3.0855 -0.4426 -0.4127
 5931SOL     OW29251   4.036   3.573  14.183  0.5272  0.2833  0.0481
 5931SOL    HW129252   3.983   3.651  14.200 -3.0435 -2.0800 -0.4102
 5931SOL    HW229253   4.005   3.549  14.096  3.8287 -0.4356 -0.9464
 5932SOL     OW29254   0.255   0.341   8.089  0.2871  0.3973  0.0784
 5932SOL    HW129255   0.187   0.379   8.032 -1.8517  1.2558  3.1959
 5932SOL    HW229256   0.281   0.418   8.138 -0.6578 -0.2112  1.5367
 5933SOL     OW29257   1.939   0.937   7.868 -0.5743  0.1138  0.1911
 5933SOL    HW129258   2.025   0.896   7.876  0.1147  1.3515 -0.8604
 5933SOL    HW229259   1.965   1.025   7.841  0.3235 -0.1499  0.1899
 5934SOL     OW29260   1.281   2.497   3.441  0.5334 -0.1357  0.7377
 5934SOL    HW129261   1.333   2.542   3.374 -1.3450 -1.6239 -1.7208
 5934SOL    HW229262   1.204   2.466   3.394  1.3279 -0.5414 -0.3152
 5935SOL     OW29263   4.601   0.694   4.776 -0.2430  0.6575  0.0291
 5935SOL    HW129264   4.601   0.658   4.864 -2.1513  1.3158  0.3014
 5935SOL    HW229265   4.664   0.632   4.738  1.4617  0.3860  3.3018
 5936SOL     OW29266   0.451   4.589   4.217 -0.1694 -0.1894  0.7191
 5936SOL    HW129267   0.537   4.576   4.177  0.2280  1.6115  1.0009
 5936SOL    HW229268   0.469   4.578   4.310 -0.6027  2.4395  1.1164
 5937SOL     OW29269   1.050   3.814   2.177  0.2877 -0.2046  0.9557
 5937SOL    HW129270   0.997   3.748   2.134 -0.7447  0.7713  0.7341
 5937SOL    HW229271   1.080   3.858   2.097  0.8832 -0.0670  1.2541
 5938SOL     OW29272   1.579   4.680   1.416 -0.5271 -0.1002 -0.4096
 5938SOL    HW129273   1.550   0.045   1.418  0.4169  0.2422 -2.3297
 5938SOL    HW229274   1.592   4.661   1.323  1.3944 -0.4779 -0.0504
 5939SOL     OW29275   3.872   2.012  11.660 -0.0428 -0.9337 -1.0020
 5939SOL    HW129276   3.801   1.976  11.607 -1.6384 -1.6986  1.6521
 5939SOL    HW229277   3.895   1.922  11.685  1.9172  0.1733  1.2075
 5940SOL     OW29278   0.136   0.871  17.512  0.4341  0.1567 -0.5764
 5940SOL    HW129279   0.133   0.880  17.417  1.2082 -0.9732 -0.7029
 5940SOL    HW229280   0.112   0.779  17.521 -3.2063  1.1247 -0.4372
 5941SOL     OW29281   0.701   2.850   3.890 -0.0575 -0.3582  0.9674
 5941SOL    HW129282   0.645   2.921   3.857 -1.4456 -1.6935  0.4297
 5941SOL    HW229283   0.753   2.837   3.810 -1.2235  2.1552 -0.2223
 5942SOL     OW29284   2.071   4.431   4.375  0.1114  0.3802  0.1645
 5942SOL    HW129285   2.086   4.398   4.464 -3.9510 -3.0341 -0.4125
 5942SOL    HW229286   2.007   4.499   4.395 -0.5458  0.1684 -1.2155
 5943SOL     OW29287   4.488   2.356  11.543  0.2375 -0.2384  0.5699
 5943SOL    HW129288   4.559   2.331  11.602 -1.1588 -0.6713  2.0824
 5943SOL    HW229289   4.452   2.275  11.506 -0.8508  0.4625  0.0874
 5944SOL     OW29290   0.456   1.830   8.404  0.2441  0.1098 -0.0910
 5944SOL    HW129291   0.464   1.768   8.477  0.4056  1.5884  1.1338
 5944SOL    HW229292   0.396   1.787   8.343 -0.7152 -0.1297  1.0270
 5945SOL     OW29293   4.568   2.190   3.264  0.2655  0.2784 -0.5278
 5945SOL    HW129294   4.587   2.280   3.289 -0.3002 -0.3012  1.9687
 5945SOL    HW229295   4.573   2.148   3.350  1.0740  1.1173 -0.1631
 5946SOL     OW29296   0.428   3.926   6.233 -0.3794  0.0142  0.1045
 5946SOL    HW129297   0.490   3.879   6.177  1.4778  0.9448  1.3643
 5946SOL    HW229298   0.448   4.019   6.224 -0.7544  0.2930  2.2164
 5947SOL     OW29299   2.578   0.945   4.211  0.1452  0.2359  0.1735
 5947SOL    HW129300   2.532   0.869   4.174  0.8773 -0.0649 -0.1144
 5947SOL    HW229301   2.632   0.972   4.137  1.2782 -0.8961  0.5805
 5948SOL     OW29302   4.231   2.308   0.374 -0.7032  0.2060 -0.5237
 5948SOL    HW129303   4.231   2.265   0.459 -2.0355 -0.9580 -1.1108
 5948SOL    HW229304   4.291   2.258   0.319 -1.2337  0.3510 -1.2407
 5949SOL     OW29305   1.806   1.620   1.547 -0.0246 -0.4595 -0.1761
 5949SOL    HW129306   1.741   1.676   1.503 -0.1739 -1.0488 -0.7053
 5949SOL    HW229307   1.754   1.541   1.556 -0.6116 -0.2069 -1.2999
 5950SOL     OW29308   0.720   0.195   6.088  0.3046  0.3086  0.1645
 5950SOL    HW129309   0.664   0.233   6.156  2.7068  1.5182  1.4569
 5950SOL    HW229310   0.654   0.144   6.042 -0.4426  1.4758 -0.0721
 5951SOL     OW29311   2.439   1.743   9.526  0.4232 -0.0875 -0.5715
 5951SOL    HW129312   2.371   1.803   9.494  0.5907  0.4430  0.0738
 5951SOL    HW229313   2.409   1.670   9.472 -1.5413  0.0521  0.3357
 5952SOL     OW29314   2.731   0.206  13.685 -0.4078 -0.8721 -0.1917
 5952SOL    HW129315   2.763   0.196  13.595 -0.3006 -2.9712  0.0942
 5952SOL    HW229316   2.656   0.148  13.677 -1.7255  0.9084 -0.5475
 5953SOL     OW29317   1.007   1.965   8.097 -0.1403 -0.1202 -0.1431
 5953SOL    HW129318   0.960   1.973   8.180  2.4962 -1.7816  1.5111
 5953SOL    HW229319   1.077   1.903   8.119  0.2703  0.2781 -0.3173
 5954SOL     OW29320   3.297   1.074   4.068  0.6520 -0.1135  0.3862
 5954SOL    HW129321   3.319   1.021   3.992  0.9767  0.8803 -0.2089
 5954SOL    HW229322   3.259   1.008   4.127  1.6358  0.1085  1.2702
 5955SOL     OW29323   2.853   4.391  17.171 -0.2891  0.2220 -0.2541
 5955SOL    HW129324   2.848   4.475  17.126  3.5589  0.9056  0.5833
 5955SOL    HW229325   2.920   4.409  17.237 -1.0283  1.1688  0.2344
 5956SOL     OW29326   1.046   3.031   6.840  1.1107  0.5835 -0.2727
 5956SOL    HW129327   1.002   3.028   6.925  0.3206  0.9633 -0.6764
 5956SOL    HW229328   1.027   3.120   6.813  1.0733  1.1049  1.4624
 5957SOL     OW29329   1.507   4.723   5.436  0.2601 -0.0637 -0.5095
 5957SOL    HW129330   1.599   0.004   5.410  0.3663  0.6062  0.0509
 5957SOL    HW229331   1.477   4.665   5.367 -0.8538  1.7722 -1.5555
 5958SOL     OW29332   3.800   2.123   3.589 -0.2487  0.9018  0.6986
 5958SOL    HW129333   3.846   2.069   3.653  1.7401  1.3908 -0.3102
 5958SOL    HW229334   3.731   2.144   3.652 -1.5174 -1.6111  0.1472
 5959SOL     OW29335   0.269   2.712   9.505 -0.3581  0.1078  0.4984
 5959SOL    HW129336   0.239   2.785   9.560 -1.5620 -0.3799  0.5033
 5959SOL    HW229337   0.293   2.754   9.422  0.2492  2.3809  1.8086
 5960SOL     OW29338   2.149   0.148   9.367  0.2927 -0.1019 -0.5562
 5960SOL    HW129339   2.156   0.207   9.292  1.3509 -1.6365 -1.6478
 5960SOL    HW229340   2.125   0.215   9.431  1.5176  0.2356 -0.4444
 5961SOL     OW29341   3.060   0.211   7.838 -0.4371 -0.2122  0.4241
 5961SOL    HW129342   3.038   0.195   7.929 -0.6546 -0.4942  0.3215
 5961SOL    HW229343   3.137   0.154   7.832 -0.9322 -0.8740  0.4704
 5962SOL     OW29344   1.756   3.910   4.830 -0.3969  0.4337 -0.0046
 5962SOL    HW129345   1.713   3.946   4.752  3.0818  2.4363 -1.0068
 5962SOL    HW229346   1.848   3.904   4.804  0.2263  2.2444  1.8177
 5963SOL     OW29347   2.615   4.366   4.822  1.0362 -0.1984  0.1741
 5963SOL    HW129348   2.677   4.306   4.780  0.4649  0.6080 -1.8606
 5963SOL    HW229349   2.674   4.396   4.891  2.4315 -3.1805  0.3002
 5964SOL     OW29350   0.740   1.592   8.479  0.3400 -0.2776  0.0106
 5964SOL    HW129351   0.726   1.620   8.570 -2.4403  0.1420 -0.5576
 5964SOL    HW229352   0.826   1.552   8.492 -0.2120 -1.2768  0.5822
 5965SOL     OW29353   0.847   1.710  16.193 -0.0930  0.7763  0.0091
 5965SOL    HW129354   0.859   1.634  16.136 -0.0390 -0.0304  1.0977
 5965SOL    HW229355   0.939   1.720  16.219  0.1095 -0.8697 -0.0260
 5966SOL     OW29356   1.015   0.421  10.192 -0.0261  0.2459 -0.1215
 5966SOL    HW129357   0.961   0.435  10.270  1.8501  0.5313  1.1582
 5966SOL    HW229358   1.093   0.475  10.212  0.6994 -0.7473 -0.2765
 5967SOL     OW29359   2.811   3.590  17.699 -0.0049  0.2407 -0.8145
 5967SOL    HW129360   2.906   3.587  17.694 -0.0583 -0.2011 -1.5167
 5967SOL    HW229361   2.807   3.674  17.652  0.5839  0.6496 -0.1169
 5968SOL     OW29362   0.041   1.980  10.588 -0.0750 -0.6068  0.1362
 5968SOL    HW129363   0.051   1.898  10.636 -3.1995 -2.0766 -1.7450
 5968SOL    HW229364   0.107   2.037  10.628 -1.6013  0.9028  0.4997
 5969SOL     OW29365   1.035   1.456   0.360 -0.2235  0.1337  0.0011
 5969SOL    HW129366   0.982   1.410   0.425  1.3405 -0.1174  1.1033
 5969SOL    HW229367   1.084   1.379   0.329 -0.5015  0.6337 -1.6682
 5970SOL     OW29368   3.342   3.215  10.684  0.7967 -0.0668 -0.1458
 5970SOL    HW129369   3.416   3.224  10.625  1.3076  1.3462  0.7062
 5970SOL    HW229370   3.269   3.187  10.628  0.0808 -1.5832  1.5360
 5971SOL     OW29371   3.319   1.400   8.167 -0.3985  0.0429  0.2833
 5971SOL    HW129372   3.252   1.346   8.126 -0.0723  1.3243 -1.9109
 5971SOL    HW229373   3.279   1.487   8.157 -0.3996 -0.1851 -1.6779
 5972SOL     OW29374   2.903   3.373  11.053  0.0116 -0.2061 -0.7732
 5972SOL    HW129375   2.853   3.347  10.976 -0.8408 -0.6083 -0.0932
 5972SOL    HW229376   2.968   3.430  11.013 -1.8131  1.9569 -0.6543
 5973SOL     OW29377   3.702   3.930   0.903  0.5042 -0.3249  0.0057
 5973SOL    HW129378   3.721   3.839   0.880  1.7090 -0.4124  1.3308
 5973SOL    HW229379   3.608   3.931   0.888  0.4076  1.6623  0.7798
 5974SOL     OW29380   0.895   3.398   5.037 -0.5970  0.2243 -0.2701
 5974SOL    HW129381   0.880   3.452   4.959  3.2913  0.3664 -0.9080
 5974SOL    HW229382   0.815   3.416   5.087  0.2920  2.1648  0.4428
 5975SOL     OW29383   2.499   4.327  10.589  0.9050 -0.2385  0.6291
 5975SOL    HW129384   2.582   4.357  10.626  0.1718  0.5577  1.6335
 5975SOL    HW229385   2.432   4.364  10.646 -0.1200 -0.5794 -0.3543
 5976SOL     OW29386   1.093   2.461   7.739 -0.3362  0.1418  0.2531
 5976SOL    HW129387   1.001   2.484   7.725  0.7045  2.2882 -2.9380
 5976SOL    HW229388   1.135   2.491   7.659 -1.4289 -1.4355 -0.9064
 5977SOL     OW29389   1.078   1.331   4.446  0.4684 -0.0524 -0.5426
 5977SOL    HW129390   1.022   1.319   4.523  0.9266 -1.3948 -0.4163
 5977SOL    HW229391   1.152   1.372   4.491 -0.6678 -0.1883  1.4775
 5978SOL     OW29392   3.678   4.149  16.770  0.7388 -0.0696  0.3828
 5978SOL    HW129393   3.597   4.099  16.765  1.1356 -0.9600  2.6393
 5978SOL    HW229394   3.718   4.103  16.696 -0.4081 -0.5408  0.0468
 5979SOL     OW29395   0.852   2.012   7.610  0.2232  0.3537 -0.3384
 5979SOL    HW129396   0.886   2.101   7.619 -1.3854  0.8599  0.6871
 5979SOL    HW229397   0.860   1.986   7.702  0.8780  0.0459 -0.4821
 5980SOL     OW29398   2.612   0.106   3.337  0.0269  0.0075  0.3655
 5980SOL    HW129399   2.571   0.020   3.328 -0.2193  0.1253  0.3522
 5980SOL    HW229400   2.534   0.162   3.347  0.2370  0.4624 -0.5055
 5981SOL     OW29401   4.598   1.230  12.072  0.5217  0.2789 -0.0733
 5981SOL    HW129402   4.567   1.225  11.982 -0.0379  1.6218  0.0532
 5981SOL    HW229403   4.545   1.303  12.104 -0.1906  0.0978 -0.8513
 5982SOL     OW29404   2.849   3.948   0.993  0.5420  0.1878  0.1374
 5982SOL    HW129405   2.906   3.914   0.925  1.1338  0.6802  0.3841
 5982SOL    HW229406   2.871   3.878   1.055  1.9762  0.2698 -0.2683
 5983SOL     OW29407   0.773   2.720   1.778 -0.4571 -0.3212  0.0189
 5983SOL    HW129408   0.784   2.754   1.689  2.2259  1.0586  0.8877
 5983SOL    HW229409   0.825   2.641   1.766 -1.9346 -0.7281 -3.6966
 5984SOL     OW29410   3.192   4.005   0.275  0.2659 -0.6698  0.6164
 5984SOL    HW129411   3.117   3.967   0.230  1.2236 -0.3586 -1.2635
 5984SOL    HW229412   3.235   4.043   0.199  1.4986  0.8150  2.0540
 5985SOL     OW29413   3.782   2.242   6.404 -0.3996 -0.3364  0.0659
 5985SOL    HW129414   3.742   2.281   6.482  1.6219  2.2406 -0.1985
 5985SOL    HW229415   3.721   2.268   6.336 -2.2739 -1.7443  1.2138
 5986SOL     OW29416   1.110   4.332   9.193  0.4106 -0.1878  0.2670
 5986SOL    HW129417   1.026   4.302   9.228  0.1800  0.9141  0.6596
 5986SOL    HW229418   1.149   4.244   9.195  0.2361 -0.2466  1.1232
 5987SOL     OW29419   3.283   1.250   4.381  0.3643  0.6659  0.2087
 5987SOL    HW129420   3.326   1.165   4.389  0.3825  0.5968 -0.6647
 5987SOL    HW229421   3.188   1.236   4.380  0.1759  1.6436  2.3019
 5988SOL     OW29422   1.236   2.411   3.896  0.4810 -0.1622 -0.2432
 5988SOL    HW129423   1.186   2.348   3.948  1.7336 -1.0241 -0.0914
 5988SOL    HW229424   1.228   2.480   3.963  1.5984  0.7738 -1.0694
 5989SOL     OW29425   3.664   0.108   3.168  0.4315  0.2131  0.4279
 5989SOL    HW129426   3.714   0.030   3.142 -2.0038 -0.6991 -1.4831
 5989SOL    HW229427   3.636   0.143   3.084  2.7781  1.1574  0.0278
 5990SOL     OW29428   4.415   0.870  14.749 -0.0150  0.3854  0.2806
 5990SOL    HW129429   4.487   0.916  14.706  1.3462 -1.2258  0.8416
 5990SOL    HW229430   4.457   0.869  14.835  2.9339  2.7885 -1.1447
 5991SOL     OW29431   2.544   2.341  12.441 -0.1391  0.1374 -0.5745
 5991SOL    HW129432   2.626   2.387  12.423 -0.4906  0.3604 -1.5825
 5991SOL    HW229433   2.530   2.354  12.535 -0.4401  2.0763 -0.8852
 5992SOL     OW29434   0.067   3.727  10.907  0.1519 -0.7245  0.0773
 5992SOL    HW129435   0.055   3.638  10.941 -2.3774 -1.5926 -3.1293
 5992SOL    HW229436   4.719   3.733  10.848  0.9809  1.1839 -0.7658
 5993SOL     OW29437   1.728   4.685   9.349 -0.2954 -0.2406 -0.0166
 5993SOL    HW129438   1.764   4.716   9.431 -1.3909  1.2678 -0.0954
 5993SOL    HW229439   1.642   4.725   9.337 -0.5686 -0.3402  1.6839
 5994SOL     OW29440   3.308   2.550  12.430  0.0139 -0.3116 -0.0679
 5994SOL    HW129441   3.331   2.635  12.393  0.1877 -0.2258  0.2418
 5994SOL    HW229442   3.346   2.548  12.517 -1.1633 -3.6429  0.3578
 5995SOL     OW29443   2.609   3.185   7.412 -0.0113  0.0286  0.0110
 5995SOL    HW129444   2.561   3.264   7.385  0.0605  1.0940  3.0441
 5995SOL    HW229445   2.555   3.142   7.478  1.3378 -1.2700  0.2662
 5996SOL     OW29446   3.942   0.575   5.324 -0.5711 -0.2630 -0.2162
 5996SOL    HW129447   3.950   0.480   5.335 -1.1540 -0.2147  0.6065
 5996SOL    HW229448   4.032   0.609   5.320 -0.3609 -0.6935  0.9833
 5997SOL     OW29449   4.036   3.443   5.739  0.5128 -0.4601  0.2484
 5997SOL    HW129450   4.036   3.473   5.648 -3.1954 -0.4622  0.2576
 5997SOL    HW229451   4.023   3.348   5.739 -1.6314 -0.1580 -0.2869
 5998SOL     OW29452   1.470   1.111   0.118  0.3884  0.1779 -0.3224
 5998SOL    HW129453   1.427   1.034   0.156  2.4932 -1.4215 -1.1570
 5998SOL    HW229454   1.518   1.143   0.195  1.1259 -0.1451 -0.6423
 5999SOL     OW29455   3.024   3.518   3.602  0.1035 -0.1763 -0.3293
 5999SOL    HW129456   3.044   3.438   3.554  0.5798 -0.1030 -0.2519
 5999SOL    HW229457   3.040   3.494   3.693 -3.3070 -0.6439  0.1533
 6000SOL     OW29458   3.269   1.523   2.044  0.4436 -0.1036 -0.5425
 6000SOL    HW129459   3.274   1.432   2.074 -2.2755  0.0614  0.3757
 6000SOL    HW229460   3.264   1.567   2.129 -0.2648  1.1252 -1.2275
 6001SOL     OW29461   4.391   4.493  16.411 -0.5200  0.0384 -0.3515
 6001SOL    HW129462   4.432   4.563  16.361 -1.1425  1.5412  1.2389
 6001SOL    HW229463   4.366   4.432  16.342  0.6994  1.2113 -1.8402
 6002SOL     OW29464   2.218   2.289   7.593  0.1201  0.4744  0.1111
 6002SOL    HW129465   2.283   2.224   7.566  1.1003  1.5143 -0.0161
 6002SOL    HW229466   2.221   2.359   7.528 -1.9089 -0.9427 -1.5261
 6003SOL     OW29467   0.145   3.352   6.627 -0.2575 -0.0666 -0.1877
 6003SOL    HW129468   0.113   3.264   6.607  0.3098 -0.4430  0.5547
 6003SOL    HW229469   0.221   3.328   6.681 -0.1992  0.5222 -0.0078
 6004SOL     OW29470   3.136   0.039   3.819  0.3523 -0.1983  0.1020
 6004SOL    HW129471   3.061   4.706   3.811 -0.5514  0.6268  2.2388
 6004SOL    HW229472   3.103   0.115   3.771  0.1830  0.3442  1.0738
 6005SOL     OW29473   3.597   2.375   5.988  0.0848 -0.2688 -0.4200
 6005SOL    HW129474   3.568   2.353   6.077  0.1902  0.6198 -0.1561
 6005SOL    HW229475   3.535   2.444   5.961 -2.9045 -2.6870  0.2344
 6006SOL     OW29476   0.366   1.009   8.603 -0.2359  0.0629  0.3123
 6006SOL    HW129477   0.430   0.939   8.609 -0.9385 -0.6698 -0.7519
 6006SOL    HW229478   0.348   1.017   8.696  0.4067  1.4387  0.3287
 6007SOL     OW29479   0.244   2.952   5.297 -0.3528 -0.5202 -0.1023
 6007SOL    HW129480   0.302   2.938   5.372  1.7662  0.7240 -1.4823
 6007SOL    HW229481   0.268   3.037   5.260  1.8058 -0.3266  1.7748
 6008SOL     OW29482   0.922   4.027   5.685  0.1533 -0.5725 -0.0006
 6008SOL    HW129483   0.935   4.083   5.608  0.9616 -1.2915 -0.3842
 6008SOL    HW229484   0.983   4.079   5.738 -0.3801  0.3160 -0.2601
 6009SOL     OW29485   1.318   3.290   5.982 -0.2242 -0.1633 -0.3684
 6009SOL    HW129486   1.257   3.353   6.022  0.4619  0.5790 -0.4993
 6009SOL    HW229487   1.399   3.336   6.002  0.1335 -1.1245  0.3774
 6010SOL     OW29488   1.112   1.046   4.051  0.5074  0.0078 -0.4915
 6010SOL    HW129489   1.053   1.064   4.124 -0.5071 -1.8513 -0.8516
 6010SOL    HW229490   1.127   0.953   4.071 -1.8610 -0.3559 -0.4655
 6011SOL     OW29491   1.169   1.083   5.164  0.3614  0.0033 -0.3035
 6011SOL    HW129492   1.116   1.064   5.242 -1.2365 -0.4377 -1.4927
 6011SOL    HW229493   1.234   1.142   5.202 -0.5902  2.2022 -2.1110
 6012SOL     OW29494   1.495   0.213  11.825  0.7533 -0.5187  0.9102
 6012SOL    HW129495   1.478   0.203  11.731  2.0554 -1.7836  0.8107
 6012SOL    HW229496   1.415   0.257  11.854  2.0015  1.3394  1.5522
 6013SOL     OW29497   1.678   0.116   0.339  0.5749  0.0037  0.6833
 6013SOL    HW129498   1.669   0.200   0.294  0.8477 -0.4422 -0.2037
 6013SOL    HW229499   1.761   0.138   0.382  0.6932 -4.5814  2.8248
 6014SOL     OW29500   4.116   2.904  10.255 -0.4021 -0.2490  0.6637
 6014SOL    HW129501   4.127   2.899  10.160 -0.6818 -1.9273  0.7228
 6014SOL    HW229502   4.056   2.836  10.287 -1.3994  1.1603  1.7859
 6015SOL     OW29503   2.126   0.162  14.374  0.0030 -0.6820 -0.3287
 6015SOL    HW129504   2.215   0.126  14.380 -0.5523 -1.9215  0.3208
 6015SOL    HW229505   2.116   0.233  14.437 -3.4453  0.7888 -2.5583
 6016SOL     OW29506   1.997   4.331  10.085  0.3580  0.1413 -0.5132
 6016SOL    HW129507   1.969   4.422  10.077 -0.1006 -0.1132 -1.8177
 6016SOL    HW229508   2.044   4.325  10.168 -2.8436 -1.5451  1.1822
 6017SOL     OW29509   0.546   3.042   3.758 -0.0159  0.3321 -0.1554
 6017SOL    HW129510   0.495   3.104   3.705  1.1040  1.0817 -0.3375
 6017SOL    HW229511   0.637   3.049   3.732 -0.6552  0.3681 -2.3665
 6018SOL     OW29512   2.473   4.664   1.183 -0.4061 -0.4629 -0.2241
 6018SOL    HW129513   2.409   4.699   1.122 -1.1564  0.1298  0.9028
 6018SOL    HW229514   2.465   4.571   1.159  0.0879 -0.4185 -0.5595
 6019SOL     OW29515   4.095   3.022   5.234  0.6200  0.1604 -0.6805
 6019SOL    HW129516   4.154   2.974   5.292 -1.5359 -0.4975  0.9445
 6019SOL    HW229517   4.077   3.095   5.293 -2.8759 -0.4638 -0.9436
 6020SOL     OW29518   4.079   0.891   3.304  0.1591 -0.2936  0.0927
 6020SOL    HW129519   3.988   0.883   3.332  0.5355  0.2811  1.5084
 6020SOL    HW229520   4.109   0.963   3.360 -1.2024 -1.5487  2.3999
 6021SOL     OW29521   3.367   2.753   4.976 -0.2887 -0.3368 -0.8379
 6021SOL    HW129522   3.304   2.688   5.008 -0.4555  0.5826  0.6847
 6021SOL    HW229523   3.385   2.694   4.903 -0.4486 -1.1949 -0.1862
 6022SOL     OW29524   2.947   0.495   6.207 -0.4786  0.4691  0.0888
 6022SOL    HW129525   2.972   0.403   6.198 -0.6271  0.6094 -1.8004
 6022SOL    HW229526   2.886   0.502   6.134  1.7920 -1.4378 -2.0131
 6023SOL     OW29527   0.009   4.570   3.442 -0.1937 -0.2567 -0.2751
 6023SOL    HW129528   4.646   4.596   3.421 -0.5919 -1.0041  0.4613
 6023SOL    HW229529   0.059   4.651   3.431 -0.2646 -0.0900  0.6209
 6024SOL     OW29530   2.704   2.891   9.706  0.2737 -0.2296 -0.3600
 6024SOL    HW129531   2.724   2.962   9.646 -0.2061  0.3899  0.2226
 6024SOL    HW229532   2.655   2.829   9.651 -0.5686 -0.0913  0.2349
 6025SOL     OW29533   1.098   4.201   1.826 -0.1744  0.2939 -0.0055
 6025SOL    HW129534   1.173   4.242   1.784 -1.2728  1.8485 -0.4601
 6025SOL    HW229535   1.106   4.216   1.921  1.2708  0.6382 -0.1828
 6026SOL     OW29536   1.448   3.261   5.316  0.1689  0.2394  0.1704
 6026SOL    HW129537   1.363   3.217   5.323  0.0961 -0.1041 -2.8176
 6026SOL    HW229538   1.435   3.333   5.377  1.9189  0.9519 -0.2971
 6027SOL     OW29539   4.405   0.625   8.762 -0.3392  0.1762  0.0070
 6027SOL    HW129540   4.416   0.558   8.829  0.3634 -0.7150 -0.9977
 6027SOL    HW229541   4.312   0.645   8.773  0.3810  1.8713  2.8820
 6028SOL     OW29542   2.178   0.767   7.923 -0.3096 -0.4080 -0.5430
 6028SOL    HW129543   2.271   0.744   7.925  0.3065  2.1702  0.5518
 6028SOL    HW229544   2.133   0.691   7.960  1.2788 -1.0419  0.0546
 6029SOL     OW29545   1.695   1.351   7.739 -0.5962  0.4964  0.0256
 6029SOL    HW129546   1.678   1.311   7.654 -0.1051  0.0279  0.1457
 6029SOL    HW229547   1.616   1.314   7.777 -0.4002  0.1488  0.1007
 6030SOL     OW29548   0.541   1.244   1.606  0.3129  0.0696 -0.4120
 6030SOL    HW129549   0.568   1.332   1.582 -0.6199  0.5397  0.3000
 6030SOL    HW229550   0.596   1.192   1.547 -0.0575 -2.0032  1.0550
 6031SOL     OW29551   1.843   2.203   6.767  0.2145 -0.3671 -0.6076
 6031SOL    HW129552   1.748   2.201   6.763  0.3274 -2.0656 -2.6964
 6031SOL    HW229553   1.871   2.230   6.680  0.7093 -0.9007 -0.6210
 6032SOL     OW29554   2.267   4.237  10.973  0.3409 -0.0707 -0.3169
 6032SOL    HW129555   2.344   4.269  11.021 -0.0039  1.2905 -0.6709
 6032SOL    HW229556   2.283   4.144  10.989 -1.4649 -0.7622 -2.6057
 6033SOL     OW29557   4.697   3.032   3.722  0.2959 -0.3131  0.3737
 6033SOL    HW129558   0.001   3.027   3.813  0.0815  0.7333  0.5040
 6033SOL    HW229559   0.052   3.050   3.675 -1.6051  1.9688 -2.0554
 6034SOL     OW29560   1.843   4.374   1.514 -0.5266 -0.6694 -0.2122
 6034SOL    HW129561   1.754   4.369   1.547 -0.2705  1.1482  0.7228
 6034SOL    HW229562   1.878   4.440   1.573  0.2808 -1.5300  0.2743
 6035SOL     OW29563   1.829   4.063   5.085 -0.5230  0.5183 -0.3651
 6035SOL    HW129564   1.911   4.092   5.046 -0.4084 -0.4784 -0.8800
 6035SOL    HW229565   1.802   3.996   5.022 -0.0903  1.0407 -1.1039
 6036SOL     OW29566   4.255   0.734  15.614  0.1518  0.1015 -0.0003
 6036SOL    HW129567   4.169   0.774  15.631 -0.5430 -1.0654 -0.7903
 6036SOL    HW229568   4.311   0.756  15.689  0.8728 -0.4804 -0.3833
 6037SOL     OW29569   2.904   1.703   8.946  0.4487  0.1214 -0.6252
 6037SOL    HW129570   2.986   1.686   8.899  1.1626 -0.6677  0.9089
 6037SOL    HW229571   2.852   1.724   8.868 -1.1301 -0.5626  0.2468
 6038SOL     OW29572   3.572   3.205   4.260  0.0087 -0.3061 -0.4376
 6038SOL    HW129573   3.620   3.138   4.212  0.2898 -0.2876 -0.1776
 6038SOL    HW229574   3.621   3.216   4.341 -0.2312  0.4992 -0.3944
 6039SOL     OW29575   2.217   3.554   3.429  0.0529  0.1977 -0.3442
 6039SOL    HW129576   2.209   3.521   3.518 -0.2351 -2.0551 -1.1911
 6039SOL    HW229577   2.125   3.562   3.403 -1.6804 -2.9053  4.8416
 6040SOL     OW29578   3.456   1.723  15.313 -0.3779  0.0165  0.3821
 6040SOL    HW129579   3.437   1.655  15.378 -0.7887 -0.2479 -0.0032
 6040SOL    HW229580   3.535   1.763  15.348 -0.2826 -0.7868  1.0848
 6041SOL     OW29581   1.152   4.196   5.268 -0.0706 -0.2064  0.3006
 6041SOL    HW129582   1.192   4.234   5.191  0.9427 -1.2488  0.3152
 6041SOL    HW229583   1.223   4.214   5.329  0.1167  0.2969 -0.0722
 6042SOL     OW29584   2.942   4.329  12.667 -0.0663 -0.2889  0.4036
 6042SOL    HW129585   2.986   4.401  12.622  0.6109 -0.2402  1.1533
 6042SOL    HW229586   2.962   4.259  12.606  1.9572 -0.3866  1.1947
 6043SOL     OW29587   1.122   0.216   1.565  0.3718  1.0957  0.0934
 6043SOL    HW129588   1.089   0.299   1.601 -0.7953  1.1525 -1.0983
 6043SOL    HW229589   1.078   0.151   1.619  0.8302  1.7718  1.2826
 6044SOL     OW29590   1.541   3.273   4.033 -0.6190 -0.6593  0.0548
 6044SOL    HW129591   1.527   3.179   4.025 -0.4190 -0.7549  0.8487
 6044SOL    HW229592   1.459   3.314   4.006  0.8088  2.4594  0.4120
 6045SOL     OW29593   2.081   1.386  17.043  0.0037  0.2761 -0.3114
 6045SOL    HW129594   2.029   1.423  17.114 -0.3283  1.0447 -0.9521
 6045SOL    HW229595   2.023   1.407  16.969  0.5641  0.6707 -0.6338
 6046SOL     OW29596   2.929   0.923   3.500 -0.0121  0.2657  0.0735
 6046SOL    HW129597   2.843   0.941   3.462  1.0625  0.5161 -2.1987
 6046SOL    HW229598   2.969   0.853   3.449  0.0074 -1.0776  1.9339
 6047SOL     OW29599   3.441   3.765   7.124  0.1013  0.0149  0.5212
 6047SOL    HW129600   3.507   3.715   7.171 -1.1593 -2.7109 -0.6115
 6047SOL    HW229601   3.412   3.837   7.181  0.3883  0.3810  0.2060
 6048SOL     OW29602   0.306   2.341   9.711 -0.3136  0.4843  0.0876
 6048SOL    HW129603   0.287   2.389   9.630  1.8764  1.0477 -0.0995
 6048SOL    HW229604   0.338   2.408   9.771 -0.5774  0.7323 -0.0424
 6049SOL     OW29605   1.266   4.302  12.042 -0.4551  0.6712 -0.1306
 6049SOL    HW129606   1.317   4.230  12.004 -2.0585 -0.4686 -0.1515
 6049SOL    HW229607   1.322   4.379  12.034 -1.6154  1.5297  0.0712
 6050SOL     OW29608   4.592   4.379  12.154  0.3523 -0.4669 -0.0464
 6050SOL    HW129609   4.649   4.409  12.225 -0.0575  1.3085 -0.4741
 6050SOL    HW229610   4.531   4.329  12.209 -1.2311  0.8539 -0.5754
 6051SOL     OW29611   3.133   1.344   7.708  0.3106  0.1570 -0.0016
 6051SOL    HW129612   3.119   1.424   7.758 -0.3517  0.5047 -0.7536
 6051SOL    HW229613   3.048   1.336   7.665  0.1054 -1.7141  0.7352
 6052SOL     OW29614   0.592   0.974   3.225 -0.5804 -0.0635  0.1456
 6052SOL    HW129615   0.561   1.060   3.253  0.7689 -0.1219  1.8760
 6052SOL    HW229616   0.531   0.959   3.153  0.2845  0.8756 -0.7892
 6053SOL     OW29617   0.589   0.855   2.295  0.4888 -0.5233  0.4345
 6053SOL    HW129618   0.637   0.928   2.255 -0.6176  0.2865  0.5908
 6053SOL    HW229619   0.523   0.842   2.227 -0.9132  0.5876  1.5816
 6054SOL     OW29620   4.282   1.482  16.718  0.0412 -0.2231  0.3191
 6054SOL    HW129621   4.334   1.445  16.648 -0.4738  0.8506 -0.6267
 6054SOL    HW229622   4.286   1.419  16.790 -0.1934  0.2707  0.7675
 6055SOL     OW29623   3.048   1.179   0.620 -0.1487 -0.3242  0.0113
 6055SOL    HW129624   3.064   1.226   0.702 -0.7599 -1.3957  0.7285
 6055SOL    HW229625   3.106   1.228   0.560 -0.4803 -1.2265 -1.0386
 6056SOL     OW29626   0.715   3.029   6.667 -0.1775  0.2724 -0.0448
 6056SOL    HW129627   0.688   3.047   6.757  0.0012  3.6843 -0.6630
 6056SOL    HW229628   0.636   3.051   6.616  0.8353 -0.2299 -1.8416
 6057SOL     OW29629   1.688   0.949  14.627 -1.1468 -0.2818 -0.4394
 6057SOL    HW129630   1.673   0.941  14.533  0.1813  1.0697 -0.7735
 6057SOL    HW229631   1.765   1.007  14.633  0.8507 -2.9331 -0.4706
 6058SOL     OW29632   0.054   3.101   2.935  0.0359 -0.2533  0.0179
 6058SOL    HW129633   0.008   3.030   2.890  0.1043 -0.9609  1.0602
 6058SOL    HW229634   4.724   3.177   2.920 -0.9411 -1.3451 -1.8291
 6059SOL     OW29635   2.480   1.778  14.490 -0.0477 -0.0025  0.0440
 6059SOL    HW129636   2.530   1.744  14.565  1.0396 -0.3410 -0.8343
 6059SOL    HW229637   2.434   1.701  14.457  1.3284 -0.7947 -0.0585
 6060SOL     OW29638   2.339   3.336   5.354 -0.3693  0.0390  0.3611
 6060SOL    HW129639   2.312   3.337   5.262  1.2161 -1.0178 -0.1327
 6060SOL    HW229640   2.432   3.359   5.347 -0.4768  0.7634  1.3487
 6061SOL     OW29641   0.052   3.447  11.797 -0.1590  0.3817  0.0571
 6061SOL    HW129642   0.124   3.485  11.848 -1.3403  0.3230  1.7758
 6061SOL    HW229643   0.057   3.506  11.722  0.6027  2.0784  1.4302
 6062SOL     OW29644   4.507   0.792   5.328 -0.1442 -0.3807 -0.3634
 6062SOL    HW129645   4.578   0.822   5.272 -1.7743  2.0608 -1.1369
 6062SOL    HW229646   4.554   0.721   5.371  0.1150 -0.7193 -1.1949
 6063SOL     OW29647   3.020   3.516   7.169 -0.2742  0.1174 -0.0808
 6063SOL    HW129648   3.029   3.589   7.229 -1.0566  0.3435 -0.2377
 6063SOL    HW229649   3.059   3.562   7.095 -1.0808  0.6582 -0.1747
 6064SOL     OW29650   2.575   2.688  15.610 -0.1304 -0.0445 -0.4917
 6064SOL    HW129651   2.540   2.777  15.620  1.0765  0.4319 -0.4311
 6064SOL    HW229652   2.663   2.698  15.648 -0.0142  0.0883 -0.7988
 6065SOL     OW29653   2.523   3.313   2.599  0.2006 -0.2708  0.4061
 6065SOL    HW129654   2.589   3.376   2.569  1.5719 -1.1935  1.4507
 6065SOL    HW229655   2.446   3.368   2.604  1.3815  1.3612  0.6424
 6066SOL     OW29656   2.287   1.940   6.635 -0.3653 -0.5883  0.0405
 6066SOL    HW129657   2.291   1.875   6.705 -1.0821 -0.6197  0.0512
 6066SOL    HW229658   2.346   2.008   6.664 -0.8409  0.0502 -0.4865
 6067SOL     OW29659   2.023   4.135   3.174  0.6316  0.4188 -0.1714
 6067SOL    HW129660   2.045   4.227   3.192 -1.4141  0.6625  1.1081
 6067SOL    HW229661   1.932   4.146   3.148  0.5217 -0.3475 -0.1001
 6068SOL     OW29662   0.469   2.012  15.742  0.4781  0.2218 -0.0037
 6068SOL    HW129663   0.486   1.982  15.653  0.6486  0.8754 -0.1915
 6068SOL    HW229664   0.558   1.999  15.775 -0.3326  1.4695  2.6449
 6069SOL     OW29665   0.553   2.233   9.395  0.3514 -0.4657  0.5887
 6069SOL    HW129666   0.622   2.260   9.455  1.0096  1.5087 -1.0653
 6069SOL    HW229667   0.533   2.324   9.372  0.8846 -0.6318 -0.5058
 6070SOL     OW29668   2.417   1.341  11.910  0.4872 -0.2849 -0.5687
 6070SOL    HW129669   2.492   1.288  11.883 -0.1323 -1.0082 -0.8702
 6070SOL    HW229670   2.461   1.425  11.904  0.3563 -0.0876  1.0585
 6071SOL     OW29671   0.504   0.467   3.133  0.5958 -0.2964 -0.1347
 6071SOL    HW129672   0.477   0.383   3.098  0.9583 -0.5627  0.2297
 6071SOL    HW229673   0.423   0.491   3.177  1.1794 -0.3247  0.9480
 6072SOL     OW29674   1.522   0.800   4.429  0.3834 -0.1583  0.4608
 6072SOL    HW129675   1.547   0.752   4.509  0.8162  0.7972  0.8947
 6072SOL    HW229676   1.570   0.758   4.358  1.3841  0.8323  0.5649
 6073SOL     OW29677   0.931   1.953   9.540  0.5488 -0.7385 -0.4560
 6073SOL    HW129678   0.980   1.897   9.479  0.1559 -0.3524 -1.1283
 6073SOL    HW229679   0.968   1.931   9.625  0.3435  1.3464  0.1639
 6074SOL     OW29680   3.242   1.106   9.039 -0.5561  0.4212  0.5159
 6074SOL    HW129681   3.283   1.181   9.083 -0.3133  0.1417  0.7735
 6074SOL    HW229682   3.236   1.045   9.113  0.6928  1.0056  1.1012
 6075SOL     OW29683   0.551   3.435  11.840  0.6597 -0.0432  0.4029
 6075SOL    HW129684   0.557   3.419  11.745 -1.4684  0.8635  0.1142
 6075SOL    HW229685   0.555   3.531  11.842 -1.4096 -0.0820  4.6368
 6076SOL     OW29686   3.510   0.726   0.635  0.5929  0.2740  0.0406
 6076SOL    HW129687   3.543   0.636   0.626  3.0763  1.1233  0.7150
 6076SOL    HW229688   3.516   0.756   0.544  1.0402  1.0103  0.3115
 6077SOL     OW29689   1.580   0.226  15.157 -0.5751  0.0670  0.2537
 6077SOL    HW129690   1.656   0.180  15.194 -2.4869 -2.2271  1.3389
 6077SOL    HW229691   1.503   0.171  15.167  0.1300 -0.8672  0.5793
 6078SOL     OW29692   2.782   1.480   3.593  0.0587 -0.4919 -0.3457
 6078SOL    HW129693   2.735   1.548   3.641 -0.7123 -0.5664 -0.9920
 6078SOL    HW229694   2.866   1.481   3.638 -0.2955  0.6304  0.2701
 6079SOL     OW29695   1.901   0.544  13.124  0.0794 -0.0657 -0.0127
 6079SOL    HW129696   1.918   0.636  13.104 -1.1215  0.4284  1.2049
 6079SOL    HW229697   1.986   0.507  13.144  0.2812 -0.0978 -0.9410
 6080SOL     OW29698   2.516   1.848   7.430 -0.0096  0.2874 -0.2211
 6080SOL    HW129699   2.433   1.805   7.406  0.0794 -1.0214  1.7761
 6080SOL    HW229700   2.482   1.927   7.472  1.0599  0.1098  0.9600
 6081SOL     OW29701   2.101   1.174   4.153  0.0467  0.2996 -0.4335
 6081SOL    HW129702   2.047   1.106   4.112  2.3137 -2.1581  0.6048
 6081SOL    HW229703   2.051   1.252   4.130  1.6359  0.6182 -2.7881
 6082SOL     OW29704   0.968   2.641   3.717 -0.1277  0.0905  0.2069
 6082SOL    HW129705   1.059   2.636   3.689 -0.1481  1.7486 -0.1752
 6082SOL    HW229706   0.942   2.561   3.671  1.8496 -0.7747  0.6037
 6083SOL     OW29707   1.769   1.659   3.252 -0.0060  0.4307 -0.0604
 6083SOL    HW129708   1.793   1.683   3.163 -3.0162 -0.3883 -1.0567
 6083SOL    HW229709   1.759   1.746   3.292  1.3978  1.5707 -2.2024
 6084SOL     OW29710   4.258   0.920   7.664 -0.4168  0.0421 -0.1278
 6084SOL    HW129711   4.203   0.844   7.647  1.1836 -1.0892 -0.2609
 6084SOL    HW229712   4.190   0.981   7.694 -0.1497 -0.2504  1.0662
 6085SOL     OW29713   2.787   4.507   7.532  0.2673 -1.2895 -0.9230
 6085SOL    HW129714   2.802   4.414   7.550 -1.4406 -0.9602  2.1086
 6085SOL    HW229715   2.722   4.531   7.598 -0.8258 -1.6357 -1.8639
 6086SOL     OW29716   0.050   2.414   0.854  0.1272 -0.1641  0.3399
 6086SOL    HW129717   0.056   2.319   0.857 -0.4374 -0.0631  5.1490
 6086SOL    HW229718   4.690   2.427   0.893  1.0582 -1.5930  2.8800
 6087SOL     OW29719   0.926   1.460   6.278 -0.3823 -0.4981  0.3254
 6087SOL    HW129720   0.974   1.445   6.197  0.5544  0.2450  0.7570
 6087SOL    HW229721   0.938   1.554   6.290 -1.5072 -0.2379 -0.5999
 6088SOL     OW29722   4.560   0.328   4.218 -0.1955  0.1342  0.0970
 6088SOL    HW129723   4.496   0.283   4.163 -1.4402  1.0241  0.8180
 6088SOL    HW229724   4.533   0.302   4.306 -1.3799 -1.1384 -0.6444
 6089SOL     OW29725   3.649   2.802  11.540 -0.1562 -0.0972  0.3065
 6089SOL    HW129726   3.554   2.807  11.550 -0.1932 -0.8104  0.3145
 6089SOL    HW229727   3.655   2.768  11.451  1.1653  1.7953 -0.3345
 6090SOL     OW29728   4.726   4.583   6.033 -0.2383  0.8747 -0.1484
 6090SOL    HW129729   0.036   4.669   6.011  0.0073  0.5969 -0.8489
 6090SOL    HW229730   0.015   4.533   5.953 -0.5905 -1.6056  1.3426
 6091SOL     OW29731   1.139   2.290   7.442  0.4358 -0.3042 -0.1030
 6091SOL    HW129732   1.189   2.260   7.518  0.0035  1.4711  0.9039
 6091SOL    HW229733   1.214   2.330   7.397 -0.4360 -0.0072 -1.3136
 6092SOL     OW29734   1.111   0.314   7.264 -0.1824  0.7719  0.1318
 6092SOL    HW129735   1.055   0.354   7.331 -0.6478  2.1153 -1.0644
 6092SOL    HW229736   1.134   0.229   7.302  0.5050  0.7803 -0.2776
 6093SOL     OW29737   1.232   4.126   2.453 -0.0867  0.7492 -0.0770
 6093SOL    HW129738   1.296   4.198   2.453  0.4610  0.2807 -2.6192
 6093SOL    HW229739   1.284   4.050   2.477  0.8233  1.0220 -1.1835
 6094SOL     OW29740   0.002   4.692   6.620  0.2591 -0.0353  0.3834
 6094SOL    HW129741   4.640   4.726   6.630  0.8043  1.4759  0.1625
 6094SOL    HW229742   4.723   4.646   6.536  0.2658 -1.5201  1.2001
 6095SOL     OW29743   0.411   1.782   9.704  0.2390 -0.0990 -0.1567
 6095SOL    HW129744   0.496   1.739   9.712  0.9332  1.2512 -0.2428
 6095SOL    HW229745   0.440   1.871   9.725  2.3037 -0.6318 -0.7063
 6096SOL     OW29746   3.829   2.587   0.783  0.0756 -0.1808  0.2558
 6096SOL    HW129747   3.808   2.573   0.691  1.0197 -0.5070  0.0860
 6096SOL    HW229748   3.893   2.657   0.775 -1.7882  1.4673 -0.2759
 6097SOL     OW29749   3.678   4.529   0.104  0.0635 -0.2760  0.0826
 6097SOL    HW129750   3.675   4.569   0.191 -3.6685  2.4357 -1.2671
 6097SOL    HW229751   3.627   4.590   0.050  0.2317  0.6956  1.0197
 6098SOL     OW29752   0.249   1.093  15.223  0.5735 -0.6931 -0.6384
 6098SOL    HW129753   0.220   1.181  15.198 -0.8285 -1.6614 -2.4884
 6098SOL    HW229754   0.340   1.109  15.249  0.1889  1.1577 -0.4122
 6099SOL     OW29755   2.034   2.630  15.138 -0.5901 -0.1230  0.3305
 6099SOL    HW129756   1.970   2.579  15.089 -1.7657 -0.4628  2.2198
 6099SOL    HW229757   2.000   2.718  15.122 -0.0033 -0.3590 -2.1778
 6100SOL     OW29758   2.777   1.528   9.215  0.1304 -0.4180  0.0996
 6100SOL    HW129759   2.747   1.515   9.305 -1.7961  0.2345 -0.4502
 6100SOL    HW229760   2.863   1.562   9.238 -0.1792 -1.0090  2.1933
 6101SOL     OW29761   2.645   1.330   7.867 -0.0226 -0.0048 -0.0629
 6101SOL    HW129762   2.636   1.256   7.927  0.7511 -0.7841 -0.9177
 6101SOL    HW229763   2.735   1.359   7.884 -0.6239  2.7790 -1.7585
 6102SOL     OW29764   4.714   3.911   7.857  0.0514  0.0763  0.2523
 6102SOL    HW129765   4.637   3.886   7.908 -1.0554 -0.8119 -1.8727
 6102SOL    HW229766   0.008   3.998   7.892  1.1975 -0.8853  1.9750
 6103SOL     OW29767   2.314   4.281   7.854 -0.1178 -0.3421  0.1784
 6103SOL    HW129768   2.248   4.284   7.924 -0.3775 -1.0307 -0.0367
 6103SOL    HW229769   2.373   4.356   7.864  0.2375 -0.7368  0.9631
 6104SOL     OW29770   2.488   3.714  10.529 -0.3212  0.3049  0.1021
 6104SOL    HW129771   2.526   3.800  10.511 -0.3301 -0.0906 -1.7701
 6104SOL    HW229772   2.400   3.734  10.562 -1.1018  0.1752 -1.8996
 6105SOL     OW29773   4.708   2.728   3.964  0.0078  0.3579  0.7911
 6105SOL    HW129774   4.708   2.697   4.055  2.4113  1.0757  1.0427
 6105SOL    HW229775   4.721   2.642   3.925  1.9131  0.7186  0.6418
 6106SOL     OW29776   3.894   3.801   1.686  0.2716  0.3507  0.1548
 6106SOL    HW129777   3.946   3.880   1.671 -0.0989  0.7096  0.7181
 6106SOL    HW229778   3.912   3.756   1.604  1.2748  0.0850  0.5280
 6107SOL     OW29779   0.581   3.630   8.954  0.1934 -0.2288 -0.0629
 6107SOL    HW129780   0.655   3.579   8.987  1.5665  2.5934  1.2084
 6107SOL    HW229781   0.510   3.613   9.016  1.0767  2.8936  1.8167
 6108SOL     OW29782   2.306   2.751  15.477  0.3742 -0.1091  0.5580
 6108SOL    HW129783   2.298   2.771  15.570 -0.3980 -0.3403  0.5465
 6108SOL    HW229784   2.371   2.818  15.455  1.6732 -0.4383  3.3628
 6109SOL     OW29785   1.975   1.715   5.760 -0.8453  0.1005 -0.1401
 6109SOL    HW129786   2.037   1.785   5.779 -2.4954  1.7723 -1.0173
 6109SOL    HW229787   1.943   1.736   5.672 -2.1268  1.3126  0.6253
 6110SOL     OW29788   2.520   2.201   3.412 -0.0324  0.2009  1.0469
 6110SOL    HW129789   2.609   2.167   3.420 -0.2172 -0.3828  0.6529
 6110SOL    HW229790   2.471   2.119   3.405  0.4277  0.1135 -1.3904
 6111SOL     OW29791   4.280   0.487   4.061 -0.0313  0.3696 -0.2598
 6111SOL    HW129792   4.352   0.453   4.008  1.4835  1.2372  1.2314
 6111SOL    HW229793   4.305   0.580   4.061  0.8032  0.1523 -1.0970
 6112SOL     OW29794   0.936   0.660   2.488  0.2334  0.3052 -0.2072
 6112SOL    HW129795   1.018   0.611   2.497 -0.6002 -1.0903 -0.2050
 6112SOL    HW229796   0.909   0.628   2.402 -0.8713 -1.5153  0.8239
 6113SOL     OW29797   0.954   2.650   0.272  0.0368  0.2105  0.3792
 6113SOL    HW129798   0.882   2.697   0.231  1.0337  0.0210 -1.6122
 6113SOL    HW229799   0.915   2.572   0.311  0.8803 -1.3371 -1.8662
 6114SOL     OW29800   0.905   0.159   5.844  0.4350  0.5624  0.2537
 6114SOL    HW129801   0.908   0.251   5.819  0.4720 -0.0229 -1.8692
 6114SOL    HW229802   0.843   0.165   5.917 -2.1856  0.2777 -1.9419
 6115SOL     OW29803   0.591   0.381   9.036 -0.5483  0.0371  0.0230
 6115SOL    HW129804   0.628   0.338   8.958 -0.0335 -1.2030  0.9676
 6115SOL    HW229805   0.674   0.408   9.075 -0.6669 -0.1397  0.3896
 6116SOL     OW29806   1.394   2.025   2.181 -0.2832 -0.3597 -0.6804
 6116SOL    HW129807   1.464   1.978   2.227  1.6746  3.0353 -0.2217
 6116SOL    HW229808   1.440   2.066   2.108  0.7466 -2.5231 -1.2599
 6117SOL     OW29809   4.537   4.058  14.774 -0.0277  0.6221  0.4260
 6117SOL    HW129810   4.559   4.101  14.856 -0.8298 -1.4003  1.7039
 6117SOL    HW229811   4.489   3.980  14.802  1.4169  1.5300  5.3085
 6118SOL     OW29812   4.235   0.896   7.260 -0.2323  0.1500 -0.4602
 6118SOL    HW129813   4.247   0.951   7.182  1.5687  0.6224  0.1296
 6118SOL    HW229814   4.180   0.952   7.314 -0.0751  1.1879 -1.3887
 6119SOL     OW29815   4.017   3.134   8.160 -0.1109 -0.5070 -0.2258
 6119SOL    HW129816   3.942   3.075   8.157  1.0037 -2.0185  1.7230
 6119SOL    HW229817   3.982   3.214   8.199 -0.8445 -0.9577  0.0438
 6120SOL     OW29818   4.439   0.266   6.416  0.1269 -0.4376  0.6225
 6120SOL    HW129819   4.374   0.319   6.463  0.8450  0.4891  0.5655
 6120SOL    HW229820   4.450   0.327   6.343 -1.5339 -1.7253 -0.7217
 6121SOL     OW29821   2.239   4.455   9.353 -0.0850  0.3988  0.2782
 6121SOL    HW129822   2.292   4.530   9.326  2.6552 -1.9431 -0.8599
 6121SOL    HW229823   2.223   4.472   9.446  1.2959  1.2993  0.3546
 6122SOL     OW29824   4.263   4.605   6.378 -0.2954 -0.3981 -0.2964
 6122SOL    HW129825   4.251   4.511   6.393 -1.3652 -0.0951  0.7712
 6122SOL    HW229826   4.206   4.641   6.446  1.9117  2.0023  0.2616
 6123SOL     OW29827   2.857   4.605   0.132  0.0847  0.8599  0.2142
 6123SOL    HW129828   2.834   4.617   0.224 -0.0384  2.7121 -0.0619
 6123SOL    HW229829   2.868   4.699   0.122  3.7332  0.7337  2.9028
 6124SOL     OW29830   4.085   4.467  10.402 -0.4013 -0.4526  0.6313
 6124SOL    HW129831   3.994   4.470  10.371 -1.2401  1.5697  3.2278
 6124SOL    HW229832   4.068   4.405  10.473  2.1197 -0.9115  0.8185
 6125SOL     OW29833   2.474   3.035   6.305 -0.2151 -0.4587  0.8586
 6125SOL    HW129834   2.468   2.959   6.246 -1.6255  0.6872 -0.4804
 6125SOL    HW229835   2.524   2.991   6.373  1.9074  2.3336  1.0879
 6126SOL     OW29836   1.327   1.743   8.987  0.1318 -0.0527 -0.2280
 6126SOL    HW129837   1.277   1.820   8.959 -0.4140 -1.0253 -1.8880
 6126SOL    HW229838   1.402   1.776   9.037  0.4498  1.0379 -1.4285
 6127SOL     OW29839   2.686   2.068  16.132 -0.2485  0.5226 -0.6452
 6127SOL    HW129840   2.664   2.040  16.043  3.5098 -0.4888 -1.2567
 6127SOL    HW229841   2.777   2.097  16.138 -0.2559 -0.5408  4.4064
 6128SOL     OW29842   3.091   0.263   4.007 -0.2723 -0.8756 -0.3958
 6128SOL    HW129843   3.098   0.168   4.017  0.2542 -0.8317 -0.3724
 6128SOL    HW229844   3.004   0.274   3.968  0.0106  1.9768 -0.2168
 6129SOL     OW29845   0.959   0.944   7.619 -0.0523  0.1507  0.3569
 6129SOL    HW129846   1.048   0.919   7.593  0.3105  0.3712  1.4076
 6129SOL    HW229847   0.978   1.020   7.673 -0.5306  0.4515  0.1084
 6130SOL     OW29848   1.189   1.790   4.376 -0.3027 -0.0114 -0.2180
 6130SOL    HW129849   1.211   1.745   4.294 -0.1236 -2.3615  1.1273
 6130SOL    HW229850   1.123   1.730   4.411 -0.2130 -0.4970 -0.8790
 6131SOL     OW29851   4.191   0.907   9.003  0.1960 -0.0019 -0.6922
 6131SOL    HW129852   4.104   0.947   9.001 -0.0292 -0.4508  0.2591
 6131SOL    HW229853   4.238   0.963   8.940 -0.8781  0.7997 -0.7721
 6132SOL     OW29854   3.205   3.965   7.757  0.4962  0.2955 -0.3489
 6132SOL    HW129855   3.243   3.916   7.830 -0.0055  1.0441  0.4203
 6132SOL    HW229856   3.122   3.921   7.737 -2.4336  4.2047  3.0829
 6133SOL     OW29857   4.546   3.883  14.555  0.1787  0.2332  0.3619
 6133SOL    HW129858   4.469   3.937  14.537  1.1851  0.9629 -1.7279
 6133SOL    HW229859   4.618   3.944  14.567  0.1507  0.7551 -2.1158
 6134SOL     OW29860   0.138   4.179  15.832 -0.3867 -0.5562 -0.4582
 6134SOL    HW129861   0.055   4.213  15.800 -0.8887 -2.7497 -1.4610
 6134SOL    HW229862   0.190   4.260  15.827 -1.0190 -0.2503 -2.0643
 6135SOL     OW29863   4.251   4.310   8.050 -0.1820 -0.1197 -0.4251
 6135SOL    HW129864   4.169   4.266   8.031  0.3952 -1.1448 -0.5224
 6135SOL    HW229865   4.231   4.353   8.133 -0.9914  1.4624 -1.4287
 6136SOL     OW29866   3.947   0.408   7.223  0.8159 -0.1833  0.0693
 6136SOL    HW129867   4.024   0.363   7.189  1.8040  0.4828  1.3994
 6136SOL    HW229868   3.986   0.489   7.257  0.0864 -0.1347  0.7936
 6137SOL     OW29869   0.794   4.704  10.470  0.4670  0.3374  0.1703
 6137SOL    HW129870   0.800   0.069  10.497  1.3597 -0.3876  2.4177
 6137SOL    HW229871   0.882   4.685  10.438  0.8376 -0.1213  1.4690
 6138SOL     OW29872   1.129   0.671   3.184  0.0475  0.0409  0.5452
 6138SOL    HW129873   1.157   0.607   3.249 -3.4771 -1.2150  0.7945
 6138SOL    HW229874   1.066   0.621   3.131 -0.7509  2.5011 -0.8446
 6139SOL     OW29875   1.435   1.970   4.100 -0.3148 -0.0394  0.4533
 6139SOL    HW129876   1.513   1.917   4.084  0.9868  0.8813  3.6726
 6139SOL    HW229877   1.446   2.018   4.018 -2.2589 -0.0144  0.2100
 6140SOL     OW29878   1.101   0.219   7.024  0.2791  0.8749 -0.2701
 6140SOL    HW129879   1.116   0.255   7.111 -2.8147  2.2654 -0.3399
 6140SOL    HW229880   1.124   0.127   7.040 -0.5262  0.5365 -1.0193
 6141SOL     OW29881   4.076   4.640   8.229  0.1147 -0.4250  0.1962
 6141SOL    HW129882   4.120   4.669   8.149 -0.4890  2.6939  1.0306
 6141SOL    HW229883   3.991   4.684   8.223 -0.7638 -2.5028 -3.1429
 6142SOL     OW29884   1.373   1.783   7.354  0.1245  0.2315  0.4614
 6142SOL    HW129885   1.282   1.755   7.359  0.8591 -1.8171  2.6380
 6142SOL    HW229886   1.392   1.818   7.441 -0.5841 -2.2341  1.6096
 6143SOL     OW29887   3.028   2.685   7.701  0.4955  0.2031 -0.3322
 6143SOL    HW129888   3.035   2.780   7.699 -0.0223  0.2974  2.1495
 6143SOL    HW229889   2.935   2.673   7.683  0.3149  0.7275  0.2765
 6144SOL     OW29890   0.092   0.839   5.538 -0.1550 -0.4459 -0.2690
 6144SOL    HW129891   0.030   0.848   5.609 -1.0261  0.2041 -1.1129
 6144SOL    HW229892   0.040   0.869   5.463 -3.0818 -1.8245  1.2282
 6145SOL     OW29893   3.046   0.854   4.628  0.2034  0.4660  0.0270
 6145SOL    HW129894   2.979   0.854   4.560  1.3001  0.7239 -1.0450
 6145SOL    HW229895   3.010   0.909   4.698 -1.2578 -0.4365 -0.0034
 6146SOL     OW29896   0.275   3.894   8.869 -0.3989 -0.1615 -0.3957
 6146SOL    HW129897   0.273   3.803   8.901 -1.8996  0.1540  0.4231
 6146SOL    HW229898   0.237   3.940   8.944 -2.6220  0.9423 -2.2133
 6147SOL     OW29899   0.872   3.198  16.430 -0.3220 -0.8005  0.1273
 6147SOL    HW129900   0.788   3.153  16.419 -3.0977  4.0100  1.4429
 6147SOL    HW229901   0.868   3.250  16.510 -0.1135 -1.6638  0.6898
 6148SOL     OW29902   4.243   2.804  13.018 -0.2213  0.0211  0.6146
 6148SOL    HW129903   4.333   2.834  13.006 -0.6894  0.5764 -1.5793
 6148SOL    HW229904   4.196   2.857  12.954  0.3924  0.1110  0.2417
 6149SOL     OW29905   1.088   0.838   7.869 -0.8086 -0.2418 -0.1811
 6149SOL    HW129906   1.125   0.767   7.921 -0.1798  0.9558  0.9975
 6149SOL    HW229907   1.153   0.848   7.799 -1.0757  3.0030  0.0341
 6150SOL     OW29908   3.147   2.678  17.668 -0.1224  0.7296  0.2883
 6150SOL    HW129909   3.207   2.661   0.033 -0.0055 -1.2049 -0.2548
 6150SOL    HW229910   3.068   2.690   0.013  1.2248 -0.1183  2.5237
 6151SOL     OW29911   3.873   1.980   8.098 -0.3784 -0.6258  0.1898
 6151SOL    HW129912   3.777   1.974   8.093 -0.4181  1.4904 -1.4448
 6151SOL    HW229913   3.902   1.944   8.015 -1.0638 -3.2977  1.0975
 6152SOL     OW29914   4.673   0.289   8.437 -0.1925  0.2800  0.2401
 6152SOL    HW129915   4.712   0.215   8.483 -1.6284 -0.7763 -0.2620
 6152SOL    HW229916   4.691   0.372   8.481  0.8416  0.1708  0.0228
 6153SOL     OW29917   4.568   3.774   2.148 -0.1461 -0.5418  0.3385
 6153SOL    HW129918   4.630   3.821   2.203 -0.0418 -0.7857  0.4313
 6153SOL    HW229919   4.565   3.838   2.077  0.6572  1.5571  2.1959
 6154SOL     OW29920   0.300   2.058   9.584  0.1198 -0.1570 -0.2049
 6154SOL    HW129921   0.352   2.126   9.626 -0.1918 -0.9498  1.4574
 6154SOL    HW229922   0.354   2.034   9.508  0.5945  0.1130  0.0519
 6155SOL     OW29923   2.510   1.964   5.735 -0.4255  0.1009  0.0204
 6155SOL    HW129924   2.527   1.874   5.710  1.3098  0.7102 -1.0088
 6155SOL    HW229925   2.434   1.954   5.792 -0.1017 -1.4054  0.1834
 6156SOL     OW29926   3.752   3.261   8.705  0.1778 -0.2585 -0.1148
 6156SOL    HW129927   3.685   3.321   8.735  1.3796  0.8216  0.4123
 6156SOL    HW229928   3.808   3.317   8.652 -0.5355 -0.1384 -0.7393
 6157SOL     OW29929   4.481   0.250   4.790  0.1803  0.1656  0.5122
 6157SOL    HW129930   4.430   0.295   4.857  0.7870 -0.0636  1.1175
 6157SOL    HW229931   4.485   0.158   4.816 -0.4448  0.2672  0.9603
 6158SOL     OW29932   2.684   1.895  14.378 -0.4981 -0.7825 -0.4249
 6158SOL    HW129933   2.616   1.829  14.395  0.5952 -1.4383  1.4562
 6158SOL    HW229934   2.708   1.908  14.470 -1.6134  3.1326 -0.6753
 6159SOL     OW29935   2.618   0.762   3.892  1.1112  0.2158 -0.5556
 6159SOL    HW129936   2.684   0.730   3.829 -1.2451 -2.9358 -1.4177
 6159SOL    HW229937   2.571   0.831   3.845  0.8686 -0.1241 -0.8107
 6160SOL     OW29938   4.358   4.257   5.035 -0.3088 -0.4088 -0.1315
 6160SOL    HW129939   4.306   4.328   4.998  1.3520  0.4576 -0.7956
 6160SOL    HW229940   4.377   4.300   5.119 -4.4718 -1.0330  1.1642
 6161SOL     OW29941   0.297   3.994   2.010  0.0420 -0.6334  0.2491
 6161SOL    HW129942   0.313   4.010   1.917  0.1714  0.1809  0.4136
 6161SOL    HW229943   0.323   4.067   2.066  0.4111 -0.4594 -0.1476
 6162SOL     OW29944   1.656   1.200   1.867 -0.4739  0.1616 -0.4130
 6162SOL    HW129945   1.576   1.238   1.832 -0.4454  0.6312  0.0296
 6162SOL    HW229946   1.713   1.214   1.791  0.8034  1.0503  0.7111
 6163SOL     OW29947   1.737   3.661  13.450  0.5458 -0.2568  0.0609
 6163SOL    HW129948   1.731   3.616  13.534 -0.6342 -0.0478  0.0964
 6163SOL    HW229949   1.752   3.753  13.474 -2.1768  0.1862  0.1285
 6164SOL     OW29950   0.965   1.114   8.473  0.0955 -0.2356  0.1931
 6164SOL    HW129951   1.010   1.057   8.410  2.4265  0.1122  1.5214
 6164SOL    HW229952   1.041   1.122   8.531  0.0784 -1.7992  0.4327
 6165SOL     OW29953   1.294   1.081   9.210 -0.1269 -0.4343  0.0417
 6165SOL    HW129954   1.299   1.155   9.271  1.1068  0.6290 -1.3469
 6165SOL    HW229955   1.364   1.027   9.247  0.8595  1.6721  1.2684
 6166SOL     OW29956   1.968   3.196   2.021 -0.1216 -1.1337  0.5096
 6166SOL    HW129957   1.886   3.227   1.982  1.7333  1.2559 -1.4477
 6166SOL    HW229958   2.032   3.260   1.992 -1.1846 -0.7231 -0.9210
 6167SOL     OW29959   2.778   3.327  13.677 -0.3504 -0.5516  0.2401
 6167SOL    HW129960   2.839   3.265  13.718  0.3787 -0.7165 -1.1125
 6167SOL    HW229961   2.786   3.303  13.585  1.1859  2.3641 -0.3820
 6168SOL     OW29962   1.732   1.204   2.125 -0.6678 -0.2936  0.3881
 6168SOL    HW129963   1.722   1.205   2.030 -1.0267  0.2302  0.4346
 6168SOL    HW229964   1.779   1.122   2.140  1.2321  0.7682  0.2391
 6169SOL     OW29965   0.997   0.283   4.916  0.5811  0.3643  0.0237
 6169SOL    HW129966   0.956   0.241   4.992  3.0044 -2.5719 -0.2875
 6169SOL    HW229967   0.967   0.223   4.848 -0.0921 -0.0464  0.6820
 6170SOL     OW29968   4.572   3.663   2.619 -0.1407  0.0533  0.7162
 6170SOL    HW129969   4.530   3.603   2.681  0.8453  0.6583  1.9486
 6170SOL    HW229970   4.553   3.620   2.535  1.3720  0.3041  0.2555
 6171SOL     OW29971   2.385   2.897   8.221  0.1756  0.2345  0.5114
 6171SOL    HW129972   2.334   2.850   8.288 -0.4909  1.3230  0.7635
 6171SOL    HW229973   2.466   2.914   8.269  0.6083 -1.2915  0.3306
 6172SOL     OW29974   3.744   3.783  10.487 -0.1729  0.0666 -0.0793
 6172SOL    HW129975   3.828   3.823  10.463 -0.0655  0.5768  1.1396
 6172SOL    HW229976   3.688   3.828  10.423 -0.4751 -0.1305  0.0457
 6173SOL     OW29977   1.523   0.736  14.035 -0.1905  0.0613 -0.2023
 6173SOL    HW129978   1.514   0.801  13.967 -3.3720  1.8930  1.9303
 6173SOL    HW229979   1.434   0.707  14.058  0.5561 -1.1504  1.1920
 6174SOL     OW29980   0.257   1.915  11.850  0.0413  0.2387  0.6577
 6174SOL    HW129981   0.293   1.927  11.938 -1.6842  1.4088  1.2088
 6174SOL    HW229982   0.190   1.847  11.856 -1.1709  1.3208 -0.5623
 6175SOL     OW29983   2.125   3.065  13.069  0.1982  0.4291 -0.0159
 6175SOL    HW129984   2.157   2.990  13.019  0.8130  0.5370  0.2128
 6175SOL    HW229985   2.209   3.109  13.081  0.5146  0.7793 -3.3707
 6176SOL     OW29986   2.793   0.418  17.082  0.4015 -0.3940  0.0757
 6176SOL    HW129987   2.701   0.443  17.089 -0.0333 -2.6878  2.4942
 6176SOL    HW229988   2.801   0.389  16.991  0.5158  1.9380 -0.6624
 6177SOL     OW29989   4.615   0.641   7.408  0.2730  0.0337  0.0070
 6177SOL    HW129990   4.532   0.684   7.427  0.1589  0.2253 -0.9066
 6177SOL    HW229991   4.595   0.599   7.324  0.8794  1.3787 -0.8062
 6178SOL     OW29992   1.896   3.510   7.726 -0.4596  0.4417 -0.4769
 6178SOL    HW129993   1.846   3.481   7.649 -1.3393 -0.6104  0.4880
 6178SOL    HW229994   1.943   3.429   7.748  0.5333  1.3552  0.7643
 6179SOL     OW29995   4.327   2.818  11.291 -0.9569  0.1613 -0.0348
 6179SOL    HW129996   4.283   2.845  11.210  1.2078  2.1936 -0.5154
 6179SOL    HW229997   4.396   2.884  11.285 -1.2470  0.7465  3.7055
 6180SOL     OW29998   0.533   1.544   8.285  0.6469 -0.2522  0.3584
 6180SOL    HW129999   0.592   1.500   8.225  0.6484 -1.7651  1.4689
 6180SOL    HW230000   0.455   1.552   8.229  0.9863 -0.6122 -0.1584
 6181SOL     OW30001   4.163   0.394  10.404  0.0448 -0.1612  0.2150
 6181SOL    HW130002   4.152   0.482  10.441 -2.3781 -0.5084  0.2900
 6181SOL    HW230003   4.159   0.340  10.483 -1.3417  0.4658  0.5675
 6182SOL     OW30004   0.921   3.623   6.408  0.3414  0.2222 -0.2973
 6182SOL    HW130005   0.939   3.706   6.363 -0.2306 -0.4799 -1.8206
 6182SOL    HW230006   0.925   3.646   6.501 -2.3368  3.2661 -0.9224
 6183SOL     OW30007   2.327   2.534  15.092 -1.1884  0.4195 -0.1141
 6183SOL    HW130008   2.355   2.530  15.183  0.3856  0.4145 -0.6034
 6183SOL    HW230009   2.247   2.583  15.111 -1.0936  0.2666  0.6976
 6184SOL     OW30010   0.624   3.551   3.857  0.0203  0.8283 -0.4934
 6184SOL    HW130011   0.610   3.619   3.791 -0.4507 -0.3619 -1.6180
 6184SOL    HW230012   0.622   3.473   3.802  0.6704 -0.7424  1.7180
 6185SOL     OW30013   2.642   1.584  10.052  0.0157  0.1771  0.5607
 6185SOL    HW130014   2.669   1.622  10.136  0.6103 -1.1155  0.9537
 6185SOL    HW230015   2.569   1.644  10.037 -0.1371 -0.3126 -0.6701
 6186SOL     OW30016   3.507   3.575   1.150 -0.1860  0.4108  0.4793
 6186SOL    HW130017   3.473   3.599   1.237  0.6655  0.0425  0.9147
 6186SOL    HW230018   3.434   3.605   1.097  0.0870 -1.7034 -1.0909
 6187SOL     OW30019   1.617   1.884   7.673  0.2570  0.4378 -0.3779
 6187SOL    HW130020   1.528   1.869   7.643  0.3759  2.2866 -1.6843
 6187SOL    HW230021   1.624   1.806   7.728  0.6401  1.1883  0.6421
 6188SOL     OW30022   2.416   0.019  15.589  0.8515  0.3144 -0.0160
 6188SOL    HW130023   2.505   0.029  15.557  0.8455 -0.9683 -0.4184
 6188SOL    HW230024   2.378   4.675  15.537  0.8588  1.1863 -1.1872
 6189SOL     OW30025   1.598   4.134   6.241  0.3167 -0.3085 -0.5673
 6189SOL    HW130026   1.601   4.039   6.252  2.3051  0.0614  2.0772
 6189SOL    HW230027   1.504   4.149   6.230  0.6119  0.3542 -2.2289
 6190SOL     OW30028   3.248   2.631   7.829 -0.5797  0.1665  0.3098
 6190SOL    HW130029   3.281   2.714   7.797 -3.0705  0.4295 -1.5808
 6190SOL    HW230030   3.169   2.636   7.775 -0.1616  0.3603 -0.2845
 6191SOL     OW30031   0.815   2.192  14.545  0.6602 -0.1960 -0.3382
 6191SOL    HW130032   0.732   2.210  14.502  1.4343 -0.7064 -2.0479
 6191SOL    HW230033   0.822   2.097  14.535 -0.5610 -0.1672 -1.4409
 6192SOL     OW30034   1.173   0.778   6.735 -0.2191 -0.1457 -0.2414
 6192SOL    HW130035   1.123   0.710   6.689  0.4354 -1.1930  0.5961
 6192SOL    HW230036   1.228   0.719   6.787  0.7451 -0.4363 -1.5722
 6193SOL     OW30037   3.124   1.723   6.344  0.0744  0.7280  0.4128
 6193SOL    HW130038   3.142   1.777   6.267  1.5837  1.8779  1.5690
 6193SOL    HW230039   3.180   1.767   6.408  0.4761 -1.5138  1.6157
 6194SOL     OW30040   1.401   3.024   1.653  0.1568 -0.0600 -0.3034
 6194SOL    HW130041   1.492   3.051   1.641  0.7667 -3.0778 -2.3494
 6194SOL    HW230042   1.355   3.063   1.579  0.5891 -1.7351 -1.4644
 6195SOL     OW30043   2.938   1.665   0.987  0.2909  0.3659 -0.5842
 6195SOL    HW130044   2.904   1.577   0.970  1.1354  0.3647 -2.1652
 6195SOL    HW230045   2.860   1.712   1.017  0.8294  1.1905 -0.4835
 6196SOL     OW30046   1.475   3.911  14.059 -0.8440 -0.4676 -0.3785
 6196SOL    HW130047   1.465   4.000  14.093  3.6961 -0.3964  0.8237
 6196SOL    HW230048   1.570   3.906  14.049 -0.5651  0.6377  1.5921
 6197SOL     OW30049   1.249   0.300   8.966 -0.3912 -0.8796 -0.0372
 6197SOL    HW130050   1.329   0.247   8.966  0.1002 -0.1369 -1.5288
 6197SOL    HW230051   1.263   0.360   9.039  1.8083  0.9710 -1.9789
 6198SOL     OW30052   2.284   2.367  12.063 -0.0387 -0.2972  0.7519
 6198SOL    HW130053   2.358   2.418  12.097 -1.3164  1.2985  1.1373
 6198SOL    HW230054   2.238   2.435  12.013 -2.0120 -1.8750  0.4150
 6199SOL     OW30055   2.303   4.611   1.759 -0.1182 -0.4318  0.4860
 6199SOL    HW130056   2.283   4.631   1.667 -1.4152 -0.4451  0.7769
 6199SOL    HW230057   2.301   4.693   1.807  0.7658  0.1500 -0.4642
 6200SOL     OW30058   2.492   0.203   4.175  0.2813  0.5025 -0.1386
 6200SOL    HW130059   2.485   0.298   4.191 -0.5443 -0.0085  2.5097
 6200SOL    HW230060   2.543   0.182   4.253  1.6139 -1.3198 -1.5180
 6201SOL     OW30061   3.143   3.398   4.388 -0.1453  0.0828  0.0844
 6201SOL    HW130062   3.146   3.418   4.295 -0.0116  0.1928  0.1113
 6201SOL    HW230063   3.138   3.486   4.427  0.0533  0.3302 -0.4521
 6202SOL     OW30064   4.498   2.145   9.006 -0.1753 -0.0258  0.0957
 6202SOL    HW130065   4.511   2.213   8.940 -1.8617 -1.9057 -2.2170
 6202SOL    HW230066   4.567   2.167   9.068  1.2105 -2.3398 -0.5872
 6203SOL     OW30067   0.037   1.601  17.148  0.4452 -0.2577 -0.6885
 6203SOL    HW130068   0.093   1.536  17.191  0.1233 -0.6593 -0.8850
 6203SOL    HW230069   0.067   1.680  17.194 -1.0393  0.9533 -1.8259
 6204SOL     OW30070   1.898   1.338   7.927 -0.0351  0.5057 -0.6826
 6204SOL    HW130071   1.870   1.260   7.975  1.0247  0.2268 -0.5275
 6204SOL    HW230072   1.820   1.363   7.878  0.7259  2.5224 -0.8892
 6205SOL     OW30073   4.567   1.978   5.922  0.4277 -0.1163  0.3649
 6205SOL    HW130074   4.659   1.955   5.903  0.4795  0.9254 -0.6158
 6205SOL    HW230075   4.518   1.913   5.871 -0.0626 -0.0507  0.7626
 6206SOL     OW30076   2.136   1.665  13.090  0.0805  0.5108 -0.1125
 6206SOL    HW130077   2.083   1.741  13.066  2.9319  2.5200 -0.0774
 6206SOL    HW230078   2.206   1.701  13.145 -1.0131  0.7062  1.1762
 6207SOL     OW30079   1.264   0.562  10.257  0.0081  0.7280  0.1713
 6207SOL    HW130080   1.281   0.495  10.323 -0.5731 -0.0830 -0.5118
 6207SOL    HW230081   1.349   0.564  10.212 -0.8016  0.6456 -1.3964
 6208SOL     OW30082   3.527   1.430  15.957 -0.1611 -0.4437  0.0193
 6208SOL    HW130083   3.553   1.385  16.038  0.2380 -0.5511 -0.1663
 6208SOL    HW230084   3.451   1.481  15.986  1.6907  1.1061  2.1395
 6209SOL     OW30085   2.719   2.214   5.687 -0.5118  0.0535 -0.4003
 6209SOL    HW130086   2.630   2.247   5.671  0.1215  2.0777  0.3461
 6209SOL    HW230087   2.698   2.186   5.777  3.3163 -0.6450  0.2447
 6210SOL     OW30088   3.915   3.076   9.223 -0.5720  0.3145 -0.0481
 6210SOL    HW130089   3.926   3.149   9.162 -1.1130  0.6248  0.2290
 6210SOL    HW230090   3.821   3.059   9.221 -0.3907 -0.5992 -1.3182
 6211SOL     OW30091   2.418   3.700   3.312  0.0966 -0.1020  0.1346
 6211SOL    HW130092   2.337   3.655   3.293  0.5535 -0.4902 -0.8846
 6211SOL    HW230093   2.432   3.685   3.405 -2.3545  1.8640  0.8208
 6212SOL     OW30094   2.753   1.587  16.488 -0.3075  0.6109  0.2889
 6212SOL    HW130095   2.670   1.625  16.514  0.1131 -0.2533  3.0143
 6212SOL    HW230096   2.723   1.496  16.487  0.9646  0.1605  2.0863
 6213SOL     OW30097   2.678   0.848   2.137 -0.0445 -0.0426  0.4225
 6213SOL    HW130098   2.645   0.924   2.184  0.7187  0.2318  0.5178
 6213SOL    HW230099   2.610   0.822   2.075  0.7921  0.2512 -0.6061
 6214SOL     OW30100   4.386   2.842   4.708 -0.1022  0.0610 -0.2073
 6214SOL    HW130101   4.471   2.842   4.753 -0.3906  1.6759  0.3420
 6214SOL    HW230102   4.354   2.931   4.724  2.7686  1.1917 -0.6969
 6215SOL     OW30103   2.003   1.159   3.134  0.2228  0.1845 -0.6300
 6215SOL    HW130104   2.075   1.211   3.096  1.1301 -1.4535 -1.1774
 6215SOL    HW230105   1.962   1.235   3.175  1.6502 -0.8298  2.6400
 6216SOL     OW30106   4.401   3.053   5.016 -0.1864 -0.1106  0.4203
 6216SOL    HW130107   4.419   3.103   5.096  1.5070  1.2376 -0.8032
 6216SOL    HW230108   4.421   2.961   5.033  0.3263 -0.5658 -2.7268
 6217SOL     OW30109   3.770   2.711   7.731  0.0886  0.7153  0.5072
 6217SOL    HW130110   3.735   2.714   7.642 -0.7040 -0.5503  0.7741
 6217SOL    HW230111   3.765   2.805   7.746 -0.5458  0.5575  1.3069
 6218SOL     OW30112   0.990   1.568   3.155  0.3686 -0.0138 -0.1509
 6218SOL    HW130113   0.977   1.488   3.205  0.4755 -0.3999 -0.7326
 6218SOL    HW230114   1.044   1.616   3.218  0.0019  0.8230 -0.4696
 6219SOL     OW30115   1.611   2.365   2.233  0.2428 -0.3816  0.0884
 6219SOL    HW130116   1.561   2.430   2.184 -2.7776  0.4819  4.2636
 6219SOL    HW230117   1.672   2.339   2.164 -0.2777 -2.0306  0.2459
 6220SOL     OW30118   4.276   4.227   5.465 -0.4198 -0.1195  0.2458
 6220SOL    HW130119   4.286   4.292   5.534  1.5522 -1.4904  1.2555
 6220SOL    HW230120   4.190   4.252   5.432 -0.1892  0.8094  0.3236
 6221SOL     OW30121   0.341   1.454   9.619 -0.2228  0.1406 -0.8301
 6221SOL    HW130122   0.360   1.390   9.687 -1.6592  1.6611  0.9845
 6221SOL    HW230123   0.328   1.406   9.537  0.3052 -2.9113  0.8714
 6222SOL     OW30124   3.526   3.888   5.982 -0.0731  0.3763 -0.0762
 6222SOL    HW130125   3.457   3.872   5.918 -0.5883 -1.1988  0.8689
 6222SOL    HW230126   3.518   3.983   5.992  0.2643  0.5663 -1.6512
 6223SOL     OW30127   3.732   0.061   0.323 -0.1069 -0.1160  0.1296
 6223SOL    HW130128   3.697   0.067   0.234 -2.5184  1.2298  1.1719
 6223SOL    HW230129   3.799   0.129   0.310  0.6351 -1.5853 -3.5929
 6224SOL     OW30130   3.428   3.248   2.279 -0.1956  0.0711 -0.1769
 6224SOL    HW130131   3.368   3.320   2.296 -1.7295 -1.7468  2.1348
 6224SOL    HW230132   3.509   3.283   2.244  0.2690  0.3236  1.1700
 6225SOL     OW30133   0.051   4.707  15.782 -0.7665 -0.4819 -0.2860
 6225SOL    HW130134   0.118   0.038  15.819  0.4866 -2.0302 -0.1648
 6225SOL    HW230135   0.103   4.665  15.714 -0.5318 -0.7568  0.0687
 6226SOL     OW30136   0.470   4.322   0.787 -0.5145 -0.5100 -0.1960
 6226SOL    HW130137   0.508   4.235   0.776 -0.5826 -0.8491  2.2817
 6226SOL    HW230138   0.545   4.381   0.775 -0.7402 -0.1349  0.2483
 6227SOL     OW30139   2.301   3.956  11.127 -0.6506  0.1025 -0.1652
 6227SOL    HW130140   2.330   3.943  11.217  0.6924 -2.4522 -0.9791
 6227SOL    HW230141   2.297   3.867  11.091 -0.5996  0.0621 -0.0686
 6228SOL     OW30142   3.542   1.931   1.301 -0.4537  0.0617  0.0190
 6228SOL    HW130143   3.454   1.968   1.300 -0.5196 -0.0899  0.1351
 6228SOL    HW230144   3.579   1.977   1.225 -0.7978  0.7025  0.2456
 6229SOL     OW30145   0.168   3.426   4.750  0.2239  0.0893 -0.2211
 6229SOL    HW130146   0.166   3.392   4.840 -1.5607 -1.0653 -0.6997
 6229SOL    HW230147   0.258   3.399   4.728  0.1854 -2.8867  3.2593
 6230SOL     OW30148   2.751   3.380   5.656 -0.9892  0.0186 -0.3590
 6230SOL    HW130149   2.709   3.353   5.737 -0.3564  1.6491  0.5261
 6230SOL    HW230150   2.782   3.464   5.690 -3.3734  0.6998  0.1143
 6231SOL     OW30151   1.513   3.069  11.817 -0.0394  0.4458 -0.2227
 6231SOL    HW130152   1.479   3.002  11.877  0.2742  0.6509  0.1913
 6231SOL    HW230153   1.603   3.062  11.849 -1.3061  0.6646  3.4778
 6232SOL     OW30154   4.032   1.925  11.359  0.7486 -0.2861 -1.0623
 6232SOL    HW130155   4.009   1.950  11.270 -1.0456  0.1350 -0.4762
 6232SOL    HW230156   3.971   1.853  11.369  1.1857 -0.0572  3.3416
 6233SOL     OW30157   4.130   0.846   5.159  0.5261  0.1085  0.4311
 6233SOL    HW130158   4.083   0.798   5.091  1.0218  1.5233 -0.9176
 6233SOL    HW230159   4.081   0.927   5.172 -0.4868 -0.5663  0.7565
 6234SOL     OW30160   4.140   1.338  13.636  0.2744  0.2363 -0.2597
 6234SOL    HW130161   4.144   1.432  13.652 -0.9990  0.5890 -2.0061
 6234SOL    HW230162   4.064   1.334  13.578  0.3971 -0.1179 -0.3961
 6235SOL     OW30163   4.316   3.111  17.420 -0.4435  0.3762 -0.2556
 6235SOL    HW130164   4.327   3.185  17.479  0.4444  1.2896 -1.5834
 6235SOL    HW230165   4.365   3.148  17.347 -0.9887 -0.6209 -1.1209
 6236SOL     OW30166   2.361   2.328   3.192 -0.5154 -0.1318  0.5618
 6236SOL    HW130167   2.442   2.350   3.146 -0.4520  2.1729  1.7746
 6236SOL    HW230168   2.399   2.278   3.264 -0.2984 -1.6344 -0.5858
 6237SOL     OW30169   2.102   2.592   1.522  0.4231 -0.3304 -0.1643
 6237SOL    HW130170   2.142   2.676   1.543 -0.6049  0.3034 -0.7203
 6237SOL    HW230171   2.176   2.555   1.475  0.5695  0.0432 -0.2277
 6238SOL     OW30172   2.784   1.401   1.030  0.1226  0.4769 -0.4570
 6238SOL    HW130173   2.739   1.461   1.088  0.3060  0.5137 -0.3527
 6238SOL    HW230174   2.721   1.387   0.959 -1.0227  0.2187  0.6256
 6239SOL     OW30175   3.037   3.297   9.383 -0.1062  0.4497 -1.1843
 6239SOL    HW130176   3.127   3.265   9.387 -1.0055 -2.3602 -3.5176
 6239SOL    HW230177   3.020   3.263   9.295  0.0158  0.2978 -1.1488
 6240SOL     OW30178   4.586   1.403   8.064  0.0429  0.3225  0.1385
 6240SOL    HW130179   4.608   1.419   7.972 -0.3827 -3.9465 -0.7102
 6240SOL    HW230180   4.676   1.385   8.093 -0.9146 -2.9576  0.9886
 6241SOL     OW30181   1.077   0.445   8.040  0.4269 -0.0893  0.3229
 6241SOL    HW130182   1.139   0.511   8.010 -1.1015  1.5635  0.7703
 6241SOL    HW230183   1.080   0.470   8.132 -2.4650  1.3836  0.0250
 6242SOL     OW30184   1.604   0.200  15.873  0.0656  0.1983  0.2690
 6242SOL    HW130185   1.549   0.215  15.796  0.0843 -0.1690  0.1844
 6242SOL    HW230186   1.545   0.173  15.943 -0.6287  1.5946  0.2242
 6243SOL     OW30187   4.305   1.964  12.351  0.0588  0.0121 -0.6062
 6243SOL    HW130188   4.320   2.045  12.302 -0.2641 -1.0377 -2.4397
 6243SOL    HW230189   4.373   1.907  12.315 -0.6301 -0.7408 -0.7104
 6244SOL     OW30190   0.893   1.427  16.778  0.4781  0.1323 -0.3802
 6244SOL    HW130191   0.818   1.377  16.747 -0.1178  0.4084  0.6036
 6244SOL    HW230192   0.950   1.359  16.815  0.0964  1.0146  1.8157
 6245SOL     OW30193   3.839   1.683   6.866 -0.7949  0.3577  0.0592
 6245SOL    HW130194   3.805   1.698   6.778  1.7653 -0.1821 -1.0271
 6245SOL    HW230195   3.834   1.770   6.905  0.3969  0.8830 -0.9592
 6246SOL     OW30196   2.467   1.991   1.447 -0.2467 -0.5744 -0.1456
 6246SOL    HW130197   2.455   2.059   1.514 -0.1882 -1.0023  0.2982
 6246SOL    HW230198   2.442   1.912   1.494 -0.1193  0.4023  1.5772
 6247SOL     OW30199   2.734   0.629  10.432  0.2077  0.4355 -0.4047
 6247SOL    HW130200   2.740   0.696  10.500  3.4337  0.0024 -0.2644
 6247SOL    HW230201   2.739   0.676  10.349  2.9093 -0.9791 -1.0759
 6248SOL     OW30202   1.881   0.040   9.571  0.2354 -0.4608 -0.0023
 6248SOL    HW130203   1.794   0.072   9.595 -0.0231  0.5714 -2.2524
 6248SOL    HW230204   1.915   0.015   9.657 -0.5815  1.0505  0.7651
 6249SOL     OW30205   3.164   0.379   6.783 -0.5659 -0.3088  0.3678
 6249SOL    HW130206   3.146   0.424   6.865  4.6726  1.9831  0.2633
 6249SOL    HW230207   3.224   0.308   6.803 -0.4966 -0.6934 -1.1539
 6250SOL     OW30208   3.806   3.330  11.405  0.3397  0.0421 -0.2925
 6250SOL    HW130209   3.895   3.316  11.436 -0.3311 -1.1080  1.1076
 6250SOL    HW230210   3.764   3.247  11.428  1.0990  0.2717  1.9041
 6251SOL     OW30211   0.165   1.720  13.022  0.1676 -0.0484  0.3236
 6251SOL    HW130212   0.186   1.671  12.942 -1.7043  0.0231 -0.2180
 6251SOL    HW230213   0.083   1.759  12.990 -0.9013 -1.2368  1.6131
 6252SOL     OW30214   3.984   2.504   4.280 -0.4769 -0.3900 -0.2072
 6252SOL    HW130215   4.060   2.467   4.234 -0.1863 -0.2450  0.1597
 6252SOL    HW230216   3.989   2.597   4.260 -1.2643 -0.2470  0.2725
 6253SOL     OW30217   0.114   1.603   9.796  0.4599 -0.4996  0.0644
 6253SOL    HW130218   0.145   1.522   9.837 -2.0910 -1.0436  0.9462
 6253SOL    HW230219   0.091   1.657   9.872  0.7948  0.8813 -0.8204
 6254SOL     OW30220   3.120   3.194   1.907 -0.1775 -0.6637 -0.3060
 6254SOL    HW130221   3.056   3.265   1.908  0.3947 -0.1616  0.9156
 6254SOL    HW230222   3.199   3.243   1.881 -0.4952  0.4822  0.8943
 6255SOL     OW30223   4.507   3.834  13.867 -0.2151  0.2869  0.3006
 6255SOL    HW130224   4.501   3.879  13.783  1.9840 -0.7050 -0.3952
 6255SOL    HW230225   4.533   3.749  13.832  1.8862 -0.1990  3.0622
 6256SOL     OW30226   1.388   1.589   2.262  0.2569  0.4573  0.1316
 6256SOL    HW130227   1.412   1.497   2.257  0.5546  0.5267  0.3184
 6256SOL    HW230228   1.451   1.627   2.201  0.2681 -0.1360 -0.2283
 6257SOL     OW30229   1.044   2.395  10.670 -0.1806  0.3423 -0.2230
 6257SOL    HW130230   1.118   2.336  10.681 -1.0470 -0.8606 -0.7758
 6257SOL    HW230231   0.982   2.366  10.738 -1.2978 -0.2922 -1.5063
 6258SOL     OW30232   3.514   2.932  11.142  0.1730  0.0952  0.2947
 6258SOL    HW130233   3.583   2.955  11.080  0.9725 -0.0927  1.1214
 6258SOL    HW230234   3.551   2.862  11.197 -1.2675 -1.8414 -1.1729
 6259SOL     OW30235   2.512   0.098  16.395 -0.5377 -0.5724 -0.3094
 6259SOL    HW130236   2.498   0.181  16.440 -1.8904 -0.8592 -0.1953
 6259SOL    HW230237   2.507   0.135  16.307  0.2540 -0.2123 -0.2050
 6260SOL     OW30238   2.154   1.667   5.272 -0.1746 -0.0248  0.3377
 6260SOL    HW130239   2.086   1.624   5.325  0.0720  0.4203  1.0264
 6260SOL    HW230240   2.155   1.755   5.310 -2.7166  0.8491 -1.6493
 6261SOL     OW30241   3.638   2.510  17.289  0.2073  0.0905  0.7187
 6261SOL    HW130242   3.673   2.425  17.315 -0.8864 -0.2109  1.2061
 6261SOL    HW230243   3.638   2.562  17.370 -0.2864 -0.8974  1.3506
 6262SOL     OW30244   0.663   2.151   2.922 -0.7920  0.2505 -0.5883
 6262SOL    HW130245   0.655   2.063   2.961  2.4821  0.6899  1.0335
 6262SOL    HW230246   0.653   2.131   2.829  0.8455  0.2504 -0.7705
 6263SOL     OW30247   2.447   4.619   3.330 -0.2635 -0.2038  0.0616
 6263SOL    HW130248   2.390   4.545   3.309  1.4280 -1.3659 -0.3388
 6263SOL    HW230249   2.513   4.580   3.387  0.0707  0.2034 -0.0445
 6264SOL     OW30250   4.138   1.782   0.876 -0.0659  0.0844  0.4368
 6264SOL    HW130251   4.128   1.789   0.971 -0.2886 -0.4934  0.4577
 6264SOL    HW230252   4.233   1.771   0.874  0.0231  0.5420  2.4576
 6265SOL     OW30253   0.118   2.796   6.151  0.2603 -0.0685 -0.1919
 6265SOL    HW130254   0.084   2.761   6.233 -0.7207  1.1093 -0.0899
 6265SOL    HW230255   0.076   2.735   6.090  0.7486 -0.0801 -0.5207
 6266SOL     OW30256   2.478   0.802   7.884 -0.0555 -0.1235 -0.0740
 6266SOL    HW130257   2.532   0.814   7.806 -0.9811 -0.7206 -0.7992
 6266SOL    HW230258   2.453   0.711   7.872 -4.3404  1.1515 -0.9932
 6267SOL     OW30259   0.862   1.873  15.113 -0.0903  0.7210 -0.4161
 6267SOL    HW130260   0.876   1.808  15.182 -1.1480 -0.0200 -0.8969
 6267SOL    HW230261   0.846   1.945  15.173  0.8522  0.4901  0.0997
 6268SOL     OW30262   0.377   3.732   7.139 -0.5725 -0.6427 -0.3849
 6268SOL    HW130263   0.373   3.825   7.116  1.7174  0.0745  2.0071
 6268SOL    HW230264   0.326   3.734   7.219 -0.7413 -1.0464 -0.4857
 6269SOL     OW30265   3.425   0.019   5.856 -0.0557 -0.0325  0.0385
 6269SOL    HW130266   3.520   0.019   5.845 -0.3216 -0.1744 -2.1436
 6269SOL    HW230267   3.422   4.715   5.947  0.9068  0.1547  0.1304
 6270SOL     OW30268   1.150   2.657   6.318  0.1924 -0.0038  0.1056
 6270SOL    HW130269   1.206   2.719   6.366  0.6738 -1.4413  1.3972
 6270SOL    HW230270   1.097   2.628   6.393  2.4882 -1.7665  1.0381
 6271SOL     OW30271   4.009   2.443   6.600 -0.0289 -0.4404 -0.5332
 6271SOL    HW130272   3.939   2.414   6.541 -1.2947  1.5688 -0.0356
 6271SOL    HW230273   3.994   2.380   6.671 -1.2986  0.5734  0.1021
 6272SOL     OW30274   0.042   4.694  12.031  0.3692 -0.7834 -0.2717
 6272SOL    HW130275   4.703   4.714  12.098  2.1899  1.9345  0.7248
 6272SOL    HW230276   0.068   0.056  12.006 -0.2743 -0.3502  0.5629
 6273SOL     OW30277   0.094   0.193  12.238  0.2023 -0.3825 -0.2077
 6273SOL    HW130278   0.118   0.187  12.145  1.3172  3.5748 -0.1700
 6273SOL    HW230279   4.725   0.192  12.237  0.1881 -0.2856  1.6562
 6274SOL     OW30280   0.745   3.064   7.844 -0.1123 -0.8278 -0.1076
 6274SOL    HW130281   0.761   2.977   7.880  0.8257 -0.1438  1.1080
 6274SOL    HW230282   0.830   3.106   7.856 -0.8190  0.4376  0.4985
 6275SOL     OW30283   3.367   3.079  12.051  0.0067 -0.5873  0.3567
 6275SOL    HW130284   3.273   3.065  12.058 -0.4313  2.1327 -0.3807
 6275SOL    HW230285   3.392   3.049  12.138  3.1106 -1.2094 -0.7404
 6276SOL     OW30286   2.204   1.513   4.681 -0.3349  0.0728 -0.5174
 6276SOL    HW130287   2.164   1.557   4.605  0.3643 -0.2653 -1.0854
 6276SOL    HW230288   2.292   1.494   4.648 -0.9305 -2.3835 -0.6650
 6277SOL     OW30289   1.873   2.184  12.879  0.0352  0.2966 -0.5985
 6277SOL    HW130290   1.935   2.254  12.897  2.0015 -1.5733 -0.0837
 6277SOL    HW230291   1.798   2.236  12.910  0.8767  0.8545  0.5032
 6278SOL     OW30292   1.740   1.112   9.266  0.2976  0.2961  0.2237
 6278SOL    HW130293   1.770   1.114   9.175 -3.5663 -0.0800 -1.0703
 6278SOL    HW230294   1.786   1.040   9.307 -0.3114  0.2690  0.8667
 6279SOL     OW30295   4.231   3.102   0.236  0.1751 -0.8207  0.5133
 6279SOL    HW130296   4.274   3.170   0.288  1.6318 -0.5114 -1.1026
 6279SOL    HW230297   4.257   3.129   0.148  0.4065 -4.0795 -0.4260
 6280SOL     OW30298   1.865   1.342  13.657 -0.2122 -0.4688  0.1111
 6280SOL    HW130299   1.887   1.355  13.749 -0.9875  1.7934 -0.0112
 6280SOL    HW230300   1.770   1.336  13.661 -0.2414 -0.4738 -0.6408
 6281SOL     OW30301   4.285   2.684  13.548  0.0166  0.2322 -0.1042
 6281SOL    HW130302   4.330   2.682  13.464  1.2113  3.0065  0.4730
 6281SOL    HW230303   4.193   2.691  13.523 -0.3958  0.3105  1.4114
 6282SOL     OW30304   3.071   2.392  12.070  0.0340  0.0592  0.1391
 6282SOL    HW130305   3.080   2.389  12.165  0.7606  2.1965  0.1440
 6282SOL    HW230306   3.156   2.351  12.052 -1.0284 -0.9439 -2.6785
 6283SOL     OW30307   1.415   1.570  14.091 -0.1028  0.6762 -0.2736
 6283SOL    HW130308   1.366   1.651  14.100 -0.1777  0.6793 -0.6834
 6283SOL    HW230309   1.409   1.571  13.995 -1.3905  1.5264 -0.1880
 6284SOL     OW30310   2.370   3.117   9.003  0.1007  0.0640 -0.0717
 6284SOL    HW130311   2.350   3.209   9.020 -1.0084 -0.1882 -0.0093
 6284SOL    HW230312   2.465   3.111   8.991 -0.3051 -2.2406 -2.1020
 6285SOL     OW30313   1.855   2.598   7.747  0.0129  0.4380 -0.3838
 6285SOL    HW130314   1.888   2.535   7.811 -0.6819  0.3237 -0.1381
 6285SOL    HW230315   1.906   2.676   7.767 -1.8275  1.4792  0.1481
 6286SOL     OW30316   4.360   2.478  14.011  0.0167 -0.8766  0.2195
 6286SOL    HW130317   4.289   2.419  14.036  0.2144 -0.9799  0.5579
 6286SOL    HW230318   4.423   2.457  14.080 -0.1121 -0.8812  0.3361
 6287SOL     OW30319   1.994   0.538   3.208  0.5821 -0.2121 -0.4277
 6287SOL    HW130320   2.000   0.467   3.145  0.8847 -0.2355 -0.3725
 6287SOL    HW230321   2.088   0.538   3.229  0.5203 -2.9835 -0.1084
 6288SOL     OW30322   1.665   2.352   8.564 -0.1127 -0.8084  0.7286
 6288SOL    HW130323   1.645   2.394   8.481  0.2907  0.0282  1.0583
 6288SOL    HW230324   1.724   2.416   8.603 -0.1340 -1.8864  2.5592
 6289SOL     OW30325   3.863   3.561   1.966  0.3223 -0.5448  0.6559
 6289SOL    HW130326   3.940   3.581   2.018  0.4950  1.0086 -0.2125
 6289SOL    HW230327   3.795   3.588   2.027 -0.0383  1.3664 -0.5921
 6290SOL     OW30328   3.297   1.919   3.495 -0.1811 -0.3841  0.1974
 6290SOL    HW130329   3.254   1.962   3.569 -2.3756 -0.7288 -0.8456
 6290SOL    HW230330   3.352   1.992   3.467 -1.5731  0.3064 -0.7379
 6291SOL     OW30331   2.889   3.938   3.433  0.3791 -0.2548  0.3383
 6291SOL    HW130332   2.966   3.940   3.376  0.5586 -0.8262  0.5627
 6291SOL    HW230333   2.836   4.008   3.394 -1.8283 -0.7317  2.4955
 6292SOL     OW30334   0.895   1.726   2.950 -0.3160 -0.0704  0.0336
 6292SOL    HW130335   0.945   1.707   2.871 -1.0692 -0.8575 -0.2471
 6292SOL    HW230336   0.930   1.680   3.026 -1.3906 -1.0348 -0.0643
 6293SOL     OW30337   3.049   0.234  16.911 -0.0382  0.8827  0.5559
 6293SOL    HW130338   3.082   0.225  17.000 -1.4148 -1.7621  0.8057
 6293SOL    HW230339   3.028   0.143  16.888 -0.9442  1.1461  0.3018
 6294SOL     OW30340   1.711   2.180   6.036 -0.2981  0.0645 -0.0671
 6294SOL    HW130341   1.660   2.166   6.115  0.9235 -1.6891  0.4233
 6294SOL    HW230342   1.714   2.088   6.010  0.2233 -0.2627  1.1599
 6295SOL     OW30343   1.697   2.109   5.004 -0.2434 -0.1159 -0.1296
 6295SOL    HW130344   1.637   2.038   4.983 -0.0946  0.0140 -0.9948
 6295SOL    HW230345   1.635   2.179   4.981 -2.3256 -1.9284 -0.0099
 6296SOL     OW30346   0.827   2.870   8.457  0.4622  0.2151 -0.1452
 6296SOL    HW130347   0.785   2.823   8.385 -0.6022  1.2612 -0.2032
 6296SOL    HW230348   0.891   2.806   8.490  0.1570  0.3352  0.6909
 6297SOL     OW30349   0.792   0.161   0.108 -0.5296  0.0484  0.3920
 6297SOL    HW130350   0.760   0.249   0.088  1.2238  0.6882  0.3964
 6297SOL    HW230351   0.780   0.113   0.026 -1.2053 -0.1723  0.6197
 6298SOL     OW30352   4.014   1.246   9.039  0.2815 -0.0392 -0.6052
 6298SOL    HW130353   4.030   1.340   9.028  2.2373 -0.2913  0.0463
 6298SOL    HW230354   4.071   1.229   9.114  0.6089  1.4828 -0.4994
 6299SOL     OW30355   3.395   0.560   4.804  0.2535  0.5399  0.2101
 6299SOL    HW130356   3.311   0.602   4.820  0.3936  1.9015 -2.6436
 6299SOL    HW230357   3.446   0.641   4.798 -1.1639  1.4543  0.7006
 6300SOL     OW30358   2.778   2.663   5.559  0.1157  0.0690  0.1554
 6300SOL    HW130359   2.790   2.585   5.504  0.9354 -0.6866  1.3896
 6300SOL    HW230360   2.779   2.739   5.501  0.5894 -0.2524 -0.2643
 6301SOL     OW30361   3.060   2.444   3.600 -0.2349  0.2716  0.5119
 6301SOL    HW130362   2.978   2.395   3.612  0.2394 -0.1948  1.7709
 6301SOL    HW230363   3.110   2.395   3.534 -0.7870  0.5283 -0.0952
 6302SOL     OW30364   0.532   4.380   5.535  0.2131  0.2786  0.0616
 6302SOL    HW130365   0.538   4.404   5.443  2.6391 -2.4126 -0.4970
 6302SOL    HW230366   0.619   4.385   5.575  0.1733  0.9998  0.0608
 6303SOL     OW30367   3.754   2.306   2.760  0.5991 -0.7456 -0.4119
 6303SOL    HW130368   3.750   2.240   2.691 -0.0210 -1.8901  0.7051
 6303SOL    HW230369   3.751   2.386   2.708 -1.2691 -0.7690 -0.3317
 6304SOL     OW30370   2.473   1.657  12.768  0.2342 -0.2569 -0.2089
 6304SOL    HW130371   2.527   1.702  12.703  0.3808  0.9313  0.7172
 6304SOL    HW230372   2.498   1.569  12.743  1.9533  0.2083 -0.1114
 6305SOL     OW30373   3.679   2.373   2.264  0.1975  0.5196 -0.5266
 6305SOL    HW130374   3.594   2.389   2.305  0.5629  0.4441  0.2482
 6305SOL    HW230375   3.673   2.436   2.192  0.8435 -0.7723 -1.7063
 6306SOL     OW30376   0.046   3.078   9.734 -0.3152 -0.4730 -0.3206
 6306SOL    HW130377   0.042   3.121   9.819 -1.3172 -2.1974  0.5091
 6306SOL    HW230378   4.681   3.065   9.708 -1.0457  2.0024  0.9434
 6307SOL     OW30379   2.936   0.347  10.637  0.0853  0.0547  0.1821
 6307SOL    HW130380   2.878   0.374  10.707 -0.7732  1.0894 -0.9196
 6307SOL    HW230381   2.995   0.422  10.644 -2.3397  2.0515 -0.7864
 6308SOL     OW30382   4.248   1.372   2.391  0.6236  0.4409  0.4705
 6308SOL    HW130383   4.179   1.311   2.419  0.6154  0.4923  0.5625
 6308SOL    HW230384   4.205   1.400   2.310  0.6611 -1.4222 -0.2108
 6309SOL     OW30385   1.686   0.471   9.526 -0.7417 -0.5820 -0.4729
 6309SOL    HW130386   1.681   0.493   9.619  1.3698 -2.4232  0.0776
 6309SOL    HW230387   1.716   0.550   9.482 -0.0175  0.2651  1.5106
 6310SOL     OW30388   3.455   0.556   4.315 -0.9491  0.0247 -0.0447
 6310SOL    HW130389   3.456   0.510   4.398  1.9718 -0.2645 -0.2339
 6310SOL    HW230390   3.382   0.514   4.269 -0.0301 -0.5632 -0.9652
 6311SOL     OW30391   1.365   3.146   6.215 -0.1833  0.0901 -0.1301
 6311SOL    HW130392   1.346   3.184   6.130 -0.6353 -0.0186 -0.0758
 6311SOL    HW230393   1.461   3.152   6.215 -0.0205 -2.7443 -2.1226
 6312SOL     OW30394   4.268   3.826   4.739 -0.3553 -0.5525  0.0711
 6312SOL    HW130395   4.272   3.730   4.729  2.2349 -0.4210 -0.1356
 6312SOL    HW230396   4.177   3.842   4.715 -0.4582 -0.5671  0.4498
 6313SOL     OW30397   3.549   4.083   3.961 -0.4321  0.1444 -0.4469
 6313SOL    HW130398   3.510   4.169   3.947  1.6540  1.0597 -0.5377
 6313SOL    HW230399   3.610   4.072   3.888 -0.5200 -0.4991 -0.4251
 6314SOL     OW30400   2.065   3.904   2.259  1.1521  0.0691 -0.0926
 6314SOL    HW130401   1.971   3.915   2.273  1.1210 -1.5077  0.8986
 6314SOL    HW230402   2.081   3.818   2.219 -1.1959 -0.7723  0.7588
 6315SOL     OW30403   2.789   2.249  10.815 -0.1306 -0.0594  0.8025
 6315SOL    HW130404   2.733   2.173  10.802 -1.1435  0.6201  1.2581
 6315SOL    HW230405   2.780   2.303  10.736 -0.8605  0.5411  1.2998
 6316SOL     OW30406   2.700   4.701  11.881  0.4397 -0.1620 -0.3529
 6316SOL    HW130407   2.666   4.650  11.955 -1.1622 -1.0177 -1.6862
 6316SOL    HW230408   2.764   4.640  11.844  0.4177 -0.8055  0.6639
 6317SOL     OW30409   0.604   4.716   5.153  0.3930 -0.0084 -0.3824
 6317SOL    HW130410   0.656   0.013   5.230  0.8887  0.7194 -0.9406
 6317SOL    HW230411   0.525   0.036   5.181  0.2545 -0.7105  0.3900
 6318SOL     OW30412   4.004   1.194   2.715  0.4435 -0.1741 -0.1153
 6318SOL    HW130413   3.987   1.262   2.650  0.9363  0.9945  0.9803
 6318SOL    HW230414   3.920   1.164   2.749 -0.0677  0.4328 -0.8465
 6319SOL     OW30415   4.695   4.030   4.478  0.1913 -0.2430 -0.4252
 6319SOL    HW130416   4.633   3.959   4.463  0.8204 -0.1147 -3.6306
 6319SOL    HW230417   4.670   4.105   4.424 -2.0236  0.0052  0.9488
 6320SOL     OW30418   2.864   1.628   2.324 -0.1384  0.5717 -0.3068
 6320SOL    HW130419   2.798   1.694   2.302 -2.3457 -1.5907 -0.2235
 6320SOL    HW230420   2.942   1.683   2.315  0.7178 -0.7454 -0.8363
 6321SOL     OW30421   3.440   3.259  17.049 -1.0547  0.4534 -0.1035
 6321SOL    HW130422   3.511   3.293  16.994 -2.3816  0.8909 -1.5607
 6321SOL    HW230423   3.430   3.172  17.011  0.4649  0.6327 -0.9026
 6322SOL     OW30424   2.658   2.215   9.892  0.2706  0.1333  0.1106
 6322SOL    HW130425   2.751   2.194   9.901 -0.5182 -3.6895 -0.7574
 6322SOL    HW230426   2.658   2.299   9.845 -0.0534  0.7353  1.1984
 6323SOL     OW30427   1.410   0.950   8.538  0.2424 -0.4126  0.2404
 6323SOL    HW130428   1.399   0.885   8.607 -0.3795  0.7550  1.2276
 6323SOL    HW230429   1.358   1.022   8.572  1.3403  1.3923 -1.8625
 6324SOL     OW30430   4.353   0.315  16.496  0.3737  0.3937  0.2609
 6324SOL    HW130431   4.278   0.325  16.437  0.8200 -0.8945 -0.5193
 6324SOL    HW230432   4.329   0.224  16.513  3.0220 -0.2201  0.7442
 6325SOL     OW30433   3.345   0.961   6.147  0.3044  0.6870 -0.4322
 6325SOL    HW130434   3.366   1.009   6.227 -0.4867  0.6474 -0.2012
 6325SOL    HW230435   3.267   0.913   6.174 -0.4041  1.0009 -1.9255
 6326SOL     OW30436   2.537   4.041   7.645  0.7481  0.3089 -0.2519
 6326SOL    HW130437   2.606   4.064   7.707  0.4789  2.6220 -0.8301
 6326SOL    HW230438   2.486   3.981   7.700  2.4542 -0.5602  0.3772
 6327SOL     OW30439   0.485   3.253  16.551 -0.6033 -0.5702  0.0979
 6327SOL    HW130440   0.580   3.265  16.554 -0.8722  1.8004 -1.0244
 6327SOL    HW230441   0.477   3.179  16.611  1.4827  0.3266  1.4528
 6328SOL     OW30442   3.787   4.343   2.179 -0.4901  0.0153  0.9779
 6328SOL    HW130443   3.859   4.316   2.123  0.3438 -0.9703  2.5285
 6328SOL    HW230444   3.786   4.276   2.248  0.0814 -1.2972 -0.3051
 6329SOL     OW30445   2.400   3.678   3.797 -0.0481 -0.6250 -0.5200
 6329SOL    HW130446   2.447   3.661   3.879  0.3776  1.2369 -0.3916
 6329SOL    HW230447   2.344   3.748   3.831 -1.4505 -2.2352  0.5271
 6330SOL     OW30448   3.825   2.558   0.148  0.2228  0.4477 -0.1790
 6330SOL    HW130449   3.866   2.618   0.085  2.0942  0.0185  0.6111
 6330SOL    HW230450   3.852   2.474   0.110  0.0225  0.7614 -1.0157
 6331SOL     OW30451   3.839   4.553   4.310  0.2187 -0.4770 -0.0399
 6331SOL    HW130452   3.895   4.543   4.233 -0.6221 -0.0281 -0.7091
 6331SOL    HW230453   3.872   4.634   4.349  0.4181 -1.3621  1.6397
 6332SOL     OW30454   1.441   3.714   0.842  0.2219 -0.2434  0.0290
 6332SOL    HW130455   1.383   3.704   0.767 -0.8457  0.6189  0.7346
 6332SOL    HW230456   1.510   3.653   0.817  0.7819 -0.0649  1.1337
 6333SOL     OW30457   4.227   3.086   8.805  0.5466 -0.2322  0.0413
 6333SOL    HW130458   4.160   3.033   8.847 -0.0553  0.4241 -0.0813
 6333SOL    HW230459   4.236   3.049   8.717  0.1225  0.0089 -0.1046
 6334SOL     OW30460   3.863   4.669   2.992 -0.1363  0.1425  0.2343
 6334SOL    HW130461   3.941   4.691   3.042 -0.8871  0.9726  1.0191
 6334SOL    HW230462   3.893   4.710   2.911 -0.3978 -0.7725 -0.3319
 6335SOL     OW30463   2.838   2.179   7.281 -0.8814  0.4433  0.0998
 6335SOL    HW130464   2.898   2.246   7.251  1.6391 -0.9549  1.9851
 6335SOL    HW230465   2.863   2.105   7.226  0.4885 -0.0936  1.4259
 6336SOL     OW30466   4.404   3.293   0.349 -0.0192 -0.6043  0.1805
 6336SOL    HW130467   4.490   3.280   0.307 -0.0553  0.7673 -0.3153
 6336SOL    HW230468   4.382   3.375   0.306 -0.3394 -1.9546 -2.2682
 6337SOL     OW30469   1.283   4.723   3.960 -0.8436 -0.1081 -0.4229
 6337SOL    HW130470   1.248   4.696   4.045 -2.0350  1.1450 -0.5306
 6337SOL    HW230471   1.223   4.673   3.904  1.7494 -2.2982 -1.2588
 6338SOL     OW30472   0.157   3.979   7.456  0.2097  0.2297  0.1677
 6338SOL    HW130473   0.117   3.929   7.385 -0.2527  2.4028 -1.0989
 6338SOL    HW230474   0.081   3.988   7.513  1.6783  4.4815  1.5132
 6339SOL     OW30475   2.292   3.695  11.014  0.2020 -0.4437  0.7840
 6339SOL    HW130476   2.273   3.636  10.941  0.1494 -0.6195  0.9418
 6339SOL    HW230477   2.337   3.629  11.066  0.4894  2.1042  3.7402
 6340SOL     OW30478   3.350   2.405   7.622 -0.0541  0.1162  0.3025
 6340SOL    HW130479   3.255   2.412   7.621 -0.0704 -0.3003 -0.8486
 6340SOL    HW230480   3.366   2.479   7.564  0.4206 -0.6911 -0.6007
 6341SOL     OW30481   4.669   2.263   1.609  1.0838 -0.0162 -0.3207
 6341SOL    HW130482   4.669   2.255   1.704 -0.5922  3.5290 -0.0137
 6341SOL    HW230483   4.616   2.342   1.604  1.8409  0.4917 -0.3168
 6342SOL     OW30484   1.350   2.692   9.193 -0.0043 -0.5434 -0.8510
 6342SOL    HW130485   1.377   2.609   9.231 -1.0289  0.0166  1.0938
 6342SOL    HW230486   1.256   2.696   9.211 -0.1913 -2.3770 -1.4017
 6343SOL     OW30487   2.711   3.098   2.993 -0.7798  0.2167 -0.3015
 6343SOL    HW130488   2.730   3.192   2.989 -0.8723  0.3182  1.9629
 6343SOL    HW230489   2.615   3.103   2.997 -0.7395  0.0120  0.7600
 6344SOL     OW30490   3.178   4.618  13.973 -0.8443 -0.2179  0.2284
 6344SOL    HW130491   3.234   4.548  13.938 -1.4413  0.0467 -1.2494
 6344SOL    HW230492   3.094   4.598  13.933  0.0502  2.7360 -3.0900
 6345SOL     OW30493   4.312   1.404   9.337  0.4031 -0.5238 -0.1947
 6345SOL    HW130494   4.391   1.352   9.319  0.1923 -0.1866 -2.1239
 6345SOL    HW230495   4.247   1.350   9.292  0.6401 -0.4803 -0.5899
 6346SOL     OW30496   3.536   1.628   6.684  0.2999 -0.2709  0.0138
 6346SOL    HW130497   3.623   1.667   6.670  1.1522 -1.7682  1.0997
 6346SOL    HW230498   3.479   1.704   6.690  2.2075  1.1196  0.8141
 6347SOL     OW30499   4.200   0.386  16.265  0.0270 -0.0167  0.0916
 6347SOL    HW130500   4.212   0.481  16.257  0.9584 -0.2033 -0.7517
 6347SOL    HW230501   4.252   0.367  16.187 -0.4255  1.8717 -0.6599
 6348SOL     OW30502   1.031   0.221   2.114 -0.0770  0.0711  0.2872
 6348SOL    HW130503   1.008   0.144   2.061 -0.6674  1.4448 -1.4593
 6348SOL    HW230504   1.109   0.247   2.065 -0.3591  1.7350  0.7096
 6349SOL     OW30505   1.659   3.736   9.793  0.2082  0.0151 -0.1454
 6349SOL    HW130506   1.590   3.748   9.859 -1.2530 -2.8037 -1.1726
 6349SOL    HW230507   1.720   3.679   9.840  2.4297  0.5187 -2.4170
 6350SOL     OW30508   0.631   0.066  11.920  0.1554  0.1632 -0.1782
 6350SOL    HW130509   0.685   0.139  11.890  2.3533 -0.7648  1.5056
 6350SOL    HW230510   0.546   0.093  11.886  0.9275  1.8516 -0.7336
 6351SOL     OW30511   3.781   2.983  11.040 -0.4097  0.0486  0.7227
 6351SOL    HW130512   3.862   3.025  11.070  0.1131  0.2920 -1.0539
 6351SOL    HW230513   3.801   2.895  11.073  0.2782  0.0390  0.2944
 6352SOL     OW30514   0.345   3.603  13.549  0.3474  0.1040 -0.0720
 6352SOL    HW130515   0.325   3.669  13.483  0.3278 -2.2549 -2.4320
 6352SOL    HW230516   0.333   3.517  13.507  4.1344  0.8140 -2.5501
 6353SOL     OW30517   3.539   1.252   7.394 -0.7015 -0.2967  0.0343
 6353SOL    HW130518   3.579   1.318   7.337 -5.3543  0.8936 -1.8570
 6353SOL    HW230519   3.606   1.254   7.463 -1.1911  1.4645  0.4647
 6354SOL     OW30520   0.635   0.630   5.768 -0.1018  0.1884  0.8198
 6354SOL    HW130521   0.556   0.684   5.765  0.1779  0.5447  0.0192
 6354SOL    HW230522   0.681   0.677   5.838 -1.9266  1.3985  1.1924
 6355SOL     OW30523   1.681   4.112  10.437 -0.4279  0.3367 -0.2772
 6355SOL    HW130524   1.697   4.187  10.381  1.0169  1.6584  1.8817
 6355SOL    HW230525   1.591   4.093  10.410 -1.5172  0.5818  3.0965
 6356SOL     OW30526   4.487   2.454  13.504  0.5862  0.8426  0.1063
 6356SOL    HW130527   4.536   2.475  13.583  0.1594  0.3649  0.4952
 6356SOL    HW230528   4.482   2.533  13.450 -2.6559  0.1549 -0.6198
 6357SOL     OW30529   3.010   0.577   5.066  0.5387 -0.1483  0.2328
 6357SOL    HW130530   3.096   0.598   5.103  0.0223 -0.8532  1.8199
 6357SOL    HW230531   3.035   0.591   4.975 -1.5500 -2.4021 -0.6913
 6358SOL     OW30532   4.106   2.636   1.316  0.4492 -0.0357  0.0924
 6358SOL    HW130533   4.076   2.599   1.233 -1.7444  1.5523  0.1740
 6358SOL    HW230534   4.023   2.680   1.334 -0.8084 -3.2869  2.2751
 6359SOL     OW30535   0.279   0.049   8.096  0.7302 -0.1497 -0.3881
 6359SOL    HW130536   0.203   0.025   8.044  0.3527 -0.0294  0.1086
 6359SOL    HW230537   0.271   0.144   8.105  2.9765 -0.0074  0.1721
 6360SOL     OW30538   2.399   3.362   9.155  0.0331  0.0819  0.4917
 6360SOL    HW130539   2.374   3.449   9.187 -1.5393 -0.4067  0.5852
 6360SOL    HW230540   2.468   3.341   9.218  0.7034  1.8595  0.3704
 6361SOL     OW30541   1.176   3.927   9.861  0.3527  0.1366  0.9048
 6361SOL    HW130542   1.134   3.976   9.790 -1.9155 -1.7405  0.9577
 6361SOL    HW230543   1.183   3.995   9.928  1.7384  0.8730  0.0137
 6362SOL     OW30544   1.167   4.273   2.076 -0.0124 -0.6791  0.4210
 6362SOL    HW130545   1.116   4.214   2.132 -1.6787 -0.0082 -0.3844
 6362SOL    HW230546   1.202   4.333   2.141  0.0197 -0.0590 -0.1718
 6363SOL     OW30547   1.390   2.703   4.154 -0.2418  0.1387  0.4649
 6363SOL    HW130548   1.301   2.674   4.135 -0.1707  2.0679 -2.9185
 6363SOL    HW230549   1.448   2.659   4.092 -0.0537  2.4797 -1.0234
 6364SOL     OW30550   4.585   0.679   3.928  0.1345  0.2494 -0.4985
 6364SOL    HW130551   4.538   0.691   4.011  0.8973  2.6486 -0.4165
 6364SOL    HW230552   4.649   0.612   3.950  1.6170  1.7379 -0.2534
 6365SOL     OW30553   2.320   4.500   3.687 -0.0011 -0.9558  0.1482
 6365SOL    HW130554   2.392   4.451   3.726  1.7981  1.6480  0.0831
 6365SOL    HW230555   2.355   4.589   3.685 -0.1855 -0.8721  0.6087
 6366SOL     OW30556   2.360   3.472   2.123  0.2626 -0.0762 -0.0177
 6366SOL    HW130557   2.416   3.492   2.199  0.4432  0.9093 -0.4032
 6366SOL    HW230558   2.413   3.497   2.047  0.5171  0.4362  0.3251
 6367SOL     OW30559   1.475   4.349  10.166 -0.1434  0.0635 -0.9188
 6367SOL    HW130560   1.559   4.303  10.153 -0.0872  0.0634 -0.5603
 6367SOL    HW230561   1.495   4.412  10.098  0.1960 -1.1905 -1.9869
 6368SOL     OW30562   0.950   1.324   3.415 -0.9172  0.0252  0.1776
 6368SOL    HW130563   0.973   1.285   3.331  0.0357  0.0641  0.4172
 6368SOL    HW230564   1.007   1.273   3.473 -0.8494 -0.3545 -0.2166
 6369SOL     OW30565   3.510   2.450   0.057 -0.3421  0.0674 -0.2205
 6369SOL    HW130566   3.454   2.401  17.705  0.5180 -1.4658  0.2124
 6369SOL    HW230567   3.459   2.509   0.112  0.9613  0.9652  0.0139
 6370SOL     OW30568   3.814   1.343   3.752 -0.1428 -0.0214  0.4457
 6370SOL    HW130569   3.805   1.275   3.686  0.3892 -0.5496  0.9259
 6370SOL    HW230570   3.787   1.417   3.697 -1.5954 -2.3992 -2.0397
 6371SOL     OW30571   3.658   3.361   4.977  0.6867  0.1375  0.0142
 6371SOL    HW130572   3.575   3.378   5.022  0.1614 -0.1981 -0.8323
 6371SOL    HW230573   3.710   3.320   5.046 -0.7580 -1.0653  0.3869
 6372SOL     OW30574   1.234   4.343   5.048  0.4469 -0.4909 -0.1327
 6372SOL    HW130575   1.258   4.381   4.964  0.0618  0.8828  0.3768
 6372SOL    HW230576   1.219   4.421   5.101 -0.8913 -0.5788 -0.3806
 6373SOL     OW30577   3.327   0.987   8.424  0.5319 -0.3307 -0.0833
 6373SOL    HW130578   3.295   1.041   8.497 -0.2320  1.5752 -1.8406
 6373SOL    HW230579   3.246   0.934   8.421 -0.3043  0.9826 -0.5537
 6374SOL     OW30580   2.098   4.188   5.044 -0.3066  0.0200  0.2026
 6374SOL    HW130581   2.096   4.271   5.091 -0.8869 -0.7670  1.5690
 6374SOL    HW230582   2.171   4.205   4.985 -1.7667 -1.3632 -2.0058
 6375SOL     OW30583   1.288   2.731   7.992 -0.4628 -0.4209  0.7481
 6375SOL    HW130584   1.302   2.645   8.032  0.6729 -0.5478  0.0682
 6375SOL    HW230585   1.334   2.713   7.910 -0.9231  2.0773 -0.0484
 6376SOL     OW30586   2.519   2.083  15.369  0.1749  0.1021  0.3078
 6376SOL    HW130587   2.580   2.020  15.330  0.6706 -1.2503  3.2606
 6376SOL    HW230588   2.430   2.050  15.355  0.5557 -0.6389 -0.3899
 6377SOL     OW30589   0.808   0.364   1.835  0.1983  0.6038 -0.1362
 6377SOL    HW130590   0.852   0.283   1.808  1.6296  1.0520  0.8642
 6377SOL    HW230591   0.874   0.429   1.815 -0.0611  1.1440  0.7544
 6378SOL     OW30592   3.873   3.744   8.146  0.0529  0.2008 -0.2683
 6378SOL    HW130593   3.797   3.800   8.128  0.3615  0.4654 -0.7334
 6378SOL    HW230594   3.934   3.760   8.074 -0.7023 -0.7328 -1.1084
 6379SOL     OW30595   4.590   3.557   8.048  0.4963  1.2515 -0.0395
 6379SOL    HW130596   4.543   3.638   8.031 -0.9413  0.2155 -0.9909
 6379SOL    HW230597   4.541   3.518   8.120  0.7413  0.9228 -0.0508
 6380SOL     OW30598   2.880   3.040  14.422 -0.4717 -0.0349 -0.3656
 6380SOL    HW130599   2.853   2.982  14.494  0.9037 -1.1133 -0.7133
 6380SOL    HW230600   2.975   3.024  14.422 -0.0347  2.5987 -1.5796
 6381SOL     OW30601   2.973   3.864   8.028  0.2599 -0.6350  0.4637
 6381SOL    HW130602   2.884   3.844   8.059 -0.1903  0.0582 -0.3555
 6381SOL    HW230603   2.959   3.881   7.935  0.3290  0.4733  0.6457
 6382SOL     OW30604   2.431   0.255  16.190  0.2359 -0.3921  0.5266
 6382SOL    HW130605   2.363   0.197  16.155 -0.9801  0.7217  1.0867
 6382SOL    HW230606   2.381   0.330  16.222 -1.1918  0.0141 -2.6898
 6383SOL     OW30607   2.636   4.305   3.320  0.5894  0.3216  0.5064
 6383SOL    HW130608   2.666   4.380   3.371 -0.4780  0.7536  0.4866
 6383SOL    HW230609   2.565   4.272   3.375  1.7940 -1.0854  1.2333
 6384SOL     OW30610   4.085   1.317   9.885  0.9547 -0.5090 -0.3960
 6384SOL    HW130611   4.023   1.275   9.826  0.2754  1.6301 -1.2104
 6384SOL    HW230612   4.056   1.408   9.893 -0.4970 -1.0187  0.0900
 6385SOL     OW30613   3.455   3.041   2.471 -0.3683  0.1277 -0.1389
 6385SOL    HW130614   3.435   3.105   2.402 -1.7637  1.1998  1.2410
 6385SOL    HW230615   3.459   2.957   2.427  0.8448 -0.5933  1.3542
 6386SOL     OW30616   0.348   1.606   6.145  0.0474 -0.3717 -0.2231
 6386SOL    HW130617   0.379   1.565   6.225 -0.9249  2.1857  1.4500
 6386SOL    HW230618   0.426   1.634   6.098 -0.8980 -0.4118 -1.8468
 6387SOL     OW30619   3.078   0.917  11.123  0.3844 -0.3162 -0.1085
 6387SOL    HW130620   3.061   0.825  11.101  0.3799 -0.9139  2.3925
 6387SOL    HW230621   3.006   0.934  11.183  0.2939 -2.6862  0.4638
 6388SOL     OW30622   0.255   0.773   2.229  0.5321  0.3602 -0.5289
 6388SOL    HW130623   0.323   0.812   2.174 -1.0977 -0.2392 -2.9667
 6388SOL    HW230624   0.255   0.682   2.201  0.1561 -0.3183  1.6726
 6389SOL     OW30625   1.556   3.414  10.037  0.2055  0.3079  0.0438
 6389SOL    HW130626   1.628   3.356  10.012 -0.4468 -0.3959 -0.1876
 6389SOL    HW230627   1.587   3.449  10.121  3.5262  0.6590 -1.3039
 6390SOL     OW30628   3.032   0.490  15.494  0.0903  0.5841  0.6357
 6390SOL    HW130629   2.983   0.571  15.510 -0.6843  0.2839 -0.2271
 6390SOL    HW230630   3.090   0.493  15.571  1.3261 -1.5692 -0.2379
 6391SOL     OW30631   3.045   3.067   6.261 -0.1184 -0.3444 -0.1590
 6391SOL    HW130632   3.102   3.045   6.187 -0.2818  1.1656 -0.7259
 6391SOL    HW230633   3.073   3.159   6.262 -0.6625 -0.1790 -0.8619
 6392SOL     OW30634   1.183   4.508  17.630  0.1229 -0.0287  0.2359
 6392SOL    HW130635   1.276   4.497  17.649 -0.0715 -0.7444  0.7891
 6392SOL    HW230636   1.164   4.434  17.572  0.6277  1.3322 -1.6539
 6393SOL     OW30637   0.406   1.844   5.064 -0.0265 -0.3037 -0.3442
 6393SOL    HW130638   0.391   1.934   5.035 -0.0647  0.3913  1.8299
 6393SOL    HW230639   0.479   1.825   5.004  1.5698  0.2999  1.4063
 6394SOL     OW30640   3.895   2.347  12.391 -0.2717 -0.0322 -1.3479
 6394SOL    HW130641   3.800   2.360  12.388  0.1662  3.2451 -0.1945
 6394SOL    HW230642   3.905   2.267  12.338 -0.2588 -2.1359  1.8306
 6395SOL     OW30643   2.738   0.038  16.537  0.2927 -0.2260  0.2073
 6395SOL    HW130644   2.792   0.105  16.495  1.5473 -2.2146 -1.3293
 6395SOL    HW230645   2.661   0.038  16.479 -1.3654  3.0420  2.4348
 6396SOL     OW30646   4.306   4.405   3.845  0.0217  0.0332 -0.3138
 6396SOL    HW130647   4.299   4.343   3.773  0.1356  1.0460 -1.1994
 6396SOL    HW230648   4.376   4.461   3.811 -1.8218  1.8140 -1.1578
 6397SOL     OW30649   3.005   0.173   8.112  0.3153  0.5458  0.3862
 6397SOL    HW130650   2.931   0.230   8.134  0.7894  0.8766  1.1532
 6397SOL    HW230651   2.971   0.089   8.142  0.6026  0.6194  0.9337
 6398SOL     OW30652   3.171   1.226  15.194  0.3059  0.4998  0.2834
 6398SOL    HW130653   3.260   1.255  15.173 -0.0189  2.4058  1.5865
 6398SOL    HW230654   3.174   1.135  15.164 -0.9062  0.0438  1.5311
 6399SOL     OW30655   1.209   1.825  12.708 -0.1272  0.0112 -0.7872
 6399SOL    HW130656   1.236   1.861  12.624 -1.2901  0.2458 -1.0584
 6399SOL    HW230657   1.125   1.782  12.691 -0.0079 -0.7252  0.5143
 6400SOL     OW30658   2.706   0.365   3.737  0.1601  0.2132 -0.2031
 6400SOL    HW130659   2.713   0.411   3.653 -2.1433  2.1803  0.6970
 6400SOL    HW230660   2.690   0.275   3.712 -2.0132  0.7073 -0.5972
 6401SOL     OW30661   2.474   4.540  11.435  0.4577 -0.3945 -0.2754
 6401SOL    HW130662   2.546   4.478  11.428  0.2409 -0.5309 -1.2159
 6401SOL    HW230663   2.519   4.605  11.489  1.2229  1.0285 -2.6051
 6402SOL     OW30664   4.128   1.878   6.700 -0.1458 -0.1798  0.0130
 6402SOL    HW130665   4.104   1.896   6.609 -2.2085 -0.1501  0.5630
 6402SOL    HW230666   4.056   1.915   6.751  0.7988 -0.3549  1.4792
 6403SOL     OW30667   3.091   3.818  11.253 -1.5535  0.3214  0.3354
 6403SOL    HW130668   3.117   3.731  11.223 -0.7803  0.9457 -0.8079
 6403SOL    HW230669   3.159   3.849  11.313 -0.0112 -2.0690 -0.1893
 6404SOL     OW30670   2.332   1.556  17.682  0.3612 -0.0871 -0.6291
 6404SOL    HW130671   2.360   1.631  17.628  1.0776  0.1660  0.0961
 6404SOL    HW230672   2.404   1.554   0.037  0.1145 -0.7032 -0.3640
 6405SOL     OW30673   0.708   0.078   4.521 -0.6951 -0.4350 -0.0264
 6405SOL    HW130674   0.760   0.039   4.451 -0.3655 -1.5304  0.8175
 6405SOL    HW230675   0.773   0.111   4.582 -0.7398  0.2816 -0.3772
 6406SOL     OW30676   2.530   0.846   5.948 -0.0312  0.0775 -0.5623
 6406SOL    HW130677   2.517   0.826   6.041  0.9441 -0.7800 -0.6138
 6406SOL    HW230678   2.622   0.822   5.935  0.5275  1.1862  1.3328
 6407SOL     OW30679   0.230   0.087   8.915  0.1689 -0.3099  0.3686
 6407SOL    HW130680   0.270   0.170   8.941  2.5123 -0.6556 -2.1402
 6407SOL    HW230681   0.233   0.067   8.822 -0.2074  0.9126  0.0867
 6408SOL     OW30682   3.080   1.919   2.303 -0.2020  0.2499 -0.3167
 6408SOL    HW130683   3.011   1.979   2.331  0.3695  0.0171  1.6051
 6408SOL    HW230684   3.146   1.989   2.310 -1.3380  1.4360 -1.4424
 6409SOL     OW30685   0.703   0.571   8.349  0.1376 -0.4661  0.1867
 6409SOL    HW130686   0.715   0.537   8.438  0.0108 -1.2660 -0.1024
 6409SOL    HW230687   0.732   0.499   8.292  2.3677  0.4567  0.1473
 6410SOL     OW30688   3.556   2.646   5.264  0.8138  0.2531 -0.1980
 6410SOL    HW130689   3.539   2.568   5.318  0.3219  0.5415  0.0681
 6410SOL    HW230690   3.589   2.614   5.180 -1.4449 -1.7631 -0.3234
 6411SOL     OW30691   2.756   2.980   0.095  0.4266  0.1456  0.1815
 6411SOL    HW130692   2.737   2.991   0.188  2.7175  0.2642  0.6142
 6411SOL    HW230693   2.670   2.993   0.055  1.1417 -0.6001 -1.6215
 6412SOL     OW30694   1.058   0.272  10.886  0.0815 -0.4834  0.3285
 6412SOL    HW130695   1.085   0.205  10.948 -0.9880  0.1423  1.4763
 6412SOL    HW230696   0.963   0.259  10.885 -0.2007  1.4837 -0.2729
 6413SOL     OW30697   2.729   0.220   7.063 -0.4876 -0.0078  0.7308
 6413SOL    HW130698   2.653   0.272   7.088 -0.3134  0.7630 -0.3782
 6413SOL    HW230699   2.699   0.130   7.077 -1.3992  0.1188 -0.4891
 6414SOL     OW30700   4.481   1.844   8.270  0.1891 -0.0507  0.0939
 6414SOL    HW130701   4.416   1.778   8.295 -0.3161  0.1025 -0.8153
 6414SOL    HW230702   4.489   1.832   8.176  2.9473 -0.7446  0.4331
 6415SOL     OW30703   1.707   2.976   4.587  0.5759 -0.2311  0.1786
 6415SOL    HW130704   1.679   3.047   4.530 -1.2076 -0.9313  0.1720
 6415SOL    HW230705   1.802   2.971   4.601  0.8789 -1.5569 -2.4623
 6416SOL     OW30706   1.661   0.503   8.075  0.3858 -0.1263  0.5570
 6416SOL    HW130707   1.742   0.454   8.087  0.6902  0.4139  0.7086
 6416SOL    HW230708   1.705   0.587   8.063 -0.6172  0.6180  2.1001
 6417SOL     OW30709   2.765   1.334  10.070 -0.1145 -0.0453 -0.4239
 6417SOL    HW130710   2.728   1.422  10.055  1.0417  0.6220  0.6398
 6417SOL    HW230711   2.689   1.280  10.091 -0.9372  1.1832 -0.2160
 6418SOL     OW30712   3.839   3.271   9.025  0.2231  0.2124  0.1590
 6418SOL    HW130713   3.762   3.324   9.006  1.4712  1.9554 -0.0249
 6418SOL    HW230714   3.796   3.186   9.032  1.5006 -0.4332  0.2686
 6419SOL     OW30715   0.402   1.607   4.237 -0.2019 -0.3390  0.2074
 6419SOL    HW130716   0.432   1.530   4.189 -1.1455 -1.4662  1.4040
 6419SOL    HW230717   0.417   1.677   4.173 -2.2620 -0.2124 -0.1311
 6420SOL     OW30718   0.619   3.289   6.027 -0.1042 -1.0453 -0.5947
 6420SOL    HW130719   0.646   3.211   5.978 -1.9309 -2.4585  0.6410
 6420SOL    HW230720   0.683   3.282   6.098  1.0127 -1.2507 -1.6393
 6421SOL     OW30721   3.287   3.051   3.657  0.4856 -0.1228  0.2745
 6421SOL    HW130722   3.242   3.132   3.634 -0.3433 -0.9604 -1.0821
 6421SOL    HW230723   3.352   3.058   3.587 -1.4692  3.1696 -1.1639
 6422SOL     OW30724   2.521   2.702   3.309  0.3524 -0.8976 -0.0731
 6422SOL    HW130725   2.549   2.689   3.400 -2.3516  0.7996  1.0157
 6422SOL    HW230726   2.595   2.676   3.255 -1.4716 -1.7886 -2.1292
 6423SOL     OW30727   0.032   3.753  16.037 -0.3925  0.4141 -0.2542
 6423SOL    HW130728   0.101   3.801  15.992  1.4107 -1.1739  0.8048
 6423SOL    HW230729   0.068   3.761  16.125 -0.6902 -0.2825 -0.0680
 6424SOL     OW30730   0.403   3.287   5.476  0.4659 -0.3324 -0.2671
 6424SOL    HW130731   0.451   3.361   5.440  1.2094  0.1525  1.6842
 6424SOL    HW230732   0.349   3.267   5.400 -3.2182  0.1925  2.1637
 6425SOL     OW30733   4.395   4.302   6.778 -0.5598 -0.2548 -0.4955
 6425SOL    HW130734   4.346   4.231   6.737  0.1121 -1.2707  0.4365
 6425SOL    HW230735   4.482   4.281   6.746 -0.3758  1.2274 -0.9610
 6426SOL     OW30736   3.981   2.238   6.771  0.2825  0.2613  0.6937
 6426SOL    HW130737   3.945   2.154   6.743  1.4111  0.4755 -1.4598
 6426SOL    HW230738   4.074   2.215   6.781  0.2482 -0.3102 -0.3733
 6427SOL     OW30739   0.860   4.103  11.500 -0.6258  0.1515  0.6155
 6427SOL    HW130740   0.818   4.153  11.430  2.3938  2.0589  0.1827
 6427SOL    HW230741   0.836   4.155  11.577  0.5824  1.6374 -0.0016
 6428SOL     OW30742   0.353   0.959  13.661  0.0007 -0.0991  0.1082
 6428SOL    HW130743   0.258   0.959  13.650  0.2541  1.5554 -2.1428
 6428SOL    HW230744   0.365   0.905  13.583  1.7961  0.7815 -0.2385
 6429SOL     OW30745   3.952   0.050   2.732 -0.2545  0.5687  0.6876
 6429SOL    HW130746   3.977   0.136   2.767 -0.6362  1.0432 -0.2152
 6429SOL    HW230747   3.865   0.062   2.694  0.8064 -0.3047 -1.9684
 6430SOL     OW30748   3.629   1.942  11.510  0.3495  0.9232  0.2458
 6430SOL    HW130749   3.571   2.013  11.539 -0.1746 -0.5194  2.6741
 6430SOL    HW230750   3.598   1.914  11.423  1.1576  2.0078 -0.3967
 6431SOL     OW30751   0.086   2.546  15.575  0.5448 -0.0946  0.3723
 6431SOL    HW130752   0.031   2.482  15.619 -0.3559 -0.6285 -1.5441
 6431SOL    HW230753   0.056   2.528  15.485  1.6738  2.8896 -0.5969
 6432SOL     OW30754   1.006   1.073  15.869  0.1176  0.3700 -0.1669
 6432SOL    HW130755   1.018   0.980  15.847  2.3347  0.3310  1.1127
 6432SOL    HW230756   0.955   1.069  15.950 -0.4395 -1.2442 -0.5854
 6433SOL     OW30757   4.229   2.950   8.522 -0.2318  0.0437 -0.3031
 6433SOL    HW130758   4.157   2.888   8.508 -1.3639  1.3971 -0.4589
 6433SOL    HW230759   4.292   2.899   8.471 -0.3198 -0.5307  0.1664
 6434SOL     OW30760   1.464   3.682   7.684  0.0348 -0.8606 -0.0297
 6434SOL    HW130761   1.529   3.655   7.749  0.2688 -1.2168 -0.4107
 6434SOL    HW230762   1.447   3.598   7.643 -2.7457 -0.6229  0.6575
 6435SOL     OW30763   2.428   0.375  14.563  0.2593 -0.1987 -0.3468
 6435SOL    HW130764   2.415   0.312  14.633  0.5673  1.1305  0.8970
 6435SOL    HW230765   2.339   0.384  14.528  0.1388 -1.8039 -0.4474
 6436SOL     OW30766   3.189   2.145   5.163 -0.4441  0.0724  0.4625
 6436SOL    HW130767   3.211   2.166   5.073 -0.3109 -0.1758  0.4372
 6436SOL    HW230768   3.099   2.111   5.162 -0.5561  0.3948 -0.3844
 6437SOL     OW30769   3.556   1.679   9.179 -0.1783 -0.1177  0.1647
 6437SOL    HW130770   3.620   1.651   9.245 -2.0154  0.8994  2.3957
 6437SOL    HW230771   3.617   1.680   9.106  1.5046  0.3374  1.5638
 6438SOL     OW30772   1.266   2.449   9.051 -0.4368  0.2081 -0.4023
 6438SOL    HW130773   1.335   2.436   9.117  1.7838 -0.1569 -2.7839
 6438SOL    HW230774   1.198   2.489   9.105  0.3591  0.1092  0.6870
 6439SOL     OW30775   2.827   0.036   4.825  0.6049  0.3865 -0.0144
 6439SOL    HW130776   2.843   0.095   4.899 -1.0094  1.2845 -0.3859
 6439SOL    HW230777   2.822   4.681   4.874  1.4706 -0.8214 -1.9153
 6440SOL     OW30778   3.612   0.206   8.442 -0.1735  0.4658  0.0704
 6440SOL    HW130779   3.641   0.287   8.485  0.2622 -0.0999  0.8487
 6440SOL    HW230780   3.688   0.150   8.455 -1.0661 -0.8178 -0.3560
 6441SOL     OW30781   1.207   3.689   6.445 -0.7995 -0.1484 -0.3202
 6441SOL    HW130782   1.142   3.753   6.475  0.1707  0.9922 -0.6661
 6441SOL    HW230783   1.173   3.606   6.480  0.7425 -0.3940  0.6204
 6442SOL     OW30784   4.380   2.555   7.034 -0.2269 -0.1221  0.3341
 6442SOL    HW130785   4.359   2.633   6.982  0.8070 -0.1418 -0.1078
 6442SOL    HW230786   4.297   2.531   7.076 -1.1344 -0.1939 -1.5161
 6443SOL     OW30787   3.397   4.177   2.978  0.5501  0.7380  0.4393
 6443SOL    HW130788   3.488   4.189   3.005  0.6264 -1.2418  1.0723
 6443SOL    HW230789   3.392   4.254   2.921  0.4296  0.9171  0.6895
 6444SOL     OW30790   2.301   1.405  13.532 -0.6633  0.4826 -0.5647
 6444SOL    HW130791   2.276   1.319  13.500  0.1778 -0.7087  1.9508
 6444SOL    HW230792   2.226   1.430  13.587  0.1573 -1.2900  1.3688
 6445SOL     OW30793   2.752   3.857  15.369 -0.2947  0.3520 -0.1357
 6445SOL    HW130794   2.747   3.942  15.413 -2.2348  0.4020 -0.4539
 6445SOL    HW230795   2.824   3.865  15.306  1.6242 -2.3766  1.7309
 6446SOL     OW30796   1.628   3.534   1.028  0.1800  0.1599  0.1255
 6446SOL    HW130797   1.703   3.580   1.066 -0.8009  2.2394 -0.4191
 6446SOL    HW230798   1.640   3.525   0.934 -0.6819 -0.8566  0.1113
 6447SOL     OW30799   3.838   3.014   1.957  0.2557 -0.4895 -0.1739
 6447SOL    HW130800   3.816   2.922   1.940 -1.4119 -0.4280  1.6779
 6447SOL    HW230801   3.931   3.010   1.933  0.7480 -0.4490  1.6976
 6448SOL     OW30802   0.443   2.849   2.195  0.3696  1.2518  0.1793
 6448SOL    HW130803   0.412   2.883   2.111  1.4443  1.7523 -0.0095
 6448SOL    HW230804   0.494   2.779   2.155 -1.4358  0.2774 -0.4368
 6449SOL     OW30805   1.938   1.887  17.577  0.6920  0.0145  0.2486
 6449SOL    HW130806   1.924   1.958  17.514 -0.3011  0.6528  1.1741
 6449SOL    HW230807   1.894   1.921  17.655  0.0154 -0.3116  0.0049
 6450SOL     OW30808   3.163   1.460   6.367 -0.7221  0.2807 -0.7187
 6450SOL    HW130809   3.129   1.549   6.368  2.6386  1.5560  0.1572
 6450SOL    HW230810   3.223   1.466   6.293  1.2625 -1.6147  0.7237
 6451SOL     OW30811   1.046   3.024   7.659  0.4104 -0.3942  0.2718
 6451SOL    HW130812   1.019   3.104   7.703  2.4938 -0.3491  1.4691
 6451SOL    HW230813   0.968   2.973   7.637  1.3399 -2.2951  1.3850
 6452SOL     OW30814   2.546   1.394   0.882 -0.0056 -0.4127 -0.3799
 6452SOL    HW130815   2.522   1.483   0.906  1.3344 -0.7770  2.4520
 6452SOL    HW230816   2.461   1.351   0.868 -1.1401  1.1450  1.7322
 6453SOL     OW30817   4.295   3.795   2.996  0.0515 -0.0624 -0.9381
 6453SOL    HW130818   4.306   3.862   2.929  1.5615  0.9474  0.3291
 6453SOL    HW230819   4.377   3.819   3.040 -0.3486  0.4174 -0.4652
 6454SOL     OW30820   1.859   3.757   1.442  0.7998 -0.5781  0.4734
 6454SOL    HW130821   1.837   3.747   1.534  0.7170  1.2676  0.6379
 6454SOL    HW230822   1.778   3.794   1.408  0.7863 -0.7765  0.2888
 6455SOL     OW30823   4.513   1.863   7.048  0.3134 -0.3159 -0.0102
 6455SOL    HW130824   4.591   1.834   7.001 -0.4673 -1.7457 -0.4257
 6455SOL    HW230825   4.438   1.852   6.990  0.1331  0.9903 -0.0110
 6456SOL     OW30826   3.561   3.422   2.679 -0.0705  0.0931 -0.2142
 6456SOL    HW130827   3.564   3.462   2.592 -2.8974  0.8967  0.0412
 6456SOL    HW230828   3.608   3.340   2.668  0.7964  0.5600  0.0539
 6457SOL     OW30829   1.928   2.941   7.971 -0.0163  1.1074 -0.0376
 6457SOL    HW130830   1.984   2.922   8.046  1.5486 -0.4933 -1.6249
 6457SOL    HW230831   1.847   2.895   7.992  1.2401 -1.0927 -0.0104
 6458SOL     OW30832   0.646   1.331  13.781  0.2428  0.0109 -0.3913
 6458SOL    HW130833   0.571   1.275  13.801  0.9752 -0.1466  1.9134
 6458SOL    HW230834   0.646   1.317  13.687  0.6903  0.8710 -0.5181
 6459SOL     OW30835   4.445   2.454   8.543 -0.5603  0.1183 -0.5265
 6459SOL    HW130836   4.351   2.437   8.548 -0.1808 -2.5667 -2.2717
 6459SOL    HW230837   4.455   2.457   8.447  0.2799  0.4280 -0.4281
 6460SOL     OW30838   0.912   1.585   2.524  0.4510 -0.1779  0.0573
 6460SOL    HW130839   1.002   1.613   2.507 -1.1220  2.7175 -3.5438
 6460SOL    HW230840   0.905   1.523   2.452 -2.3313  0.1436  0.0536
 6461SOL     OW30841   1.472   4.553   5.782 -0.6084  0.4330 -0.3167
 6461SOL    HW130842   1.453   4.466   5.818 -1.3363  1.9639  3.0151
 6461SOL    HW230843   1.425   4.597   5.854 -1.3884  1.9631 -1.7400
 6462SOL     OW30844   2.932   3.411   4.704 -0.4707 -0.0904  0.3882
 6462SOL    HW130845   2.880   3.414   4.624 -1.2078  0.0958  0.8751
 6462SOL    HW230846   2.864   3.433   4.768  0.1080  1.8451  0.3440
 6463SOL     OW30847   0.460   2.705   7.037  0.2098  0.2492 -1.6843
 6463SOL    HW130848   0.503   2.639   6.982  1.9614  0.1253 -0.1664
 6463SOL    HW230849   0.393   2.664   7.092  0.1435  0.1189 -1.8616
 6464SOL     OW30850   2.242   0.662   9.825  0.2728 -0.1128  0.5556
 6464SOL    HW130851   2.250   0.758   9.827 -3.2240  0.1148  2.6854
 6464SOL    HW230852   2.167   0.643   9.881 -0.1041  0.8760  0.3934
 6465SOL     OW30853   3.216   4.572  12.181 -0.9824 -0.3271  0.2588
 6465SOL    HW130854   3.143   4.608  12.230 -1.9757 -1.1499 -0.6153
 6465SOL    HW230855   3.182   4.490  12.146  0.1952  0.1008 -1.8951
 6466SOL     OW30856   0.179   2.870  15.341 -0.2354 -0.0815  0.1948
 6466SOL    HW130857   0.238   2.945  15.333 -0.0757 -0.2505 -0.2076
 6466SOL    HW230858   0.198   2.836  15.428 -2.5725 -2.2157 -0.1141
 6467SOL     OW30859   1.947   1.104   5.832 -0.1049 -0.4830  0.0428
 6467SOL    HW130860   1.876   1.061   5.880  0.7561 -0.9202  0.9191
 6467SOL    HW230861   2.004   1.142   5.899 -0.7299  1.6562 -0.6163
 6468SOL     OW30862   4.611   0.700  13.554 -0.2232  0.0937 -0.9399
 6468SOL    HW130863   4.520   0.674  13.567 -1.2080  3.6982 -0.5724
 6468SOL    HW230864   4.597   0.768  13.488 -1.8079 -0.8918 -1.6067
 6469SOL     OW30865   3.112   2.986   8.637 -0.7382 -0.0707  0.0300
 6469SOL    HW130866   3.096   3.067   8.685  0.1963 -1.2791  2.3729
 6469SOL    HW230867   3.079   2.923   8.701 -1.6459  1.1983  0.8099
 6470SOL     OW30868   1.497   2.349   3.626  0.8175  0.2100  0.2107
 6470SOL    HW130869   1.555   2.293   3.575  1.1986  1.5869 -0.8682
 6470SOL    HW230870   1.416   2.300   3.642 -0.2897  2.4809  1.5480
 6471SOL     OW30871   4.513   3.130  17.195  0.0103 -0.3113  0.1840
 6471SOL    HW130872   4.607   3.132  17.211 -0.0624 -0.2938  0.6124
 6471SOL    HW230873   4.520   3.154  17.103 -0.9044 -1.8148 -0.2785
 6472SOL     OW30874   2.167   2.851   8.635 -0.0686  0.0769 -0.0068
 6472SOL    HW130875   2.191   2.929   8.686  1.3855 -0.2726 -0.1764
 6472SOL    HW230876   2.159   2.790   8.708 -1.5413 -0.0608 -0.2916
 6473SOL     OW30877   0.639   1.428   4.496  0.1356  0.3899 -0.4945
 6473SOL    HW130878   0.580   1.404   4.568  1.2884  2.4510  1.1282
 6473SOL    HW230879   0.596   1.379   4.426  0.4708 -2.0266  0.9817
 6474SOL     OW30880   4.558   2.984   3.114 -0.1590  0.6413  0.3524
 6474SOL    HW130881   4.480   3.002   3.168 -2.4498  1.2343 -3.1674
 6474SOL    HW230882   4.544   3.020   3.027  1.1792 -0.0588 -0.1416
 6475SOL     OW30883   3.379   0.096   8.519  0.9778 -0.1160 -0.2922
 6475SOL    HW130884   3.381   0.046   8.601 -2.1974  2.0543  1.1469
 6475SOL    HW230885   3.470   0.125   8.516  1.0390 -0.2115  0.4750
 6476SOL     OW30886   4.652   3.703  10.646 -0.4937  0.5941 -0.4576
 6476SOL    HW130887   4.572   3.739  10.606  0.0569  1.1288 -1.0772
 6476SOL    HW230888   4.726   3.743  10.599  0.8672 -0.3363  0.9091
 6477SOL     OW30889   3.820   1.164   3.561 -0.3780  0.0412 -0.0125
 6477SOL    HW130890   3.821   1.151   3.466  1.1728 -0.7918  0.1074
 6477SOL    HW230891   3.769   1.087   3.585  0.7481 -0.5976  0.3619
 6478SOL     OW30892   3.450   0.489   5.936  0.3897  0.0249 -0.0232
 6478SOL    HW130893   3.402   0.540   6.001  0.3477  0.1384 -0.1438
 6478SOL    HW230894   3.388   0.422   5.907 -0.3934  0.8395 -0.2291
 6479SOL     OW30895   3.018   4.117   6.875  0.1589  0.3185  0.1155
 6479SOL    HW130896   2.977   4.199   6.848 -0.1938 -0.1390 -0.7226
 6479SOL    HW230897   3.093   4.152   6.925  0.5276  0.2938 -0.4229
 6480SOL     OW30898   0.006   3.755  16.852 -0.2364  0.2141  0.3199
 6480SOL    HW130899   0.032   3.802  16.931 -3.7796 -0.0355  1.6462
 6480SOL    HW230900   4.652   3.715  16.885  0.7073 -0.6392  1.5632
 6481SOL     OW30901   0.822   2.556   3.932 -0.5727 -0.3511  0.5755
 6481SOL    HW130902   0.879   2.575   3.858 -0.4331 -0.2009  0.7217
 6481SOL    HW230903   0.821   2.643   3.973  2.7925  0.7179 -1.5893
 6482SOL     OW30904   3.458   2.317   1.887 -0.5345 -0.2635  0.1551
 6482SOL    HW130905   3.382   2.291   1.939 -0.6165  0.2643  0.2966
 6482SOL    HW230906   3.395   2.366   1.833 -0.9230  0.0529  0.8971
 6483SOL     OW30907   4.158   0.185   4.503 -0.1851  0.6481 -0.1677
 6483SOL    HW130908   4.240   0.221   4.536 -0.1322  0.0794  0.3371
 6483SOL    HW230909   4.168   0.203   4.410  0.1410  0.6410 -0.1349
 6484SOL     OW30910   0.694   1.190  14.583  0.1595 -0.3764 -0.2452
 6484SOL    HW130911   0.607   1.203  14.546 -1.0490 -0.3100  2.6107
 6484SOL    HW230912   0.679   1.135  14.660 -0.9354 -0.9933 -0.8956
 6485SOL     OW30913   0.608   2.283   6.954 -0.2467  0.6652  0.2390
 6485SOL    HW130914   0.601   2.312   7.045 -2.5493  1.6395 -0.2313
 6485SOL    HW230915   0.530   2.317   6.909 -0.8598 -0.2080  0.6466
 6486SOL     OW30916   2.138   0.365   2.902 -0.0076 -0.9508 -0.2896
 6486SOL    HW130917   2.086   0.296   2.943  0.9694 -0.8436  1.1152
 6486SOL    HW230918   2.061   0.404   2.861 -0.1255  1.6847  2.4921
 6487SOL     OW30919   2.114   1.651   9.256  0.1669  0.5529  0.0947
 6487SOL    HW130920   2.198   1.623   9.219 -0.2900  0.6769 -1.0456
 6487SOL    HW230921   2.086   1.570   9.298  0.8675  0.0587 -0.3837
 6488SOL     OW30922   2.622   1.247   2.034  0.3590 -0.2786  0.2517
 6488SOL    HW130923   2.637   1.173   1.974  2.9957 -0.6931  1.4392
 6488SOL    HW230924   2.536   1.220   2.067  0.1799  2.1513  1.7176
 6489SOL     OW30925   1.174   0.047   2.617 -0.4061  0.4630  0.0144
 6489SOL    HW130926   1.256   0.015   2.578  0.0928  0.6160  0.9241
 6489SOL    HW230927   1.128   0.057   2.534 -0.4641  0.7979  0.0879
 6490SOL     OW30928   1.209   1.499   4.636  0.5254 -0.4139  0.2769
 6490SOL    HW130929   1.198   1.464   4.724 -1.3349 -0.9548 -0.1747
 6490SOL    HW230930   1.167   1.585   4.643 -0.2139 -0.9067  1.8758
 6491SOL     OW30931   1.735   3.267   0.845 -0.4515 -0.4101  0.4132
 6491SOL    HW130932   1.707   3.299   0.758 -1.9074  2.4992  1.9274
 6491SOL    HW230933   1.804   3.330   0.867 -0.1138  0.0211 -1.8926
 6492SOL     OW30934   0.016   2.866   9.349  0.2300 -0.2888 -0.8272
 6492SOL    HW130935   0.082   2.926   9.383 -1.5732  0.8470  0.6115
 6492SOL    HW230936   4.685   2.933   9.312  1.2336  0.5913 -0.8089
 6493SOL     OW30937   4.130   4.524   7.547  0.2097  0.6047 -0.4839
 6493SOL    HW130938   4.177   4.602   7.520  0.3966  0.2590 -1.1623
 6493SOL    HW230939   4.049   4.532   7.497 -0.6861  1.2898  1.0661
 6494SOL     OW30940   1.697   0.162   4.795 -0.4478 -0.2044 -0.0751
 6494SOL    HW130941   1.782   0.154   4.752 -0.2671 -2.2597  0.6487
 6494SOL    HW230942   1.714   0.235   4.854  0.2532  0.3723 -0.9836
 6495SOL     OW30943   4.508   1.198   5.355  0.2416  0.5316  0.3035
 6495SOL    HW130944   4.428   1.175   5.308 -0.1532  1.2866  0.6024
 6495SOL    HW230945   4.542   1.109   5.370 -0.1679  0.2700 -0.3036
 6496SOL     OW30946   0.218   2.591   0.705  0.1690  0.8431  0.0148
 6496SOL    HW130947   0.225   2.541   0.624  1.7672  0.8812  0.1360
 6496SOL    HW230948   0.200   2.526   0.773  2.0607 -0.5083 -0.7738
 6497SOL     OW30949   4.698   1.938   3.952  0.2743  0.0698  0.1543
 6497SOL    HW130950   0.008   1.942   3.864 -2.7128 -1.0231 -1.1247
 6497SOL    HW230951   0.054   1.919   3.997 -0.0455 -0.3639  0.5516
 6498SOL     OW30952   1.448   0.076   9.381 -0.0056  0.2974  0.2581
 6498SOL    HW130953   1.397   0.156   9.367 -1.1494 -0.5827 -0.5595
 6498SOL    HW230954   1.394   0.027   9.319  0.9871 -0.5602  0.0734
 6499SOL     OW30955   2.015   3.136   8.554  0.0545 -0.1142 -0.1012
 6499SOL    HW130956   2.077   3.129   8.626 -0.0693  0.8875  0.0980
 6499SOL    HW230957   2.081   3.151   8.487 -1.3542 -1.4869 -1.7939
 6500SOL     OW30958   3.624   0.101   8.043  0.7544 -0.4377 -0.1500
 6500SOL    HW130959   3.637   0.014   8.080  1.3675 -0.2324  0.1146
 6500SOL    HW230960   3.630   0.073   7.952  1.6060 -0.3421 -0.1244
 6501SOL     OW30961   1.031   1.188   7.746  0.1560 -0.1950 -0.1891
 6501SOL    HW130962   1.119   1.209   7.716 -0.4386  1.2800 -0.8535
 6501SOL    HW230963   1.047   1.148   7.832  0.5534 -1.2386 -0.7386
 6502SOL     OW30964   1.897   4.602   3.775 -0.3707  0.0291 -0.1158
 6502SOL    HW130965   1.857   4.605   3.861 -1.1098 -0.8051 -0.4236
 6502SOL    HW230966   1.937   4.688   3.771  2.7960 -1.3849  0.9024
 6503SOL     OW30967   2.503   1.042   3.071 -0.2058 -0.3378 -0.3371
 6503SOL    HW130968   2.537   1.107   3.133 -1.2656  0.2910 -0.4124
 6503SOL    HW230969   2.506   1.090   2.988 -0.2839  0.7935  0.3105
 6504SOL     OW30970   4.318   1.617  15.321 -0.0819  0.1895  0.4703
 6504SOL    HW130971   4.394   1.561  15.333 -1.1346 -1.6507 -1.3003
 6504SOL    HW230972   4.303   1.647  15.411  1.3384  0.4560  0.6092
 6505SOL     OW30973   4.697   0.596   5.417 -0.1528  0.5007 -0.1444
 6505SOL    HW130974   4.616   0.546   5.411  1.1877 -1.7705  0.8223
 6505SOL    HW230975   4.684   0.643   5.499 -1.5404 -0.8982  0.4314
 6506SOL     OW30976   0.351   3.705   0.593  0.3515 -0.4884  0.1167
 6506SOL    HW130977   0.266   3.729   0.630  0.2906 -2.6361  1.3714
 6506SOL    HW230978   0.364   3.611   0.607  1.9578 -0.3026 -0.1757
 6507SOL     OW30979   0.647   2.355  17.146 -0.3546 -0.3307 -0.0915
 6507SOL    HW130980   0.646   2.259  17.138  1.9648 -0.4953  1.4508
 6507SOL    HW230981   0.559   2.390  17.159 -1.1200 -2.6399  0.8735
 6508SOL     OW30982   1.590   2.352   5.866  0.0916  0.3616 -0.3861
 6508SOL    HW130983   1.635   2.286   5.919  3.0282  1.8980 -0.9605
 6508SOL    HW230984   1.511   2.370   5.917  0.2933  1.1740 -0.3681
 6509SOL     OW30985   3.899   1.644   7.910  0.0547  0.0433  0.6039
 6509SOL    HW130986   3.805   1.639   7.898  0.3450  1.1172 -2.2816
 6509SOL    HW230987   3.902   1.599   7.994  2.6816 -2.0921 -0.6247
 6510SOL     OW30988   0.754   0.807   6.028  0.2585 -0.0349 -0.3746
 6510SOL    HW130989   0.829   0.834   6.081 -0.1009 -0.9596  0.5855
 6510SOL    HW230990   0.679   0.852   6.066  0.0055 -0.9204  0.1779
 6511SOL     OW30991   2.686   2.743   8.302 -0.0419  0.1423  0.1821
 6511SOL    HW130992   2.684   2.649   8.319  0.7462 -0.3148 -2.2803
 6511SOL    HW230993   2.612   2.771   8.356  0.8685 -0.7315  1.9045
 6512SOL     OW30994   1.147   0.250   9.625  0.2360  0.2807 -0.4488
 6512SOL    HW130995   1.157   0.263   9.531 -0.7547  2.4840 -0.2374
 6512SOL    HW230996   1.053   0.265   9.638  0.4988 -1.1297  3.1267
 6513SOL     OW30997   4.488   0.560   7.192 -0.2878 -0.2006  0.7227
 6513SOL    HW130998   4.422   0.496   7.164 -0.9228  0.2087  1.3061
 6513SOL    HW230999   4.483   0.632   7.130  2.9044 -1.0105 -0.4615
 6514SOL     OW31000   2.378   0.766   2.694  0.0040 -0.0909  0.1981
 6514SOL    HW131001   2.283   0.754   2.693  0.1332 -1.2512  1.6187
 6514SOL    HW231002   2.400   0.777   2.601 -1.2467 -1.9854 -0.3419
 6515SOL     OW31003   1.992   2.096  15.402 -0.5578 -0.0402  0.3351
 6515SOL    HW131004   1.898   2.111  15.401 -0.5468 -0.0465 -1.4282
 6515SOL    HW231005   2.017   2.181  15.440 -1.6115  0.6457 -0.5052
 6516SOL     OW31006   3.581   0.001   5.529  0.2991  0.3632  0.3132
 6516SOL    HW131007   3.507   0.056   5.557 -1.2131 -1.4766 -0.1165
 6516SOL    HW231008   3.572   4.648   5.581 -1.4056 -0.3289 -1.0644
 6517SOL     OW31009   4.472   3.616  17.684  0.2500 -0.0490  0.2571
 6517SOL    HW131010   4.549   3.672  17.690 -0.1525  0.8613 -2.7753
 6517SOL    HW231011   4.408   3.684  17.663 -2.5077 -3.7914 -3.6698
 6518SOL     OW31012   4.676   3.128   4.443  0.5322  0.8049  0.0596
 6518SOL    HW131013   4.720   3.160   4.364 -0.1268  1.1366 -0.1694
 6518SOL    HW231014   4.586   3.148   4.420 -0.0009 -0.7035  0.8091
 6519SOL     OW31015   2.129   3.500   6.887 -0.0263  0.9097 -0.1891
 6519SOL    HW131016   2.051   3.556   6.880 -0.3915  0.1462 -2.3460
 6519SOL    HW231017   2.141   3.511   6.981  0.1704  2.4279 -0.3926
 6520SOL     OW31018   2.584   1.095   9.766  0.0941 -0.0540 -0.3985
 6520SOL    HW131019   2.579   1.000   9.761  1.7475 -0.1385 -0.2815
 6520SOL    HW231020   2.678   1.106   9.775 -0.0703  1.4299 -0.4122
 6521SOL     OW31021   3.646   0.993   0.359 -0.2303 -0.0589  0.2468
 6521SOL    HW131022   3.656   1.075   0.311  0.0388 -0.9508 -1.1994
 6521SOL    HW231023   3.737   0.968   0.377 -0.4260  0.1464  1.5661
 6522SOL     OW31024   0.826   2.230  14.901 -0.0468 -0.1647 -0.4719
 6522SOL    HW131025   0.865   2.228  14.813 -0.8753  0.4835 -0.8500
 6522SOL    HW231026   0.897   2.203  14.960 -1.4663 -1.3893  0.6642
 6523SOL     OW31027   4.149   1.721   3.951 -0.7319  0.4216  0.3102
 6523SOL    HW131028   4.075   1.745   3.895 -1.4084 -0.1430  0.9649
 6523SOL    HW231029   4.217   1.687   3.894 -0.2196 -2.5234  2.6522
 6524SOL     OW31030   3.238   3.060   4.320  0.1339 -0.1031 -0.1732
 6524SOL    HW131031   3.213   3.071   4.228  0.0119 -0.8598 -0.2350
 6524SOL    HW231032   3.297   3.133   4.339 -0.4169  0.5142 -0.8416
 6525SOL     OW31033   2.007   0.351  15.358  0.4828 -0.1169 -0.3023
 6525SOL    HW131034   1.989   0.420  15.421 -1.0058 -1.2466  0.5218
 6525SOL    HW231035   2.091   0.314  15.386 -0.0494 -0.8579  0.3089
 6526SOL     OW31036   4.548   1.237   4.589 -0.6207 -0.1096  0.3567
 6526SOL    HW131037   4.593   1.248   4.673  0.8029  0.9838 -0.5517
 6526SOL    HW231038   4.556   1.141   4.593  0.2990 -0.0549 -0.3704
 6527SOL     OW31039   2.866   3.976   4.646  0.0530  0.4202  0.0722
 6527SOL    HW131040   2.918   4.056   4.655 -1.0780  1.2806 -1.1346
 6527SOL    HW231041   2.898   3.925   4.721  0.8584  0.7239 -0.0592
 6528SOL     OW31042   0.106   4.342   2.715  0.3308  0.1851  0.0494
 6528SOL    HW131043   0.046   4.350   2.641  0.2429  0.6354  0.1701
 6528SOL    HW231044   0.191   4.362   2.675  0.7419 -2.0901 -0.1938
 6529SOL     OW31045   1.340   0.091   7.778 -0.1689 -0.3694 -0.4424
 6529SOL    HW131046   1.278   0.157   7.809  1.3459  0.8218  0.0338
 6529SOL    HW231047   1.402   0.086   7.850  1.2961  1.1760 -1.5657
 6530SOL     OW31048   1.074   0.013   1.941 -0.8765  0.3981  0.0120
 6530SOL    HW131049   1.118   4.712   1.860 -0.8746  0.6034 -0.0575
 6530SOL    HW231050   1.041   4.651   1.955  0.3649  0.0583  0.7602
 6531SOL     OW31051   0.749   2.092  11.115 -0.0236 -0.0800  0.2286
 6531SOL    HW131052   0.817   2.045  11.068  2.7380  2.3590  1.7461
 6531SOL    HW231053   0.670   2.083  11.062 -1.1816  3.7318  1.2848
 6532SOL     OW31054   3.132   3.348   6.308  0.0769 -0.6381 -0.2808
 6532SOL    HW131055   3.202   3.408   6.285 -0.9462  0.2740 -1.0257
 6532SOL    HW231056   3.056   3.405   6.322  0.1013 -0.5748 -0.4129
 6533SOL     OW31057   0.551   1.736   7.114  0.1580 -0.5109 -0.5511
 6533SOL    HW131058   0.602   1.809   7.080 -0.7562  0.3569 -0.0563
 6533SOL    HW231059   0.566   1.666   7.050 -0.2391 -1.4384  0.3726
 6534SOL     OW31060   2.276   2.332   4.404  0.3681 -0.2094  0.5501
 6534SOL    HW131061   2.232   2.324   4.489  1.8813  0.6552  1.4282
 6534SOL    HW231062   2.238   2.409   4.361 -3.3390 -0.2709  3.7087
 6535SOL     OW31063   1.133   0.773  10.080 -0.3681  0.1648 -0.0152
 6535SOL    HW131064   1.056   0.731  10.042 -0.5954 -1.8796  2.6955
 6535SOL    HW231065   1.185   0.699  10.112 -0.3018  0.7323  1.1755
 6536SOL     OW31066   2.318   4.336   1.696 -0.0201  0.7928  0.1266
 6536SOL    HW131067   2.290   4.411   1.749  1.1100 -0.5607  2.6089
 6536SOL    HW231068   2.239   4.330   1.642 -0.2355  0.8937  0.4346
 6537SOL     OW31069   2.951   4.474   6.314 -0.1677 -0.2024 -0.5057
 6537SOL    HW131070   2.928   4.535   6.245  1.9157  2.3877  1.0952
 6537SOL    HW231071   2.887   4.491   6.383  0.1875 -0.8145 -0.0179
 6538SOL     OW31072   4.488   2.548   4.366 -0.4714  0.1197  0.5416
 6538SOL    HW131073   4.456   2.531   4.277 -1.2076  2.4208  0.3590
 6538SOL    HW231074   4.421   2.607   4.401 -1.8545 -1.4809  0.5993
 6539SOL     OW31075   0.480   3.279   4.327  0.0491  0.1925  0.1892
 6539SOL    HW131076   0.510   3.188   4.338  0.5911  0.3292 -0.1377
 6539SOL    HW231077   0.480   3.323   4.412  1.0872 -0.6817  0.6564
 6540SOL     OW31078   2.494   3.415  14.215  0.5605  0.3423 -0.1440
 6540SOL    HW131079   2.466   3.364  14.291  1.5016 -1.6694 -1.1284
 6540SOL    HW231080   2.417   3.394  14.161  1.1329  0.6791 -1.0961
 6541SOL     OW31081   3.506   1.386   8.947  0.3514  0.7111  0.2611
 6541SOL    HW131082   3.534   1.307   8.903 -4.4646 -1.4301  1.0497
 6541SOL    HW231083   3.562   1.462   8.931 -0.9675  1.9173  1.3016
 6542SOL     OW31084   4.375   0.125   0.338  0.4578  0.1154 -0.1407
 6542SOL    HW131085   4.467   0.153   0.340  0.4243  0.3903 -2.0012
 6542SOL    HW231086   4.340   0.180   0.407  0.5247 -0.4216  0.3183
 6543SOL     OW31087   4.439   1.186   4.071 -0.6358 -0.1603 -0.0997
 6543SOL    HW131088   4.445   1.267   4.121 -0.8978 -0.7015  0.8206
 6543SOL    HW231089   4.378   1.213   4.002 -3.1624 -0.1892  2.1587
 6544SOL     OW31090   4.206   1.746   6.073 -0.2065 -0.1710 -0.4551
 6544SOL    HW131091   4.214   1.840   6.090  0.9365 -0.4241  0.4064
 6544SOL    HW231092   4.160   1.738   5.989 -2.8368  1.4696  0.8655
 6545SOL     OW31093   4.123   4.699   3.603  0.2540 -0.0718  0.3837
 6545SOL    HW131094   4.125   4.606   3.579 -0.6155  0.4724 -1.7504
 6545SOL    HW231095   4.140   0.022   3.524  0.6366 -0.5391  0.1687
 6546SOL     OW31096   4.093   3.543   2.154  0.2190  0.0461  0.2408
 6546SOL    HW131097   4.138   3.627   2.160 -0.5137  0.4621  0.0145
 6546SOL    HW231098   4.063   3.525   2.243  1.0641 -0.2007  0.4772
 6547SOL     OW31099   3.625   3.827  12.335  0.0394 -0.3272 -0.0713
 6547SOL    HW131100   3.615   3.922  12.325 -0.9193 -0.2055  2.2041
 6547SOL    HW231101   3.713   3.810  12.301 -0.3545  1.1769 -1.8389
 6548SOL     OW31102   2.877   2.189   6.639  0.2005  0.3286  0.4703
 6548SOL    HW131103   2.814   2.236   6.584 -1.8500 -0.6659  1.9593
 6548SOL    HW231104   2.962   2.229   6.622 -0.1461 -0.0788 -2.2255
 6549SOL     OW31105   4.288   2.394  16.242  0.4748 -0.7249 -0.0798
 6549SOL    HW131106   4.332   2.347  16.314 -0.4706 -0.2006  0.8344
 6549SOL    HW231107   4.274   2.476  16.289 -0.8940 -1.0613  0.1198
 6550SOL     OW31108   1.312   1.582  11.801 -0.1235  0.3385 -0.2898
 6550SOL    HW131109   1.377   1.533  11.750  0.9808  0.5141  0.9421
 6550SOL    HW231110   1.316   1.665  11.754 -2.0292  0.0346 -0.9635
 6551SOL     OW31111   1.853   1.607  16.487  0.4090 -0.2045  0.1083
 6551SOL    HW131112   1.933   1.568  16.520 -0.2027 -0.2578  1.5481
 6551SOL    HW231113   1.826   1.673  16.551  2.1177 -0.0171  0.6372
 6552SOL     OW31114   0.445   2.362   2.791  0.0440 -0.3703  0.3729
 6552SOL    HW131115   0.364   2.387   2.837 -0.6331 -0.4686 -0.7728
 6552SOL    HW231116   0.445   2.268   2.810  0.6967 -0.2464  0.9575
 6553SOL     OW31117   4.391   3.137   2.118 -0.2400  0.2986  0.1723
 6553SOL    HW131118   4.348   3.222   2.126 -0.6620  0.2160 -1.1214
 6553SOL    HW231119   4.434   3.133   2.203  0.5161 -0.2858 -0.2260
 6554SOL     OW31120   3.856   1.673   5.226 -0.0114 -0.3622  0.4043
 6554SOL    HW131121   3.805   1.679   5.146  0.1010  0.7670  0.4147
 6554SOL    HW231122   3.894   1.587   5.210  1.3771  0.0311  1.5794
 6555SOL     OW31123   0.630   1.159   3.786 -0.1134  0.3902  0.1783
 6555SOL    HW131124   0.714   1.119   3.763 -1.1395 -1.3180 -0.6166
 6555SOL    HW231125   0.577   1.121   3.716  0.6246 -1.8707  0.8470
 6556SOL     OW31126   2.272   2.937   7.615  0.1630 -0.2100  0.4559
 6556SOL    HW131127   2.241   2.998   7.682  0.2548  0.3664 -0.0225
 6556SOL    HW231128   2.358   2.976   7.598  0.2551 -0.0238  1.3591
 6557SOL     OW31129   0.563   3.796   5.378  0.1044  0.0014  0.4688
 6557SOL    HW131130   0.520   3.855   5.317 -1.6168 -1.8406 -0.1023
 6557SOL    HW231131   0.604   3.857   5.438 -0.6958  0.3871  0.6191
 6558SOL     OW31132   1.921   3.928   3.744  0.0843  0.0009 -0.1058
 6558SOL    HW131133   1.851   3.905   3.683  0.8246  1.1938 -1.4070
 6558SOL    HW231134   1.984   3.859   3.726 -0.0748 -0.5039  1.2781
 6559SOL     OW31135   1.999   3.801   5.645  0.0441  0.0847 -0.0827
 6559SOL    HW131136   1.931   3.865   5.660 -0.4186 -0.2846 -0.5906
 6559SOL    HW231137   2.007   3.807   5.549  1.1343 -1.5668 -0.1108
 6560SOL     OW31138   1.869   3.518  10.193 -0.6471 -0.6849  0.5915
 6560SOL    HW131139   1.894   3.561  10.275  0.3567 -1.0100  0.4566
 6560SOL    HW231140   1.779   3.492  10.213 -0.9548 -0.8875 -1.0655
 6561SOL     OW31141   4.672   0.075   4.486  0.1712  0.6191  0.3367
 6561SOL    HW131142   4.670   0.030   4.401 -2.4034  1.8245 -0.2440
 6561SOL    HW231143   4.690   0.004   4.548  1.3154 -0.8704 -1.6917
 6562SOL     OW31144   0.954   2.113   5.570  0.1572 -0.0915 -0.1133
 6562SOL    HW131145   0.978   2.142   5.482  1.9702 -0.7758  0.1471
 6562SOL    HW231146   0.979   2.020   5.565 -0.8959 -0.3501 -0.5213
 6563SOL     OW31147   0.301   0.721   3.157 -0.3382  0.5782  0.1198
 6563SOL    HW131148   0.367   0.704   3.224  0.7256 -2.8724 -1.7977
 6563SOL    HW231149   0.259   0.635   3.147  1.3422 -0.1777 -0.3836
 6564SOL     OW31150   2.356   3.437   8.032 -0.5704 -0.1015  0.4016
 6564SOL    HW131151   2.350   3.523   8.073  1.1022  0.0439  0.3526
 6564SOL    HW231152   2.355   3.386   8.113  2.4574 -0.0192  0.5008
 6565SOL     OW31153   1.937   0.044   9.226  0.0735 -0.0473 -0.5852
 6565SOL    HW131154   1.866   4.715   9.257  0.2638  0.3655  0.6016
 6565SOL    HW231155   1.986   0.069   9.305 -0.3742 -1.3450  0.1110
 6566SOL     OW31156   0.298   0.483   3.351 -0.2693  0.1825  0.7351
 6566SOL    HW131157   0.346   0.507   3.430  2.7196  0.1219 -1.0513
 6566SOL    HW231158   0.209   0.499   3.380  0.1418 -0.9610  2.5755
 6567SOL     OW31159   1.112   3.339   2.605 -0.4146  0.7999 -0.0317
 6567SOL    HW131160   1.120   3.290   2.686 -0.9378  2.0174  0.7564
 6567SOL    HW231161   1.194   3.326   2.558 -0.7927  1.4462 -0.8704
 6568SOL     OW31162   1.292   2.835   8.908  0.3141 -0.2344  0.3905
 6568SOL    HW131163   1.196   2.831   8.906  0.3342 -0.6475  0.0321
 6568SOL    HW231164   1.308   2.777   8.983  0.2059  0.8616  1.2493
 6569SOL     OW31165   4.615   1.346   3.134 -0.2388  0.1182 -0.4400
 6569SOL    HW131166   4.567   1.276   3.178 -0.7606  0.3248 -0.6683
 6569SOL    HW231167   4.700   1.303   3.125  0.7952  2.1451 -0.1900
 6570SOL     OW31168   0.811   3.444   3.511 -0.3927 -0.8849 -0.4893
 6570SOL    HW131169   0.742   3.408   3.568  1.7694 -2.3753  1.1710
 6570SOL    HW231170   0.886   3.471   3.563 -1.0556  0.6333 -0.3325
 6571SOL     OW31171   1.520   3.034   8.515  0.0388 -0.0666  0.6677
 6571SOL    HW131172   1.594   3.039   8.576  0.4448  1.9249  0.0208
 6571SOL    HW231173   1.459   2.991   8.575 -0.7400  0.2778  0.1256
 6572SOL     OW31174   3.901   2.865   0.549 -0.3297 -0.0455  0.4298
 6572SOL    HW131175   3.930   2.839   0.636  3.2821  1.0969 -0.4013
 6572SOL    HW231176   3.962   2.819   0.492 -1.3082 -0.6208 -0.1385
 6573SOL     OW31177   3.460   0.504  17.448 -0.7172  0.4518  0.0240
 6573SOL    HW131178   3.545   0.540  17.421 -0.3279 -0.6000 -0.1505
 6573SOL    HW231179   3.420   0.578  17.493 -1.0167  0.0316  0.4422
 6574SOL     OW31180   1.338   0.186   4.425  0.8522  0.0975 -0.2368
 6574SOL    HW131181   1.378   0.106   4.389 -0.8505 -0.6395 -0.5047
 6574SOL    HW231182   1.413   0.245   4.433 -0.9533  1.9315  2.7687
 6575SOL     OW31183   0.563   2.617   8.546 -0.3151  0.5019  0.0329
 6575SOL    HW131184   0.474   2.594   8.519 -0.2075  1.4439 -1.1310
 6575SOL    HW231185   0.625   2.554   8.509 -2.1220 -2.0215  1.2481
 6576SOL     OW31186   2.969   2.696   9.913 -0.3572  0.4990 -0.4350
 6576SOL    HW131187   2.935   2.784   9.897 -0.7333  0.2965 -0.7510
 6576SOL    HW231188   2.949   2.704  10.006  0.9114  1.7504 -0.2731
 6577SOL     OW31189   1.396   1.296   1.843 -0.7274  0.3914  0.7848
 6577SOL    HW131190   1.302   1.304   1.828 -0.3473  0.1181 -1.7857
 6577SOL    HW231191   1.403   1.293   1.939  1.4643  1.2309  0.6464
 6578SOL     OW31192   4.085   2.588   2.127 -0.7446  0.1174  0.0396
 6578SOL    HW131193   4.178   2.604   2.108 -0.0964 -1.8538  1.6355
 6578SOL    HW231194   4.085   2.504   2.082 -1.9780 -0.4970  1.1853
 6579SOL     OW31195   3.152   0.468   8.960 -0.2847  0.0917  0.3920
 6579SOL    HW131196   3.210   0.472   8.884  1.1922  2.0308  1.6655
 6579SOL    HW231197   3.178   0.384   8.998 -1.2219 -0.2605  0.2703
 6580SOL     OW31198   2.949   0.010   7.506  0.4901  0.6662  0.3681
 6580SOL    HW131199   2.998   0.034   7.585 -0.3950  2.5717  0.3561
 6580SOL    HW231200   2.898   4.660   7.532  1.3812 -0.3112 -0.7914
 6581SOL     OW31201   0.351   1.332   7.896 -0.3335  0.6824 -0.1625
 6581SOL    HW131202   0.426   1.363   7.945 -0.3090  1.9798 -1.0122
 6581SOL    HW231203   0.389   1.252   7.861 -1.7435  1.0803 -2.6258
 6582SOL     OW31204   1.043   3.382   8.813 -0.0821 -0.0298  0.1136
 6582SOL    HW131205   1.110   3.358   8.877  1.3741 -0.3632 -1.5612
 6582SOL    HW231206   1.059   3.318   8.744 -1.1881  0.4170 -0.5573
 6583SOL     OW31207   2.050   0.753   0.028  0.1443 -0.1469 -0.0331
 6583SOL    HW131208   2.128   0.698   0.026  1.4167  1.5487  2.1022
 6583SOL    HW231209   2.074   0.813  17.664 -0.4119 -0.2214 -0.2749
 6584SOL     OW31210   3.842   4.579   1.316  0.5161  0.0414  0.2892
 6584SOL    HW131211   3.892   4.626   1.249  0.3928 -1.2763 -0.7224
 6584SOL    HW231212   3.853   4.643   1.386 -1.2937  0.7503 -0.0551
 6585SOL     OW31213   1.218   4.636   2.988 -0.4993  0.2709 -0.3343
 6585SOL    HW131214   1.193   4.576   2.918 -2.9948 -0.3512  1.1114
 6585SOL    HW231215   1.139   4.683   3.015 -0.7969  0.0845 -0.8980
 6586SOL     OW31216   4.304   2.299   5.959  0.1232  0.1824  0.9360
 6586SOL    HW131217   4.316   2.392   5.980  1.0912  0.8135 -2.3397
 6586SOL    HW231218   4.285   2.260   6.044 -0.0458  1.8195  1.6544
 6587SOL     OW31219   4.221   1.680   6.324  0.1249  0.4646 -0.8019
 6587SOL    HW131220   4.208   1.697   6.231  0.7426 -0.7408 -1.0960
 6587SOL    HW231221   4.308   1.717   6.339  0.6518 -0.9094 -0.5177
 6588SOL     OW31222   1.517   3.614   6.814  0.3060  0.2825  0.6882
 6588SOL    HW131223   1.585   3.678   6.834 -0.0539  1.0834 -0.5944
 6588SOL    HW231224   1.562   3.530   6.814  1.9845  1.1637 -0.8493
 6589SOL     OW31225   1.749   4.161   4.502 -0.4171  0.1491  0.1107
 6589SOL    HW131226   1.779   4.115   4.424  1.4346  0.0035  0.9218
 6589SOL    HW231227   1.677   4.102   4.524 -1.3680  0.0788 -3.1935
 6590SOL     OW31228   3.734   4.075   1.594  0.2773  0.0716  0.4666
 6590SOL    HW131229   3.754   4.088   1.502  0.0613 -0.6524  0.3212
 6590SOL    HW231230   3.677   3.999   1.592  0.1829  0.1022  1.9733
 6591SOL     OW31231   0.369   0.170  12.171  0.3185 -0.2728  0.3982
 6591SOL    HW131232   0.304   0.167  12.241 -0.7999  0.2562 -0.6230
 6591SOL    HW231233   0.323   0.125  12.101 -0.0021 -1.3086  1.2764
 6592SOL     OW31234   1.490   3.840   3.231 -0.0816  0.2861 -0.4318
 6592SOL    HW131235   1.531   3.865   3.148 -0.4915  1.2937 -0.3350
 6592SOL    HW231236   1.571   3.818   3.277  0.0334  0.6831 -0.4401
 6593SOL     OW31237   3.881   1.384   5.259 -0.2117  0.5920 -0.4762
 6593SOL    HW131238   3.789   1.381   5.233 -0.4045  0.5816  0.2255
 6593SOL    HW231239   3.920   1.376   5.172  0.2430 -0.4585 -0.1809
 6594SOL     OW31240   2.954   3.588   6.288 -0.1004 -0.2737 -0.0798
 6594SOL    HW131241   2.881   3.618   6.342 -0.4150  0.6019 -1.0012
 6594SOL    HW231242   3.035   3.616   6.332 -1.0787  2.6226 -0.1466
 6595SOL     OW31243   2.987   3.792   5.520 -0.0364  0.4230  0.1368
 6595SOL    HW131244   3.073   3.825   5.494 -0.3783 -1.1405 -3.0826
 6595SOL    HW231245   2.928   3.829   5.454  0.2830  1.1302  0.2561
 6596SOL     OW31246   3.746   1.938   5.315  0.2134  0.1139  0.3561
 6596SOL    HW131247   3.835   1.972   5.304  0.1887  0.2185  0.4660
 6596SOL    HW231248   3.715   1.963   5.228 -1.3453  1.3871  1.2662
 6597SOL     OW31249   1.526   0.177   3.713  0.5569 -0.0016 -0.6082
 6597SOL    HW131250   1.616   0.206   3.700  0.4690  0.6364  0.1984
 6597SOL    HW231251   1.542   0.085   3.691 -0.3603 -0.0825 -0.9575
 6598SOL     OW31252   4.401   4.315  14.637 -0.3987  0.2086  0.3156
 6598SOL    HW131253   4.463   4.272  14.696  0.5811 -0.0937 -0.9308
 6598SOL    HW231254   4.375   4.240  14.583 -0.2260 -0.4623  1.1647
 6599SOL     OW31255   2.383   4.489   2.880  0.4988 -0.3770 -0.2258
 6599SOL    HW131256   2.456   4.469   2.940  1.5217  0.8070 -1.0653
 6599SOL    HW231257   2.432   4.512   2.801 -2.0507 -0.0576 -1.7226
 6600SOL     OW31258   2.791   2.478   8.597  0.4224 -0.5411 -0.4939
 6600SOL    HW131259   2.831   2.420   8.661  0.7222  1.6241  1.2803
 6600SOL    HW231260   2.843   2.555   8.619  2.0155 -1.3342 -1.5776
 6601SOL     OW31261   3.627   0.716   3.957 -0.1100  0.8145 -0.0276
 6601SOL    HW131262   3.720   0.736   3.963  0.2776 -1.1333  0.3158
 6601SOL    HW231263   3.627   0.686   3.866  3.1656  1.6593 -0.3088
 6602SOL     OW31264   2.388   1.463   8.499 -0.5049  0.3635  0.0459
 6602SOL    HW131265   2.321   1.451   8.432  0.8320 -3.0671 -0.6942
 6602SOL    HW231266   2.432   1.379   8.487  1.4788  1.4599 -0.3857
 6603SOL     OW31267   4.244   3.557   2.879 -0.3812 -0.0990 -0.2980
 6603SOL    HW131268   4.331   3.521   2.862 -0.4179  0.0673 -0.8244
 6603SOL    HW231269   4.269   3.634   2.930 -1.6654 -0.2436  0.5503
 6604SOL     OW31270   2.962   4.046   6.012 -0.6055  0.1033  0.3844
 6604SOL    HW131271   2.887   4.075   6.065  0.4739  1.7930  1.0040
 6604SOL    HW231272   2.935   4.066   5.923 -0.7704  0.1019  0.4336
 6605SOL     OW31273   0.189   4.163   2.396  0.0967 -0.1768 -0.3857
 6605SOL    HW131274   0.264   4.150   2.338  1.0964 -1.6001  1.2459
 6605SOL    HW231275   0.187   4.258   2.383 -1.0480 -0.0391  0.8055
 6606SOL     OW31276   4.471   4.140  11.965  0.6619  0.8782 -0.2448
 6606SOL    HW131277   4.475   4.203  12.037  0.0364 -1.7516  2.0914
 6606SOL    HW231278   4.379   4.161  11.946  1.5670  5.1485  0.0861
 6607SOL     OW31279   3.445   3.738  13.071  0.1556 -0.1618 -0.0060
 6607SOL    HW131280   3.413   3.745  12.981  2.4878  3.4469 -0.5786
 6607SOL    HW231281   3.386   3.672  13.106  0.4529  0.3926  1.5243
 6608SOL     OW31282   1.175   3.217   3.583 -0.0087 -0.4798  0.4467
 6608SOL    HW131283   1.134   3.179   3.661 -1.9779 -0.9777 -0.8161
 6608SOL    HW231284   1.138   3.163   3.513  0.0128  0.2578 -0.1303
 6609SOL     OW31285   0.696   1.531   6.891 -0.2294  0.2307 -0.4528
 6609SOL    HW131286   0.740   1.486   6.819 -1.7921 -0.6851 -0.8438
 6609SOL    HW231287   0.635   1.467   6.928  2.4295 -1.7005  0.6482
 6610SOL     OW31288   2.110   1.730  13.452 -0.2487 -0.4728 -0.1839
 6610SOL    HW131289   2.081   1.644  13.419  3.4156 -0.1723 -4.1156
 6610SOL    HW231290   2.203   1.722  13.434 -0.0098  2.5236 -0.1747
 6611SOL     OW31291   2.584   1.357   9.628  0.4597 -0.1831  0.2017
 6611SOL    HW131292   2.497   1.395   9.640  0.3957 -0.9179  2.1406
 6611SOL    HW231293   2.577   1.277   9.680  0.1031  0.6824  1.4977
 6612SOL     OW31294   4.016   3.776   8.399 -0.0916 -0.2103 -0.2821
 6612SOL    HW131295   3.951   3.782   8.329 -0.5350  0.1782  0.1632
 6612SOL    HW231296   4.076   3.709   8.366  0.4476  0.5527 -0.8421
 6613SOL     OW31297   3.611   0.234   6.532 -0.3152  0.2364 -0.5717
 6613SOL    HW131298   3.581   0.154   6.577  0.7210  0.7042  0.9779
 6613SOL    HW231299   3.551   0.305   6.555 -2.5937 -1.6161 -0.7294
 6614SOL     OW31300   2.590   1.275   3.209 -0.5885 -0.1181 -0.0518
 6614SOL    HW131301   2.676   1.288   3.249 -0.2382  0.5235 -1.0225
 6614SOL    HW231302   2.590   1.331   3.132  0.5026  1.3422  1.0084
 6615SOL     OW31303   0.908   0.589   5.347 -0.1338 -0.0698  0.2399
 6615SOL    HW131304   0.875   0.503   5.320  2.1349 -1.1140  0.8040
 6615SOL    HW231305   0.892   0.579   5.440 -0.5550 -0.0102  0.1749
 6616SOL     OW31306   0.380   4.018   3.066  0.0152  0.3238 -0.0245
 6616SOL    HW131307   0.331   4.084   3.018 -0.3270  1.2181  1.5568
 6616SOL    HW231308   0.431   4.079   3.120 -1.5863  1.8473 -0.2491
 6617SOL     OW31309   3.205   2.682  17.113  0.3806  0.2382 -0.0951
 6617SOL    HW131310   3.238   2.759  17.065  1.0593  1.1309  1.8259
 6617SOL    HW231311   3.225   2.709  17.202  0.7968  0.9840 -0.4133
 6618SOL     OW31312   3.645   0.601   5.806  0.8507  0.2146  0.3830
 6618SOL    HW131313   3.567   0.587   5.859  0.9569 -0.3357  0.3876
 6618SOL    HW231314   3.716   0.611   5.868  0.7743  4.1061 -0.1399
 6619SOL     OW31315   3.573   4.098   8.169  0.3475 -0.2292 -0.4452
 6619SOL    HW131316   3.569   4.006   8.196 -1.8821  0.2495  0.8692
 6619SOL    HW231317   3.633   4.138   8.231 -1.5459  1.9732 -0.0392
 6620SOL     OW31318   1.779   0.467  14.466 -0.2013 -0.2144 -0.0358
 6620SOL    HW131319   1.789   0.387  14.413  2.7482  0.6271 -0.7178
 6620SOL    HW231320   1.750   0.532  14.401 -0.4802  1.1382  1.4554
 6621SOL     OW31321   2.445   3.440   7.736 -0.2932 -0.0244 -0.2369
 6621SOL    HW131322   2.450   3.423   7.830  1.2317 -1.7834 -0.6293
 6621SOL    HW231323   2.480   3.528   7.723 -0.3426 -0.2275 -1.8257
 6622SOL     OW31324   4.494   0.276   1.955  0.0051  0.1504  0.3448
 6622SOL    HW131325   4.507   0.358   2.003 -2.6610  0.0261  1.2987
 6622SOL    HW231326   4.463   0.306   1.870  0.3951 -0.4814 -0.0150
 6623SOL     OW31327   2.663   3.802  11.132 -0.3179  0.1484  0.1446
 6623SOL    HW131328   2.695   3.891  11.125  0.6162 -0.2626 -0.8596
 6623SOL    HW231329   2.579   3.812  11.086 -1.2024  0.9306  1.9513
 6624SOL     OW31330   3.261   0.214  12.203  0.1590  0.3146  0.0694
 6624SOL    HW131331   3.183   0.261  12.229  0.1547 -0.4570  1.4649
 6624SOL    HW231332   3.223   0.144  12.149  1.8992  1.8020 -3.1099
 6625SOL     OW31333   1.926   2.218   1.676  0.1997 -0.0620 -0.3129
 6625SOL    HW131334   1.852   2.278   1.670  0.7946  0.8940  1.8140
 6625SOL    HW231335   1.920   2.205   1.771  0.8337  1.8661 -0.0006
 6626SOL     OW31336   2.140   3.858   2.714  0.4096 -0.5985  0.4562
 6626SOL    HW131337   2.069   3.878   2.774  0.2561  1.6174 -0.4448
 6626SOL    HW231338   2.190   3.802   2.772  1.3412  0.6384  0.8489
 6627SOL     OW31339   2.060   3.103  12.661  0.1278  0.2526  0.4968
 6627SOL    HW131340   1.990   3.072  12.604  0.8491 -0.1033 -0.1998
 6627SOL    HW231341   2.038   3.191  12.691  0.5142  0.9165 -1.1369
 6628SOL     OW31342   1.653   2.564   2.583 -0.4803 -0.3800  0.2990
 6628SOL    HW131343   1.608   2.597   2.506  1.5296  0.6246 -0.4384
 6628SOL    HW231344   1.720   2.521   2.529 -0.8487  0.9191 -1.1765
 6629SOL     OW31345   1.318   3.122   0.291 -0.5933 -0.0230 -1.2308
 6629SOL    HW131346   1.397   3.143   0.340 -1.4942 -0.1747  0.3002
 6629SOL    HW231347   1.248   3.118   0.356  0.9251 -0.0794  0.3862
 6630SOL     OW31348   1.935   2.410   4.029 -0.4726 -0.1666  0.2957
 6630SOL    HW131349   1.868   2.462   4.073 -0.8789  2.1633 -3.0499
 6630SOL    HW231350   1.888   2.383   3.950 -0.6495 -0.8921  0.6508
 6631SOL     OW31351   2.320   2.307   2.813 -1.0070 -0.2099  0.3488
 6631SOL    HW131352   2.375   2.385   2.800  1.2947 -2.2997 -2.3277
 6631SOL    HW231353   2.275   2.302   2.729 -0.1239 -0.5827 -0.1113
 6632SOL     OW31354   2.510   2.616   5.724  0.2742 -0.6444  0.2527
 6632SOL    HW131355   2.568   2.600   5.799  3.0781 -2.7306 -2.4127
 6632SOL    HW231356   2.580   2.622   5.660 -0.4108  1.7215 -0.2690
 6633SOL     OW31357   3.658   1.961   4.594  0.4957 -0.0590 -0.0116
 6633SOL    HW131358   3.587   1.976   4.532  0.1998  0.4608  0.4523
 6633SOL    HW231359   3.734   1.943   4.538 -0.5947 -1.0900 -1.1815
 6634SOL     OW31360   4.360   1.363   8.749 -0.8802  0.2570  0.5505
 6634SOL    HW131361   4.445   1.320   8.748 -0.5099  0.9958  0.5242
 6634SOL    HW231362   4.357   1.409   8.665  1.1725 -0.8939 -0.1476
 6635SOL     OW31363   1.704   3.297   5.200 -0.3358 -0.2268 -0.1110
 6635SOL    HW131364   1.738   3.367   5.256  2.0795 -0.8104 -0.8267
 6635SOL    HW231365   1.622   3.290   5.248  0.8223 -0.2952  1.8555
 6636SOL     OW31366   0.555   2.709   4.182  0.0478  0.1982  0.3048
 6636SOL    HW131367   0.498   2.638   4.152  1.5133 -1.0008  0.3363
 6636SOL    HW231368   0.486   2.765   4.217  0.0396  0.0425  0.5364
 6637SOL     OW31369   3.920   2.997   1.161  0.5897  0.6773 -0.4304
 6637SOL    HW131370   3.983   3.057   1.201  0.9924  0.5480 -0.8668
 6637SOL    HW231371   3.894   3.047   1.083 -0.3063 -0.5422 -0.9228
 6638SOL     OW31372   1.411   2.487   0.597 -0.3036 -0.1759 -0.2219
 6638SOL    HW131373   1.398   2.555   0.531 -1.8123  1.1273  1.4200
 6638SOL    HW231374   1.475   2.530   0.654 -1.1075  0.1951  0.4069
 6639SOL     OW31375   4.075   1.195   0.101  0.4237 -0.4438 -0.2562
 6639SOL    HW131376   4.138   1.268   0.100 -0.2297  0.0987 -1.2846
 6639SOL    HW231377   4.072   1.179   0.196 -0.4312  2.6118  0.2419
 6640SOL     OW31378   2.072   4.091  10.778  0.3426  0.0637 -0.0398
 6640SOL    HW131379   2.155   4.112  10.822 -0.6617 -1.3682  2.5114
 6640SOL    HW231380   2.075   3.996  10.786  0.0689  0.1681  1.2970
 6641SOL     OW31381   2.665   2.130   1.295  0.5773 -0.2725  0.3892
 6641SOL    HW131382   2.722   2.166   1.363  0.9389  0.8886 -0.5349
 6641SOL    HW231383   2.583   2.110   1.341 -0.0013 -0.3530 -0.6553
 6642SOL     OW31384   2.980   3.805   0.817 -0.0200 -0.2199 -0.1343
 6642SOL    HW131385   2.925   3.727   0.823  0.8898 -0.9615 -1.7723
 6642SOL    HW231386   3.071   3.780   0.808 -0.4850 -1.9310 -0.0339
 6643SOL     OW31387   0.765   2.992  12.452 -0.6308  0.4485  0.2005
 6643SOL    HW131388   0.727   3.014  12.367 -0.5968  0.2628  0.1373
 6643SOL    HW231389   0.843   2.943  12.428  0.2055  2.6486 -1.5785
 6644SOL     OW31390   0.363   3.661   1.841  0.9465 -0.3279 -0.5629
 6644SOL    HW131391   0.451   3.676   1.874  0.5084  0.5995  0.1642
 6644SOL    HW231392   0.361   3.567   1.861 -0.0863  0.1150  1.3792
 6645SOL     OW31393   3.826   0.696  12.845 -0.6098 -0.4438 -0.1554
 6645SOL    HW131394   3.792   0.782  12.868  0.1385 -0.5436  1.3264
 6645SOL    HW231395   3.758   0.666  12.785 -0.2952 -2.3601  0.4394
 6646SOL     OW31396   3.560   1.793   1.574  0.1640  0.0576  0.8143
 6646SOL    HW131397   3.472   1.765   1.551  0.3112  1.3532 -1.3013
 6646SOL    HW231398   3.585   1.844   1.497  0.8008  0.0618  1.0198
 6647SOL     OW31399   1.201   2.379   2.054  0.6057  0.0357 -0.6700
 6647SOL    HW131400   1.246   2.400   1.972  1.0775 -0.9545 -0.6729
 6647SOL    HW231401   1.111   2.383   2.021 -0.0093  0.9514  1.1413
 6648SOL     OW31402   0.545   2.483   5.208  0.0549 -0.8248 -1.0566
 6648SOL    HW131403   0.631   2.515   5.181  1.0195 -3.4772 -1.0939
 6648SOL    HW231404   0.560   2.394   5.175 -1.0097 -0.6082 -2.0794
 6649SOL     OW31405   2.179   0.075   9.758 -0.5233 -0.3400  0.2203
 6649SOL    HW131406   2.197   4.721   9.805  2.0281 -0.7047 -1.3354
 6649SOL    HW231407   2.155   0.130   9.832 -0.5468  1.8902 -1.4193
 6650SOL     OW31408   0.717   1.903  14.879  0.2196 -0.0367  0.3671
 6650SOL    HW131409   0.713   1.988  14.923  2.8618 -0.5965  1.6468
 6650SOL    HW231410   0.784   1.868  14.937  2.5952  3.2467 -0.3574
 6651SOL     OW31411   3.660   2.283  11.531 -0.2124  0.3492  0.1152
 6651SOL    HW131412   3.621   2.238  11.606  2.0446 -1.4420  0.2066
 6651SOL    HW231413   3.692   2.359  11.579 -0.1399 -0.2035  0.9638
 6652SOL     OW31414   0.209   3.720   4.608  0.6035  0.4214  0.2013
 6652SOL    HW131415   0.284   3.706   4.666  1.0450  3.0465  0.2850
 6652SOL    HW231416   0.165   3.636   4.621  0.5516  0.7582  2.3081
 6653SOL     OW31417   0.248   1.914  10.238  0.6117  0.0300  0.2760
 6653SOL    HW131418   0.167   1.949  10.274  0.0399 -0.1229 -0.8743
 6653SOL    HW231419   0.295   1.871  10.310 -0.4576 -1.2987  0.1796
 6654SOL     OW31420   4.077   0.495   2.291 -0.0268 -0.5542  0.4273
 6654SOL    HW131421   4.018   0.533   2.225 -1.0494  1.4018  2.4571
 6654SOL    HW231422   4.044   0.406   2.301 -1.7839  0.2966  2.2284
 6655SOL     OW31423   4.651   3.409   1.785  0.0813  0.0565  0.1860
 6655SOL    HW131424   4.655   3.318   1.812 -1.0162  0.1655  0.7431
 6655SOL    HW231425   4.562   3.415   1.749 -0.2588 -0.4780  0.9362
 6656SOL     OW31426   1.182   2.825   4.429 -0.2099  0.2264  0.3986
 6656SOL    HW131427   1.164   2.732   4.444 -0.3269  0.0540 -0.7436
 6656SOL    HW231428   1.133   2.835   4.347 -1.1789 -0.0766  0.9401
 6657SOL     OW31429   3.411   1.112   6.355 -0.2378  0.1796  0.1708
 6657SOL    HW131430   3.430   1.065   6.436  1.1841 -2.7585 -1.9029
 6657SOL    HW231431   3.415   1.205   6.379  0.5401 -0.0238  0.8108
 6658SOL     OW31432   3.093   0.486   3.191  0.2230  0.0529  0.1398
 6658SOL    HW131433   3.146   0.410   3.166  0.9041  0.2869  0.8618
 6658SOL    HW231434   3.098   0.543   3.115 -1.4338 -1.1890 -0.8893
 6659SOL     OW31435   3.016   4.507   5.149 -0.2647  0.1046 -0.5824
 6659SOL    HW131436   3.077   4.434   5.152 -0.0091  0.3089 -0.8277
 6659SOL    HW231437   3.071   4.586   5.149 -0.2165  0.0683  0.5354
 6660SOL     OW31438   1.055   2.801   4.200 -0.3458 -0.3156 -0.3059
 6660SOL    HW131439   1.089   2.719   4.166 -1.2507  0.2269 -2.4837
 6660SOL    HW231440   0.961   2.791   4.186 -0.9159  0.5957  2.7161
 6661SOL     OW31441   4.433   0.258   2.982 -0.8885 -0.0971 -0.6842
 6661SOL    HW131442   4.424   0.289   3.072  2.8841 -0.6505 -0.0970
 6661SOL    HW231443   4.490   0.325   2.945 -3.1312  2.1592 -0.0134
 6662SOL     OW31444   1.170   2.459   4.822  0.3229 -0.2691 -0.1016
 6662SOL    HW131445   1.088   2.440   4.868  0.1861 -0.7932 -0.5752
 6662SOL    HW231446   1.227   2.487   4.894 -0.3247  1.0358 -0.0987
 6663SOL     OW31447   0.009   0.916  15.102 -0.5178 -0.2342  0.2626
 6663SOL    HW131448   0.077   0.960  15.154  0.5610  2.1759 -3.1612
 6663SOL    HW231449   0.035   0.932  15.011  0.4818 -4.1726 -0.1362
 6664SOL     OW31450   2.875   4.529   7.024  0.3822 -0.6003 -0.0812
 6664SOL    HW131451   2.918   4.585   7.088 -0.5885  0.8561 -0.7162
 6664SOL    HW231452   2.795   4.574   7.000 -0.1185 -0.9949  0.8342
 6665SOL     OW31453   4.690   1.939   2.199  0.4919 -0.0726  0.6177
 6665SOL    HW131454   0.016   2.015   2.173  1.5775 -0.2306  2.3068
 6665SOL    HW231455   4.726   1.918   2.285  2.8620 -0.1898 -0.4031
 6666SOL     OW31456   1.820   3.819   7.893  0.9124 -0.6449  0.9073
 6666SOL    HW131457   1.733   3.850   7.868  1.1808 -1.4971 -1.0695
 6666SOL    HW231458   1.851   3.896   7.941 -1.8018  0.5636  0.6994
 6667SOL     OW31459   0.239   1.506   5.410 -0.1163 -0.4164  0.6508
 6667SOL    HW131460   0.182   1.541   5.478  1.7398  2.0480  0.9702
 6667SOL    HW231461   0.182   1.487   5.335  2.1594 -0.4597 -1.0946
 6668SOL     OW31462   2.542   1.240   4.588  0.4785  0.3204  0.2240
 6668SOL    HW131463   2.500   1.325   4.603  2.0417  1.4347 -1.6455
 6668SOL    HW231464   2.545   1.243   4.493 -1.1149 -1.5185  0.1230
 6669SOL     OW31465   1.541   0.812   0.220 -0.3216  0.8072  0.4490
 6669SOL    HW131466   1.593   0.853   0.289 -0.5079  1.7172  0.0520
 6669SOL    HW231467   1.459   0.788   0.263 -0.2828 -1.8649 -0.9543
 6670SOL     OW31468   1.154   3.878   0.946  0.4785 -0.4205 -0.1927
 6670SOL    HW131469   1.147   3.929   0.866 -0.9248 -0.9803 -0.4199
 6670SOL    HW231470   1.136   3.790   0.914  1.7984  0.2977 -2.8689
 6671SOL     OW31471   0.332   1.259   3.916 -0.2320  0.0532  0.2628
 6671SOL    HW131472   0.379   1.265   3.833  0.1263 -1.1324  0.3879
 6671SOL    HW231473   0.256   1.209   3.887 -0.9333  0.9858  0.4858
 6672SOL     OW31474   0.120   0.999   8.258  0.5517 -0.2267 -0.0383
 6672SOL    HW131475   0.032   0.983   8.224  0.2896 -0.7263  0.8680
 6672SOL    HW231476   0.173   0.973   8.182 -0.0706  0.9718 -0.8771
 6673SOL     OW31477   1.348   1.452   7.090  0.3297 -0.2886  0.3107
 6673SOL    HW131478   1.384   1.513   7.025 -1.8336  0.9545  0.2462
 6673SOL    HW231479   1.295   1.390   7.040 -0.7325  0.9724 -0.1496
 6674SOL     OW31480   1.563   3.926   0.945 -0.3014  0.1304 -0.6277
 6674SOL    HW131481   1.645   3.943   0.898  0.1846 -2.7647 -0.8383
 6674SOL    HW231482   1.521   3.863   0.887  0.3007  0.9096 -1.9286
 6675SOL     OW31483   0.949   0.662   7.188  0.6696 -0.1326  0.3314
 6675SOL    HW131484   0.914   0.717   7.118 -1.3155 -1.4412  0.2974
 6675SOL    HW231485   0.992   0.594   7.135 -1.4859 -0.0731 -1.4881
 6676SOL     OW31486   4.399   3.727  15.427  0.4779  0.1660  0.4298
 6676SOL    HW131487   4.312   3.741  15.389  0.5316 -1.8386 -0.4227
 6676SOL    HW231488   4.428   3.648  15.381 -0.5663 -0.5347  0.9853
 6677SOL     OW31489   3.076   3.681  14.615 -0.0185 -0.5412 -0.5896
 6677SOL    HW131490   3.028   3.652  14.538 -0.3635 -0.0692 -0.5554
 6677SOL    HW231491   3.006   3.684  14.680 -1.7740  1.2707 -2.5754
 6678SOL     OW31492   0.214   1.400  13.404  0.0478 -0.2912 -0.3770
 6678SOL    HW131493   0.240   1.482  13.361 -0.8445  0.9144  1.3839
 6678SOL    HW231494   0.154   1.353  13.346 -0.8796  0.6265 -0.1644
 6679SOL     OW31495   0.353   2.241   7.371  0.1321  0.0903 -0.0367
 6679SOL    HW131496   0.298   2.259   7.295  1.0509 -2.0277 -1.1809
 6679SOL    HW231497   0.348   2.148   7.389 -0.9252 -0.2591 -2.2089
 6680SOL     OW31498   1.236   2.158   5.027  0.4560 -0.5212 -0.3450
 6680SOL    HW131499   1.154   2.205   5.011  0.6030 -0.2362 -0.2445
 6680SOL    HW231500   1.205   2.081   5.076  3.1072 -2.7460 -2.1595
 6681SOL     OW31501   3.858   3.195   3.964 -0.1130 -0.1170  0.0935
 6681SOL    HW131502   3.900   3.117   3.999  1.0776  0.1941 -0.6318
 6681SOL    HW231503   3.835   3.169   3.875 -0.8469 -2.0785  0.8637
 6682SOL     OW31504   1.372   1.709   3.697 -0.1952 -0.4485  0.0724
 6682SOL    HW131505   1.465   1.692   3.710 -0.1911  0.4559  1.2208
 6682SOL    HW231506   1.368   1.709   3.602  1.7428 -0.2348 -0.0033
 6683SOL     OW31507   3.878   1.612   1.443  0.3655  0.4500  0.4479
 6683SOL    HW131508   3.905   1.612   1.535 -1.8478 -1.1717  1.0858
 6683SOL    HW231509   3.831   1.529   1.441 -1.2787  1.3871  0.9557
 6684SOL     OW31510   1.202   4.188   3.426 -0.0588  0.4019 -0.4588
 6684SOL    HW131511   1.150   4.110   3.442 -0.4466  0.5067 -1.1981
 6684SOL    HW231512   1.291   4.153   3.420  0.1500  0.5502  1.7407
 6685SOL     OW31513   4.391   1.421   2.764  0.1421 -0.0341 -0.0407
 6685SOL    HW131514   4.426   1.389   2.681  0.9927  0.5468  0.0870
 6685SOL    HW231515   4.387   1.349   2.827  1.4201  0.2892  0.4088
 6686SOL     OW31516   0.412   1.084   3.565 -0.2830 -0.7154 -0.3491
 6686SOL    HW131517   0.413   1.086   3.470  1.2356  0.0759 -0.3160
 6686SOL    HW231518   0.348   1.148   3.599  0.6644  0.8077 -1.4669
 6687SOL     OW31519   1.522   2.274   3.120  0.2828  0.2781  0.0681
 6687SOL    HW131520   1.430   2.252   3.110  0.3085  0.6380 -0.9853
 6687SOL    HW231521   1.502   2.366   3.136 -1.3176  0.0036 -0.3661
 6688SOL     OW31522   1.497   2.997   3.159  0.1359  0.1556  0.0246
 6688SOL    HW131523   1.420   2.940   3.150 -0.3679  1.1738 -2.2387
 6688SOL    HW231524   1.549   2.954   3.091 -0.0749  1.3566 -0.8965
 6689SOL     OW31525   2.506   1.109   6.227 -0.0874  0.1619  0.2613
 6689SOL    HW131526   2.572   1.096   6.159 -3.2409 -4.7494 -1.8883
 6689SOL    HW231527   2.559   1.153   6.293 -1.3265 -1.0723  2.0857
 6690SOL     OW31528   4.218   2.311   5.693  0.5917 -0.3273  0.6716
 6690SOL    HW131529   4.226   2.218   5.672 -0.1407 -0.3742  0.6013
 6690SOL    HW231530   4.231   2.312   5.787  5.1896  0.1767 -0.0018
 6691SOL     OW31531   2.514   1.343  13.998 -0.4270 -0.6069 -0.4757
 6691SOL    HW131532   2.420   1.329  14.011 -0.3001 -0.6935  0.3914
 6691SOL    HW231533   2.530   1.329  13.905  2.3641  0.5279 -0.1571
 6692SOL     OW31534   3.559   0.501  10.552 -0.2907 -0.4180  0.3203
 6692SOL    HW131535   3.639   0.508  10.501 -0.1379 -2.0945  0.3414
 6692SOL    HW231536   3.515   0.425  10.515 -0.2461 -1.4459  2.3513
 6693SOL     OW31537   0.511   0.000   7.862 -0.2231 -0.3423 -0.1713
 6693SOL    HW131538   0.432   0.043   7.830 -0.1141 -0.3666 -0.4707
 6693SOL    HW231539   0.557   4.701   7.783  0.6781 -1.3177  0.6699
 6694SOL     OW31540   2.318   4.486   4.012 -0.3878  0.0162  0.2734
 6694SOL    HW131541   2.312   4.572   3.971  1.7193  0.6919  1.3716
 6694SOL    HW231542   2.277   4.498   4.097 -1.8667  0.9426 -0.5737
 6695SOL     OW31543   0.381   0.057   2.474  0.0016 -0.7886 -0.2009
 6695SOL    HW131544   0.303   0.111   2.462  0.6856  0.6069  1.6402
 6695SOL    HW231545   0.409   0.047   2.383 -1.3641 -0.0270 -0.7077
 6696SOL     OW31546   3.307   2.821   5.512 -0.1953  0.1485  0.9934
 6696SOL    HW131547   3.256   2.768   5.450  1.6977  0.9467 -1.2348
 6696SOL    HW231548   3.396   2.818   5.477  0.2072  0.5902  1.9736
 6697SOL     OW31549   3.633   4.554   0.406 -0.5740 -0.1850 -0.0854
 6697SOL    HW131550   3.696   4.530   0.475  0.9087 -2.3248 -2.2056
 6697SOL    HW231551   3.662   4.645   0.396  1.9795 -1.1969 -1.7285
 6698SOL     OW31552   3.066   2.903   4.499 -0.3168 -0.2184  0.2811
 6698SOL    HW131553   3.099   2.954   4.425 -1.3188  1.9199  1.3300
 6698SOL    HW231554   3.126   2.936   4.566 -1.7188 -0.4398  1.6198
 6699SOL     OW31555   3.980   2.544   1.098 -0.0519 -0.3683  0.0166
 6699SOL    HW131556   3.887   2.551   1.079  0.0188 -0.1149 -0.2375
 6699SOL    HW231557   4.009   2.454   1.086 -0.7742 -0.5028 -0.6985
 6700SOL     OW31558   1.930   1.472  13.421  0.1457 -0.0407 -0.6825
 6700SOL    HW131559   1.852   1.527  13.415 -0.4608 -0.8755 -0.3681
 6700SOL    HW231560   1.926   1.427  13.505  2.5916 -0.2574 -0.6899
 6701SOL     OW31561   4.354   2.657   3.754 -0.1712  0.3934  0.0827
 6701SOL    HW131562   4.431   2.708   3.727 -0.0806 -0.7519 -1.7878
 6701SOL    HW231563   4.296   2.724   3.791 -1.8403 -0.3186 -1.2698
 6702SOL     OW31564   3.760   2.153  14.922  0.1610 -0.0690  0.6771
 6702SOL    HW131565   3.821   2.222  14.946  0.6347  0.5512 -2.2913
 6702SOL    HW231566   3.737   2.114  15.006  0.8407 -0.0422  0.8714
 6703SOL     OW31567   3.990   1.010   8.012  0.1329  0.0481 -0.0227
 6703SOL    HW131568   4.051   0.936   8.007  0.6904  0.4260  1.0535
 6703SOL    HW231569   4.007   1.033   8.103 -0.1848  0.7558 -0.1484
 6704SOL     OW31570   4.589   1.031  14.610 -0.5661  0.2674 -0.1182
 6704SOL    HW131571   4.553   1.119  14.595 -1.2780  0.0902  0.5511
 6704SOL    HW231572   4.664   1.032  14.551 -0.7206 -1.6678 -0.3589
 6705SOL     OW31573   1.963   3.892   6.998 -0.1240  0.0271  0.1108
 6705SOL    HW131574   2.050   3.924   6.973 -0.3856 -0.9755 -2.1157
 6705SOL    HW231575   1.963   3.934   7.083 -1.1699  2.5552 -1.1330
 6706SOL     OW31576   3.213   3.561   3.232  0.6282 -0.0268 -0.0500
 6706SOL    HW131577   3.280   3.628   3.247 -0.3543  0.6027  1.4982
 6706SOL    HW231578   3.244   3.488   3.284  0.1844  0.5572  1.0337
 6707SOL     OW31579   0.687   3.793   4.751 -0.1079 -0.1430 -0.9596
 6707SOL    HW131580   0.690   3.875   4.701 -2.3514 -0.3426 -1.4024
 6707SOL    HW231581   0.596   3.763   4.753 -0.2897  0.3522 -1.7222
 6708SOL     OW31582   2.494   3.947   3.569 -0.2622 -0.0612 -0.1163
 6708SOL    HW131583   2.421   3.886   3.555  0.5139 -0.9116 -0.4355
 6708SOL    HW231584   2.566   3.884   3.561 -0.0187 -0.0076  1.5712
 6709SOL     OW31585   3.774   1.713   6.605 -0.2873 -0.3199 -0.1396
 6709SOL    HW131586   3.748   1.803   6.586 -1.2722 -0.7690 -0.8845
 6709SOL    HW231587   3.834   1.700   6.531  1.1398 -2.2048  1.3354
 6710SOL     OW31588   1.258   4.675   7.467 -0.1391  0.6068  0.3535
 6710SOL    HW131589   1.271   0.035   7.505  0.0878  0.8076 -0.1792
 6710SOL    HW231590   1.345   4.660   7.428 -0.6076 -0.3467 -0.3325
 6711SOL     OW31591   0.068   2.288   3.031  0.2749  0.1767  0.2111
 6711SOL    HW131592   0.115   2.347   2.972  0.3554 -0.8740 -0.7566
 6711SOL    HW231593   0.060   2.339   3.112 -0.9887 -1.8552  1.3713
 6712SOL     OW31594   3.456   2.922   3.149  0.1247  0.0103 -0.1324
 6712SOL    HW131595   3.417   2.856   3.206  0.6206  0.3800  0.6383
 6712SOL    HW231596   3.518   2.878   3.091 -0.7736 -3.2087  1.3841
 6713SOL     OW31597   2.750   1.549   0.633 -0.2459 -0.3353 -0.8632
 6713SOL    HW131598   2.762   1.631   0.585  2.2032 -0.3865 -0.3345
 6713SOL    HW231599   2.701   1.588   0.705  1.1477  1.0573 -0.6812
 6714SOL     OW31600   1.768   3.372   2.826 -0.9562  0.4228  0.4112
 6714SOL    HW131601   1.830   3.307   2.860 -0.9038  1.4472  2.2846
 6714SOL    HW231602   1.693   3.313   2.818  0.7663 -1.5710 -1.1228
 6715SOL     OW31603   3.223   4.305   8.188 -0.0445 -0.4765 -0.2866
 6715SOL    HW131604   3.194   4.221   8.151 -1.1383 -0.2316  0.0140
 6715SOL    HW231605   3.302   4.311   8.134  0.2061  0.1410  0.1458
 6716SOL     OW31606   3.028   2.836   8.908 -0.0619  0.0352 -0.0720
 6716SOL    HW131607   2.937   2.860   8.894 -0.1079 -0.5712 -0.7936
 6716SOL    HW231608   3.019   2.768   8.976 -1.6901  1.2912  0.9741
 6717SOL     OW31609   0.153   4.455   4.366 -0.3265  0.4837  0.5522
 6717SOL    HW131610   0.124   4.527   4.310 -0.6495 -0.6146 -0.7029
 6717SOL    HW231611   0.075   4.432   4.416  0.2868 -0.3266  1.1261
 6718SOL     OW31612   3.276   3.741  12.168  0.2591  0.4553 -0.7478
 6718SOL    HW131613   3.332   3.731  12.245  0.2175 -1.2478 -0.9388
 6718SOL    HW231614   3.331   3.792  12.109  2.2336  0.3516  0.9844
 6719SOL     OW31615   4.389   1.945   6.305  0.0443  0.0419  0.0404
 6719SOL    HW131616   4.375   1.961   6.398  0.3922 -0.0474  0.1053
 6719SOL    HW231617   4.341   2.020   6.269 -0.1002  1.0555  2.3571
 6720SOL     OW31618   4.596   0.714   2.308  0.3976  0.6765 -0.2284
 6720SOL    HW131619   4.639   0.714   2.393  1.8588  1.0459 -0.9689
 6720SOL    HW231620   4.511   0.751   2.333  1.6349  2.4982  1.2922
 6721SOL     OW31621   1.798   0.511   9.140  0.6612 -0.0879 -0.2299
 6721SOL    HW131622   1.759   0.428   9.164  1.6690 -1.2396 -2.5309
 6721SOL    HW231623   1.799   0.558   9.223  1.3472  0.5027 -0.5672
 6722SOL     OW31624   0.958   3.493   6.954 -0.1916  0.2982  0.5546
 6722SOL    HW131625   0.875   3.457   6.922  1.0967 -0.2847 -2.1058
 6722SOL    HW231626   0.939   3.587   6.960 -1.0916  0.0691  1.3422
 6723SOL     OW31627   0.925   3.415   7.346 -0.5910 -0.3813  0.2374
 6723SOL    HW131628   0.977   3.382   7.273  0.9242 -0.9534  1.5813
 6723SOL    HW231629   0.983   3.485   7.376 -2.4482  0.4789  1.8340
 6724SOL     OW31630   2.568   3.333   3.258  0.7667 -0.2614  1.0414
 6724SOL    HW131631   2.578   3.426   3.276  3.5999 -0.0185 -1.8529
 6724SOL    HW231632   2.477   3.329   3.228  0.4313  0.8824  1.9316
 6725SOL     OW31633   0.350   3.619   8.361  0.6588  0.0715  0.4431
 6725SOL    HW131634   0.433   3.573   8.374  0.5787 -0.6152 -1.4021
 6725SOL    HW231635   0.376   3.710   8.347  1.4697 -0.5562 -2.1369
 6726SOL     OW31636   1.925   2.187   5.569 -0.2148 -0.1555 -0.2391
 6726SOL    HW131637   1.956   2.268   5.530 -0.0526 -0.1204 -0.0350
 6726SOL    HW231638   1.852   2.167   5.510  0.5885 -0.8098 -1.0088
 6727SOL     OW31639   1.977   1.350   0.778  0.1830 -0.2453  0.5509
 6727SOL    HW131640   1.917   1.291   0.732 -0.3468  1.5106 -1.0233
 6727SOL    HW231641   2.054   1.294   0.785  0.3094 -0.1890 -0.4537
 6728SOL     OW31642   3.081   0.517   1.208 -0.8163  0.1396 -0.0948
 6728SOL    HW131643   3.053   0.445   1.264 -2.6351  0.0615 -1.1175
 6728SOL    HW231644   3.019   0.582   1.242 -3.3840 -1.3762 -1.9722
 6729SOL     OW31645   2.817   1.164  13.921 -0.2987 -0.5958  0.0378
 6729SOL    HW131646   2.779   1.088  13.963 -0.3550 -0.2695  0.5809
 6729SOL    HW231647   2.910   1.148  13.940 -0.0592  3.1978  2.0514
 6730SOL     OW31648   4.300   3.770   2.358  0.1381 -0.1717 -0.0319
 6730SOL    HW131649   4.289   3.843   2.297 -0.8299  1.5304  2.1856
 6730SOL    HW231650   4.310   3.826   2.435 -0.9629  0.9116 -0.6861
 6731SOL     OW31651   4.072   3.150   7.288 -0.2867  0.6566  0.7225
 6731SOL    HW131652   4.145   3.088   7.276  0.3524  1.4101  0.7149
 6731SOL    HW231653   4.094   3.193   7.370 -0.1983  2.5326 -0.2920
 6732SOL     OW31654   4.264   1.374  11.874 -0.1317  0.3561  0.7475
 6732SOL    HW131655   4.294   1.358  11.964  0.1219  2.4284  1.0398
 6732SOL    HW231656   4.194   1.434  11.901 -0.5670 -0.0791  0.5754
 6733SOL     OW31657   1.968   3.741   6.067 -0.1937  0.1001  0.8140
 6733SOL    HW131658   2.030   3.798   6.023  0.0664  0.3813  1.5421
 6733SOL    HW231659   2.025   3.678   6.111  0.4687  0.3781  0.3352
 6734SOL     OW31660   3.369   1.923  11.338  0.7760 -0.2158  0.1287
 6734SOL    HW131661   3.348   1.831  11.320 -1.0813  0.0767  0.8509
 6734SOL    HW231662   3.426   1.937  11.263  1.9153 -2.0775  0.6255
 6735SOL     OW31663   3.898   4.176   0.881  0.3223 -0.3312  0.3368
 6735SOL    HW131664   3.869   4.260   0.917 -0.2064 -1.0469  1.5569
 6735SOL    HW231665   3.825   4.116   0.893  0.9968 -1.3820 -0.8698
 6736SOL     OW31666   3.128   0.818   6.661  0.3725  0.1029 -0.1764
 6736SOL    HW131667   3.164   0.795   6.747 -0.6646  0.5878  0.3791
 6736SOL    HW231668   3.116   0.912   6.671  1.9807  0.0655  2.1273
 6737SOL     OW31669   0.897   3.231   6.111 -0.0879 -0.2038  0.4077
 6737SOL    HW131670   0.858   3.144   6.117  0.6986 -0.7320 -2.0646
 6737SOL    HW231671   0.854   3.278   6.183  2.2332  3.0658 -0.3347
 6738SOL     OW31672   3.791   3.148   1.631  0.3763 -0.2422 -0.2708
 6738SOL    HW131673   3.804   3.217   1.696 -1.1565 -0.3109  0.1045
 6738SOL    HW231674   3.883   3.124   1.621  0.1458 -0.8112 -1.0364
 6739SOL     OW31675   4.606   4.704  16.512 -0.6348 -0.3738  0.2859
 6739SOL    HW131676   4.647   4.619  16.497  0.1549  0.5831 -2.9401
 6739SOL    HW231677   4.635   0.025  16.434 -3.5715 -0.5247 -0.9122
 6740SOL     OW31678   0.023   2.671   0.240 -0.2352  0.0179 -0.1521
 6740SOL    HW131679   0.006   2.738   0.306 -2.2613  0.5519 -1.2196
 6740SOL    HW231680   0.081   2.617   0.294 -0.7120  1.0233  1.3528
 6741SOL     OW31681   2.602   2.788  14.866 -0.4803  0.5001  0.0584
 6741SOL    HW131682   2.516   2.746  14.868 -0.9961  1.4771 -1.7004
 6741SOL    HW231683   2.589   2.881  14.887  2.1495  0.8608  0.0510
 6742SOL     OW31684   2.386   3.994   6.535 -0.5032 -0.2882  0.1623
 6742SOL    HW131685   2.299   3.972   6.501 -0.0135 -1.2754 -0.4491
 6742SOL    HW231686   2.413   3.911   6.574  2.8272 -0.1734 -1.8440
 6743SOL     OW31687   4.363   3.575   8.767 -0.8991  0.0817 -0.1187
 6743SOL    HW131688   4.382   3.586   8.674 -0.7889 -0.8890 -0.2112
 6743SOL    HW231689   4.333   3.484   8.759  0.8463 -0.3421 -1.9727
 6744SOL     OW31690   3.501   2.884  12.706 -0.1159 -0.8754  0.1851
 6744SOL    HW131691   3.476   2.816  12.769 -2.2993  0.5450  0.8260
 6744SOL    HW231692   3.522   2.958  12.763  0.9951 -0.9252 -0.1522
 6745SOL     OW31693   4.063   0.533  12.428  0.1530  0.0752 -0.4704
 6745SOL    HW131694   4.116   0.595  12.377 -0.2817 -0.2142 -1.2790
 6745SOL    HW231695   4.083   0.549  12.520 -1.0361 -3.5892  0.4146
 6746SOL     OW31696   2.162   1.966   8.271 -0.3024  0.4515  0.4500
 6746SOL    HW131697   2.108   1.994   8.345  0.7090 -0.5551  1.5668
 6746SOL    HW231698   2.144   2.041   8.215 -2.3879 -1.1238 -0.9646
 6747SOL     OW31699   1.257   3.791   6.198  0.8615 -0.1834 -0.0656
 6747SOL    HW131700   1.234   3.767   6.288 -0.1756 -0.1147 -0.3105
 6747SOL    HW231701   1.189   3.754   6.142  1.0354 -0.8803  0.1912
 6748SOL     OW31702   4.361   3.738   5.003  0.2718 -0.5195  0.3726
 6748SOL    HW131703   4.333   3.792   4.928  1.2689  0.2437  0.5499
 6748SOL    HW231704   4.335   3.804   5.067 -0.5794 -1.3062  0.8398
 6749SOL     OW31705   1.619   0.089   9.597  0.0207  0.4164 -0.1149
 6749SOL    HW131706   1.561   0.140   9.653 -3.5387 -1.9906 -1.5821
 6749SOL    HW231707   1.564   0.086   9.518  1.2028  0.7155 -0.9482
 6750SOL     OW31708   3.466   2.992   7.152 -0.1082  0.2869  0.0542
 6750SOL    HW131709   3.561   2.988   7.153 -0.1227 -0.5515 -2.1220
 6750SOL    HW231710   3.461   3.084   7.126  1.5642  0.0295 -1.1164
 6751SOL     OW31711   1.213   0.081   1.007  0.1627  0.0921 -0.0695
 6751SOL    HW131712   1.133   0.048   1.047 -0.2518  1.7229  0.4343
 6751SOL    HW231713   1.199   0.072   0.913  0.8268  0.1679 -0.1763
 6752SOL     OW31714   3.127   2.620   6.207  0.1290 -0.1629 -0.0962
 6752SOL    HW131715   3.140   2.618   6.112  0.7200 -3.4314  0.0625
 6752SOL    HW231716   3.036   2.651   6.207  0.5109  0.9673  0.1895
 6753SOL     OW31717   2.652   1.132   3.939  0.3256 -0.5498 -0.2463
 6753SOL    HW131718   2.576   1.184   3.964 -0.4881 -1.3802 -0.9692
 6753SOL    HW231719   2.663   1.159   3.848  2.9894  0.8532  0.5045
 6754SOL     OW31720   3.215   4.101  12.611 -0.5754  0.2643  0.8078
 6754SOL    HW131721   3.305   4.131  12.623 -0.4156  0.6198 -1.1771
 6754SOL    HW231722   3.193   4.085  12.702 -0.7115 -0.1816  0.6994
 6755SOL     OW31723   4.123   4.634  15.491 -0.0299 -0.6452  0.5048
 6755SOL    HW131724   4.117   4.718  15.537  0.7837  0.3421 -1.1932
 6755SOL    HW231725   4.192   4.647  15.426 -0.1982 -0.9686  0.2630
 6756SOL     OW31726   2.791   3.666   2.058 -0.7028 -0.1034 -0.5291
 6756SOL    HW131727   2.833   3.649   2.142  1.5302  0.4301 -1.5324
 6756SOL    HW231728   2.747   3.748   2.081  1.5674  0.1957  2.7091
 6757SOL     OW31729   1.642   1.652   7.789  0.1439 -0.5549  0.0829
 6757SOL    HW131730   1.647   1.558   7.772 -3.0750 -0.5224 -0.9740
 6757SOL    HW231731   1.669   1.642   7.881 -1.2588  0.7324  0.6338
 6758SOL     OW31732   3.473   0.737   3.425 -0.2332 -0.4047 -0.0799
 6758SOL    HW131733   3.538   0.667   3.428  0.6774  0.4696  0.3362
 6758SOL    HW231734   3.423   0.720   3.505  2.3057  0.0589  1.5920
 6759SOL     OW31735   2.835   4.679   2.907 -0.3260  0.1705 -0.2339
 6759SOL    HW131736   2.826   0.044   2.884  1.6214 -0.1622 -2.3873
 6759SOL    HW231737   2.764   4.687   2.970  1.1500  0.2771  1.4235
 6760SOL     OW31738   4.324   0.762  14.170 -0.0078  0.3354  0.0071
 6760SOL    HW131739   4.375   0.693  14.213  0.0896  0.0649 -0.5426
 6760SOL    HW231740   4.287   0.704  14.103  1.0642 -0.1199 -0.1990
 6761SOL     OW31741   3.340   0.177   5.294 -0.2428 -0.5893 -0.0920
 6761SOL    HW131742   3.430   0.201   5.270 -0.4527  1.7215  1.4421
 6761SOL    HW231743   3.334   0.197   5.387 -1.0421 -1.0847 -0.0341
 6762SOL     OW31744   1.992   2.193   3.772  0.1141  0.2547 -0.0679
 6762SOL    HW131745   1.945   2.138   3.835 -0.6488 -1.0713 -1.7887
 6762SOL    HW231746   1.962   2.165   3.686  1.4864 -1.4300 -0.0156
 6763SOL     OW31747   4.232   3.085  14.883 -0.3659 -0.2218  0.2363
 6763SOL    HW131748   4.320   3.050  14.897 -0.5103 -0.7172 -0.0940
 6763SOL    HW231749   4.211   3.028  14.809 -0.3657 -1.0051  0.8354
 6764SOL     OW31750   4.052   0.126   1.614 -0.1998 -0.6103  0.4383
 6764SOL    HW131751   4.088   0.185   1.547 -0.7428 -0.1223  0.5769
 6764SOL    HW231752   3.978   0.089   1.566  1.0120 -0.2374 -1.7001
 6765SOL     OW31753   0.583   0.461  10.454  0.0032  0.2564  0.1554
 6765SOL    HW131754   0.675   0.479  10.476  0.1241  0.7035 -0.7465
 6765SOL    HW231755   0.554   0.552  10.449 -0.0289  0.1149 -2.2021
 6766SOL     OW31756   4.125   1.424  15.348  0.1158  0.2311 -0.2327
 6766SOL    HW131757   4.196   1.482  15.375  0.9008 -1.0275  0.4179
 6766SOL    HW231758   4.120   1.445  15.255 -1.1071 -0.1456 -0.2549
 6767SOL     OW31759   0.238   3.912   4.419  0.6911 -0.1523  0.1504
 6767SOL    HW131760   0.145   3.935   4.410  0.4738 -1.5069 -1.1209
 6767SOL    HW231761   0.234   3.841   4.484 -2.1848 -0.1177  0.0151
 6768SOL     OW31762   3.899   1.346   7.444 -0.1755  0.1969 -0.1271
 6768SOL    HW131763   3.840   1.387   7.381 -0.2096 -0.8166 -0.7632
 6768SOL    HW231764   3.925   1.428   7.485 -1.1482 -0.5272  2.0008
 6769SOL     OW31765   2.842   3.490   6.903  0.5771 -0.1664  0.3103
 6769SOL    HW131766   2.862   3.441   6.983  2.3852  2.1219  1.2539
 6769SOL    HW231767   2.764   3.546   6.911 -0.6995 -1.6533 -1.6334
 6770SOL     OW31768   3.479   3.466   3.029  0.3663 -0.2535  0.3995
 6770SOL    HW131769   3.456   3.373   3.034  1.3482 -0.4763  0.7060
 6770SOL    HW231770   3.438   3.500   2.949 -1.0092  0.0168  1.2265
 6771SOL     OW31771   1.403   0.318  13.223  0.0750 -0.7090  0.0176
 6771SOL    HW131772   1.494   0.305  13.196 -0.3012 -0.1848 -1.5021
 6771SOL    HW231773   1.357   0.316  13.139  0.4490  1.0650 -0.2120
 6772SOL     OW31774   3.472   0.902   6.544 -0.2906  0.5854  0.1739
 6772SOL    HW131775   3.538   0.837   6.520 -1.0434  0.2547 -1.0184
 6772SOL    HW231776   3.390   0.859   6.520 -0.0226 -0.1079  0.5098
 6773SOL     OW31777   4.591   2.643  14.036 -0.8862 -0.1557  0.2680
 6773SOL    HW131778   4.623   2.674  14.121 -0.7205  0.5061 -0.0318
 6773SOL    HW231779   4.663   2.582  14.018  0.4927  1.0796  1.5400
 6774SOL     OW31780   4.145   0.772  12.863 -0.8700  0.1942  0.2185
 6774SOL    HW131781   4.065   0.809  12.827  1.2937  3.6098 -1.0563
 6774SOL    HW231782   4.203   0.844  12.840 -1.3745  0.7619  0.7281
 6775SOL     OW31783   1.200   3.516  13.983 -0.1596 -0.5619 -0.2242
 6775SOL    HW131784   1.111   3.533  13.953 -0.3881 -2.2125 -0.5081
 6775SOL    HW231785   1.226   3.598  14.026 -0.3467 -0.8032  0.3536
 6776SOL     OW31786   1.659   1.649  13.714 -0.0042 -0.3547  0.5200
 6776SOL    HW131787   1.611   1.730  13.696  0.0274 -0.0254  1.9092
 6776SOL    HW231788   1.745   1.679  13.742  1.2325 -0.7825 -2.8237
 6777SOL     OW31789   1.202   0.954   0.232 -0.1390  0.1305 -0.2986
 6777SOL    HW131790   1.218   0.860   0.240 -0.5794  0.2111  1.5006
 6777SOL    HW231791   1.196   0.972   0.326  0.6546  0.0641 -0.2309
 6778SOL     OW31792   4.534   3.563   0.809 -0.0747 -0.0857 -0.0275
 6778SOL    HW131793   4.485   3.552   0.728 -1.3485  0.5749  0.6556
 6778SOL    HW231794   4.501   3.485   0.853 -0.6640  1.3390  2.0408
 6779SOL     OW31795   2.349   1.029   2.739 -0.4412  0.8068  0.0236
 6779SOL    HW131796   2.380   0.938   2.732 -1.2568  0.5422 -0.1957
 6779SOL    HW231797   2.430   1.078   2.726  0.1909 -0.2286  0.0391
 6780SOL     OW31798   1.229   4.098  13.864 -0.7088  0.5859  0.0283
 6780SOL    HW131799   1.280   4.121  13.786  0.6544 -1.0841  0.4294
 6780SOL    HW231800   1.142   4.126  13.834 -0.9999 -1.1060 -0.7337
 6781SOL     OW31801   3.770   1.935  17.602  0.1398  0.3051  0.3440
 6781SOL    HW131802   3.862   1.929  17.628 -0.0308  1.0799  1.1044
 6781SOL    HW231803   3.733   1.861  17.650  2.2163 -0.3546  0.9349
 6782SOL     OW31804   3.713   2.680   3.423  0.4086 -0.1212  0.9002
 6782SOL    HW131805   3.724   2.764   3.378 -1.2321 -1.4696 -2.0276
 6782SOL    HW231806   3.639   2.703   3.480 -1.1320 -0.2147 -1.0550
 6783SOL     OW31807   0.143   2.854   8.201  0.6450 -0.1910 -0.7645
 6783SOL    HW131808   0.121   2.785   8.138  0.6024  0.3264 -1.3241
 6783SOL    HW231809   0.116   2.816   8.284  0.7150 -1.3258 -1.2622
 6784SOL     OW31810   4.028   2.413   2.382  0.2465  0.9190  0.4224
 6784SOL    HW131811   3.989   2.403   2.295  2.1262  0.6557 -0.3887
 6784SOL    HW231812   4.120   2.396   2.362  0.4685  2.6350  0.0294
 6785SOL     OW31813   1.438   0.351  10.785 -0.3067 -0.1873 -0.4033
 6785SOL    HW131814   1.472   0.279  10.733 -0.0136 -0.6651  0.4537
 6785SOL    HW231815   1.510   0.414  10.787 -0.0943 -0.4874  1.1468
 6786SOL     OW31816   0.180   0.575   8.845  0.0355 -0.0035 -0.2374
 6786SOL    HW131817   0.151   0.503   8.902 -1.7578  1.2996  0.4963
 6786SOL    HW231818   0.257   0.601   8.896 -0.1908  1.8302 -0.8498
 6787SOL     OW31819   2.288   0.483   6.244  0.3826  0.5417  0.3910
 6787SOL    HW131820   2.356   0.528   6.193 -0.1034  0.1469 -0.6160
 6787SOL    HW231821   2.271   0.402   6.195  0.6379  0.4259  0.4919
 6788SOL     OW31822   0.424   3.887   8.283 -0.1142  0.1997 -0.7629
 6788SOL    HW131823   0.492   3.947   8.252  0.7889 -1.4924 -2.1195
 6788SOL    HW231824   0.400   3.919   8.369 -0.3007 -2.0776  0.0518
 6789SOL     OW31825   0.501   1.703   2.636 -0.1053 -0.3273  0.3480
 6789SOL    HW131826   0.456   1.780   2.601  0.3997 -1.1347 -2.0613
 6789SOL    HW231827   0.589   1.740   2.640  0.0963 -0.7788  0.0275
 6790SOL     OW31828   4.191   2.911   1.180  0.5126 -0.3867  0.4031
 6790SOL    HW131829   4.100   2.899   1.154  0.5140 -2.9593  1.6128
 6790SOL    HW231830   4.204   2.997   1.140  0.2492 -0.0350  1.0848
 6791SOL     OW31831   2.513   2.555   4.146 -0.3304 -0.7346  0.5022
 6791SOL    HW131832   2.519   2.650   4.150 -0.0748 -0.6900 -0.9685
 6791SOL    HW231833   2.470   2.532   4.064 -0.0536  0.7858 -0.0518
 6792SOL     OW31834   2.429   3.973  16.570  0.7402  0.1423 -0.2811
 6792SOL    HW131835   2.371   4.008  16.502 -0.8127 -2.4120 -0.2480
 6792SOL    HW231836   2.386   3.891  16.594  1.2887  0.1868  0.8602
 6793SOL     OW31837   3.857   0.201   6.817 -0.1640  0.2877  0.0697
 6793SOL    HW131838   3.831   0.289   6.846  0.7164  0.3495  0.6593
 6793SOL    HW231839   3.804   0.150   6.879  1.8741 -0.4714  1.1783
 6794SOL     OW31840   3.008   2.679  15.499 -0.2979 -0.4943 -0.0795
 6794SOL    HW131841   3.070   2.607  15.517  0.7726  1.1080  2.6242
 6794SOL    HW231842   3.039   2.716  15.417 -0.2748  1.6755  0.9005
 6795SOL     OW31843   2.832   4.392  10.431  0.2160 -0.2303  0.1353
 6795SOL    HW131844   2.919   4.431  10.442 -0.4243  0.9881  0.8386
 6795SOL    HW231845   2.815   4.381  10.525 -1.1993 -0.8524 -0.2021
 6796SOL     OW31846   2.634   3.964   2.189  0.1037 -0.0139 -0.0405
 6796SOL    HW131847   2.692   3.999   2.121  0.1907 -0.8053 -0.3717
 6796SOL    HW231848   2.670   4.017   2.260 -0.7539  0.0462  0.3544
 6797SOL     OW31849   1.205   0.763   1.277  0.0837  1.0729  0.5581
 6797SOL    HW131850   1.159   0.765   1.193 -0.3063 -0.2284  0.7337
 6797SOL    HW231851   1.297   0.756   1.253  0.3151  1.1938  1.4067
 6798SOL     OW31852   1.303   4.071   6.481  0.2631 -0.5481 -0.4505
 6798SOL    HW131853   1.390   4.032   6.493  0.1742 -0.9535 -1.1572
 6798SOL    HW231854   1.268   4.049   6.568 -1.9803 -1.2393 -1.5402
 6799SOL     OW31855   1.733   2.639  10.988 -0.5147 -0.1697  0.5329
 6799SOL    HW131856   1.712   2.591  11.068 -0.0653 -0.3249  0.5562
 6799SOL    HW231857   1.732   2.564  10.928  2.6662 -1.5771  2.2080
 6800SOL     OW31858   3.995   2.259   8.126 -0.2047 -0.2753 -0.6491
 6800SOL    HW131859   3.975   2.165   8.123  0.3679 -0.4766  1.8262
 6800SOL    HW231860   4.028   2.276   8.038 -2.5107  2.2449 -1.0331
 6801SOL     OW31861   3.291   1.526   4.481  0.2767  0.3141 -0.0145
 6801SOL    HW131862   3.234   1.498   4.552  0.7005 -2.2820 -0.7196
 6801SOL    HW231863   3.300   1.442   4.436 -0.7764 -0.7847  1.8361
 6802SOL     OW31864   3.746   0.939   5.991  0.7426  0.0079 -0.3407
 6802SOL    HW131865   3.751   0.919   6.084 -2.7095 -1.7019 -0.5511
 6802SOL    HW231866   3.675   1.003   5.991 -0.7911 -1.7099  0.1190
 6803SOL     OW31867   4.389   3.346   7.317  0.6000 -0.2550  0.2045
 6803SOL    HW131868   4.455   3.322   7.251 -0.1699 -2.0764  0.0880
 6803SOL    HW231869   4.420   3.426   7.358 -0.4766  0.8726 -1.1599
 6804SOL     OW31870   1.204   3.907  14.861  0.0858  0.1685 -0.1791
 6804SOL    HW131871   1.264   3.863  14.802 -0.6018  0.7267 -1.2915
 6804SOL    HW231872   1.129   3.915  14.802  0.1553 -0.2611 -0.3241
 6805SOL     OW31873   3.858   0.290   0.249 -0.2813 -0.3692  0.3400
 6805SOL    HW131874   3.866   0.317   0.157 -2.7140  1.4500  0.6593
 6805SOL    HW231875   3.933   0.328   0.295 -0.8414 -0.9669  1.7323
 6806SOL     OW31876   4.337   4.703   7.496 -0.0435 -0.6222 -0.1172
 6806SOL    HW131877   4.365   4.723   7.585  1.6471  1.1163 -1.0400
 6806SOL    HW231878   4.306   0.060   7.461  0.3060 -0.1081  0.7894
 6807SOL     OW31879   2.802   0.662   7.239 -0.0528  0.0786 -0.0665
 6807SOL    HW131880   2.888   0.690   7.271 -0.0903 -1.0667  1.0304
 6807SOL    HW231881   2.823   0.581   7.193  0.0921  0.1123 -0.0597
 6808SOL     OW31882   0.200   0.914   5.781 -0.4369  0.1396 -0.5622
 6808SOL    HW131883   0.195   0.956   5.867  0.8551  0.9951 -0.9066
 6808SOL    HW231884   0.178   0.990   5.727  0.2873  0.5647 -0.2585
 6809SOL     OW31885   2.355   4.272   6.441 -0.3941  0.0224 -0.5350
 6809SOL    HW131886   2.267   4.258   6.477 -0.2424  1.6421  0.4341
 6809SOL    HW231887   2.394   4.185   6.456  1.3521  0.7078 -1.0746
 6810SOL     OW31888   2.494   2.302   4.226 -0.6677  0.0858 -0.4260
 6810SOL    HW131889   2.407   2.300   4.266 -0.1321  1.5928  0.8383
 6810SOL    HW231890   2.502   2.394   4.201  0.6422  0.7351  2.2408
 6811SOL     OW31891   0.496   3.147  14.534  0.6892  0.1579  0.0545
 6811SOL    HW131892   0.474   3.238  14.513  1.2132 -0.2544 -2.2977
 6811SOL    HW231893   0.465   3.142  14.624  2.3716 -0.0634  0.6315
 6812SOL     OW31894   1.866   1.263   6.414  0.1659 -0.3065  0.5822
 6812SOL    HW131895   1.799   1.197   6.396 -1.2102  2.0775 -3.0362
 6812SOL    HW231896   1.940   1.242   6.358  0.4427  1.5182  0.2568
 6813SOL     OW31897   1.013   3.582   5.187  0.3256 -0.0872  0.6910
 6813SOL    HW131898   0.965   3.556   5.265  0.5783 -2.3811  0.0674
 6813SOL    HW231899   0.980   3.522   5.120  0.5555  1.8133 -1.1225
 6814SOL     OW31900   3.293   0.627   7.327  0.1619  0.0136 -0.0033
 6814SOL    HW131901   3.251   0.554   7.372 -0.4872  0.6261  0.3837
 6814SOL    HW231902   3.343   0.661   7.401  2.3633 -0.5392 -1.2315
 6815SOL     OW31903   0.927   3.247  14.093 -0.1868 -0.3686 -1.0029
 6815SOL    HW131904   0.944   3.316  14.029  0.6278 -0.2189 -0.6270
 6815SOL    HW231905   0.837   3.230  14.066 -0.7994  0.0430  0.7696
 6816SOL     OW31906   1.204   1.126   5.689 -0.3985  0.4637 -0.1828
 6816SOL    HW131907   1.216   1.153   5.598 -1.4189  0.4804 -0.3149
 6816SOL    HW231908   1.280   1.078   5.722  0.2353  1.8619  0.3533
 6817SOL     OW31909   3.245   0.900  15.240 -0.0933  0.4668  0.0354
 6817SOL    HW131910   3.224   0.810  15.266  0.9601  0.2564  0.1543
 6817SOL    HW231911   3.209   0.912  15.152  1.2380  1.0093 -0.4372
 6818SOL     OW31912   2.855   2.114  10.171  0.1800  0.6872 -0.3871
 6818SOL    HW131913   2.905   2.194  10.154 -1.7694  2.1450  0.7500
 6818SOL    HW231914   2.874   2.071  10.087  1.1400 -1.1075  0.7472
 6819SOL     OW31915   1.034   0.537  13.164 -0.1583  0.0671 -0.3654
 6819SOL    HW131916   0.965   0.486  13.207  2.0317 -1.7374  0.9866
 6819SOL    HW231917   1.054   0.610  13.222 -0.4361 -0.2170  0.0878
 6820SOL     OW31918   2.746   4.370  11.407  0.3744 -0.4335 -0.2667
 6820SOL    HW131919   2.774   4.460  11.390 -0.3876 -0.2869 -0.7371
 6820SOL    HW231920   2.761   4.341  11.318  1.2222  0.7551 -0.5003
 6821SOL     OW31921   0.412   2.754  15.572  0.1007  0.3287 -0.0347
 6821SOL    HW131922   0.504   2.739  15.594 -0.3002 -1.0248  0.6804
 6821SOL    HW231923   0.395   2.665  15.542 -0.4999  1.3157 -2.6656
 6822SOL     OW31924   2.036   0.622  10.016  0.2889 -0.1788  0.2848
 6822SOL    HW131925   1.994   0.552  10.067  2.0055 -1.5170 -0.1709
 6822SOL    HW231926   2.092   0.668  10.079 -1.9017 -0.3032  2.3178
 6823SOL     OW31927   1.146   1.180   3.546  0.3597 -0.2125  0.1451
 6823SOL    HW131928   1.182   1.091   3.552  0.1854 -0.2768  0.2479
 6823SOL    HW231929   1.192   1.222   3.619 -0.7597 -0.4224  0.9721
 6824SOL     OW31930   0.769   0.481   5.566  0.1047  0.2615  0.5142
 6824SOL    HW131931   0.694   0.501   5.510 -0.1715 -0.5196  0.6143
 6824SOL    HW231932   0.757   0.531   5.647  1.4849  0.7290  0.4431
 6825SOL     OW31933   4.439   0.668  14.493 -0.1417  0.1461  0.1600
 6825SOL    HW131934   4.482   0.590  14.457  3.2255  2.5793 -1.0686
 6825SOL    HW231935   4.482   0.742  14.449 -1.9754 -1.1306 -3.7557
 6826SOL     OW31936   1.889   0.217   9.018  0.5317 -0.5110 -0.0185
 6826SOL    HW131937   1.928   0.175   9.094  0.5486 -0.9413 -0.2625
 6826SOL    HW231938   1.823   0.154   8.987  1.8853 -0.6692 -2.6152
 6827SOL     OW31939   2.766   1.279   0.580  0.3209  0.0488  0.0417
 6827SOL    HW131940   2.851   1.266   0.622 -0.4929 -3.8348  0.5269
 6827SOL    HW231941   2.750   1.372   0.596  1.2814 -0.1910  2.5334
 6828SOL     OW31942   0.976   1.082   6.988  0.3793  0.0522  0.4353
 6828SOL    HW131943   1.006   1.058   6.901 -1.7998 -0.3254 -0.2250
 6828SOL    HW231944   1.029   1.024   7.043  2.8572  0.9005 -1.0916
 6829SOL     OW31945   4.639   2.605   9.436  0.4575  0.0157 -0.1498
 6829SOL    HW131946   4.626   2.569   9.348  0.4785 -1.2474  0.3618
 6829SOL    HW231947   4.643   2.699   9.417  1.1585  0.1422  0.5955
 6830SOL     OW31948   3.783   1.094   4.497 -0.0979  0.3638  0.2780
 6830SOL    HW131949   3.810   1.025   4.437 -0.6904 -1.2224  1.8375
 6830SOL    HW231950   3.721   1.153   4.452 -1.0356  0.0976  1.2116
 6831SOL     OW31951   4.359   0.806   3.779  0.7758  0.4719 -0.5548
 6831SOL    HW131952   4.313   0.854   3.847 -0.2150  0.8513 -1.4842
 6831SOL    HW231953   4.447   0.795   3.816  1.1239  0.5843 -1.3304
 6832SOL     OW31954   2.786   1.509   9.475 -0.8687 -0.2249  0.4343
 6832SOL    HW131955   2.809   1.586   9.526 -1.6454  0.7144 -0.6544
 6832SOL    HW231956   2.723   1.465   9.532 -0.8895 -1.2874 -0.4074
 6833SOL     OW31957   2.493   1.478   5.851  0.1277  0.3784  0.2611
 6833SOL    HW131958   2.559   1.440   5.792  0.2823  0.7266  0.2085
 6833SOL    HW231959   2.559   1.533   5.893  0.9476 -0.5412  0.1863
 6834SOL     OW31960   0.275   0.626   8.097 -0.2950 -0.4876 -0.1850
 6834SOL    HW131961   0.340   0.663   8.037 -1.0174 -0.4432 -0.9408
 6834SOL    HW231962   0.198   0.662   8.054 -0.3742 -1.4750 -0.8962
 6835SOL     OW31963   4.442   3.229   8.185 -0.5469  0.1626 -0.3237
 6835SOL    HW131964   4.465   3.197   8.098  2.7446  0.5022  0.3912
 6835SOL    HW231965   4.525   3.273   8.206 -1.2549  1.8561 -1.1473
 6836SOL     OW31966   2.268   3.160  11.591 -0.1350 -0.1743  0.0595
 6836SOL    HW131967   2.216   3.109  11.654  0.8779 -1.1506  0.1197
 6836SOL    HW231968   2.211   3.235  11.575  1.4070  1.3523  1.7318
 6837SOL     OW31969   0.478   1.207   2.637 -0.5115 -0.2673  0.5366
 6837SOL    HW131970   0.470   1.116   2.607 -2.2025  0.3723 -0.9695
 6837SOL    HW231971   0.395   1.247   2.611  0.6257  1.5397 -0.3027
 6838SOL     OW31972   1.725   0.167   6.685  0.0599 -0.4547 -0.8140
 6838SOL    HW131973   1.729   0.260   6.661  0.1112 -0.8307 -2.2450
 6838SOL    HW231974   1.774   0.135   6.610 -1.7240  0.8028 -2.5141
 6839SOL     OW31975   0.233   0.633   2.516 -0.7500 -0.6801 -0.4378
 6839SOL    HW131976   0.257   0.696   2.447 -0.2759  1.4201  1.6604
 6839SOL    HW231977   0.317   0.627   2.561 -0.2987 -1.7394 -1.4048
 6840SOL     OW31978   4.355   3.385   7.695 -0.7738 -0.1877 -0.0329
 6840SOL    HW131979   4.387   3.451   7.633  2.0050 -0.7001  0.8449
 6840SOL    HW231980   4.433   3.329   7.695 -0.9362 -0.3997  1.7869
 6841SOL     OW31981   0.173   3.078   3.506 -0.3203  0.1693  0.1090
 6841SOL    HW131982   0.150   3.106   3.418  0.2375 -0.3765 -0.2172
 6841SOL    HW231983   0.236   3.006   3.492  2.2064  2.2372  0.8526
 6842SOL     OW31984   0.850   0.085   1.702  0.4409  0.3778  0.1189
 6842SOL    HW131985   0.898   0.003   1.690  0.2088  0.1241  0.9319
 6842SOL    HW231986   0.771   0.071   1.649  2.1079  0.1181 -2.2891
 6843SOL     OW31987   1.018   2.310  13.825  0.3115 -0.2669 -0.0192
 6843SOL    HW131988   1.003   2.391  13.776 -2.3244 -0.8253 -0.0955
 6843SOL    HW231989   0.934   2.270  13.804  0.1126 -0.0967  0.4408
 6844SOL     OW31990   0.107   1.413   1.859 -0.2125 -0.0641 -0.5634
 6844SOL    HW131991   0.192   1.368   1.865 -0.0647  0.0475 -1.7408
 6844SOL    HW231992   0.055   1.349   1.811 -2.0683  2.2610 -1.6678
 6845SOL     OW31993   2.596   1.516   2.032  0.1846 -0.0106  0.4694
 6845SOL    HW131994   2.640   1.531   1.948  2.2324 -1.5224  1.2619
 6845SOL    HW231995   2.599   1.420   2.036 -1.3648 -0.0397  0.8812
 6846SOL     OW31996   2.665   2.688   6.271 -0.0066 -0.2186 -0.4859
 6846SOL    HW131997   2.732   2.731   6.324 -0.5396  1.1385 -0.9067
 6846SOL    HW231998   2.643   2.758   6.208 -0.5537  0.3773  0.3639
 6847SOL     OW31999   1.888   2.869  15.233  1.1712 -0.0950 -0.2218
 6847SOL    HW132000   1.891   2.953  15.187 -0.1012  1.3503  2.3294
 6847SOL    HW232001   1.966   2.867  15.289  2.7417 -0.6590 -2.4459
 6848SOL     OW32002   0.380   0.641   6.628  0.0981  0.0182  0.3607
 6848SOL    HW132003   0.350   0.664   6.716 -0.1993  1.5885 -0.1577
 6848SOL    HW232004   0.469   0.607   6.641 -0.6201 -1.2651  1.9425
 6849SOL     OW32005   1.088   3.535   5.766  0.2741  0.2413  0.6353
 6849SOL    HW132006   1.072   3.625   5.796 -0.4360  0.6767 -1.0754
 6849SOL    HW232007   1.162   3.546   5.706  0.9371  1.8266  1.7030
 6850SOL     OW32008   2.901   3.278   5.054  0.1585  0.1682 -0.3629
 6850SOL    HW132009   2.984   3.314   5.086  0.6932 -0.7096 -0.7628
 6850SOL    HW232010   2.916   3.185   5.073  0.0576 -0.1196 -1.7528
 6851SOL     OW32011   3.468   4.489   6.732 -0.2609  0.2352 -0.2465
 6851SOL    HW132012   3.433   4.404   6.704  0.1034 -0.1177  0.3597
 6851SOL    HW232013   3.559   4.466   6.753 -1.4367 -4.2440 -0.0091
 6852SOL     OW32014   2.835   2.985   3.949 -0.0590 -0.4636  0.1911
 6852SOL    HW132015   2.846   2.953   3.859 -0.7716 -0.8750  0.2509
 6852SOL    HW232016   2.814   3.077   3.933 -0.2305 -1.1214 -3.3093
 6853SOL     OW32017   4.243   4.093   6.616 -0.2875 -0.3922 -0.6801
 6853SOL    HW132018   4.214   4.062   6.702  0.2107  0.0421 -0.3560
 6853SOL    HW232019   4.233   4.018   6.558  2.1063 -1.2469  0.0017
 6854SOL     OW32020   3.303   4.297   4.958 -0.0716 -0.1918  0.0745
 6854SOL    HW132021   3.297   4.311   5.052 -2.5403 -2.3927  0.2225
 6854SOL    HW232022   3.398   4.291   4.946  0.0158 -0.6836  1.0576
 6855SOL     OW32023   1.533   0.372   4.251 -0.2859  0.0697 -0.8815
 6855SOL    HW132024   1.621   0.402   4.276 -0.4098 -1.6656  1.6802
 6855SOL    HW232025   1.550   0.357   4.158  0.3644 -1.5623 -0.4971
 6856SOL     OW32026   0.282   0.168  13.752  0.4693  0.1362  0.0958
 6856SOL    HW132027   0.250   0.098  13.696 -0.5440  1.4330 -0.9540
 6856SOL    HW232028   0.209   0.230  13.747  0.8200  0.5402  0.0005
 6857SOL     OW32029   3.016   1.556  16.167 -0.2959  0.4872 -0.2420
 6857SOL    HW132030   3.016   1.483  16.106 -3.3762  0.6773 -0.4744
 6857SOL    HW232031   3.073   1.618  16.120 -1.3267  1.1921 -0.5585
 6858SOL     OW32032   1.705   4.228   8.169 -0.2807 -0.0722 -0.0527
 6858SOL    HW132033   1.756   4.303   8.201 -0.4515 -0.5932  1.4255
 6858SOL    HW232034   1.654   4.204   8.246 -2.2377 -0.2487 -1.4114
 6859SOL     OW32035   2.174   1.443   2.333 -0.3033 -0.1741  0.1687
 6859SOL    HW132036   2.252   1.469   2.283  0.7998 -1.4543  1.1980
 6859SOL    HW232037   2.193   1.350   2.318  0.7909  0.3023 -1.4381
 6860SOL     OW32038   1.775   3.369  11.732 -0.2162 -0.6586 -0.2432
 6860SOL    HW132039   1.700   3.334  11.684 -0.8167 -0.3449  0.4675
 6860SOL    HW232040   1.851   3.335  11.685 -2.1801 -5.1860 -0.1339
 6861SOL     OW32041   3.395   1.177   2.383  0.3997  0.3948  0.1499
 6861SOL    HW132042   3.474   1.174   2.330  0.8147  0.6575  0.7569
 6861SOL    HW232043   3.422   1.235   2.454  1.5068  2.8045 -2.2875
 6862SOL     OW32044   3.632   1.860  15.460 -0.5919 -0.1878 -0.4762
 6862SOL    HW132045   3.712   1.806  15.454  1.0382  2.2335 -0.4146
 6862SOL    HW232046   3.653   1.929  15.523  0.5588 -0.7768 -0.2056
 6863SOL     OW32047   4.313   1.328  13.838 -0.5020  1.0696  0.4719
 6863SOL    HW132048   4.267   1.317  13.755  1.4971  1.4000 -0.6528
 6863SOL    HW232049   4.356   1.413  13.830 -0.0508  0.6910 -1.1134
 6864SOL     OW32050   4.239   4.413   8.322 -0.0640  0.9995 -0.2610
 6864SOL    HW132051   4.230   4.422   8.417  1.8838 -1.7245  0.1703
 6864SOL    HW232052   4.184   4.486   8.293 -0.0196  0.8749 -0.6599
 6865SOL     OW32053   3.937   4.558   2.368 -0.2726  0.2777 -0.5611
 6865SOL    HW132054   3.859   4.540   2.315  0.9382  0.5984 -2.4181
 6865SOL    HW232055   3.907   4.638   2.411 -1.6453 -1.2731  1.3430
 6866SOL     OW32056   2.623   4.186  10.791  0.4614  0.6979 -0.0846
 6866SOL    HW132057   2.675   4.113  10.758 -1.7059  0.2319 -2.4449
 6866SOL    HW232058   2.542   4.141  10.813  0.0722  0.9175 -1.0903
 6867SOL     OW32059   4.430   3.294   6.430  0.3311 -0.5875 -0.2797
 6867SOL    HW132060   4.361   3.354   6.458  1.3111 -0.8771  2.7236
 6867SOL    HW232061   4.503   3.355   6.424  0.9914 -1.1595  1.8399
 6868SOL     OW32062   1.136   0.402  16.810 -0.2721  0.2944 -0.5042
 6868SOL    HW132063   1.104   0.315  16.835  1.6845 -0.4762 -0.7140
 6868SOL    HW232064   1.162   0.373  16.723 -0.1456  2.8054 -1.2928
 6869SOL     OW32065   1.681   0.483   3.237 -0.5586 -0.6826 -0.1373
 6869SOL    HW132066   1.702   0.558   3.181  1.3901 -1.2364 -0.1696
 6869SOL    HW232067   1.762   0.491   3.288 -0.9320 -0.2588  0.3839
 6870SOL     OW32068   3.673   4.333   6.842 -0.2107 -0.4699  0.0651
 6870SOL    HW132069   3.610   4.279   6.793 -1.5871  1.0934  0.1125
 6870SOL    HW232070   3.753   4.282   6.830  0.1735 -0.4413  2.5780
 6871SOL     OW32071   2.364   3.174   4.293 -0.3024  0.0411  0.1728
 6871SOL    HW132072   2.343   3.131   4.210  0.5452  1.7673 -0.9325
 6871SOL    HW232073   2.424   3.108   4.327 -1.2245 -0.7524  0.2616
 6872SOL     OW32074   4.380   3.698   3.493  0.0872 -0.2012 -0.1902
 6872SOL    HW132075   4.424   3.621   3.458  0.3119 -0.7786  1.3583
 6872SOL    HW232076   4.382   3.752   3.414 -0.0058 -1.1451 -0.8388
 6873SOL     OW32077   0.564   0.278   6.904 -0.0244 -0.2723 -0.3606
 6873SOL    HW132078   0.658   0.286   6.918 -0.3780  0.4618  1.5992
 6873SOL    HW232079   0.536   0.244   6.988  0.3633  0.2741 -0.0121
 6874SOL     OW32080   2.141   3.775   1.422  0.2060  0.0226 -0.3202
 6874SOL    HW132081   2.168   3.859   1.384 -2.7280  1.1283  0.0371
 6874SOL    HW232082   2.047   3.786   1.416  0.3744  0.5890 -1.8614
 6875SOL     OW32083   1.690   1.656   8.066  0.5441 -0.6922 -0.5466
 6875SOL    HW132084   1.767   1.606   8.095  1.2024  0.4884 -0.2842
 6875SOL    HW232085   1.736   1.740   8.067 -2.2964  0.8550 -2.7948
 6876SOL     OW32086   2.963   2.424   8.923  0.1053  0.4843  0.0289
 6876SOL    HW132087   3.033   2.467   8.873 -0.1444 -0.2953 -0.9895
 6876SOL    HW232088   2.929   2.359   8.862  0.1511 -0.3489  0.9005
 6877SOL     OW32089   3.504   2.369  14.811  0.2447 -0.6917 -0.5272
 6877SOL    HW132090   3.546   2.435  14.867 -0.7250 -0.6034  0.1016
 6877SOL    HW232091   3.585   2.344  14.768  2.2647  0.6966  2.4967
 6878SOL     OW32092   2.876   0.610   1.642  0.5402  0.0635 -0.7530
 6878SOL    HW132093   2.828   0.609   1.725 -0.5456 -1.3390 -1.4052
 6878SOL    HW232094   2.965   0.601   1.676 -0.4452  1.6644  2.2345
 6879SOL     OW32095   0.555   1.752   8.974  0.0707  0.1682  0.4101
 6879SOL    HW132096   0.545   1.845   8.951  0.0275 -0.3463 -1.6420
 6879SOL    HW232097   0.549   1.771   9.068 -1.5802  0.5817  0.2167
 6880SOL     OW32098   4.274   0.963  10.564 -0.0223 -0.3273 -0.1029
 6880SOL    HW132099   4.236   1.039  10.608 -0.7048 -0.3550 -0.6470
 6880SOL    HW232100   4.209   0.902  10.599 -1.5670  0.2740 -1.9381
 6881SOL     OW32101   4.151   4.000  11.886  0.3143  0.4198  0.5359
 6881SOL    HW132102   4.062   3.966  11.892  1.0496 -1.9968 -2.4300
 6881SOL    HW232103   4.160   4.049  11.968 -1.7462  0.5082  0.7125
 6882SOL     OW32104   2.122   4.371   3.214 -0.4337 -0.0585 -0.5613
 6882SOL    HW132105   2.120   4.431   3.289  0.2390 -0.3513 -0.3061
 6882SOL    HW232106   2.051   4.416   3.167  1.3113  2.3275 -0.9149
 6883SOL     OW32107   2.544   3.477  12.125  0.4320 -0.0020  0.0618
 6883SOL    HW132108   2.628   3.521  12.140  0.0934  0.7397 -0.1944
 6883SOL    HW232109   2.578   3.412  12.064  1.9881 -0.5606  1.5131
 6884SOL     OW32110   3.779   1.491  13.215  0.1559  0.4798  0.1512
 6884SOL    HW132111   3.859   1.522  13.258 -0.6658  2.6673  0.0940
 6884SOL    HW232112   3.714   1.555  13.242 -0.5363  0.3431 -1.1498
 6885SOL     OW32113   4.221   2.628  17.395 -0.4954 -0.1945  0.0589
 6885SOL    HW132114   4.226   2.715  17.435  1.6466 -0.7054  0.8948
 6885SOL    HW232115   4.212   2.571  17.471  1.9915  0.9778  1.2187
 6886SOL     OW32116   1.569   2.492   2.820  0.8939 -0.4060  0.1399
 6886SOL    HW132117   1.635   2.552   2.854  1.5800  0.2309 -2.3032
 6886SOL    HW232118   1.572   2.511   2.726  0.4983  2.1103  0.6316
 6887SOL     OW32119   3.857   2.419  14.985 -0.2207 -0.0121  0.4910
 6887SOL    HW132120   3.833   2.445  14.897 -0.1431  1.4157  0.8921
 6887SOL    HW232121   3.934   2.474  14.996  1.3431 -2.0523 -0.2762
 6888SOL     OW32122   3.816   3.770   7.802  0.2186 -0.1161  0.1742
 6888SOL    HW132123   3.849   3.816   7.725 -0.1429  0.9555  0.6583
 6888SOL    HW232124   3.892   3.753   7.857  1.6580  0.4545 -1.6326
 6889SOL     OW32125   1.053   1.234   3.860 -0.3442 -0.1387 -0.3445
 6889SOL    HW132126   1.070   1.181   3.937  0.4340  1.7952  0.8085
 6889SOL    HW232127   0.996   1.175   3.810 -0.5638 -0.8019  0.6852
 6890SOL     OW32128   4.191   3.329   8.205 -0.1059 -0.6185  0.0303
 6890SOL    HW132129   4.281   3.307   8.184 -0.0150 -1.9289  1.7386
 6890SOL    HW232130   4.156   3.252   8.159  0.9786 -1.6615  0.9256
 6891SOL     OW32131   4.595   3.349   6.166  0.2245 -0.1290  0.4160
 6891SOL    HW132132   4.563   3.406   6.236 -0.4483 -2.0398  1.6466
 6891SOL    HW232133   4.662   3.310   6.223 -0.5812 -1.1974  0.6184
 6892SOL     OW32134   4.225   1.426   6.150  0.9888  0.4554 -0.0984
 6892SOL    HW132135   4.268   1.512   6.154 -0.7824  1.3820 -0.7314
 6892SOL    HW232136   4.172   1.428   6.070  1.2736  2.0125 -0.2459
 6893SOL     OW32137   3.470   0.834   0.871  0.4896  0.2082 -0.3937
 6893SOL    HW132138   3.481   0.784   0.790 -3.6746 -1.7027  0.1976
 6893SOL    HW232139   3.403   0.898   0.847 -0.2121 -1.1389 -2.0713
 6894SOL     OW32140   4.355   1.339   4.910  0.2540  0.6063  0.0105
 6894SOL    HW132141   4.448   1.340   4.885 -0.2319  1.4944 -1.7824
 6894SOL    HW232142   4.312   1.368   4.830 -1.2107  1.4937  1.1357
 6895SOL     OW32143   2.925   0.586  17.246 -0.1486  0.1804 -0.1935
 6895SOL    HW132144   2.877   0.535  17.181  0.1573 -1.0510  0.5613
 6895SOL    HW232145   2.860   0.633  17.297  0.3515  0.6131  0.0513
 6896SOL     OW32146   2.631   0.327   5.081 -0.2747  0.7101 -0.5643
 6896SOL    HW132147   2.672   0.414   5.077  0.6066  0.2265 -1.9314
 6896SOL    HW232148   2.538   0.350   5.083 -0.3824  0.2016  0.5893
 6897SOL     OW32149   1.454   0.522   3.734 -0.3509  0.3359 -0.1335
 6897SOL    HW132150   1.413   0.600   3.772  1.8252  0.7539  1.3716
 6897SOL    HW232151   1.538   0.557   3.704 -1.0994  3.0519  0.9520
 6898SOL     OW32152   1.772   0.627   6.852  0.0711 -0.0716 -0.4209
 6898SOL    HW132153   1.721   0.583   6.920  0.7942 -0.3711 -0.0677
 6898SOL    HW232154   1.745   0.719   6.856 -0.4658 -0.1836 -1.4723
 6899SOL     OW32155   1.341   4.385   3.856  0.3469 -0.2596 -0.2260
 6899SOL    HW132156   1.296   4.395   3.773 -0.8343 -1.0626  0.3098
 6899SOL    HW232157   1.424   4.348   3.825 -0.1357 -0.1553 -1.6538
 6900SOL     OW32158   1.604   2.463   9.150 -0.3584 -0.1649  0.0141
 6900SOL    HW132159   1.621   2.369   9.149  0.2332 -0.0673  2.6723
 6900SOL    HW232160   1.518   2.466   9.193  0.0801 -0.8192  0.9397
 6901SOL     OW32161   1.688   0.054   5.986 -0.5656  0.2890  0.2230
 6901SOL    HW132162   1.709   4.694   6.021  0.0940  0.1591 -0.4813
 6901SOL    HW232163   1.716   0.120   6.049  2.8479 -0.7795 -0.1771
 6902SOL     OW32164   4.044   3.091  15.919 -0.2876  0.3127  0.2836
 6902SOL    HW132165   4.083   3.175  15.944  1.0922 -0.1969 -0.1359
 6902SOL    HW232166   4.096   3.028  15.969  0.1533 -0.5354 -1.2693
 6903SOL     OW32167   3.772   3.726   2.331 -0.2611 -0.6314 -0.2953
 6903SOL    HW132168   3.849   3.670   2.333 -0.6742 -1.0797  3.0091
 6903SOL    HW232169   3.733   3.708   2.246 -0.5501  2.3323 -0.8223
 6904SOL     OW32170   3.318   4.062   4.123  0.0029 -0.2684  0.1107
 6904SOL    HW132171   3.377   4.077   4.050 -0.3468  3.0079  0.5023
 6904SOL    HW232172   3.232   4.069   4.082 -0.9512 -0.6012  2.0353
 6905SOL     OW32173   1.596   2.143   5.613  0.1937 -0.3322 -0.2145
 6905SOL    HW132174   1.612   2.074   5.677  0.1939  0.4622  0.6371
 6905SOL    HW232175   1.590   2.225   5.661  1.1002 -0.7870  0.6601
 6906SOL     OW32176   3.898   0.249   6.547 -0.2425  0.0593 -0.2225
 6906SOL    HW132177   3.908   0.263   6.641  4.3648  1.0702 -0.8560
 6906SOL    HW232178   3.802   0.250   6.545 -0.3452  0.2103  3.7180
 6907SOL     OW32179   3.473   3.096   8.562 -0.1537 -0.0530  0.2975
 6907SOL    HW132180   3.494   3.089   8.655 -0.2959 -0.5580  0.2942
 6907SOL    HW232181   3.500   3.008   8.536 -0.0574 -0.3632  1.4569
 6908SOL     OW32182   0.283   0.149  15.866  0.2594 -1.1364 -0.1797
 6908SOL    HW132183   0.347   0.082  15.890  0.8493 -0.0872  1.1731
 6908SOL    HW232184   0.325   0.188  15.789  0.8824 -0.3351  0.5508
 6909SOL     OW32185   4.632   2.994  12.279 -0.2458 -0.0844  0.3521
 6909SOL    HW132186   4.681   3.053  12.222 -0.1393 -0.4794  0.0404
 6909SOL    HW232187   4.595   2.942  12.208 -0.2578 -0.3759  0.5716
 6910SOL     OW32188   4.411   2.727  11.549  0.6444 -0.1460  0.5603
 6910SOL    HW132189   4.351   2.736  11.476 -0.3681 -1.5060  1.2323
 6910SOL    HW232190   4.437   2.819  11.556  0.7768 -0.2569  1.5574
 6911SOL     OW32191   2.844   1.377   2.209  0.2167 -0.6611 -0.2950
 6911SOL    HW132192   2.871   1.468   2.222  0.5917 -0.5390 -1.9235
 6911SOL    HW232193   2.750   1.382   2.227  0.4397  1.8857  0.2241
 6912SOL     OW32194   4.237   2.522   6.088 -0.0386 -0.1525 -0.0403
 6912SOL    HW132195   4.225   2.599   6.033 -0.6171  0.2637  0.6755
 6912SOL    HW232196   4.251   2.550   6.178 -1.1946  1.1321 -0.2570
 6913SOL     OW32197   3.887   2.626   5.949  0.3068 -0.1285  0.2633
 6913SOL    HW132198   3.912   2.618   6.041  0.2449  0.7826  0.3610
 6913SOL    HW232199   3.895   2.540   5.909 -0.0465  1.4994 -3.2831
 6914SOL     OW32200   4.542   0.003   4.038 -0.1759  0.6604  0.0131
 6914SOL    HW132201   4.459   0.045   4.057  0.8471  2.2349  1.0160
 6914SOL    HW232202   4.581   0.061   3.972  1.7422 -1.2399 -0.5499
 6915SOL     OW32203   2.538   0.477  17.122  0.9237 -0.7936 -0.3385
 6915SOL    HW132204   2.471   0.459  17.057  1.4409  2.3111 -1.7614
 6915SOL    HW232205   2.508   0.566  17.142  1.8041 -0.8903  1.4781
 6916SOL     OW32206   0.782   4.192   2.899  0.4192  0.2554  0.2543
 6916SOL    HW132207   0.779   4.288   2.901  1.2156  0.2999 -1.5556
 6916SOL    HW232208   0.757   4.173   2.990  1.5461  0.4894  0.6043
 6917SOL     OW32209   1.256   3.270   5.693  0.4077  0.0361 -0.7718
 6917SOL    HW132210   1.188   3.285   5.759  0.5771 -0.9704 -0.3704
 6917SOL    HW232211   1.280   3.181   5.719  3.4319  0.6847 -1.3219
 6918SOL     OW32212   0.894   1.837  11.851 -0.0982  0.1599  0.1857
 6918SOL    HW132213   0.923   1.749  11.877  0.3402  1.2385  3.3564
 6918SOL    HW232214   0.959   1.896  11.889 -0.7269 -0.8544  2.8730
 6919SOL     OW32215   1.011   3.277   0.615 -0.4514  0.4876 -0.4089
 6919SOL    HW132216   0.987   3.331   0.540  1.4896 -1.9779 -2.8071
 6919SOL    HW232217   1.060   3.204   0.576 -1.3378  1.8298 -4.0261
 6920SOL     OW32218   3.011   4.642   5.562 -0.2766 -1.2128  0.3296
 6920SOL    HW132219   3.090   4.695   5.571  0.5769 -2.2884 -0.9437
 6920SOL    HW232220   2.961   4.698   5.502  0.7432 -0.4269  0.2084
 6921SOL     OW32221   0.766   4.443   7.259 -0.6199  0.1426  0.0458
 6921SOL    HW132222   0.702   4.412   7.195 -1.7444  2.0648  0.2304
 6921SOL    HW232223   0.770   4.537   7.246 -0.8330  0.1754  0.2241
 6922SOL     OW32224   0.591   3.318   8.818  0.1060 -0.2185 -0.1715
 6922SOL    HW132225   0.613   3.281   8.732 -0.3714  1.2586 -0.9352
 6922SOL    HW232226   0.674   3.311   8.866  0.2975 -0.3499 -0.5198
 6923SOL     OW32227   3.713   0.191   7.508  0.1030 -0.3071 -1.0660
 6923SOL    HW132228   3.631   0.192   7.558  1.1917 -1.2136  0.7430
 6923SOL    HW232229   3.713   0.286   7.494 -0.3471 -0.2400 -0.6111
 6924SOL     OW32230   0.711   1.171   0.231  0.0214 -0.6297 -0.2793
 6924SOL    HW132231   0.674   1.129   0.153 -0.2205  0.5169 -0.7778
 6924SOL    HW232232   0.794   1.126   0.248  0.9593  0.9135 -0.7998
 6925SOL     OW32233   3.597   1.134  16.949 -0.0393  0.5346 -0.0797
 6925SOL    HW132234   3.537   1.186  16.895  2.3286 -1.0349 -4.2055
 6925SOL    HW232235   3.570   1.165  17.036  0.7015 -1.5397  0.8819
 6926SOL     OW32236   2.135   3.409   1.988  0.3125  0.4441 -0.4126
 6926SOL    HW132237   2.108   3.494   1.954  1.6038  0.6927 -0.8399
 6926SOL    HW232238   2.211   3.447   2.031  0.8276  0.5720 -1.4386
 6927SOL     OW32239   4.089   0.540  13.452 -0.3442 -0.0440 -0.2003
 6927SOL    HW132240   4.073   0.482  13.527  2.4750 -2.7201 -1.6697
 6927SOL    HW232241   4.184   0.544  13.463 -0.5472 -1.2842  1.9801
 6928SOL     OW32242   3.072   0.648   5.377 -0.2305  0.3749  0.0861
 6928SOL    HW132243   3.121   0.643   5.295 -1.0004 -0.2209 -0.3401
 6928SOL    HW232244   3.094   0.737   5.403 -1.3004 -0.6626  4.5368
 6929SOL     OW32245   2.049   0.086   1.790  0.4067 -0.2084 -0.1526
 6929SOL    HW132246   1.993   0.143   1.844  2.6468 -0.8343  2.8373
 6929SOL    HW232247   2.130   0.114   1.832  0.2363 -0.7928  0.5794
 6930SOL     OW32248   1.138   1.523   0.946 -0.1886  0.2925  0.0476
 6930SOL    HW132249   1.076   1.595   0.954 -1.4554 -0.6058 -1.7609
 6930SOL    HW232250   1.177   1.523   1.033  1.5284 -0.6097 -0.7094
 6931SOL     OW32251   4.263   1.344   3.878  0.4996  0.0145  0.0726
 6931SOL    HW132252   4.175   1.367   3.908 -0.6470 -2.9372 -1.0086
 6931SOL    HW232253   4.313   1.387   3.947 -0.4010  0.8393  0.2134
 6932SOL     OW32254   4.678   0.958  11.274 -0.4428 -0.2149 -0.0715
 6932SOL    HW132255   0.038   0.974  11.310 -0.7844 -0.7393  0.9877
 6932SOL    HW232256   4.706   0.927  11.188 -2.3695 -0.8682 -0.4733
 6933SOL     OW32257   4.130   0.582   4.865  0.4969  0.3334 -0.1833
 6933SOL    HW132258   4.082   0.657   4.900  1.0578  0.8406 -0.5169
 6933SOL    HW232259   4.057   0.535   4.824  1.2013  1.6292 -2.9439
 6934SOL     OW32260   1.008   1.194   1.089  0.0122  0.1477  0.2274
 6934SOL    HW132261   0.975   1.106   1.075 -0.0696  0.3350 -0.7301
 6934SOL    HW232262   0.985   1.238   1.007 -1.9892 -1.2989 -0.0054
 6935SOL     OW32263   3.274   0.683   6.445  0.1381 -0.0299 -0.5154
 6935SOL    HW132264   3.196   0.700   6.497  1.2342 -0.9659  1.4414
 6935SOL    HW232265   3.306   0.598   6.474 -0.6967 -0.0253  0.4018
 6936SOL     OW32266   2.757   4.081   3.231 -0.2161  0.4685  0.3881
 6936SOL    HW132267   2.698   4.154   3.248 -1.1637 -0.2403  0.0899
 6936SOL    HW232268   2.705   4.015   3.185  0.8160 -0.8508  1.0874
 6937SOL     OW32269   0.770   1.372   6.685 -0.0222 -0.7760 -0.2469
 6937SOL    HW132270   0.834   1.353   6.617  0.5831  1.2515 -0.2418
 6937SOL    HW232271   0.747   1.282   6.710  1.3021 -0.2831  2.8029
 6938SOL     OW32272   0.367   0.020   1.143  0.1857 -0.2025  0.1846
 6938SOL    HW132273   0.304   0.008   1.072 -0.2144 -0.8756  0.6547
 6938SOL    HW232274   0.315   0.004   1.222 -0.5233  0.4533 -0.1515
 6939SOL     OW32275   2.149   3.582  10.554  0.4114 -0.3398  0.1292
 6939SOL    HW132276   2.081   3.624  10.501 -0.1155  0.2633  1.2901
 6939SOL    HW232277   2.191   3.532  10.485 -0.4950 -0.7624 -0.1134
 6940SOL     OW32278   0.561   3.558  17.155  0.0567  0.1435 -0.2621
 6940SOL    HW132279   0.583   3.648  17.175 -0.0593  0.4621 -1.5380
 6940SOL    HW232280   0.643   3.512  17.172  1.5424  1.2946 -4.1840
 6941SOL     OW32281   4.128   0.700   8.530  0.2691 -0.2985  0.3618
 6941SOL    HW132282   4.087   0.699   8.616 -2.1004  2.8587 -0.7323
 6941SOL    HW232283   4.154   0.792   8.525 -2.7090  0.5060 -0.5621
 6942SOL     OW32284   2.793   0.881   1.558  0.8707  0.4105  0.1400
 6942SOL    HW132285   2.870   0.935   1.577 -0.1825  1.2854  1.9787
 6942SOL    HW232286   2.816   0.792   1.585  1.1623  0.5160  0.2363
 6943SOL     OW32287   0.818   3.167   3.486 -1.4814  0.0927  0.2357
 6943SOL    HW132288   0.813   3.262   3.473  0.0193  0.1097 -0.1978
 6943SOL    HW232289   0.837   3.134   3.398  1.6064  1.0092  0.5557
 6944SOL     OW32290   4.669   4.411   6.936 -0.3770 -0.8745 -0.3389
 6944SOL    HW132291   0.019   4.355   6.928  0.5882  0.3479  0.3098
 6944SOL    HW232292   4.607   4.358   6.987  1.9607 -0.7767  2.6127
 6945SOL     OW32293   3.749   3.430   4.046  0.4702 -0.2745  0.1446
 6945SOL    HW132294   3.787   3.345   4.024 -0.8289 -0.8359  0.0596
 6945SOL    HW232295   3.817   3.461   4.106 -0.2566  0.8143  0.4039
 6946SOL     OW32296   0.235   2.449  12.165 -0.0710 -0.1826  1.0392
 6946SOL    HW132297   0.320   2.436  12.207 -0.5862  0.3654  2.2622
 6946SOL    HW232298   0.197   2.523  12.213  1.9533  1.2369  0.4240
 6947SOL     OW32299   4.500   2.401   3.721  0.0454 -0.2629  0.3451
 6947SOL    HW132300   4.446   2.470   3.759 -0.2162 -0.3338  0.0977
 6947SOL    HW232301   4.450   2.326   3.753  0.7045 -0.1498  1.6605
 6948SOL     OW32302   0.088   2.312   3.512 -0.6330 -0.0578 -0.0920
 6948SOL    HW132303   0.176   2.328   3.478 -0.7781 -0.2338 -0.5573
 6948SOL    HW232304   0.039   2.360   3.445 -0.1308 -0.9744 -1.1405
 6949SOL     OW32305   1.389   3.735  16.400  0.0970  0.0159 -0.5156
 6949SOL    HW132306   1.320   3.669  16.404 -0.0728  0.1717 -0.8832
 6949SOL    HW232307   1.351   3.814  16.361  0.8950 -0.2092 -1.7357
 6950SOL     OW32308   0.713   0.234   2.283 -0.2583 -0.1555 -0.0838
 6950SOL    HW132309   0.663   0.156   2.260 -1.2399  0.4068  0.0916
 6950SOL    HW232310   0.772   0.247   2.209 -0.7882  1.1929 -0.2862
 6951SOL     OW32311   3.912   4.543   4.035  0.2452 -0.1033 -0.1023
 6951SOL    HW132312   3.926   4.619   3.979  0.6896  1.2786  1.8812
 6951SOL    HW232313   3.885   4.476   3.972  0.7167  0.7637 -1.2377
 6952SOL     OW32314   4.052   1.517   0.276  0.1674 -0.2984 -0.0033
 6952SOL    HW132315   4.141   1.520   0.241 -0.1063  1.7724 -0.5061
 6952SOL    HW232316   4.008   1.579   0.217 -0.4288 -0.3596  0.3756
 6953SOL     OW32317   3.727   0.950  11.894 -0.6839 -0.6514  0.3087
 6953SOL    HW132318   3.679   0.914  11.820  2.2053 -2.3617 -0.7210
 6953SOL    HW232319   3.761   0.871  11.937  2.7471 -0.3879 -1.9151
 6954SOL     OW32320   3.182   2.064  13.623  0.4658 -0.4060 -0.7492
 6954SOL    HW132321   3.264   2.106  13.594  0.4591  0.4427  0.4828
 6954SOL    HW232322   3.180   1.989  13.563  1.4962 -1.1421  0.1243
 6955SOL     OW32323   3.087   1.911   5.960 -0.7018  0.2700  0.3928
 6955SOL    HW132324   3.133   1.917   6.043 -1.6986  0.0172  0.9672
 6955SOL    HW232325   3.075   2.005   5.944  1.2040  0.4122 -0.1500
 6956SOL     OW32326   4.514   1.337   2.513 -0.3773  0.7714  0.4962
 6956SOL    HW132327   4.460   1.334   2.434  1.9868  0.5373 -1.1183
 6956SOL    HW232328   4.593   1.302   2.470  0.2207  2.3963  0.2711
 6957SOL     OW32329   0.559   1.980  10.931  0.9176  0.0382 -0.4850
 6957SOL    HW132330   0.484   1.980  10.990 -0.8460 -0.5153 -2.7192
 6957SOL    HW232331   0.519   2.023  10.855  0.2924  0.2773 -0.0157
 6958SOL     OW32332   0.585   4.138   7.632 -0.5069 -0.1264  0.5351
 6958SOL    HW132333   0.560   4.162   7.542 -0.2885 -0.5763  0.3522
 6958SOL    HW232334   0.508   4.090   7.661 -0.0116 -0.8284  0.7015
 6959SOL     OW32335   3.768   0.814   4.299 -0.1025  0.2273  0.0153
 6959SOL    HW132336   3.674   0.808   4.285 -0.2895  1.3658  0.7943
 6959SOL    HW232337   3.781   0.785   4.389 -1.4060 -2.9629 -0.8197
 6960SOL     OW32338   3.446   1.758   8.077 -0.0174 -0.2425  0.3678
 6960SOL    HW132339   3.498   1.833   8.105 -1.4453  0.4373  1.1765
 6960SOL    HW232340   3.399   1.734   8.156  0.8474  0.8419  1.2139
 6961SOL     OW32341   0.038   2.686   6.406  0.5337  0.8560  0.4173
 6961SOL    HW132342   0.069   2.597   6.423  0.9675  0.9806  0.2616
 6961SOL    HW232343   4.702   2.703   6.476 -0.8258 -0.8709 -0.3547
 6962SOL     OW32344   1.051   4.679   8.358  0.5575  0.0592 -0.5806
 6962SOL    HW132345   0.956   4.686   8.360  0.5389 -0.0681 -0.9141
 6962SOL    HW232346   1.068   4.638   8.273 -3.1122 -2.1456 -0.2440
 6963SOL     OW32347   3.811   4.469  10.374  0.7767  0.3922 -0.2994
 6963SOL    HW132348   3.728   4.516  10.384  1.0600  0.5845  1.1978
 6963SOL    HW232349   3.776   4.380  10.368  0.8760  0.2813  0.7367
 6964SOL     OW32350   1.187   2.253   4.627 -0.8362  0.0376 -0.7625
 6964SOL    HW132351   1.170   2.324   4.690  1.7747 -0.5445  0.6048
 6964SOL    HW232352   1.278   2.266   4.599  0.5272 -1.8056  2.7632
 6965SOL     OW32353   2.248   3.751   2.946 -0.2766  0.1550 -0.3647
 6965SOL    HW132354   2.254   3.835   2.992 -1.5379  1.0860 -1.9282
 6965SOL    HW232355   2.323   3.697   2.971 -0.6901 -0.2934 -0.0981
 6966SOL     OW32356   3.925   1.843  10.792  0.3167  0.5389  1.2452
 6966SOL    HW132357   3.996   1.817  10.850 -0.3232  0.1693  1.8537
 6966SOL    HW232358   3.970   1.897  10.727  0.2437 -0.4420  0.3834
 6967SOL     OW32359   3.085   4.318   7.472 -0.3531  0.2598  0.2628
 6967SOL    HW132360   3.007   4.270   7.496  0.5016 -0.8963  0.7183
 6967SOL    HW232361   3.065   4.409   7.494 -1.1494 -0.3270  1.9058
 6968SOL     OW32362   0.627   3.272  15.129 -0.3349  0.0693  0.1979
 6968SOL    HW132363   0.543   3.302  15.163  0.4899  1.4975  1.0217
 6968SOL    HW232364   0.595   3.210  15.064 -1.9156 -1.4495  2.4401
 6969SOL     OW32365   3.147   4.396   1.133  0.0664  0.0767 -0.1579
 6969SOL    HW132366   3.202   4.386   1.211 -1.1823  1.2162  0.8709
 6969SOL    HW232367   3.063   4.375   1.173  0.0197 -0.2667 -0.4344
 6970SOL     OW32368   3.078   3.555   2.616 -0.5307 -0.0819 -0.1512
 6970SOL    HW132369   3.162   3.516   2.641 -0.0067  3.4663  3.8341
 6970SOL    HW232370   3.013   3.493   2.647  0.3385 -1.2664 -0.7190
 6971SOL     OW32371   3.653   3.490   0.198  0.4265  0.3993 -0.2538
 6971SOL    HW132372   3.682   3.405   0.166  0.1564  0.2024  0.0228
 6971SOL    HW232373   3.568   3.488   0.154  0.7875 -1.1669 -0.8756
 6972SOL     OW32374   4.414   1.323   8.475  0.6058 -0.1006  0.5046
 6972SOL    HW132375   4.472   1.246   8.475  0.8995  0.1223  0.8010
 6972SOL    HW232376   4.430   1.339   8.382 -0.1546 -1.0199  0.2197
 6973SOL     OW32377   0.813   2.959   8.755  0.2987 -0.1257  0.0093
 6973SOL    HW132378   0.820   2.933   8.663  0.1676 -0.2940  0.0476
 6973SOL    HW232379   0.747   3.027   8.743 -0.1870 -0.4716  0.7126
 6974SOL     OW32380   2.344   1.521   3.308 -0.1706 -0.1613  0.1141
 6974SOL    HW132381   2.325   1.588   3.243 -1.1915 -0.6581 -0.1065
 6974SOL    HW232382   2.437   1.541   3.319  0.3609 -2.1585 -0.6953
 6975SOL     OW32383   2.751   2.361   5.454 -0.1516  0.4526 -0.0992
 6975SOL    HW132384   2.764   2.331   5.544 -3.7909  1.4994  0.7796
 6975SOL    HW232385   2.657   2.358   5.441 -0.2832  2.2071  0.4035
 6976SOL     OW32386   0.268   0.259   3.726  0.1061 -0.1541  0.4434
 6976SOL    HW132387   0.303   0.230   3.810  2.2997  2.8909  0.5976
 6976SOL    HW232388   0.232   0.173   3.706 -1.1373  0.2403  0.9556
 6977SOL     OW32389   4.500   3.538   3.086  1.2065 -0.1819  0.1042
 6977SOL    HW132390   4.517   3.593   3.162 -0.6036  0.1777  0.2476
 6977SOL    HW232391   4.477   3.456   3.130  0.9868 -1.4533 -2.3804
 6978SOL     OW32392   0.244   0.919   9.097 -0.0853  0.0234 -0.0808
 6978SOL    HW132393   0.339   0.928   9.101 -0.0734 -0.2736  0.3574
 6978SOL    HW232394   0.243   0.824   9.085  0.6995 -0.3066  2.4908
 6979SOL     OW32395   4.587   4.294   4.373 -0.1813 -0.4035 -0.0985
 6979SOL    HW132396   4.519   4.322   4.311  1.7025  0.5023 -1.7715
 6979SOL    HW232397   4.536   4.294   4.454 -0.2269 -0.3204 -0.1270
 6980SOL     OW32398   2.264   4.237   2.810 -0.2902  0.1676  0.7451
 6980SOL    HW132399   2.309   4.319   2.830  0.8065  0.6150 -3.4972
 6980SOL    HW232400   2.336   4.179   2.834  0.9283 -0.1124 -3.5499
 6981SOL     OW32401   3.199   3.897   8.318 -0.4822 -0.1126 -0.3894
 6981SOL    HW132402   3.274   3.863   8.269  0.4794 -0.8070  1.5749
 6981SOL    HW232403   3.238   3.889   8.405 -0.8344 -1.4252 -0.3599
 6982SOL     OW32404   4.436   2.368  11.210 -0.4054 -0.2345  0.5052
 6982SOL    HW132405   4.490   2.290  11.204  1.3811  1.1853 -1.5516
 6982SOL    HW232406   4.460   2.400  11.297  2.2704 -0.9811  0.0175
 6983SOL     OW32407   3.285   3.588   0.965  0.4100 -0.1255 -0.4631
 6983SOL    HW132408   3.249   3.651   0.902 -1.2579 -0.9643 -0.3527
 6983SOL    HW232409   3.341   3.534   0.909  1.9114 -0.9731  1.8845
 6984SOL     OW32410   1.387   3.445  11.648  0.8644  0.0909  0.4193
 6984SOL    HW132411   1.295   3.470  11.652  0.6297 -0.6004 -0.6027
 6984SOL    HW232412   1.417   3.523  11.694 -0.8351  1.0053 -0.0445
 6985SOL     OW32413   1.754   2.428  10.799  0.3708 -0.9392 -0.0419
 6985SOL    HW132414   1.824   2.399  10.858 -0.4331  1.7726  2.2429
 6985SOL    HW232415   1.705   2.347  10.789 -3.4727  1.3132  0.7612
 6986SOL     OW32416   3.316   2.667   8.396 -0.3004  0.1709 -0.2608
 6986SOL    HW132417   3.303   2.642   8.304  0.0141 -0.1375 -0.2227
 6986SOL    HW232418   3.313   2.762   8.394  0.8071  0.2354  1.7023
 6987SOL     OW32419   0.571   0.481   4.568 -0.2473  0.9682  0.1912
 6987SOL    HW132420   0.556   0.574   4.552  2.0768  1.3261  0.0437
 6987SOL    HW232421   0.485   0.465   4.607  0.2135  0.4642  1.0071
 6988SOL     OW32422   1.923   1.334   6.082  0.5176 -0.4364 -0.2082
 6988SOL    HW132423   2.010   1.293   6.084  0.7100 -0.0281 -0.2621
 6988SOL    HW232424   1.955   1.402   6.141 -0.8179  1.0454 -1.2144
 6989SOL     OW32425   4.726   1.320  17.081 -0.5396 -0.2005  0.1673
 6989SOL    HW132426   0.019   1.358  17.167 -2.0779 -0.9199  0.8401
 6989SOL    HW232427   4.683   1.237  17.105  1.6027 -1.9638 -2.1264
 6990SOL     OW32428   1.600   1.415   1.546 -0.3519 -0.3741  0.8499
 6990SOL    HW132429   1.551   1.335   1.565 -1.4925  0.3915  1.1074
 6990SOL    HW232430   1.530   1.480   1.554 -0.7018 -0.4696 -1.3744
 6991SOL     OW32431   1.764   3.936   5.329 -0.7082 -0.7941  0.2994
 6991SOL    HW132432   1.799   3.973   5.248  0.1960 -0.1110  1.0059
 6991SOL    HW232433   1.752   3.853   5.283 -1.5548 -1.2532  1.3405
 6992SOL     OW32434   4.556   1.667   1.085  0.1040  0.1398 -0.0890
 6992SOL    HW132435   4.582   1.753   1.118 -2.3845  0.9918 -0.3320
 6992SOL    HW232436   4.498   1.689   1.012  2.5303  2.1009 -1.4671
 6993SOL     OW32437   4.361   0.575  13.542  0.5052  0.2008 -0.5486
 6993SOL    HW132438   4.372   0.523  13.462  1.6036  0.3819 -0.5153
 6993SOL    HW232439   4.372   0.502  13.603 -0.2210 -0.2326 -0.9364
 6994SOL     OW32440   1.636   2.929  15.335  0.4837  0.0379 -0.0248
 6994SOL    HW132441   1.599   2.974  15.258  1.3375 -0.1303 -0.5264
 6994SOL    HW232442   1.729   2.929  15.314  1.0497  2.0875  2.5320
 6995SOL     OW32443   0.621   3.183   3.135  0.3884 -0.6136  0.2045
 6995SOL    HW132444   0.579   3.127   3.200 -1.9127  0.2573 -0.5175
 6995SOL    HW232445   0.713   3.168   3.153 -0.1698 -1.6382  2.2389
 6996SOL     OW32446   4.723   2.232   9.118  0.1863  0.3975 -0.6615
 6996SOL    HW132447   0.042   2.250   9.200 -1.6287  0.1297  0.4209
 6996SOL    HW232448   0.055   2.198   9.050 -0.1872 -1.3490 -0.1303
 6997SOL     OW32449   0.761   1.346   6.051 -0.6832 -0.5336 -0.7029
 6997SOL    HW132450   0.672   1.329   6.079 -0.9936  0.3260 -1.1669
 6997SOL    HW232451   0.806   1.361   6.134  0.6338  0.4696 -1.5976
 6998SOL     OW32452   0.733   1.975  15.865  0.1442 -0.1052  0.2590
 6998SOL    HW132453   0.800   1.933  15.811  0.4325  3.4456 -2.1642
 6998SOL    HW232454   0.788   1.997  15.941  0.2586 -0.9505  0.4200
 6999SOL     OW32455   3.652   0.697   6.898  0.0560  0.1760 -0.2088
 6999SOL    HW132456   3.597   0.628   6.935 -1.8254  2.0140  0.4231
 6999SOL    HW232457   3.599   0.776   6.885  1.6075  1.1367 -0.7161
 7000SOL     OW32458   1.742   2.072   2.562 -0.4045 -0.0143 -0.0334
 7000SOL    HW132459   1.793   2.009   2.613  1.1313  1.1836 -0.0831
 7000SOL    HW232460   1.712   2.129   2.633  0.3557 -0.5051  0.6969
 7001SOL     OW32461   1.232   0.413  17.216 -0.1664 -0.5282  0.0231
 7001SOL    HW132462   1.205   0.360  17.291  0.1150  0.6944  0.9862
 7001SOL    HW232463   1.176   0.488  17.238  0.0013 -0.2170 -0.6076
 7002SOL     OW32464   1.030   2.382   2.481 -0.4655  0.5277  0.7890
 7002SOL    HW132465   1.110   2.432   2.493 -0.2347  0.2189  0.5406
 7002SOL    HW232466   0.997   2.435   2.408 -0.7802  1.5783  1.6873
 7003SOL     OW32467   2.749   2.682  15.055  0.2723 -0.3289 -0.3434
 7003SOL    HW132468   2.716   2.723  14.975  1.5435 -0.1936 -0.7925
 7003SOL    HW232469   2.712   2.595  15.038 -1.0728  0.3380 -0.8840
 7004SOL     OW32470   2.080   1.097   2.055  0.0150 -0.0273  0.3985
 7004SOL    HW132471   2.077   1.111   1.961  1.0468 -0.7560  0.2605
 7004SOL    HW232472   1.993   1.063   2.078  0.5560 -1.2704  0.5935
 7005SOL     OW32473   2.120   2.298  16.968  0.0461 -0.2830 -0.0569
 7005SOL    HW132474   2.090   2.359  17.036 -0.2630 -2.5092  1.7757
 7005SOL    HW232475   2.049   2.241  16.942  0.8156 -1.1747 -0.1998
 7006SOL     OW32476   2.038   3.203   6.412 -0.7926 -0.1462  0.1277
 7006SOL    HW132477   2.011   3.189   6.503  0.8679  1.5503  0.8617
 7006SOL    HW232478   1.990   3.285   6.400 -0.1331  0.2985  0.5371
 7007SOL     OW32479   3.825   0.907   8.752  0.0594 -0.3427 -0.0329
 7007SOL    HW132480   3.860   0.996   8.752  0.4604 -0.5105 -2.4756
 7007SOL    HW232481   3.745   0.919   8.700  0.6811  1.0834 -0.6602
 7008SOL     OW32482   1.252   0.286   9.342 -0.3445  0.2303  0.4551
 7008SOL    HW132483   1.319   0.321   9.282  0.4597 -0.6797  0.8208
 7008SOL    HW232484   1.176   0.337   9.315  0.6273  1.2426 -0.3867
 7009SOL     OW32485   3.099   0.385  16.234 -0.4225  0.3389 -0.5726
 7009SOL    HW132486   3.131   0.312  16.288 -0.2414  1.7090  1.1796
 7009SOL    HW232487   3.156   0.389  16.158  1.2952 -0.9760  0.6592
 7010SOL     OW32488   2.847   1.796   0.574 -0.4330  0.3913 -0.3840
 7010SOL    HW132489   2.811   1.840   0.497 -1.4565 -1.1823 -0.7903
 7010SOL    HW232490   2.895   1.871   0.609  2.6631 -0.7720 -2.1197
 7011SOL     OW32491   1.223   1.999   7.806  0.8727  0.4124 -0.3085
 7011SOL    HW132492   1.172   1.928   7.845 -0.4677  1.3157 -0.4145
 7011SOL    HW232493   1.164   2.071   7.787  0.0683 -0.0098  0.6157
 7012SOL     OW32494   2.535   0.938   1.621  0.3890 -0.0897 -0.6057
 7012SOL    HW132495   2.538   0.998   1.546 -0.0680  0.7747  0.0752
 7012SOL    HW232496   2.624   0.903   1.613  1.7997  3.1591  0.9873
 7013SOL     OW32497   3.195   2.129   3.212 -0.0188  0.4478  0.1243
 7013SOL    HW132498   3.284   2.130   3.177 -0.3301 -1.4373 -0.7223
 7013SOL    HW232499   3.178   2.223   3.216 -2.4330 -0.0177  0.7153
 7014SOL     OW32500   3.952   1.946  16.023  0.2377 -0.7102  0.2739
 7014SOL    HW132501   3.904   2.010  15.971 -1.8004 -2.8174 -0.4075
 7014SOL    HW232502   4.039   1.986  16.025 -1.4848  3.0735 -1.5393
 7015SOL     OW32503   2.081   1.932   6.030  0.1644  0.1739  0.0446
 7015SOL    HW132504   2.048   1.966   6.113 -1.7063 -0.4237 -0.4603
 7015SOL    HW232505   1.999   1.902   5.991  0.6282  0.9045 -1.4772
 7016SOL     OW32506   2.337   4.572  11.019 -0.5964 -0.1522  0.0968
 7016SOL    HW132507   2.397   4.629  11.066 -1.0279  1.7795 -1.6810
 7016SOL    HW232508   2.328   4.501  11.082  0.4612  1.7610  2.3895
 7017SOL     OW32509   3.587   4.421   0.945  0.1768  0.2512 -0.5774
 7017SOL    HW132510   3.555   4.506   0.974 -0.2124  0.6719 -2.2550
 7017SOL    HW232511   3.680   4.437   0.960  0.4474 -1.2968 -0.6495
 7018SOL     OW32512   0.967   4.043   3.513 -0.0494 -0.1521 -0.0208
 7018SOL    HW132513   1.033   3.998   3.566  0.2610  0.6733  0.3007
 7018SOL    HW232514   0.922   4.094   3.580 -0.3035 -0.7126  0.2264
 7019SOL     OW32515   4.144   3.838   8.899 -0.1444 -0.2167  0.4938
 7019SOL    HW132516   4.096   3.882   8.829 -0.0610 -1.7609 -0.5348
 7019SOL    HW232517   4.163   3.760   8.846  0.2671  0.8131 -0.8759
 7020SOL     OW32518   2.551   0.184   5.753  0.0917  0.3900 -0.2177
 7020SOL    HW132519   2.644   0.203   5.765  0.4875 -1.4876 -0.3310
 7020SOL    HW232520   2.526   0.265   5.708 -1.5323 -0.4876 -0.8886
 7021SOL     OW32521   1.613   1.603  14.274 -0.2676  0.5938  0.3057
 7021SOL    HW132522   1.529   1.591  14.231  0.2728 -0.4689 -0.4768
 7021SOL    HW232523   1.660   1.609  14.191 -1.5062 -3.8066 -0.7285
 7022SOL     OW32524   0.073   2.440   6.669  0.1158 -0.4204 -0.2024
 7022SOL    HW132525   0.083   2.359   6.617  1.3101 -0.7152  0.4895
 7022SOL    HW232526   0.133   2.498   6.622  0.8147 -1.1787 -0.2523
 7023SOL     OW32527   3.678   0.056  10.173 -0.0745 -0.3500 -0.7620
 7023SOL    HW132528   3.767   0.048  10.140 -0.9335 -1.2292 -2.8965
 7023SOL    HW232529   3.636   4.722  10.111  2.6019 -1.8514 -1.1293
 7024SOL     OW32530   1.094   1.948  13.202  0.4812  0.4925  0.1253
 7024SOL    HW132531   1.160   1.885  13.174 -1.0409 -1.2790  0.5469
 7024SOL    HW232532   1.079   2.001  13.124 -0.4070 -0.5532 -0.4115
 7025SOL     OW32533   3.022   1.821   9.408 -0.1000 -0.7552  0.5175
 7025SOL    HW132534   2.969   1.776   9.475  0.6335 -3.1772 -0.5416
 7025SOL    HW232535   3.092   1.861   9.459 -0.1738 -0.2297  0.1982
 7026SOL     OW32536   0.680   3.083   6.937 -0.1636  0.1074  0.3953
 7026SOL    HW132537   0.687   3.003   6.990 -1.0926 -0.0922  0.2170
 7026SOL    HW232538   0.621   3.131   6.995 -0.7932  1.1722 -1.1272
 7027SOL     OW32539   4.060   0.459   2.849  0.2326  0.0618  0.0410
 7027SOL    HW132540   3.968   0.481   2.833  0.4531  1.5924  0.9230
 7027SOL    HW232541   4.054   0.470   2.944  0.3041  1.0225 -0.0708
 7028SOL     OW32542   0.342   3.745  13.845 -0.2882  0.1791 -0.0204
 7028SOL    HW132543   0.304   3.728  13.931  0.7931  2.5675  0.9213
 7028SOL    HW232544   0.276   3.709  13.785 -0.8427  0.9957  0.1014
 7029SOL     OW32545   4.327   4.232   8.531  1.1339 -0.0448 -0.6425
 7029SOL    HW132546   4.318   4.138   8.549  2.3178  0.2025  1.1885
 7029SOL    HW232547   4.260   4.264   8.591  1.2840  0.6953 -0.8741
 7030SOL     OW32548   3.686   0.384   7.198 -0.1218 -0.0007 -0.7262
 7030SOL    HW132549   3.779   0.400   7.179  0.6799 -2.6767  0.9798
 7030SOL    HW232550   3.673   0.295   7.165 -2.1900  0.2776 -0.6321
 7031SOL     OW32551   4.709   1.992   8.658 -0.7104  0.4581 -0.2564
 7031SOL    HW132552   4.698   2.079   8.620  0.2676  0.7059  0.0273
 7031SOL    HW232553   4.623   1.982   8.699 -1.0379  1.0848 -0.7935
 7032SOL     OW32554   4.522   1.686  17.229 -0.1243  0.2870  0.5438
 7032SOL    HW132555   4.469   1.625  17.178  0.5588 -0.3418  0.5912
 7032SOL    HW232556   4.606   1.678  17.184 -0.3508  0.3166  0.1062
 7033SOL     OW32557   0.418   0.667   3.797 -0.0156  0.1463  0.5694
 7033SOL    HW132558   0.426   0.746   3.850  2.0527  0.3176  0.0209
 7033SOL    HW232559   0.425   0.603   3.868 -2.5262 -1.7523 -0.8936
 7034SOL     OW32560   4.128   4.717   0.399  0.1574 -0.2274 -0.7322
 7034SOL    HW132561   4.088   4.705   0.313 -0.3386 -1.0971 -0.3818
 7034SOL    HW232562   4.218   4.689   0.380  1.0644  0.7174  2.2188
 7035SOL     OW32563   1.669   2.525   5.404 -0.1241 -0.8298 -0.9163
 7035SOL    HW132564   1.734   2.455   5.400  2.3621  1.4585 -1.0472
 7035SOL    HW232565   1.659   2.527   5.499 -1.8864  0.4449 -1.1275
 7036SOL     OW32566   1.059   4.587  14.544 -0.8693  0.2534  0.7164
 7036SOL    HW132567   1.081   4.564  14.634 -1.4396 -1.9466  0.2835
 7036SOL    HW232568   1.031   4.505  14.504 -0.1274  0.6670 -0.6520
 7037SOL     OW32569   0.258   1.307   2.529 -0.2106 -0.1117 -0.3285
 7037SOL    HW132570   0.207   1.387   2.540 -0.2389 -0.2848  0.7451
 7037SOL    HW232571   0.199   1.249   2.577  1.0138 -1.1136 -0.0335
 7038SOL     OW32572   1.148   4.712   9.689 -0.5997 -0.5202  0.2235
 7038SOL    HW132573   1.070   4.683   9.737 -3.4248  0.2998 -3.7858
 7038SOL    HW232574   1.125   0.066   9.643  0.5691 -0.8012 -0.8518
 7039SOL     OW32575   2.645   0.969   9.015 -0.5318 -0.1799  0.1255
 7039SOL    HW132576   2.726   0.957   9.065 -1.0611 -2.9204  0.3528
 7039SOL    HW232577   2.686   0.997   8.934 -0.0989  2.2957  1.1847
 7040SOL     OW32578   1.460   1.466   8.197 -0.0097  0.0897  0.5468
 7040SOL    HW132579   1.453   1.543   8.141 -3.1008 -0.5502  0.0804
 7040SOL    HW232580   1.553   1.462   8.220  0.0500 -1.3146  0.0618
 7041SOL     OW32581   3.124   2.066   7.281  0.7835 -0.6059 -0.5944
 7041SOL    HW132582   3.131   2.107   7.367 -0.7045  0.0142 -0.7601
 7041SOL    HW232583   3.103   1.976   7.307  0.7286  0.1491  2.0020
 7042SOL     OW32584   1.654   2.066   6.517  0.1372 -0.2289  0.1818
 7042SOL    HW132585   1.560   2.061   6.501  0.0696  1.2248  0.1330
 7042SOL    HW232586   1.675   2.006   6.590 -2.6632  1.7449  2.6107
 7043SOL     OW32587   1.729   1.586  14.523 -0.4034  0.4412  0.2912
 7043SOL    HW132588   1.641   1.612  14.551 -0.8187  1.7019 -2.1119
 7043SOL    HW232589   1.714   1.602  14.429  0.5107  0.9539  0.2332
 7044SOL     OW32590   2.632   2.105   5.923  0.1849  0.4793 -0.1585
 7044SOL    HW132591   2.573   2.156   5.977 -0.0358  1.2764 -1.1677
 7044SOL    HW232592   2.583   2.044   5.868 -0.4527  0.0331  0.9189
 7045SOL     OW32593   0.549   2.155  14.459  0.3964 -0.0886 -0.3926
 7045SOL    HW132594   0.474   2.191  14.507  1.1682 -1.7409  2.0360
 7045SOL    HW232595   0.539   2.060  14.464 -0.5989 -0.0376 -1.3669
 7046SOL     OW32596   0.500   1.080   5.967  0.8985 -0.4818  0.5028
 7046SOL    HW132597   0.516   1.017   6.037  0.5788 -0.5683  0.4947
 7046SOL    HW232598   0.498   1.162   6.017 -0.8903 -0.7694  0.9043
 7047SOL     OW32599   1.731   2.171  15.347  0.1853 -0.3799 -0.2912
 7047SOL    HW132600   1.655   2.208  15.302  0.1569  0.0476  0.1139
 7047SOL    HW232601   1.715   2.077  15.345  1.1387 -0.5714  1.5068
 7048SOL     OW32602   3.592   0.472   0.022 -0.6160  0.3288 -0.1626
 7048SOL    HW132603   3.562   0.542  17.671 -3.3218  0.1386  1.0020
 7048SOL    HW232604   3.581   0.514   0.107  1.0106  1.0256 -0.2802
 7049SOL     OW32605   0.117   3.812   0.731  0.0009  0.5628  0.0297
 7049SOL    HW132606   0.076   3.842   0.812 -0.2657  0.3201 -0.0175
 7049SOL    HW232607   0.113   3.893   0.679  1.2684  1.9432  2.0742
 7050SOL     OW32608   4.285   0.999   4.733 -0.7121 -0.1915  0.2556
 7050SOL    HW132609   4.371   0.990   4.691 -0.6010  0.4481  0.3390
 7050SOL    HW232610   4.254   1.087   4.715 -1.5389 -0.7732 -1.1116
 7051SOL     OW32611   2.394   0.861   3.393  0.1321  0.4982  0.2462
 7051SOL    HW132612   2.373   0.954   3.403 -1.6388  0.1747 -0.5745
 7051SOL    HW232613   2.356   0.831   3.476 -1.1227  1.8042  0.1478
 7052SOL     OW32614   4.274   4.071   2.288 -0.3309  0.5013  0.1062
 7052SOL    HW132615   4.306   4.044   2.201 -0.3022 -0.0770  0.2949
 7052SOL    HW232616   4.253   4.162   2.268  0.0860  1.1481  2.7370
 7053SOL     OW32617   3.843   0.620   0.466  0.1025 -0.2113  0.0861
 7053SOL    HW132618   3.774   0.560   0.497  0.6611 -0.5678  0.6292
 7053SOL    HW232619   3.903   0.558   0.425 -1.6426 -1.4765 -0.5427
 7054SOL     OW32620   3.161   1.317   2.426  0.1471  0.4477  0.2336
 7054SOL    HW132621   3.147   1.374   2.350  2.3821  2.4357  1.3252
 7054SOL    HW232622   3.239   1.266   2.406 -1.0371 -0.8624 -1.0724
 7055SOL     OW32623   1.722   0.748   3.108  0.0526  0.1750  0.0926
 7055SOL    HW132624   1.786   0.799   3.157 -2.2093  2.7008  0.4398
 7055SOL    HW232625   1.685   0.813   3.049 -1.2759  1.0530  1.8977
 7056SOL     OW32626   0.047   1.058   9.185 -0.1111 -0.1441 -0.1976
 7056SOL    HW132627   0.062   1.061   9.279 -1.3273  0.7944 -0.0273
 7056SOL    HW232628   0.124   1.012   9.154  0.9238  0.7658  1.0364
 7057SOL     OW32629   1.323   2.975   5.110 -0.0339 -0.0452 -0.1245
 7057SOL    HW132630   1.303   3.066   5.087  0.3928  0.3783  1.2063
 7057SOL    HW232631   1.415   2.960   5.092 -1.0807 -1.5544 -4.2201
 7058SOL     OW32632   4.367   0.926   9.212 -0.2591  0.1003  0.0492
 7058SOL    HW132633   4.290   0.923   9.155  0.6916  1.9842 -1.3255
 7058SOL    HW232634   4.440   0.903   9.155 -0.6657 -0.5142 -0.2236
 7059SOL     OW32635   3.276   4.374   9.772 -0.1835  0.2983 -0.0757
 7059SOL    HW132636   3.275   4.278   9.770 -0.9859  0.3056 -0.0746
 7059SOL    HW232637   3.349   4.398   9.828  0.0820 -0.4845 -0.0963
 7060SOL     OW32638   4.112   2.788  13.295  0.2136  0.1883 -0.8139
 7060SOL    HW132639   4.152   2.849  13.356  1.9092 -0.1060 -1.6358
 7060SOL    HW232640   4.137   2.821  13.209 -2.2309 -1.1734 -2.0613
 7061SOL     OW32641   0.393   2.484   5.606  0.1873  0.0640 -0.0406
 7061SOL    HW132642   0.301   2.467   5.584  0.0863 -3.0994  2.8098
 7061SOL    HW232643   0.394   2.545   5.680  2.5232  0.2268 -0.1954
 7062SOL     OW32644   1.435   2.060   3.846  0.4921  0.0044  0.8758
 7062SOL    HW132645   1.387   2.107   3.777 -0.2647  0.0393  1.4310
 7062SOL    HW232646   1.496   2.129   3.872  0.2667  1.3664 -2.1638
 7063SOL     OW32647   2.453   2.373  10.730  0.2017 -0.3771 -0.8273
 7063SOL    HW132648   2.490   2.397  10.815 -0.5378  0.1961 -0.6604
 7063SOL    HW232649   2.403   2.453  10.714  0.0634 -0.3560 -0.3080
 7064SOL     OW32650   0.373   3.619   3.966  0.2353 -0.2322 -0.3523
 7064SOL    HW132651   0.316   3.650   3.896  0.8990  1.6770 -0.0357
 7064SOL    HW232652   0.444   3.574   3.920  0.2800  0.2304 -0.7384
 7065SOL     OW32653   2.222   1.172   8.939 -0.1455 -0.2924  0.2865
 7065SOL    HW132654   2.291   1.106   8.937  1.7182  1.6490 -0.0574
 7065SOL    HW232655   2.269   1.249   8.908 -0.2616 -0.9143 -1.4102
 7066SOL     OW32656   4.237   4.687   1.386 -0.4760  0.4130 -0.7177
 7066SOL    HW132657   4.213   0.051   1.366  0.9804  1.3151  1.6910
 7066SOL    HW232658   4.213   4.649   1.301  0.5067 -2.2993  0.2146
 7067SOL     OW32659   4.566   3.401   6.912  0.4762  0.1981 -0.0139
 7067SOL    HW132660   4.581   3.492   6.940  0.0677  0.0133  0.8167
 7067SOL    HW232661   4.645   3.351   6.933  1.0267  0.7324 -0.7901
 7068SOL     OW32662   0.896   3.153   3.188 -0.1082  0.0689  0.6650
 7068SOL    HW132663   0.959   3.220   3.162 -0.7121  0.2134 -0.4356
 7068SOL    HW232664   0.905   3.081   3.125 -2.6063 -0.8854  1.4090
 7069SOL     OW32665   0.042   3.070   0.151 -0.3569  0.0508  0.2068
 7069SOL    HW132666   0.053   2.989   0.102  1.0897 -1.1049  2.4491
 7069SOL    HW232667   0.128   3.104   0.125 -0.4888  0.6635  0.5593
 7070SOL     OW32668   0.423   2.727   3.894 -0.5327  1.2461  0.1255
 7070SOL    HW132669   0.516   2.717   3.872 -0.9601 -1.4844 -0.3685
 7070SOL    HW232670   0.374   2.690   3.820  0.9507  1.2955 -0.8930
 7071SOL     OW32671   0.661   3.738   1.843 -0.6158  0.3431  0.0882
 7071SOL    HW132672   0.625   3.725   1.930 -3.1682  1.8912 -0.7462
 7071SOL    HW232673   0.712   3.818   1.860  3.4390 -2.2032 -0.0925
 7072SOL     OW32674   3.414   1.402  14.738  0.1319  0.3165 -0.2236
 7072SOL    HW132675   3.339   1.349  14.767  1.8433 -1.1946  1.4351
 7072SOL    HW232676   3.488   1.351  14.770  1.8555  2.1183 -1.3811
 7073SOL     OW32677   1.979   4.444   7.772 -0.2698 -0.0611  0.1197
 7073SOL    HW132678   2.011   4.423   7.860 -0.0894 -1.2150 -0.2129
 7073SOL    HW232679   2.046   4.505   7.740 -3.0557  1.6942 -2.3923
 7074SOL     OW32680   4.381   1.810   6.809  0.1836  0.5361 -0.4062
 7074SOL    HW132681   4.427   1.892   6.793  1.2722 -0.0365 -0.2468
 7074SOL    HW232682   4.298   1.828   6.766 -0.2664  0.5609  0.4764
 7075SOL     OW32683   3.221   1.100   5.436  0.1659  0.4211  0.7334
 7075SOL    HW132684   3.147   1.111   5.377  1.3061 -0.0721 -0.7964
 7075SOL    HW232685   3.201   1.018   5.480  0.1788  1.5679  2.9131
 7076SOL     OW32686   2.429   3.928   5.980 -0.2668  0.6428  0.5156
 7076SOL    HW132687   2.463   3.886   6.059  0.0883 -1.9504 -1.0056
 7076SOL    HW232688   2.476   4.011   5.983  0.0452  0.4935 -0.2544
 7077SOL     OW32689   1.535   1.057   9.037 -0.8473  0.1499  0.4167
 7077SOL    HW132690   1.509   1.144   9.007  0.3338 -0.0572 -1.2059
 7077SOL    HW232691   1.621   1.043   8.998  0.0584  3.6185  1.1813
 7078SOL     OW32692   0.599   2.957   7.300 -0.3154  0.0321 -0.1680
 7078SOL    HW132693   0.592   2.902   7.222  0.7945 -1.4265  0.7668
 7078SOL    HW232694   0.582   3.045   7.268 -0.7735 -0.1088 -0.3155
 7079SOL     OW32695   0.168   0.235  16.876 -0.1886 -0.1975 -0.7623
 7079SOL    HW132696   0.185   0.329  16.886  0.6367 -0.3939 -0.3619
 7079SOL    HW232697   0.185   0.221  16.783  0.9962  0.1735 -0.6048
 7080SOL     OW32698   3.146   2.535   0.814 -0.2945 -0.6896 -0.1436
 7080SOL    HW132699   3.185   2.594   0.878  2.6418 -1.2064 -1.4464
 7080SOL    HW232700   3.093   2.589   0.756  0.4644  0.4416  0.2252
 7081SOL     OW32701   1.610   0.604   4.622 -0.4110 -0.2554  0.3816
 7081SOL    HW132702   1.694   0.629   4.662 -0.3783  2.9758 -1.6874
 7081SOL    HW232703   1.601   0.512   4.643  0.4092  0.5795  4.3415
 7082SOL     OW32704   4.080   1.021   1.849 -0.5799  0.5091 -0.7175
 7082SOL    HW132705   4.089   0.977   1.934 -0.8700  1.0052 -0.4333
 7082SOL    HW232706   4.142   0.985   1.785 -1.1616 -0.5124 -0.6999
 7083SOL     OW32707   1.391   1.656   4.964  0.0225 -0.1725 -0.0146
 7083SOL    HW132708   1.413   1.568   4.993 -0.1292 -0.3586 -0.4637
 7083SOL    HW232709   1.402   1.661   4.869  0.8501  1.4049  0.1697
 7084SOL     OW32710   4.459   0.255   7.274 -0.4976  0.5613  0.7505
 7084SOL    HW132711   4.450   0.168   7.236  1.5601  0.9473 -0.6361
 7084SOL    HW232712   4.551   0.267   7.251 -0.4018  1.8999  1.8411
 7085SOL     OW32713   1.816   1.816   3.622 -0.1800 -0.1370  0.6198
 7085SOL    HW132714   1.765   1.815   3.541  0.8014 -1.1444  0.0174
 7085SOL    HW232715   1.849   1.905   3.611  3.1440 -1.6001 -1.2055
 7086SOL     OW32716   2.857   2.642   7.107 -0.0505  0.6362  0.1790
 7086SOL    HW132717   2.916   2.611   7.175 -1.6343 -0.9145  0.8570
 7086SOL    HW232718   2.769   2.617   7.137  0.9991 -0.6547  2.1373
 7087SOL     OW32719   0.718   4.014   3.370 -0.0075 -0.0672  0.3075
 7087SOL    HW132720   0.728   3.922   3.347 -0.4518  0.7317 -3.0463
 7087SOL    HW232721   0.793   4.015   3.429 -0.6632  0.4305  1.1307
 7088SOL     OW32722   2.063   1.197   9.526 -0.1348 -0.1302  0.5102
 7088SOL    HW132723   2.119   1.155   9.461 -0.9314  1.4356 -1.1760
 7088SOL    HW232724   2.090   1.163   9.611  1.6414  2.0701  0.8500
 7089SOL     OW32725   4.351   0.286  13.064 -0.3748  0.5911 -0.2132
 7089SOL    HW132726   4.290   0.211  13.063  0.3832 -0.0304  0.0223
 7089SOL    HW232727   4.291   0.360  13.056  0.1669  0.7640 -2.6694
 7090SOL     OW32728   0.561   0.906  12.444 -0.2473  0.0872  0.2309
 7090SOL    HW132729   0.468   0.898  12.465 -0.2922  1.8269  0.6986
 7090SOL    HW232730   0.576   1.000  12.455 -0.6093 -0.0006  1.4461
 7091SOL     OW32731   0.049   4.322   0.443  0.6807 -0.0760  0.0844
 7091SOL    HW132732   0.132   4.320   0.490  1.7027 -1.1545 -1.7603
 7091SOL    HW232733   4.712   4.312   0.513  0.4918  1.3084  0.1026
 7092SOL     OW32734   3.359   2.799   9.850  0.1077 -0.0425 -0.1050
 7092SOL    HW132735   3.446   2.837   9.866  1.2650 -1.5707 -2.7212
 7092SOL    HW232736   3.348   2.815   9.757 -1.0780 -1.3199 -0.1865
 7093SOL     OW32737   1.596   2.982   5.077 -0.4958 -0.1128 -0.2501
 7093SOL    HW132738   1.679   3.020   5.048  0.0649 -0.4580  0.8825
 7093SOL    HW232739   1.593   2.911   5.013  0.6082 -0.9026  0.5811
 7094SOL     OW32740   2.789   4.045  11.188 -0.2623  0.1014  0.2699
 7094SOL    HW132741   2.742   4.071  11.267 -0.2880 -1.5012  0.7794
 7094SOL    HW232742   2.774   4.128  11.144 -0.3461 -0.8576 -1.5010
 7095SOL     OW32743   1.938   0.899   3.624  0.2601  0.6202 -0.7091
 7095SOL    HW132744   1.884   0.975   3.603 -0.6153  0.0368 -0.5575
 7095SOL    HW232745   1.901   0.839   3.560 -0.0327  0.2992 -0.2315
 7096SOL     OW32746   3.302   3.917   5.788 -0.1608  0.3001 -0.5250
 7096SOL    HW132747   3.242   3.991   5.789  0.7608  1.0567 -1.3897
 7096SOL    HW232748   3.350   3.931   5.706  0.0843 -0.6444 -0.5513
 7097SOL     OW32749   4.567   4.229   5.907 -0.2596 -0.1552 -0.2383
 7097SOL    HW132750   4.508   4.181   5.849 -0.8102  0.8401 -0.5005
 7097SOL    HW232751   4.620   4.288   5.853  0.2668 -0.4416 -0.0293
 7098SOL     OW32752   0.048   2.997   3.969  0.1283  0.3758 -0.3907
 7098SOL    HW132753   0.139   2.982   3.992  0.3401  2.5914  0.1474
 7098SOL    HW232754   0.013   2.908   3.969  2.4220 -0.5282 -0.9798
 7099SOL     OW32755   2.198   3.303  15.886  0.0497 -0.7180 -0.0407
 7099SOL    HW132756   2.248   3.222  15.884  0.0472 -0.6830 -1.8906
 7099SOL    HW232757   2.199   3.334  15.795  1.0425 -2.4843 -0.6325
 7100SOL     OW32758   1.422   2.229   4.511 -0.1190  0.0223  0.7098
 7100SOL    HW132759   1.397   2.162   4.448  2.0384  0.0840 -0.2145
 7100SOL    HW232760   1.415   2.303   4.451 -1.0364 -1.4056 -0.9535
 7101SOL     OW32761   1.067   1.989   4.573 -0.2000  0.4584  0.1838
 7101SOL    HW132762   1.030   1.995   4.485 -1.2047 -0.8148  0.5216
 7101SOL    HW232763   1.103   2.078   4.581 -3.2120  1.8213 -1.3583
 7102SOL     OW32764   2.625   3.295   7.037 -0.4389 -0.3035 -0.2512
 7102SOL    HW132765   2.547   3.345   7.011 -2.0868 -0.9045  3.5127
 7102SOL    HW232766   2.616   3.292   7.132 -0.7377 -3.3243 -0.3852
 7103SOL     OW32767   0.383   3.330  16.225 -0.1409  0.0026 -0.7741
 7103SOL    HW132768   0.443   3.369  16.289 -1.6930 -1.4751  1.5782
 7103SOL    HW232769   0.381   3.239  16.256 -1.1289  0.8390  1.6671
 7104SOL     OW32770   1.357   3.288  17.040 -0.2701 -0.4418  0.1142
 7104SOL    HW132771   1.305   3.355  16.996 -1.4035 -0.5853  1.2292
 7104SOL    HW232772   1.400   3.339  17.110 -0.6274 -1.3295  0.9831
 7105SOL     OW32773   4.328   0.182   4.087 -0.3102 -0.5481 -0.5269
 7105SOL    HW132774   4.286   0.192   4.001 -0.6254 -0.1385 -0.3306
 7105SOL    HW232775   4.264   0.235   4.135  1.6125  1.8548 -0.6448
 7106SOL     OW32776   0.839   2.552   4.510  0.5115 -0.2465 -0.2465
 7106SOL    HW132777   0.763   2.548   4.451  0.0655 -1.0097  0.3751
 7106SOL    HW232778   0.830   2.645   4.529 -0.2047 -0.7484  1.8927
 7107SOL     OW32779   2.778   2.605   7.667  0.5676  0.0338 -0.0916
 7107SOL    HW132780   2.758   2.683   7.721 -1.5659  0.2500 -1.1852
 7107SOL    HW232781   2.696   2.576   7.627  1.0291 -1.9537  0.4373
 7108SOL     OW32782   0.695   3.080   8.346 -0.4808 -0.0908  0.5654
 7108SOL    HW132783   0.746   3.001   8.363 -2.1969 -0.9053  1.9250
 7108SOL    HW232784   0.749   3.125   8.281  0.5807 -1.8770  0.2231
 7109SOL     OW32785   0.973   3.428   7.749 -0.2163  0.6269 -0.2369
 7109SOL    HW132786   0.918   3.435   7.671 -0.5876  1.2757  0.0886
 7109SOL    HW232787   1.039   3.495   7.733  0.8706 -0.4513 -0.3096
 7110SOL     OW32788   1.828   4.258   6.814 -0.2004 -0.3227  0.7262
 7110SOL    HW132789   1.901   4.208   6.851 -0.5566 -0.5516  1.1066
 7110SOL    HW232790   1.834   4.226   6.723 -2.7864  1.2952 -0.0005
 7111SOL     OW32791   2.178   2.012   3.610 -0.1084  0.6361  0.1947
 7111SOL    HW132792   2.245   1.958   3.569 -0.2741 -0.8990  1.9101
 7111SOL    HW232793   2.199   1.989   3.701  1.0676  1.1819  0.0613
 7112SOL     OW32794   2.110   3.515   7.157 -0.0824 -0.3493  0.4100
 7112SOL    HW132795   2.141   3.466   7.233  0.5963 -0.6534 -0.0554
 7112SOL    HW232796   2.019   3.537   7.175  0.2113  0.0628  1.3438
 7113SOL     OW32797   1.262   4.115   9.225  0.3730  0.2904 -0.7561
 7113SOL    HW132798   1.343   4.142   9.183  1.3427  0.5181  1.2438
 7113SOL    HW232799   1.297   4.050   9.286 -0.3384 -0.9364 -1.6519
 7114SOL     OW32800   0.617   3.624   2.303 -0.0734 -0.0273  0.3594
 7114SOL    HW132801   0.595   3.535   2.333  2.3596 -0.4014  1.1044
 7114SOL    HW232802   0.581   3.682   2.370 -0.6773 -0.8701  0.7673
 7115SOL     OW32803   1.129   1.812   6.069  0.2237  0.3077  0.4529
 7115SOL    HW132804   1.199   1.765   6.024  0.2046  2.4222 -1.7625
 7115SOL    HW232805   1.141   1.900   6.032  1.2982 -0.6499 -1.4249
 7116SOL     OW32806   3.142   2.163   7.515 -0.1495  0.3305  0.6742
 7116SOL    HW132807   3.143   2.111   7.595 -4.1463  0.0184  0.4962
 7116SOL    HW232808   3.117   2.244   7.558  1.1964 -1.3796  4.6765
 7117SOL     OW32809   0.469   3.308  12.222  0.7008  0.4131  0.0456
 7117SOL    HW132810   0.414   3.362  12.278  0.2881 -0.7245  0.7239
 7117SOL    HW232811   0.517   3.269  12.295  1.3508 -0.8728 -1.0630
 7118SOL     OW32812   2.217   3.777   0.595 -0.0184 -0.1236 -0.4626
 7118SOL    HW132813   2.301   3.800   0.635  0.2718  0.9756 -1.6944
 7118SOL    HW232814   2.178   3.864   0.583  2.7861  0.8754 -2.2094
 7119SOL     OW32815   3.214   3.021   2.106  0.0775 -0.0719  0.2868
 7119SOL    HW132816   3.168   3.086   2.053 -1.2475  0.5556  2.1788
 7119SOL    HW232817   3.258   3.074   2.172 -0.7887  2.0786 -0.8737
 7120SOL     OW32818   2.300   2.176   9.402  0.2348 -0.2530 -0.0323
 7120SOL    HW132819   2.236   2.200   9.469 -0.6233  0.1784 -1.0129
 7120SOL    HW232820   2.370   2.143   9.457 -0.1943 -2.0203 -0.5492
 7121SOL     OW32821   1.604   4.102  16.198  0.9754 -0.3936 -0.0481
 7121SOL    HW132822   1.694   4.068  16.204  0.9642 -0.7062 -1.8675
 7121SOL    HW232823   1.608   4.139  16.110 -0.2825  0.6272  0.3292
 7122SOL     OW32824   1.858   2.639  12.869  0.2278 -0.3208  0.1543
 7122SOL    HW132825   1.926   2.705  12.868  0.3522 -0.4481  0.1859
 7122SOL    HW232826   1.896   2.556  12.898 -0.6803 -1.0854 -0.8119
 7123SOL     OW32827   4.020   4.355  12.237  0.4085 -0.3179  0.1857
 7123SOL    HW132828   3.982   4.389  12.157 -0.4097 -0.6784  0.4204
 7123SOL    HW232829   4.023   4.436  12.288 -1.3242  0.9065 -1.6854
 7124SOL     OW32830   3.684   3.091  17.313  0.4783  0.2909 -0.7647
 7124SOL    HW132831   3.630   3.171  17.314 -0.2725 -0.2298  0.6570
 7124SOL    HW232832   3.661   3.073  17.222 -1.1854 -4.0532  0.5063
 7125SOL     OW32833   1.106   3.838   2.869  0.3617 -0.7333 -0.2829
 7125SOL    HW132834   1.068   3.781   2.935 -0.0848 -0.2699 -0.1382
 7125SOL    HW232835   1.139   3.775   2.806  1.7271 -1.5356  1.2483
 7126SOL     OW32836   2.858   0.162   4.579  0.3616 -0.0984  0.2052
 7126SOL    HW132837   2.947   0.130   4.570  0.3714 -0.6095  2.1333
 7126SOL    HW232838   2.836   0.102   4.650  0.4636 -0.3883 -0.0115
 7127SOL     OW32839   1.879   1.703   9.544  0.4032  0.0238  0.3446
 7127SOL    HW132840   1.836   1.716   9.628  0.2641 -2.7642  0.7021
 7127SOL    HW232841   1.839   1.630   9.498  1.7194 -0.4710 -0.0298
 7128SOL     OW32842   0.694   1.589   7.876  0.0027  0.2503 -0.1065
 7128SOL    HW132843   0.691   1.641   7.956  1.7421  0.7368 -0.3680
 7128SOL    HW232844   0.636   1.632   7.813 -0.9288 -0.2392  0.4105
 7129SOL     OW32845   2.701   3.763  15.117 -0.2047  0.0362  0.0604
 7129SOL    HW132846   2.706   3.791  15.209 -1.6401 -0.8093  0.3963
 7129SOL    HW232847   2.792   3.754  15.089  0.9522  1.7746  3.1616
 7130SOL     OW32848   0.081   0.144  11.690 -0.2236 -0.1744  1.1550
 7130SOL    HW132849   0.088   0.129  11.595  0.0981  1.2223  0.9565
 7130SOL    HW232850   0.156   0.088  11.713  0.3617  1.2746  2.7823
 7131SOL     OW32851   2.570   2.479  15.002 -0.3793  0.0507  0.1094
 7131SOL    HW132852   2.479   2.488  15.030  0.3643  0.8965  2.2684
 7131SOL    HW232853   2.564   2.505  14.910  0.3612  1.8714  0.5742
 7132SOL     OW32854   2.861   3.066   6.028 -0.8101 -0.2140  0.0336
 7132SOL    HW132855   2.919   3.100   5.960 -0.4048 -0.6052  0.1852
 7132SOL    HW232856   2.905   3.088   6.110  1.3378 -0.2961 -1.0974
 7133SOL     OW32857   4.562   2.058   1.929 -0.0509  0.1920  0.0615
 7133SOL    HW132858   4.600   2.043   2.015  1.0844 -0.9666 -0.6453
 7133SOL    HW232859   4.616   2.010   1.867 -1.1934 -0.2688 -0.5804
 7134SOL     OW32860   1.228   0.081   5.198 -0.4775  0.3894 -0.5325
 7134SOL    HW132861   1.133   0.084   5.211 -0.4770  1.1728 -0.7599
 7134SOL    HW232862   1.261   0.164   5.233 -0.0610 -0.3603  0.8759
 7135SOL     OW32863   4.573   1.499   5.053  0.4234 -0.2340 -0.6573
 7135SOL    HW132864   4.607   1.453   4.977  1.1989 -1.1166  0.2254
 7135SOL    HW232865   4.655   1.505   5.101  1.5406 -1.6320 -2.3929
 7136SOL     OW32866   3.827   4.472   6.369  0.0804  0.2295 -0.1163
 7136SOL    HW132867   3.784   4.492   6.452 -0.7707  1.8145 -0.9375
 7136SOL    HW232868   3.895   4.418   6.410 -2.2984 -1.6453  1.3641
 7137SOL     OW32869   0.405   3.196   3.574 -0.5284  0.0567  0.0796
 7137SOL    HW132870   0.321   3.158   3.599 -2.4174  4.2203 -0.0033
 7137SOL    HW232871   0.373   3.261   3.512 -0.7043 -0.4038 -0.3035
 7138SOL     OW32872   2.299   4.039   5.674 -0.3832 -0.1571 -0.0009
 7138SOL    HW132873   2.349   4.048   5.755 -1.8125  0.1503  0.8552
 7138SOL    HW232874   2.220   4.087   5.699  0.1513  0.4968  0.4384
 7139SOL     OW32875   1.292   1.990   1.838 -0.1608 -0.2491 -0.1905
 7139SOL    HW132876   1.263   1.899   1.850 -0.6739 -0.4051 -2.6033
 7139SOL    HW232877   1.246   2.032   1.911 -1.0581 -3.7833  1.2801
 7140SOL     OW32878   4.655   4.058   6.978  0.1745 -0.1180 -0.2816
 7140SOL    HW132879   4.605   4.125   7.025  0.5681 -0.0964  0.1080
 7140SOL    HW232880   4.585   3.994   6.968 -1.3023  1.6458 -1.1661
 7141SOL     OW32881   2.543   2.986   7.246  0.3899 -0.8047  0.3172
 7141SOL    HW132882   2.514   3.013   7.159  1.2164  1.9272  0.8968
 7141SOL    HW232883   2.580   3.064   7.287  1.3686 -0.4750 -1.1743
 7142SOL     OW32884   0.322   2.026   0.248  0.5234  0.3472  0.1956
 7142SOL    HW132885   0.327   1.939   0.210  2.9553  0.8433 -0.6235
 7142SOL    HW232886   0.407   2.066   0.228 -1.3529  3.8991 -0.7131
 7143SOL     OW32887   2.255   3.980   1.927  0.3073  0.2355  0.2201
 7143SOL    HW132888   2.316   4.052   1.948  1.4200  0.1676 -2.7955
 7143SOL    HW232889   2.318   3.922   1.885 -0.6631  0.0041 -0.9136
 7144SOL     OW32890   1.295   4.560   9.489 -0.3086 -0.3809 -0.0597
 7144SOL    HW132891   1.374   4.580   9.439  0.1766 -0.7369  0.5683
 7144SOL    HW232892   1.287   4.636   9.547  0.1503 -0.4508  0.0979
 7145SOL     OW32893   4.519   0.761  13.958  0.1928 -0.4068 -0.2218
 7145SOL    HW132894   4.450   0.772  14.023  0.4119 -0.1540 -0.0356
 7145SOL    HW232895   4.597   0.779  14.009  0.4206 -2.0356 -0.0073
 7146SOL     OW32896   0.126   4.357   0.973  0.1492  0.1687 -0.1703
 7146SOL    HW132897   0.201   4.415   0.958  0.9802 -0.7615  0.4161
 7146SOL    HW232898   0.150   4.325   1.060  0.6810 -0.8640 -0.6983
 7147SOL     OW32899   0.113   1.119   6.024 -0.1499 -0.2645 -0.5201
 7147SOL    HW132900   0.148   1.205   6.051 -1.3920 -0.1454  0.7019
 7147SOL    HW232901   0.026   1.145   5.992 -0.6156  1.6827  2.2851
 7148SOL     OW32902   2.590   3.471   7.353 -0.2735  0.2224  0.4134
 7148SOL    HW132903   2.674   3.427   7.340  0.2705  1.6224 -0.8549
 7148SOL    HW232904   2.611   3.557   7.315 -1.0976  1.5546  3.0198
 7149SOL     OW32905   1.440   2.556   2.131  0.1662  0.3022 -0.2262
 7149SOL    HW132906   1.368   2.501   2.100 -0.0884  0.2265  0.5106
 7149SOL    HW232907   1.417   2.630   2.074  1.7671  0.8099 -0.2131
 7150SOL     OW32908   2.501   3.943   5.213  0.4010 -0.5621 -0.2593
 7150SOL    HW132909   2.426   3.891   5.240 -0.8025  2.0056  1.3328
 7150SOL    HW232910   2.463   3.984   5.135  0.5985 -0.7079 -0.4308
 7151SOL     OW32911   4.583   2.840  12.056  0.0208 -0.7364  0.1067
 7151SOL    HW132912   4.505   2.791  12.081 -0.8536  0.4033 -0.4399
 7151SOL    HW232913   4.641   2.763  12.053  0.7975 -0.1159 -0.9562
 7152SOL     OW32914   0.513   3.335  11.139  0.0347 -0.1733 -0.3745
 7152SOL    HW132915   0.485   3.277  11.209 -4.4016  0.8413 -1.3100
 7152SOL    HW232916   0.515   3.418  11.186 -1.3461 -0.8773  0.9235
 7153SOL     OW32917   2.468   2.350   0.433  0.1008  0.0300  0.2807
 7153SOL    HW132918   2.441   2.344   0.341  2.4623 -2.0851 -0.2842
 7153SOL    HW232919   2.397   2.405   0.465 -1.4080 -1.0405 -1.1833
 7154SOL     OW32920   3.345   1.863  10.493 -0.5053 -0.0766 -0.0908
 7154SOL    HW132921   3.276   1.838  10.554 -1.4669 -0.4364 -1.3409
 7154SOL    HW232922   3.311   1.830  10.410 -0.3991 -0.2493 -0.0664
 7155SOL     OW32923   0.398   2.418   6.792  0.6495 -0.6845  0.1716
 7155SOL    HW132924   0.440   2.388   6.712  0.5166 -1.2887  0.3276
 7155SOL    HW232925   0.319   2.364   6.792  0.1060  0.1086  0.1227
 7156SOL     OW32926   2.814   0.503   2.710  0.3418 -0.0378  0.1546
 7156SOL    HW132927   2.888   0.536   2.761 -1.3861  2.4669  1.0190
 7156SOL    HW232928   2.739   0.515   2.768  0.0565  0.6783 -0.3687
 7157SOL     OW32929   4.131   1.601  10.777 -0.4103  0.3801  0.1311
 7157SOL    HW132930   4.089   1.627  10.859  0.2083  1.4420  0.1024
 7157SOL    HW232931   4.071   1.535  10.744  2.4112 -1.4451 -1.3778
 7158SOL     OW32932   4.388   0.064  12.403 -0.1885 -0.5791 -0.0664
 7158SOL    HW132933   4.377   0.009  12.480 -0.9344 -0.3392  0.0046
 7158SOL    HW232934   4.318   0.130  12.405 -1.3125 -1.7008 -1.7018
 7159SOL     OW32935   0.414   0.077   7.097  0.7983 -0.2194 -0.1517
 7159SOL    HW132936   0.392   0.010   7.033  1.0478  2.9953 -3.5759
 7159SOL    HW232937   0.440   0.017   7.167 -0.1645  1.5524  1.7489
 7160SOL     OW32938   1.911   3.306   3.680  0.3617 -0.3476  0.2362
 7160SOL    HW132939   1.839   3.243   3.693 -2.1803  2.0086 -2.3672
 7160SOL    HW232940   1.923   3.323   3.773  1.7255  1.8490 -0.3608
 7161SOL     OW32941   1.415   1.976   4.714  0.1408  0.6290  0.3125
 7161SOL    HW132942   1.381   2.053   4.668  0.2160 -0.0183 -0.8156
 7161SOL    HW232943   1.461   1.923   4.650 -0.8630  0.3232 -0.1527
 7162SOL     OW32944   0.195   0.043   3.375  0.4543 -0.5868 -0.4890
 7162SOL    HW132945   0.259   4.713   3.333  1.6057  0.5437 -0.2543
 7162SOL    HW232946   0.224   0.129   3.343 -1.6323 -0.3111 -1.6432
 7163SOL     OW32947   0.681   3.490   8.501 -0.2033  0.1491 -0.1520
 7163SOL    HW132948   0.764   3.448   8.523  0.5739  2.1019  0.6500
 7163SOL    HW232949   0.705   3.565   8.447 -0.0158  0.9637  1.0648
 7164SOL     OW32950   2.368   1.896  14.290 -0.0503 -1.2449 -0.4192
 7164SOL    HW132951   2.413   1.980  14.278  0.1422 -1.4547 -1.1965
 7164SOL    HW232952   2.400   1.878  14.378 -1.1588 -2.5480 -0.2857
 7165SOL     OW32953   0.137   0.532  15.487 -0.4095  0.0063 -1.0748
 7165SOL    HW132954   0.100   0.612  15.451  1.6288  1.2345 -0.4090
 7165SOL    HW232955   0.111   0.467  15.421 -0.1953 -1.4867  0.3149
 7166SOL     OW32956   0.339   2.179  12.082  0.5646  0.0879  0.1533
 7166SOL    HW132957   0.378   2.264  12.059  1.1975 -0.3110 -0.2574
 7166SOL    HW232958   0.256   2.205  12.122 -1.0444 -1.7947 -1.9761
 7167SOL     OW32959   3.141   0.732  13.830 -0.8583 -0.2411  0.3333
 7167SOL    HW132960   3.087   0.663  13.791 -0.3553  0.4413 -1.5222
 7167SOL    HW232961   3.148   0.691  13.917 -2.3549 -2.1981 -0.4845
 7168SOL     OW32962   3.745   0.076  10.594 -0.7899 -0.2179  0.2382
 7168SOL    HW132963   3.780   0.104  10.509 -0.1559  2.6949  1.4538
 7168SOL    HW232964   3.794   4.721  10.603 -0.7755 -0.1447  0.8436
 7169SOL     OW32965   2.760   2.986   8.734  0.2392 -0.0679  0.0753
 7169SOL    HW132966   2.738   3.047   8.804 -0.5284  0.1001 -0.3094
 7169SOL    HW232967   2.832   3.035   8.693 -0.1468  1.7421  1.5841
 7170SOL     OW32968   2.362   0.406   1.933 -0.1457  0.3292  0.0990
 7170SOL    HW132969   2.327   0.353   1.861 -1.6296  0.5545  0.6653
 7170SOL    HW232970   2.384   0.490   1.892 -0.0814 -0.4416 -1.4504
 7171SOL     OW32971   3.348   2.227   5.656  0.0647 -0.2866  0.1816
 7171SOL    HW132972   3.410   2.277   5.603 -1.8615  1.3703 -0.5630
 7171SOL    HW232973   3.340   2.151   5.598  0.9500 -0.0650 -0.2283
 7172SOL     OW32974   3.031   2.003   2.041  0.0089 -0.6053 -1.0054
 7172SOL    HW132975   2.948   1.960   2.019 -0.1136 -1.4781  1.0963
 7172SOL    HW232976   3.042   1.982   2.134  1.3589 -1.1583 -1.2940
 7173SOL     OW32977   3.585   3.120   6.586 -0.2283 -0.0133 -0.0064
 7173SOL    HW132978   3.568   3.124   6.680 -2.7115  0.3701 -0.4792
 7173SOL    HW232979   3.495   3.124   6.554 -1.0656 -1.6068  2.1049
 7174SOL     OW32980   2.436   1.595   5.206 -0.2432 -0.2481  0.0185
 7174SOL    HW132981   2.445   1.666   5.143  0.7128  0.0070  0.4457
 7174SOL    HW232982   2.341   1.590   5.219 -0.2046  1.1891  0.7516
 7175SOL     OW32983   1.025   2.512   3.252 -0.5173  0.4737  0.1052
 7175SOL    HW132984   1.079   2.525   3.174 -0.1323 -0.4073  0.2292
 7175SOL    HW232985   0.980   2.432   3.224 -1.5240  0.4848  1.7165
 7176SOL     OW32986   3.030   2.390   8.268  0.3090  0.0929  0.4338
 7176SOL    HW132987   3.120   2.378   8.237 -0.0313 -1.7028  0.1689
 7176SOL    HW232988   2.989   2.334   8.202  2.8158 -3.4650  1.9000
 7177SOL     OW32989   0.384   2.721   2.569 -0.1229  0.1365 -0.2843
 7177SOL    HW132990   0.348   2.701   2.655  1.2055 -0.1350  0.2221
 7177SOL    HW232991   0.435   2.801   2.585  1.8373 -1.3347  0.9188
 7178SOL     OW32992   4.571   1.599   3.564 -1.2017  0.1456 -0.5233
 7178SOL    HW132993   4.488   1.558   3.541 -0.8497  0.7361 -2.7950
 7178SOL    HW232994   4.564   1.665   3.495  1.8811  0.4053 -0.5935
 7179SOL     OW32995   2.554   1.162  10.430 -0.0936  0.0860 -1.1317
 7179SOL    HW132996   2.634   1.155  10.482 -1.3620 -1.9538  0.5181
 7179SOL    HW232997   2.563   1.079  10.383  0.5663 -0.2680 -0.3899
 7180SOL     OW32998   4.126   4.037   5.929 -0.3938 -0.4926 -0.5517
 7180SOL    HW132999   4.158   4.049   6.018  1.0764  2.3160 -1.4546
 7180SOL    HW233000   4.141   3.946   5.905 -1.3052 -0.8795  0.3747
 7181SOL     OW33001   0.214   2.765   5.115  0.3754  0.1423 -0.1433
 7181SOL    HW133002   0.167   2.715   5.182 -2.1249  0.2210 -1.8226
 7181SOL    HW233003   0.259   2.831   5.167 -2.0649  0.0544  2.0502
 7182SOL     OW33004   4.225   2.181   4.994  0.0950 -0.1747  0.1198
 7182SOL    HW133005   4.306   2.227   5.021  1.2539 -1.4325 -1.2523
 7182SOL    HW233006   4.177   2.253   4.953  1.0837 -0.1122 -0.9317
 7183SOL     OW33007   2.010   1.833   7.016 -0.0439 -0.3241 -0.2138
 7183SOL    HW133008   2.039   1.797   7.099 -0.7063 -3.3760 -1.2625
 7183SOL    HW233009   2.036   1.774   6.944 -0.8911 -0.2606 -0.5786
 7184SOL     OW33010   1.441   4.252   5.843 -0.5363  0.1812 -0.1595
 7184SOL    HW133011   1.417   4.191   5.773  1.9812 -0.7979 -0.1594
 7184SOL    HW233012   1.353   4.275   5.874 -1.2184 -1.4309 -0.9035
 7185SOL     OW33013   0.945   1.848   3.516 -0.3088  0.2267  0.0735
 7185SOL    HW133014   0.981   1.762   3.494 -1.1185 -0.1275  0.1229
 7185SOL    HW233015   0.932   1.837   3.610  0.7128  0.7834  0.2796
 7186SOL     OW33016   2.909   0.804  11.395  0.4089  0.0100  0.7375
 7186SOL    HW133017   2.976   0.814  11.462  0.3244 -1.5282  1.0484
 7186SOL    HW233018   2.892   0.710  11.389  0.9133 -0.1839  2.4705
 7187SOL     OW33019   0.875   0.790  13.468 -0.4620  0.0672 -0.2939
 7187SOL    HW133020   0.868   0.814  13.561  1.2531  0.0600 -0.1598
 7187SOL    HW233021   0.791   0.750  13.446  0.9039 -2.8002 -0.2586
 7188SOL     OW33022   3.160   4.526   9.507 -0.1116  0.0452  0.0707
 7188SOL    HW133023   3.074   4.490   9.486 -0.9436  0.1067  3.3119
 7188SOL    HW233024   3.176   4.485   9.592 -0.4077 -0.4615 -0.1218
 7189SOL     OW33025   3.651   0.356  17.321  0.0837 -0.5662  0.1850
 7189SOL    HW133026   3.574   0.373  17.376 -0.2812  1.0275 -0.8228
 7189SOL    HW233027   3.716   0.341  17.390 -0.7540 -0.5609  0.9751
 7190SOL     OW33028   3.611   3.534  13.062 -0.2022 -0.8529 -0.1090
 7190SOL    HW133029   3.561   3.614  13.078  1.0237 -0.4001  1.4164
 7190SOL    HW233030   3.677   3.526  13.130 -1.8111  3.1019  1.8711
 7191SOL     OW33031   2.959   1.761   8.246  0.3702 -0.0684  0.1713
 7191SOL    HW133032   2.925   1.684   8.292 -3.3865  1.1635 -0.4811
 7191SOL    HW233033   3.054   1.750   8.240  0.3184 -0.0199 -0.8373
 7192SOL     OW33034   1.191   1.875  11.827  0.1288  0.1344 -0.3436
 7192SOL    HW133035   1.284   1.897  11.825  0.3311 -0.7004 -0.4051
 7192SOL    HW233036   1.178   1.825  11.746  0.7424 -2.6224  1.2442
 7193SOL     OW33037   2.546   2.422  14.416 -0.5446  0.1770  0.1180
 7193SOL    HW133038   2.521   2.376  14.336 -1.9020 -0.5980  0.9874
 7193SOL    HW233039   2.547   2.511  14.381  0.2359  0.1842  0.1679
 7194SOL     OW33040   4.298   0.107  14.560  0.0962 -0.2380 -0.2673
 7194SOL    HW133041   4.389   0.126  14.536 -0.1963  1.0291 -0.3581
 7194SOL    HW233042   4.318   0.020  14.595  0.8412  0.1366  0.2361
 7195SOL     OW33043   3.205   2.282   2.765  0.5084  0.3363 -0.1530
 7195SOL    HW133044   3.240   2.222   2.699  0.1999 -0.3475  0.3160
 7195SOL    HW233045   3.272   2.350   2.754 -1.1974  1.8142 -1.4738
 7196SOL     OW33046   3.458   0.030   7.109 -0.1595  0.1339 -0.2189
 7196SOL    HW133047   3.462   4.670   7.070 -1.5180 -0.2982  0.5880
 7196SOL    HW233048   3.413   0.004   7.190 -0.2424 -1.2836 -0.7230
 7197SOL     OW33049   3.824   1.106   1.785 -0.4494  0.0573 -0.2560
 7197SOL    HW133050   3.910   1.066   1.773 -1.1779 -1.8985  0.9065
 7197SOL    HW233051   3.848   1.193   1.817 -2.4846  0.2045  0.8772
 7198SOL     OW33052   2.670   2.444   9.130  0.1822  0.2898 -0.0518
 7198SOL    HW133053   2.580   2.437   9.162  1.4424  1.1936  3.6583
 7198SOL    HW233054   2.695   2.352   9.142 -0.5654 -0.3460 -3.3740
 7199SOL     OW33055   0.941   1.128   2.388  0.4130 -0.6251  0.2164
 7199SOL    HW133056   0.924   1.179   2.468 -1.8900 -0.2054 -0.5320
 7199SOL    HW233057   1.024   1.087   2.412  0.0828 -1.9206 -0.8729
 7200SOL     OW33058   1.158   0.332   6.772 -0.5599 -0.5470  0.1877
 7200SOL    HW133059   1.128   0.255   6.723 -0.5152 -0.6595  0.3386
 7200SOL    HW233060   1.128   0.303   6.858  0.4962 -0.7420  0.4931
 7201SOL     OW33061   1.390   1.512  12.044  0.0016 -0.0276 -0.3424
 7201SOL    HW133062   1.376   1.422  12.072 -1.3455  0.2468 -0.1240
 7201SOL    HW233063   1.336   1.502  11.965  0.6617 -1.7118 -0.5765
 7202SOL     OW33064   1.784   3.192   2.231 -0.3735 -0.0272  0.6120
 7202SOL    HW133065   1.716   3.164   2.169  0.3151  1.7289 -0.9324
 7202SOL    HW233066   1.857   3.196   2.169 -0.0675  0.2896  0.9943
 7203SOL     OW33067   2.814   3.262  17.343  0.7855 -0.2455 -0.0713
 7203SOL    HW133068   2.890   3.246  17.398 -0.0968 -0.2165  1.1598
 7203SOL    HW233069   2.812   3.172  17.312  0.6674 -0.4704  0.5934
 7204SOL     OW33070   1.105   2.229   9.227 -0.3080  0.2013  0.2313
 7204SOL    HW133071   1.028   2.222   9.284  0.5802 -1.1100  1.2869
 7204SOL    HW233072   1.172   2.274   9.278  0.8698 -0.6076 -0.6153
 7205SOL     OW33073   0.356   3.804  17.034  0.3882  0.0689 -0.4246
 7205SOL    HW133074   0.385   3.806  16.943  2.0842 -0.3015  0.0999
 7205SOL    HW233075   0.438   3.800  17.084  0.1150 -0.8162 -0.0546
 7206SOL     OW33076   3.154   0.778  15.628  0.4039  0.1425 -0.0225
 7206SOL    HW133077   3.233   0.798  15.679 -0.7702  0.5937  1.6468
 7206SOL    HW233078   3.139   0.695  15.672 -0.4029  0.4816  0.3454
 7207SOL     OW33079   3.379   3.643  14.211  0.5521  0.2133  0.0148
 7207SOL    HW133080   3.396   3.552  14.234  1.0009  0.3552  0.2438
 7207SOL    HW233081   3.470   3.666  14.194  0.8207 -1.4615 -0.7563
 7208SOL     OW33082   3.446   0.484   3.984 -0.6006  0.4006 -0.1719
 7208SOL    HW133083   3.519   0.425   4.003 -1.1833 -0.5692 -0.9657
 7208SOL    HW233084   3.476   0.575   3.976  1.6390 -0.6906 -4.0351
 7209SOL     OW33085   3.630   1.175   6.103  0.2760 -0.1818  0.3063
 7209SOL    HW133086   3.623   1.238   6.175  0.3804 -0.1660  0.3030
 7209SOL    HW233087   3.549   1.204   6.061  1.8347  1.9288 -1.2183
 7210SOL     OW33088   3.512   2.781  12.466 -0.7865 -0.0710  0.5969
 7210SOL    HW133089   3.545   2.698  12.500  0.6023  0.0789 -0.4055
 7210SOL    HW233090   3.490   2.815  12.553 -0.5240 -0.7581  0.9266
 7211SOL     OW33091   1.035   0.581   8.296  0.2474 -0.1582 -0.0749
 7211SOL    HW133092   1.113   0.553   8.346  0.8538  0.1722 -0.8411
 7211SOL    HW233093   0.983   0.607   8.372 -0.6424 -2.3153  0.0389
 7212SOL     OW33094   0.618   4.660   1.890  0.2277 -0.1369  0.6317
 7212SOL    HW133095   0.527   4.662   1.860 -0.0571  1.3429  1.6194
 7212SOL    HW233096   0.666   4.614   1.820  0.9370 -0.0976  1.0997
 7213SOL     OW33097   2.447   0.596  10.143  0.0736  0.1631  0.4656
 7213SOL    HW133098   2.407   0.573  10.227 -0.3561  0.8071  0.4398
 7213SOL    HW233099   2.395   0.675  10.128 -0.4085  0.0145  1.3317
 7214SOL     OW33100   4.030   1.900  17.671 -0.3037  0.5705 -0.1713
 7214SOL    HW133101   4.065   1.971   0.017  0.8098  0.5051 -0.8126
 7214SOL    HW233102   4.109   1.848  17.659 -0.7953  0.0728 -1.3236
 7215SOL     OW33103   4.620   2.367   1.868 -0.1142 -0.2581 -0.5070
 7215SOL    HW133104   4.572   2.444   1.839  0.8603 -0.2961 -2.2521
 7215SOL    HW233105   4.552   2.310   1.904 -1.1023  1.4507  0.3129
 7216SOL     OW33106   2.576   1.971   4.819  0.6781  0.2778  0.2047
 7216SOL    HW133107   2.513   2.041   4.836 -1.6214 -2.0186  1.2291
 7216SOL    HW233108   2.565   1.953   4.725 -3.2363  0.5751  0.6119
 7217SOL     OW33109   2.836   2.886  12.018 -0.8117  0.6851 -0.2564
 7217SOL    HW133110   2.841   2.976  12.048  1.7201  0.3238  0.4418
 7217SOL    HW233111   2.837   2.900  11.923  0.0532  0.2495 -0.3196
 7218SOL     OW33112   0.069   1.283  15.136  0.0562  0.4302  0.5080
 7218SOL    HW133113   0.041   1.374  15.148  2.2712  1.2640 -0.5901
 7218SOL    HW233114   0.080   1.284  15.040 -0.4181  0.2466  0.4535
 7219SOL     OW33115   2.174   4.146   4.556  0.5004  0.1937  0.2152
 7219SOL    HW133116   2.258   4.138   4.601  0.5173  1.1287  0.3362
 7219SOL    HW233117   2.121   4.207   4.608  0.8064  0.3249  0.3691
 7220SOL     OW33118   2.195   3.378   2.841 -0.3086 -0.2430 -0.0838
 7220SOL    HW133119   2.271   3.412   2.794 -0.0588  0.3652  0.7737
 7220SOL    HW233120   2.132   3.363   2.770  2.0591 -2.2226 -1.7768
 7221SOL     OW33121   4.634   3.262   4.719  0.1537 -0.0612  0.3047
 7221SOL    HW133122   4.704   3.327   4.721  1.3675 -1.3295 -1.5867
 7221SOL    HW233123   4.645   3.230   4.630 -0.1644 -0.9206  0.5765
 7222SOL     OW33124   1.664   1.874   6.709  0.3973 -0.5569  0.0149
 7222SOL    HW133125   1.733   1.809   6.721  0.7619 -0.3075 -0.7486
 7222SOL    HW233126   1.663   1.910   6.798  3.1385 -1.3091  0.3443
 7223SOL     OW33127   0.325   2.059   7.050 -0.0681 -0.5319  0.0532
 7223SOL    HW133128   0.418   2.035   7.047 -0.1423 -0.4719 -2.6377
 7223SOL    HW233129   0.300   2.024   6.965 -2.7372 -0.8683  0.9851
 7224SOL     OW33130   1.431   0.983   6.464  0.3222  0.0407 -0.0310
 7224SOL    HW133131   1.398   1.036   6.536 -1.6173 -1.4630  0.1738
 7224SOL    HW233132   1.364   0.915   6.465  0.8397 -0.4492  1.4788
 7225SOL     OW33133   3.723   4.343   5.297  0.6712 -0.0591 -0.0691
 7225SOL    HW133134   3.671   4.287   5.353  1.4829 -1.1421 -0.4013
 7225SOL    HW233135   3.728   4.423   5.350 -0.8092 -0.3120  0.4398
 7226SOL     OW33136   3.260   2.183  16.857 -0.1896 -0.8420 -0.5262
 7226SOL    HW133137   3.192   2.124  16.889  1.0591 -2.0189 -0.0427
 7226SOL    HW233138   3.234   2.189  16.765 -0.5317  0.4881 -0.3346
 7227SOL     OW33139   3.655   0.029  13.058  0.0630  0.4452  0.2249
 7227SOL    HW133140   3.643   0.111  13.011  1.7688  0.9965  0.7735
 7227SOL    HW233141   3.734   0.005  13.009 -0.7329 -1.5869 -0.0753
 7228SOL     OW33142   0.916   1.869   0.408  0.2236  0.0220  0.2179
 7228SOL    HW133143   0.945   1.847   0.497 -0.2139  1.6480  0.7566
 7228SOL    HW233144   0.897   1.962   0.417  0.5435  0.0661  0.4425
 7229SOL     OW33145   2.471   3.571   5.134  0.5706  0.5080  0.3572
 7229SOL    HW133146   2.512   3.484   5.136 -0.4277  0.0384  0.5407
 7229SOL    HW233147   2.465   3.593   5.227 -1.2217  3.0500 -0.3703
 7230SOL     OW33148   1.603   2.231   2.745 -0.5682  0.2567 -0.1179
 7230SOL    HW133149   1.545   2.255   2.673 -1.7581 -2.9437 -0.2550
 7230SOL    HW233150   1.598   2.308   2.802 -0.1703  0.8144 -0.8431
 7231SOL     OW33151   0.132   0.029   3.662 -0.0212  0.1895 -0.8002
 7231SOL    HW133152   0.150   0.059   3.572 -2.0355 -0.8899 -1.5613
 7231SOL    HW233153   0.127   4.661   3.646 -0.4503  0.2479 -0.9958
 7232SOL     OW33154   1.370   3.018  14.652  0.1049  0.9283  0.0916
 7232SOL    HW133155   1.443   2.956  14.647 -1.0041 -0.3372 -0.6009
 7232SOL    HW233156   1.375   3.035  14.746  1.4376 -0.7007  0.3179
 7233SOL     OW33157   2.828   2.374   1.686  0.2034 -0.3049 -0.1040
 7233SOL    HW133158   2.866   2.287   1.697 -2.8440 -1.5387  0.7506
 7233SOL    HW233159   2.782   2.388   1.769 -1.5768 -2.1261 -0.7881
 7234SOL     OW33160   3.300   0.475   5.619  0.2344 -0.2675 -0.0245
 7234SOL    HW133161   3.255   0.530   5.683  1.9286  0.3185  0.6591
 7234SOL    HW233162   3.277   0.519   5.537  2.9236  3.6361  1.3195
 7235SOL     OW33163   4.020   1.891   5.254 -0.2174 -0.2977  0.2485
 7235SOL    HW133164   4.035   1.864   5.345 -1.2420 -0.6658  0.3087
 7235SOL    HW233165   3.968   1.819   5.218 -0.6421  0.6310 -0.9711
 7236SOL     OW33166   1.648   3.011   8.274 -0.1233  0.0863 -0.5369
 7236SOL    HW133167   1.602   3.022   8.357  0.9249 -1.7949  0.2911
 7236SOL    HW233168   1.721   3.072   8.285  0.4319 -0.3654 -1.6563
 7237SOL     OW33169   4.279   2.190  13.646 -0.4215 -0.0198 -0.6953
 7237SOL    HW133170   4.341   2.209  13.716 -2.5698 -0.3082  1.2878
 7237SOL    HW233171   4.275   2.095  13.643  0.0402 -0.0928  0.9536
 7238SOL     OW33172   1.792   1.761   0.829  0.0255 -0.0817  0.0501
 7238SOL    HW133173   1.871   1.732   0.783 -1.0338 -2.4683 -0.2838
 7238SOL    HW233174   1.787   1.848   0.790  2.4572  0.4713  0.9905
 7239SOL     OW33175   3.797   3.561  10.632  0.0275 -0.1974  0.3050
 7239SOL    HW133176   3.889   3.574  10.654  0.2816 -1.7286  0.1520
 7239SOL    HW233177   3.782   3.646  10.590  4.0640  1.2073  1.7005
 7240SOL     OW33178   4.164   0.471  13.054 -0.4755 -0.0637 -0.1186
 7240SOL    HW133179   4.170   0.566  13.048 -3.4377  0.0362 -1.4637
 7240SOL    HW233180   4.095   0.458  13.119  3.0555 -1.2998  3.3546
 7241SOL     OW33181   2.204   3.185   3.038 -0.3184  0.2446 -0.3923
 7241SOL    HW133182   2.212   3.261   3.096 -1.5581 -0.4950  0.7600
 7241SOL    HW233183   2.186   3.239   2.961 -1.8357 -0.6410 -0.6595
 7242SOL     OW33184   3.380   4.186   2.605  0.2881  0.5555 -0.4853
 7242SOL    HW133185   3.307   4.190   2.666 -1.1128 -1.2634 -2.0283
 7242SOL    HW233186   3.459   4.181   2.659 -0.6348 -2.1495  0.5964
 7243SOL     OW33187   3.986   1.390   3.959  0.5574 -0.0148  0.0827
 7243SOL    HW133188   3.938   1.370   4.040 -1.4922  0.4250 -1.0274
 7243SOL    HW233189   3.925   1.363   3.890  0.9058 -1.2559  0.2601
 7244SOL     OW33190   0.755   3.891  12.894 -0.0628  0.1709 -0.4348
 7244SOL    HW133191   0.775   3.971  12.943  1.5096  1.3465 -3.0122
 7244SOL    HW233192   0.834   3.869  12.846  1.3866  1.3575  1.4058
 7245SOL     OW33193   3.385   0.867   1.988 -0.3517 -0.1081 -0.1815
 7245SOL    HW133194   3.293   0.868   1.962 -0.6835 -3.0395  0.8087
 7245SOL    HW233195   3.403   0.776   2.012  0.9605  0.0298 -0.6556
 7246SOL     OW33196   4.144   3.432   7.923  0.0911  0.1584  0.2602
 7246SOL    HW133197   4.201   3.490   7.872 -1.1847 -0.2750 -1.6699
 7246SOL    HW233198   4.131   3.465   8.011 -1.6008 -1.3861  0.5642
 7247SOL     OW33199   3.238   4.433  16.628 -0.2417  0.0478  0.6072
 7247SOL    HW133200   3.316   4.417  16.682 -0.5687 -0.2103  1.0055
 7247SOL    HW233201   3.180   4.360  16.650  0.0753 -0.3887 -0.0430
 7248SOL     OW33202   3.916   0.552   5.716  0.0240  0.4898 -0.8424
 7248SOL    HW133203   3.836   0.500   5.719 -0.1344  0.8182  0.9848
 7248SOL    HW233204   3.902   0.607   5.793 -0.0933 -0.8293  0.0904
 7249SOL     OW33205   3.960   4.513  14.732 -0.4918 -0.0312 -0.1479
 7249SOL    HW133206   4.021   4.544  14.799  0.1069 -0.6660 -0.4065
 7249SOL    HW233207   3.897   4.585  14.725 -0.6755 -0.1968 -0.1861
 7250SOL     OW33208   4.411   0.540   3.628 -0.2507 -0.1153  0.0225
 7250SOL    HW133209   4.434   0.632   3.641  2.1714 -0.6304 -0.6097
 7250SOL    HW233210   4.345   0.547   3.559  0.8598  0.0654 -1.0084
 7251SOL     OW33211   3.376   0.608  16.605  0.6393  0.6236 -0.5871
 7251SOL    HW133212   3.431   0.632  16.679 -1.6566  0.0044  1.3369
 7251SOL    HW233213   3.328   0.537  16.649  0.8173  1.5798  1.1495
 7252SOL     OW33214   0.085   0.738   6.564  0.2299  0.1699 -0.0094
 7252SOL    HW133215   0.006   0.784   6.593 -0.4228 -0.3592 -0.9236
 7252SOL    HW233216   0.155   0.803   6.566 -1.1379  1.6910 -2.5563
 7253SOL     OW33217   2.834   3.561   5.064 -0.0285  0.3494 -0.1508
 7253SOL    HW133218   2.857   3.470   5.084  0.5563 -0.0117 -2.4282
 7253SOL    HW233219   2.813   3.591   5.152 -0.5384 -0.3387 -0.0427
 7254SOL     OW33220   3.885   1.774  15.460  0.1196 -0.0739  0.0826
 7254SOL    HW133221   3.901   1.811  15.374  2.1004 -0.0731  0.4629
 7254SOL    HW233222   3.888   1.681  15.440 -1.8934 -0.4760  1.5731
 7255SOL     OW33223   4.659   2.703   1.682  0.1964  0.1885 -0.1521
 7255SOL    HW133224   4.621   2.789   1.665  1.4472  0.4990 -1.4184
 7255SOL    HW233225   4.719   2.725   1.754  2.6394 -0.7057 -1.9121
 7256SOL     OW33226   3.768   4.369   4.513 -0.1355  0.2017  0.1761
 7256SOL    HW133227   3.771   4.437   4.446  0.5034 -0.2721 -0.2645
 7256SOL    HW233228   3.850   4.326   4.491  1.1203  0.4178  4.2708
 7257SOL     OW33229   2.142   2.447   8.475  0.0108  0.2958  0.2881
 7257SOL    HW133230   2.211   2.434   8.540  0.8853 -2.0135 -1.1164
 7257SOL    HW233231   2.058   2.425   8.514  0.3007 -0.3690  0.5201
 7258SOL     OW33232   1.879   2.936  11.989  0.1538 -0.5057 -0.3243
 7258SOL    HW133233   1.886   3.031  11.979  1.6365 -0.5044  0.6865
 7258SOL    HW233234   1.789   2.942  12.022  1.0674  2.1077  1.7035
 7259SOL     OW33235   2.631   2.964  12.836  0.1848  0.2578 -0.2697
 7259SOL    HW133236   2.541   2.951  12.866  0.3532  1.1193  0.6135
 7259SOL    HW233237   2.676   2.982  12.919 -2.8841  3.0907  0.7653
 7260SOL     OW33238   3.603   2.755   6.782 -0.2358 -0.2025 -0.0831
 7260SOL    HW133239   3.692   2.731   6.807  0.4428  0.8715 -1.4990
 7260SOL    HW233240   3.621   2.781   6.692 -1.8212 -2.7217 -1.1261
 7261SOL     OW33241   2.754   1.119   2.295  0.0926 -0.4694  0.0518
 7261SOL    HW133242   2.748   1.106   2.200  0.8929 -0.8836  0.0602
 7261SOL    HW233243   2.825   1.184   2.294  0.4759 -0.8739  0.5587
 7262SOL     OW33244   1.239   4.608   6.590 -0.3567 -0.2142  0.4558
 7262SOL    HW133245   1.182   4.627   6.515 -3.3107  0.5034  2.8765
 7262SOL    HW233246   1.277   4.524   6.562  0.0981  0.0818  0.1792
 7263SOL     OW33247   3.515   0.569   2.444  0.0058  0.0041 -0.0690
 7263SOL    HW133248   3.437   0.595   2.397  0.1085 -0.2084 -0.3534
 7263SOL    HW233249   3.474   0.529   2.521 -0.9904 -0.7421 -0.9883
 7264SOL     OW33250   1.413   3.520   7.305 -0.2204  0.2283 -0.3195
 7264SOL    HW133251   1.418   3.600   7.253  1.1458  0.5318  0.2896
 7264SOL    HW233252   1.387   3.452   7.243  1.8564  0.5955 -1.5825
 7265SOL     OW33253   3.128   2.412   3.307  0.3114 -0.1557 -0.0321
 7265SOL    HW133254   3.036   2.431   3.289 -0.3904 -1.1228  2.5940
 7265SOL    HW233255   3.168   2.435   3.223 -1.0899 -0.3124 -0.7477
 7266SOL     OW33256   2.327   1.702   3.102 -0.5267 -0.0476  0.2828
 7266SOL    HW133257   2.233   1.722   3.103 -0.5585 -0.2509  1.0964
 7266SOL    HW233258   2.354   1.774   3.045 -1.1568  0.1163  0.1868
 7267SOL     OW33259   0.365   3.850   6.807  0.5860 -0.4358 -0.4976
 7267SOL    HW133260   0.383   3.937   6.772 -3.2690  0.8744  0.7798
 7267SOL    HW233261   0.286   3.863   6.860  1.0986  1.3768 -0.2171
 7268SOL     OW33262   2.661   2.322   6.505  0.0793  0.4051 -0.2893
 7268SOL    HW133263   2.698   2.409   6.515 -2.1960  1.2192  1.2005
 7268SOL    HW233264   2.639   2.328   6.412 -0.3027 -0.4809 -0.2546
 7269SOL     OW33265   2.352   4.350   7.321  0.4380  0.3995 -0.6127
 7269SOL    HW133266   2.340   4.300   7.402  0.8104  0.3445 -0.5887
 7269SOL    HW233267   2.281   4.318   7.266 -0.5898  1.9172 -0.1502
 7270SOL     OW33268   1.037   1.124   4.741  0.0637  0.2493 -0.4697
 7270SOL    HW133269   0.946   1.152   4.746 -0.3440 -0.9725 -1.1874
 7270SOL    HW233270   1.029   1.060   4.670 -0.9944  0.8152 -0.8604
 7271SOL     OW33271   4.054   3.182   1.600 -0.2498  0.2515  0.3031
 7271SOL    HW133272   4.118   3.161   1.669 -1.4279 -0.3678  1.2130
 7271SOL    HW233273   4.068   3.106   1.543 -0.2543  0.4467  0.0454
 7272SOL     OW33274   3.624   1.195   6.746 -0.2166  0.1261 -0.0735
 7272SOL    HW133275   3.673   1.256   6.691 -1.3817  1.8597  0.8052
 7272SOL    HW233276   3.555   1.255   6.776  1.2948  2.5473 -1.5245
 7273SOL     OW33277   0.419   2.274   8.703 -0.7402  1.1944 -0.2879
 7273SOL    HW133278   0.416   2.300   8.610 -0.5559 -0.2359 -0.6879
 7273SOL    HW233279   0.354   2.325   8.752 -1.4811 -1.2000  1.2129
 7274SOL     OW33280   3.615   2.895   0.584  0.3842  0.6826  0.3755
 7274SOL    HW133281   3.705   2.878   0.557  0.2649 -0.7667  0.8788
 7274SOL    HW233282   3.569   2.882   0.501  1.1654  2.3069 -0.3166
 7275SOL     OW33283   2.427   0.946   5.465  0.0860  0.1832 -0.4685
 7275SOL    HW133284   2.377   0.880   5.417 -0.8465  0.3321  0.3075
 7275SOL    HW233285   2.385   1.026   5.434 -0.8915 -1.1215 -2.5500
 7276SOL     OW33286   1.860   0.796   7.264 -0.0135  0.4414  0.1906
 7276SOL    HW133287   1.783   0.745   7.239 -0.1915  1.5927 -1.6182
 7276SOL    HW233288   1.930   0.732   7.254  0.2855  0.9127 -0.7469
 7277SOL     OW33289   1.418   0.800   7.221  0.2210 -0.4944 -0.4509
 7277SOL    HW133290   1.500   0.752   7.234  0.5763 -0.3724 -2.2565
 7277SOL    HW233291   1.459   0.879   7.186 -1.4136  0.2473 -0.6949
 7278SOL     OW33292   0.020   1.372   7.701 -0.1493 -0.4257  0.5779
 7278SOL    HW133293   4.652   1.388   7.704 -0.0510  0.1644  0.4058
 7278SOL    HW233294   0.032   1.289   7.748 -0.4945 -1.7784 -1.6653
 7279SOL     OW33295   1.394   2.850   6.992  0.2261  0.4564 -0.4381
 7279SOL    HW133296   1.379   2.898   6.910  1.3998 -0.0858 -0.9773
 7279SOL    HW233297   1.313   2.874   7.037  0.2199 -1.6664  0.6682
 7280SOL     OW33298   0.499   4.130   5.368 -0.2747 -0.1616  0.1480
 7280SOL    HW133299   0.505   4.223   5.347  0.2080 -0.2202  0.0210
 7280SOL    HW233300   0.544   4.130   5.453  0.1574  1.3192 -0.0780
 7281SOL     OW33301   4.149   4.214   7.046 -0.3579 -0.3774  0.7175
 7281SOL    HW133302   4.061   4.197   7.080 -0.1275 -1.6168  0.6803
 7281SOL    HW233303   4.153   4.309   7.037  1.0860 -0.5870 -0.7651
 7282SOL     OW33304   0.171   2.032   6.338 -0.6629 -0.0962 -0.2154
 7282SOL    HW133305   0.232   1.958   6.349 -0.5886 -0.1864 -1.2277
 7282SOL    HW233306   0.210   2.061   6.255 -1.0308  0.4266 -0.1999
 7283SOL     OW33307   1.776   1.644   1.865 -0.2951  0.1465  0.3775
 7283SOL    HW133308   1.779   1.557   1.905  0.6862 -0.6682 -1.4605
 7283SOL    HW233309   1.687   1.630   1.833  0.8439  0.3213 -2.8596
 7284SOL     OW33310   1.500   3.684   2.689  0.6655  0.1599 -0.5346
 7284SOL    HW133311   1.423   3.627   2.680 -0.1988  1.1988  0.3624
 7284SOL    HW233312   1.469   3.762   2.642 -1.0726 -1.0914 -1.4871
 7285SOL     OW33313   0.075   0.955   6.988  0.0577  0.0600  0.4772
 7285SOL    HW133314   0.148   0.994   6.940  0.3524  0.9617  1.6369
 7285SOL    HW233315   0.001   0.965   6.929 -0.3539 -0.6790  0.8781
 7286SOL     OW33316   1.895   4.459   8.502  0.0493 -0.3253 -0.3348
 7286SOL    HW133317   1.824   4.418   8.551 -0.3157  1.6302  0.7751
 7286SOL    HW233318   1.919   4.520   8.572  0.8889 -0.1762 -0.7509
 7287SOL     OW33319   0.356   2.681  15.057 -0.9826 -0.1035  0.1190
 7287SOL    HW133320   0.406   2.739  15.114 -2.6648 -0.4088  1.9247
 7287SOL    HW233321   0.267   2.716  15.068 -1.5044 -0.8696 -1.6704
 7288SOL     OW33322   1.964   4.562   1.683 -0.0579 -0.0137 -0.0011
 7288SOL    HW133323   1.992   4.651   1.706  2.0585 -0.4039 -1.0453
 7288SOL    HW233324   1.942   4.535   1.772  3.3092 -1.8697  0.2545
 7289SOL     OW33325   0.815   3.135   3.747  0.2791 -0.1608  0.6459
 7289SOL    HW133326   0.901   3.104   3.777  0.1599 -1.6871 -0.5751
 7289SOL    HW233327   0.807   3.104   3.657  2.8538 -0.7283  0.6025
 7290SOL     OW33328   0.131   0.293   4.159 -0.6256 -0.3312 -0.1211
 7290SOL    HW133329   0.048   0.339   4.169  0.7173  1.7127  1.6026
 7290SOL    HW233330   0.157   0.277   4.250  1.4881 -2.7924 -1.1269
 7291SOL     OW33331   1.018   1.673  16.890 -0.4790 -0.9790 -0.3049
 7291SOL    HW133332   1.101   1.645  16.852 -0.1206  1.7910 -1.5617
 7291SOL    HW233333   0.968   1.592  16.887 -0.2478 -1.1522  0.4292
 7292SOL     OW33334   1.199   3.583   3.359 -0.6439  0.3527 -0.0149
 7292SOL    HW133335   1.290   3.559   3.379 -0.1407  0.0803 -2.6700
 7292SOL    HW233336   1.156   3.576   3.444  1.3980 -1.4403  0.8811
 7293SOL     OW33337   3.822   2.801   9.101  0.0192  0.5531 -0.3818
 7293SOL    HW133338   3.898   2.743   9.101 -0.7332 -0.3955  3.3578
 7293SOL    HW233339   3.829   2.830   9.192  0.4011  1.1851 -0.6087
 7294SOL     OW33340   2.140   0.173   1.454  0.0434 -1.2140 -0.8990
 7294SOL    HW133341   2.051   0.154   1.423 -0.2495  1.0111 -1.4161
 7294SOL    HW233342   2.170   0.186   1.364  0.7460 -0.6137 -0.5761
 7295SOL     OW33343   2.463   1.785   8.701 -0.4785 -0.5466 -0.2935
 7295SOL    HW133344   2.382   1.741   8.677  0.6341 -3.1893  0.8032
 7295SOL    HW233345   2.488   1.729   8.775 -1.7182  0.1995  0.6798
 7296SOL     OW33346   0.177   0.302   5.529 -1.2239  0.9413 -0.0969
 7296SOL    HW133347   0.255   0.304   5.584 -1.1346  0.2577 -0.2004
 7296SOL    HW233348   0.168   0.391   5.494 -2.4826  0.5128 -0.8594
 7297SOL     OW33349   0.081   4.701  12.755  0.2837 -0.1916 -0.5100
 7297SOL    HW133350   0.148   0.004  12.817  0.0020  1.5533 -1.0570
 7297SOL    HW233351   0.083   0.049  12.695  1.0892 -0.6845 -1.0880
 7298SOL     OW33352   4.063   2.831   7.474 -0.3462  0.1426  0.4937
 7298SOL    HW133353   4.027   2.884   7.544 -1.9713 -0.2657 -0.0390
 7298SOL    HW233354   4.102   2.754   7.516 -0.0615  0.3035  0.5278
 7299SOL     OW33355   4.472   1.276   7.498  0.0297 -0.6175 -0.6750
 7299SOL    HW133356   4.548   1.218   7.501  1.1459  0.7503 -2.3825
 7299SOL    HW233357   4.467   1.297   7.591 -0.7579 -0.5966 -0.7180
 7300SOL     OW33358   4.284   1.090  13.975  0.3166  0.1198 -0.2518
 7300SOL    HW133359   4.319   1.169  13.934  0.8465 -1.3339 -2.5409
 7300SOL    HW233360   4.246   1.045  13.900 -0.1801 -0.4176  0.3272
 7301SOL     OW33361   1.451   3.619  16.877 -0.0930 -0.1886  0.0782
 7301SOL    HW133362   1.478   3.694  16.825 -1.1651  0.8604  1.0316
 7301SOL    HW233363   1.450   3.558  16.804  2.2409  0.7432 -0.7423
 7302SOL     OW33364   3.592   3.583   1.447  0.0564 -0.3429 -0.9540
 7302SOL    HW133365   3.533   3.650   1.482  1.2485 -0.8139  1.9449
 7302SOL    HW233366   3.550   3.498   1.464 -2.5212  0.8946 -1.1025
 7303SOL     OW33367   1.773   2.071   7.530  0.1596 -0.4571 -0.1173
 7303SOL    HW133368   1.738   2.159   7.544 -1.4035 -0.7004 -2.5147
 7303SOL    HW233369   1.717   2.027   7.595 -1.4811 -0.1603 -1.3524
 7304SOL     OW33370   0.891   1.936   7.858 -0.0597  0.0254  0.1571
 7304SOL    HW133371   0.946   1.859   7.844 -0.4573 -0.3422  0.6201
 7304SOL    HW233372   0.925   1.962   7.944 -1.2069  1.3848  0.1916
 7305SOL     OW33373   1.705   3.791   3.597  0.7713 -0.4023  0.8576
 7305SOL    HW133374   1.699   3.714   3.654  1.8159  0.3429  1.9745
 7305SOL    HW233375   1.680   3.748   3.516  2.7021 -0.3232  0.2093
 7306SOL     OW33376   1.124   0.660   5.215 -0.1900 -0.2086  0.1016
 7306SOL    HW133377   1.054   0.637   5.276 -1.5916  0.2923 -1.3350
 7306SOL    HW233378   1.094   0.608   5.141 -2.1643  2.4267 -0.9201
 7307SOL     OW33379   4.123   0.687   8.819  0.3228  0.1997  0.5761
 7307SOL    HW133380   4.111   0.770   8.865 -1.3732  0.0445  0.4421
 7307SOL    HW233381   4.116   0.618   8.885  0.0693 -1.6312 -1.3762
 7308SOL     OW33382   3.526   3.253  11.817 -0.1677  0.0086  0.6836
 7308SOL    HW133383   3.567   3.300  11.745  0.1059 -1.5283 -0.1765
 7308SOL    HW233384   3.503   3.329  11.871  3.9850  2.3015 -0.7898
 7309SOL     OW33385   0.557   0.147   8.784  0.1536  0.1867  0.2495
 7309SOL    HW133386   0.628   0.188   8.734 -0.5151  2.1675  0.9594
 7309SOL    HW233387   0.588   0.132   8.874 -2.1747  0.7372  1.1432
 7310SOL     OW33388   1.692   4.094   7.524 -0.1839 -0.3255  0.4461
 7310SOL    HW133389   1.667   4.163   7.585  0.6427 -0.3051  0.7669
 7310SOL    HW233390   1.787   4.096   7.540 -0.5034 -1.1411  2.3642
 7311SOL     OW33391   1.994   1.713   8.424  0.3658  0.5002 -0.6271
 7311SOL    HW133392   1.971   1.639   8.481 -3.9284  0.8980 -1.8334
 7311SOL    HW233393   1.914   1.763   8.409 -0.4215 -1.6463 -3.7896
 7312SOL     OW33394   4.643   1.756   7.263 -0.2637 -0.2070 -0.4654
 7312SOL    HW133395   4.579   1.702   7.310 -0.8068 -0.9601 -2.0644
 7312SOL    HW233396   4.588   1.803   7.200  2.1617  1.0877 -1.6226
 7313SOL     OW33397   4.593   3.765   4.091 -0.4421 -0.7740 -0.4900
 7313SOL    HW133398   4.677   3.802   4.065 -0.0322 -1.8039 -0.6256
 7313SOL    HW233399   4.620   3.676   4.114 -0.0453 -0.2277  1.1575
 7314SOL     OW33400   1.461   0.107  10.658  0.3449 -0.2566 -0.3345
 7314SOL    HW133401   1.375   0.078  10.629  0.3068  0.8427 -1.3077
 7314SOL    HW233402   1.474   0.052  10.736 -1.7090  0.5668  0.5640
 7315SOL     OW33403   2.009   1.945   1.566 -0.2270  0.0442 -0.1135
 7315SOL    HW133404   2.035   2.035   1.548  0.4233 -0.3749 -1.2160
 7315SOL    HW233405   1.934   1.953   1.625 -0.2363 -1.8595  0.1278
 7316SOL     OW33406   1.314   0.596   4.678 -0.4568  0.3345  0.0334
 7316SOL    HW133407   1.408   0.597   4.663 -0.4630 -0.3963 -0.0403
 7316SOL    HW233408   1.311   0.575   4.771 -0.1096  1.2818  0.2642
 7317SOL     OW33409   3.633   4.711   4.042 -0.2673 -0.1986 -0.0747
 7317SOL    HW133410   3.661   4.625   4.074  0.2942  0.9647  2.6000
 7317SOL    HW233411   3.548   4.688   4.006 -0.3772  1.0374 -0.6102
 7318SOL     OW33412   3.753   3.147   5.194  0.0114 -0.0685 -0.0499
 7318SOL    HW133413   3.743   3.120   5.102  2.5765 -0.3935 -0.2445
 7318SOL    HW233414   3.735   3.061   5.232  0.0896  0.3476  0.9085
 7319SOL     OW33415   0.875   3.632  16.927  0.0371 -0.8479 -0.4862
 7319SOL    HW133416   0.862   3.544  16.891  0.6251 -1.5090  0.8936
 7319SOL    HW233417   0.968   3.650  16.936 -0.1699 -0.6927  1.5053
 7320SOL     OW33418   3.500   2.102   8.623  0.4796  0.7114 -0.1449
 7320SOL    HW133419   3.544   2.111   8.538  0.2024  2.3694 -0.0981
 7320SOL    HW233420   3.438   2.174   8.624  0.0844  0.3485  1.8679
 7321SOL     OW33421   1.438   3.042   8.996  0.0602 -0.4290  0.0653
 7321SOL    HW133422   1.521   2.996   8.985  0.1473 -0.0955 -0.6604
 7321SOL    HW233423   1.376   2.973   8.973 -0.3581  0.0674 -0.3057
 7322SOL     OW33424   2.457   2.268   6.056  0.1773  0.6852  0.1847
 7322SOL    HW133425   2.405   2.229   6.126  2.4829 -0.6309  1.1488
 7322SOL    HW233426   2.393   2.314   6.000  0.7147 -1.1394 -1.9178
 7323SOL     OW33427   2.962   4.643   2.343 -0.2769  0.0339  0.0584
 7323SOL    HW133428   2.990   4.648   2.434  1.1578  0.1093 -0.3707
 7323SOL    HW233429   3.041   4.670   2.296 -1.5368  2.6932 -0.5094
 7324SOL     OW33430   1.345   1.514   1.629  0.9032  0.0923  0.7446
 7324SOL    HW133431   1.322   1.441   1.686 -1.1396 -0.2894 -0.5714
 7324SOL    HW233432   1.264   1.527   1.580  0.9586  1.2389  0.9604
 7325SOL     OW33433   3.028   1.920   3.977  0.3803 -0.0878 -0.3127
 7325SOL    HW133434   3.045   1.957   4.064 -1.5985  0.9014 -0.3465
 7325SOL    HW233435   2.933   1.922   3.974  0.3078  0.9113  2.3371
 7326SOL     OW33436   3.132   1.786   6.705 -0.0802  0.0714  0.3742
 7326SOL    HW133437   3.157   1.745   6.788  1.7010  0.6491  0.1026
 7326SOL    HW233438   3.114   1.877   6.730 -0.7560  0.8137 -2.8641
 7327SOL     OW33439   4.526   0.479   2.150 -0.0290  0.2104 -0.0666
 7327SOL    HW133440   4.557   0.565   2.179  0.5789  0.4047 -1.2905
 7327SOL    HW233441   4.505   0.431   2.230 -0.7422 -1.3177 -1.1674
 7328SOL     OW33442   1.915   0.500  10.280 -0.2350  0.1885 -0.6307
 7328SOL    HW133443   1.945   0.423  10.329 -1.2097  0.0023 -0.3316
 7328SOL    HW233444   1.896   0.554  10.357  1.2603 -0.8446  0.4612
 7329SOL     OW33445   1.101   3.621   7.994  0.0726 -0.0577 -0.3582
 7329SOL    HW133446   1.191   3.650   7.980  0.3072 -0.3870  0.4780
 7329SOL    HW233447   1.099   3.594   8.086  1.8944  1.8422  0.2460
 7330SOL     OW33448   4.663   1.868   4.776 -0.3178  0.1505  0.9570
 7330SOL    HW133449   4.585   1.914   4.807 -0.0925  0.4929  1.0139
 7330SOL    HW233450   4.675   1.806   4.848 -0.1890  0.3960  1.1478
 7331SOL     OW33451   2.236   3.491  10.794  0.4286 -0.0333  0.4332
 7331SOL    HW133452   2.182   3.506  10.717 -1.7527 -1.5968  1.6532
 7331SOL    HW233453   2.224   3.397  10.802 -2.4408  0.3781  1.2001
 7332SOL     OW33454   1.567   3.883   5.042  0.1523  0.3361  0.1494
 7332SOL    HW133455   1.524   3.969   5.046 -1.6918 -0.4993 -1.5002
 7332SOL    HW233456   1.616   3.885   4.960  1.4911 -0.9443  0.9292
 7333SOL     OW33457   0.892   3.976   4.565  0.2450 -0.3203 -0.1527
 7333SOL    HW133458   0.876   3.997   4.656 -0.7616 -0.5060 -0.2795
 7333SOL    HW233459   0.955   3.905   4.579  1.7334  0.8501 -0.8901
 7334SOL     OW33460   0.278   3.704  16.773 -0.0171  0.2806 -0.8354
 7334SOL    HW133461   0.199   3.750  16.803 -0.2457 -0.7432  0.1484
 7334SOL    HW233462   0.229   3.629  16.740 -1.6345  0.3485  1.4297
 7335SOL     OW33463   0.462   1.316   5.683 -0.0146 -0.2795 -0.1682
 7335SOL    HW133464   0.405   1.325   5.760 -0.1753  1.1765 -0.4579
 7335SOL    HW233465   0.481   1.403   5.648  0.8765  1.2451  4.0676
 7336SOL     OW33466   1.908   3.887   8.607 -0.2717  0.1717  0.1171
 7336SOL    HW133467   1.985   3.922   8.561 -1.3324  1.0547 -0.9669
 7336SOL    HW233468   1.915   3.793   8.588  0.6499  0.1957  0.3175
 7337SOL     OW33469   3.954   2.337   0.370 -0.2823  0.1859 -0.2334
 7337SOL    HW133470   3.925   2.250   0.342  0.6702  0.7277 -3.0126
 7337SOL    HW233471   4.047   2.325   0.347  0.3515  0.0794  2.3739
 7338SOL     OW33472   1.752   1.607   2.434 -0.0706  0.0736 -0.0903
 7338SOL    HW133473   1.749   1.541   2.364  0.2904 -1.0848  0.9874
 7338SOL    HW233474   1.756   1.688   2.383 -0.4017  0.3958  0.4076
 7339SOL     OW33475   1.415   0.742  14.566 -0.3421 -0.7016  0.4236
 7339SOL    HW133476   1.490   0.700  14.609  0.0410 -1.9236 -1.4286
 7339SOL    HW233477   1.464   0.802  14.510  1.2893 -0.1087  2.4969
 7340SOL     OW33478   0.708   1.834   4.017 -0.3331  0.5106  0.1771
 7340SOL    HW133479   0.620   1.868   4.032 -0.4570  0.4590 -0.4388
 7340SOL    HW233480   0.700   1.739   4.025 -0.5657  0.6720  1.8336
 7341SOL     OW33481   0.458   0.125  11.512  0.6340 -0.4580 -0.1268
 7341SOL    HW133482   0.448   0.087  11.425 -0.3928 -1.2964  0.3600
 7341SOL    HW233483   0.464   0.049  11.570  0.4139  0.6830  1.4112
 7342SOL     OW33484   2.399   1.362   9.373 -0.5552  0.5643  0.2264
 7342SOL    HW133485   2.395   1.277   9.330  1.1823  0.1836  0.7894
 7342SOL    HW233486   2.460   1.338   9.444  1.5545 -0.3295 -1.8906
 7343SOL     OW33487   2.001   2.501  11.311 -0.1535  0.2547  0.2732
 7343SOL    HW133488   2.041   2.583  11.341 -2.3101  1.2717  0.4136
 7343SOL    HW233489   2.060   2.463  11.247 -0.3792 -0.0590  0.2507
 7344SOL     OW33490   3.274   0.047   7.896  0.1900  0.2272  0.1708
 7344SOL    HW133491   3.255   0.007   7.981  0.9743  1.1063  0.7501
 7344SOL    HW233492   3.309   4.697   7.850  1.1647  2.1912 -2.3525
 7345SOL     OW33493   1.602   1.305   0.705  0.1471  0.3285  0.3891
 7345SOL    HW133494   1.544   1.229   0.698  0.2965  0.1621  0.9803
 7345SOL    HW233495   1.585   1.350   0.788 -3.5464  0.6686 -0.5342
 7346SOL     OW33496   1.778   3.661   5.202 -0.3380  0.1789  0.2091
 7346SOL    HW133497   1.690   3.634   5.178 -0.9622  0.9279  1.6263
 7346SOL    HW233498   1.822   3.634   5.122 -1.3609  1.0726 -0.6552
 7347SOL     OW33499   0.728   2.834   3.035  0.3588  0.1222 -0.3271
 7347SOL    HW133500   0.815   2.818   2.998 -0.3950  0.0014 -2.0703
 7347SOL    HW233501   0.701   2.896   2.968  1.7617  1.0041 -0.0929
 7348SOL     OW33502   2.807   0.236   4.046  0.5936 -0.4096 -0.3864
 7348SOL    HW133503   2.724   0.197   4.017  0.8632 -2.2543  1.3480
 7348SOL    HW233504   2.816   0.210   4.137 -1.6405 -0.0364 -0.0467
 7349SOL     OW33505   0.798   2.775   4.126  0.2475 -0.4081  0.5795
 7349SOL    HW133506   0.711   2.743   4.150  0.0867 -1.3502 -1.2585
 7349SOL    HW233507   0.777   2.817   4.043 -0.8554 -1.1467  0.4899
 7350SOL     OW33508   3.201   3.257   3.100  0.8779 -0.4510  0.0532
 7350SOL    HW133509   3.289   3.226   3.075  1.2669  0.3093  0.4780
 7350SOL    HW233510   3.144   3.236   3.027 -0.4411 -0.7118  1.1697
 7351SOL     OW33511   1.230   0.127   3.625  0.6158  0.1822  0.0106
 7351SOL    HW133512   1.158   0.068   3.647  1.1001 -0.4602 -0.1334
 7351SOL    HW233513   1.300   0.062   3.622  2.0978  1.7485  0.2760
 7352SOL     OW33514   0.956   0.059  17.165 -0.6481  0.6946 -0.1329
 7352SOL    HW133515   0.928   0.137  17.214 -0.3650  0.5160  0.3141
 7352SOL    HW233516   0.888   4.725  17.191 -1.5643  1.6712 -0.2595
 7353SOL     OW33517   0.908   1.336  14.538  0.3425  0.4293 -0.2438
 7353SOL    HW133518   0.885   1.416  14.491  0.0677 -0.5266 -1.7588
 7353SOL    HW233519   0.824   1.294  14.554  1.0957 -0.2033  1.9858
 7354SOL     OW33520   2.531   3.590   8.567  0.6429 -0.0560  0.2653
 7354SOL    HW133521   2.566   3.618   8.652 -0.9909  0.8614  0.6429
 7354SOL    HW233522   2.613   3.577   8.521  2.2080 -0.5726  3.2060
 7355SOL     OW33523   1.049   0.891   4.912  0.4167 -0.1013  0.2793
 7355SOL    HW133524   1.124   0.928   4.958 -1.1845 -0.2847  3.0421
 7355SOL    HW233525   1.061   0.948   4.837 -0.3561 -1.1248 -0.6249
 7356SOL     OW33526   4.564   0.092  12.952  0.1318 -0.1469  0.2388
 7356SOL    HW133527   4.646   0.128  12.987  1.2846 -1.6103 -0.9481
 7356SOL    HW233528   4.502   0.150  12.996  0.7666 -1.4610  2.8946
 7357SOL     OW33529   0.420   0.400   5.689 -0.1731  0.0783  0.1915
 7357SOL    HW133530   0.398   0.388   5.781  2.3559  0.1561  0.8071
 7357SOL    HW233531   0.513   0.378   5.698  0.2875  2.3438  0.7263
 7358SOL     OW33532   3.141   0.147  12.851  0.2397  0.4553  0.1421
 7358SOL    HW133533   3.172   0.237  12.846  2.0458 -0.2071 -0.4091
 7358SOL    HW233534   3.169   0.123  12.939 -0.8098  1.6009  0.7882
 7359SOL     OW33535   3.486   1.140  17.472  0.2718 -0.0652 -0.0855
 7359SOL    HW133536   3.543   1.138  17.549  0.2971  3.4730  0.0163
 7359SOL    HW233537   3.410   1.188  17.504 -0.8704 -0.6604 -1.8858
 7360SOL     OW33538   3.382   4.700   2.070  0.3220 -0.2169  0.3182
 7360SOL    HW133539   3.434   0.002   1.995  1.7671 -1.4330  0.8615
 7360SOL    HW233540   3.408   4.610   2.086 -2.0254 -1.4642 -2.7972
 7361SOL     OW33541   3.638   3.610   0.911 -0.1228 -0.0792 -0.2329
 7361SOL    HW133542   3.560   3.566   0.874  1.4012 -0.7469 -2.6619
 7361SOL    HW233543   3.615   3.609   1.004  0.1187 -2.4364 -0.1786
 7362SOL     OW33544   3.697   1.800  13.207 -0.5168  0.0733  0.1068
 7362SOL    HW133545   3.642   1.732  13.245 -0.1469  1.1311  2.5686
 7362SOL    HW233546   3.773   1.796  13.265 -0.8140  2.8338  0.6998
 7363SOL     OW33547   0.519   1.114   7.020  0.0651 -0.2707 -0.1263
 7363SOL    HW133548   0.433   1.114   7.062 -1.0968  0.6003 -2.5404
 7363SOL    HW233549   0.520   1.200   6.979  0.8036 -0.0767  0.2975
 7364SOL     OW33550   3.789   4.338   2.579 -0.4359  0.1877  0.1204
 7364SOL    HW133551   3.755   4.295   2.658 -0.2080  1.9714  1.1887
 7364SOL    HW233552   3.774   4.274   2.510 -0.2985  1.4007 -1.0247
 7365SOL     OW33553   1.763   0.519   4.279  0.0542  0.0800 -0.6609
 7365SOL    HW133554   1.821   0.556   4.345 -1.7390  0.1496  0.8742
 7365SOL    HW233555   1.745   0.595   4.225 -1.0531 -0.4148 -1.0071
 7366SOL     OW33556   3.886   2.597   8.414 -0.2523 -0.2795 -0.1416
 7366SOL    HW133557   3.919   2.607   8.503 -2.7050 -0.5754  0.7963
 7366SOL    HW233558   3.881   2.501   8.408  1.2272 -0.3053 -0.9258
 7367SOL     OW33559   1.428   2.288   4.879  0.8324 -0.0468  0.4830
 7367SOL    HW133560   1.346   2.239   4.880  0.5709  0.3903  0.5227
 7367SOL    HW233561   1.405   2.353   4.946  0.7525  1.5179 -1.0540
 7368SOL     OW33562   3.625   0.809  17.294  0.0027 -0.7272 -0.3528
 7368SOL    HW133563   3.719   0.795  17.282  0.0846 -0.3002 -0.1989
 7368SOL    HW233564   3.612   0.804  17.388 -3.7831 -0.2396 -0.8651
 7369SOL     OW33565   1.687   3.534   3.762  0.1395 -0.2969  0.4211
 7369SOL    HW133566   1.667   3.445   3.733 -3.4674  0.2959  1.1227
 7369SOL    HW233567   1.599   3.568   3.778  0.5306  0.8323  0.2085
 7370SOL     OW33568   1.559   4.206  15.934  0.0532  0.3332 -0.5115
 7370SOL    HW133569   1.492   4.260  15.975 -1.5616 -1.5533 -0.6866
 7370SOL    HW233570   1.581   4.261  15.858 -0.1689  2.1209  0.7000
 7371SOL     OW33571   3.437   3.162   5.259 -0.0038 -0.3828 -0.0768
 7371SOL    HW133572   3.349   3.131   5.278  0.9159 -1.9976  1.5840
 7371SOL    HW233573   3.442   3.247   5.303 -0.9724 -0.9030  1.0508
 7372SOL     OW33574   1.806   1.825  15.646 -0.1749  0.2490 -0.3681
 7372SOL    HW133575   1.785   1.743  15.691 -0.6249  0.1727 -0.7155
 7372SOL    HW233576   1.735   1.881  15.678 -0.7022 -0.9489  0.5709
 7373SOL     OW33577   4.125   3.175  15.131 -0.0153  0.5513 -0.4519
 7373SOL    HW133578   4.159   3.141  15.048  1.3941 -1.7105  1.0254
 7373SOL    HW233579   4.194   3.138  15.186 -2.9577 -3.2180  0.7154
 7374SOL     OW33580   1.037   0.092   5.413  0.2803 -0.1867  0.4894
 7374SOL    HW133581   1.034   0.184   5.441 -2.0184 -0.6510  1.7693
 7374SOL    HW233582   1.086   0.065   5.491 -0.2653  1.1042  1.2849
 7375SOL     OW33583   3.201   2.317  17.226  0.3305  0.0629  0.0093
 7375SOL    HW133584   3.168   2.366  17.151  2.7766  2.0476  0.2534
 7375SOL    HW233585   3.267   2.379  17.258  1.9586 -0.7778 -1.6728
 7376SOL     OW33586   3.666   4.235   3.022  0.2832 -0.8153  0.4000
 7376SOL    HW133587   3.719   4.274   3.092 -0.1728 -0.5706  0.6078
 7376SOL    HW233588   3.692   4.143   3.019  5.0514  0.6489 -3.0025
 7377SOL     OW33589   2.772   3.783  14.560 -0.7115 -0.4638  0.0744
 7377SOL    HW133590   2.807   3.752  14.644 -0.9117 -1.3713 -0.1740
 7377SOL    HW233591   2.836   3.741  14.503  0.8414  2.4609 -0.3541
 7378SOL     OW33592   1.431   2.267  17.517  0.2471  0.2466  0.8376
 7378SOL    HW133593   1.505   2.239  17.570  0.5774 -1.8877 -0.7659
 7378SOL    HW233594   1.456   2.212  17.443 -0.5261 -0.6357  1.2257
 7379SOL     OW33595   0.344   0.253  13.181  0.2344 -0.7935 -0.1683
 7379SOL    HW133596   0.438   0.268  13.168 -0.0994  0.8258 -0.7434
 7379SOL    HW233597   0.312   0.268  13.092  0.9571  2.1413  0.0754
 7380SOL     OW33598   2.499   3.745   2.110  0.0850 -0.2820  0.6466
 7380SOL    HW133599   2.517   3.824   2.160  2.2133 -0.5557  0.3237
 7380SOL    HW233600   2.500   3.779   2.021  0.3852 -1.8756  0.0369
 7381SOL     OW33601   4.145   2.848  10.974 -0.3486  0.2445  0.3856
 7381SOL    HW133602   4.068   2.800  10.943  1.4625 -3.0872  1.0255
 7381SOL    HW233603   4.107   2.907  11.039 -0.4438  1.2744 -0.6074
 7382SOL     OW33604   2.440   2.201  10.486  0.0166  0.7652  0.3954
 7382SOL    HW133605   2.437   2.297  10.490  2.7889  0.8830 -0.6582
 7382SOL    HW233606   2.371   2.192  10.420 -0.5201  1.8267  0.8059
 7383SOL     OW33607   2.294   0.462   9.306  0.0905  0.0715 -0.1263
 7383SOL    HW133608   2.375   0.433   9.349  1.3063  0.3178 -2.2661
 7383SOL    HW233609   2.247   0.480   9.387  1.8190 -1.5900  1.2414
 7384SOL     OW33610   0.574   2.451   3.590  0.0332 -0.3487  0.0089
 7384SOL    HW133611   0.563   2.398   3.511 -0.6501  0.6022 -0.5346
 7384SOL    HW233612   0.670   2.459   3.595  0.0977 -0.0534 -1.5896
 7385SOL     OW33613   3.581   0.972   7.950  0.2816 -0.4241 -0.6259
 7385SOL    HW133614   3.612   1.058   7.921 -2.3705  0.0812 -1.9552
 7385SOL    HW233615   3.507   0.997   8.005  0.5783 -1.0797  0.0733
 7386SOL     OW33616   2.506   1.111   2.430 -0.0669 -0.6617  0.4038
 7386SOL    HW133617   2.592   1.110   2.388  0.3802 -2.2653  1.3447
 7386SOL    HW233618   2.461   1.190   2.400 -1.2382 -1.3614  0.3455
 7387SOL     OW33619   0.507   3.692   2.078  0.6018 -0.3405  0.2273
 7387SOL    HW133620   0.539   3.661   2.162 -1.3679 -1.9186  0.3880
 7387SOL    HW233621   0.412   3.701   2.087  0.3517 -2.1652 -0.6138
 7388SOL     OW33622   4.632   1.469  16.047  0.1424  0.0322  0.1822
 7388SOL    HW133623   4.565   1.411  16.013  1.7065 -1.9342  0.4652
 7388SOL    HW233624   4.706   1.438  15.995  0.4301  0.8049  0.1189
 7389SOL     OW33625   0.489   0.025   5.520 -0.7131  0.2027  0.0986
 7389SOL    HW133626   0.576   0.034   5.561 -0.4398  0.3412 -0.5104
 7389SOL    HW233627   0.494   0.105   5.468 -0.3517  0.3597  0.3702
 7390SOL     OW33628   2.202   1.041   9.358  0.1688  0.4537 -0.7395
 7390SOL    HW133629   2.171   0.953   9.336  0.7614 -0.0936  0.5952
 7390SOL    HW233630   2.297   1.030   9.359 -0.1511 -2.3739 -2.7114
 7391SOL     OW33631   2.214   2.821   7.134  0.1960  0.6032  0.1910
 7391SOL    HW133632   2.193   2.745   7.189 -0.3295  0.4221 -0.2575
 7391SOL    HW233633   2.282   2.781   7.081 -0.0022 -0.0875  0.4461
 7392SOL     OW33634   0.331   2.126  13.567 -0.5204 -0.3320 -0.1264
 7392SOL    HW133635   0.414   2.137  13.520 -0.8968  0.4950 -0.5846
 7392SOL    HW233636   0.353   2.109  13.659 -0.7359  2.0982  0.3782
 7393SOL     OW33637   1.442   0.784   2.742  0.3431 -0.5684  0.2690
 7393SOL    HW133638   1.458   0.690   2.745 -0.5374 -0.7829 -1.5479
 7393SOL    HW233639   1.530   0.821   2.747  1.0068 -1.6259 -3.7987
 7394SOL     OW33640   1.576   0.230   7.302 -0.3436  0.1226  0.7191
 7394SOL    HW133641   1.510   0.196   7.362 -0.5928  0.3749  0.5884
 7394SOL    HW233642   1.537   0.218   7.215 -1.6466  0.2151  1.3017
 7395SOL     OW33643   3.058   2.671   9.232 -0.0101  0.2656  0.1338
 7395SOL    HW133644   2.991   2.691   9.297 -1.5386  1.1717 -1.7191
 7395SOL    HW233645   3.059   2.576   9.222 -3.0898  0.2513  0.2402
 7396SOL     OW33646   1.233   0.799   6.458 -0.4418 -0.0265  0.3506
 7396SOL    HW133647   1.255   0.707   6.443  1.8257  0.7554 -0.9937
 7396SOL    HW233648   1.214   0.804   6.552  2.7262 -2.1976  1.0992
 7397SOL     OW33649   1.724   0.157   0.981  0.7556 -0.5363  0.3085
 7397SOL    HW133650   1.786   0.217   0.940 -0.5713  0.6520  0.0515
 7397SOL    HW233651   1.685   0.221   1.040 -1.0199  1.6164 -3.2397
 7398SOL     OW33652   1.643   0.010  10.417  0.7003 -0.1798  0.2136
 7398SOL    HW133653   1.605   0.039  10.500  1.3790 -1.0225  0.8161
 7398SOL    HW233654   1.589   4.660  10.397  2.1102 -1.1357  0.1149
 7399SOL     OW33655   3.817   3.782   4.412 -0.4655  0.2341  0.1065
 7399SOL    HW133656   3.906   3.751   4.402 -0.7843 -0.9029  0.8172
 7399SOL    HW233657   3.786   3.718   4.476  0.0448 -0.1598 -0.0423
 7400SOL     OW33658   0.168   3.397  12.139  0.7360  0.3788 -0.3345
 7400SOL    HW133659   0.224   3.456  12.089  2.1670 -1.1467 -0.5470
 7400SOL    HW233660   0.147   3.446  12.218  1.5083 -0.4602  0.4046
 7401SOL     OW33661   1.864   2.243   6.500  0.4426  0.0989 -0.2355
 7401SOL    HW133662   1.792   2.180   6.506  0.1602  0.4504  0.1624
 7401SOL    HW233663   1.827   2.308   6.440 -1.1128 -1.0079 -0.4753
 7402SOL     OW33664   2.235   3.709   6.469  0.0823 -0.3286 -0.2275
 7402SOL    HW133665   2.253   3.635   6.527 -0.0932 -1.1205 -1.1883
 7402SOL    HW233666   2.224   3.660   6.388  1.2328 -2.6073  1.0065
 7403SOL     OW33667   0.532   4.236   2.490 -1.0174  0.4358  0.0924
 7403SOL    HW133668   0.626   4.254   2.498 -0.1382 -4.0143 -0.0454
 7403SOL    HW233669   0.500   4.275   2.409 -0.5125 -0.0925 -0.3591
 7404SOL     OW33670   0.090   3.510   0.718  0.3485 -0.1731  0.0351
 7404SOL    HW133671   0.143   3.576   0.763 -0.5996  0.0890  0.7513
 7404SOL    HW233672   0.003   3.529   0.754  0.0326  0.9926 -1.3183
 7405SOL     OW33673   3.351   2.517   3.424  0.1274 -0.0650 -0.0036
 7405SOL    HW133674   3.399   2.437   3.400  0.0439 -0.1688  0.1709
 7405SOL    HW233675   3.261   2.494   3.398  1.0043 -1.3557 -1.9090
 7406SOL     OW33676   0.038   4.654   2.813  0.1802 -0.5257  0.1679
 7406SOL    HW133677   4.672   4.635   2.829  0.3180 -0.6743  0.7821
 7406SOL    HW233678   0.083   4.582   2.857 -1.7029 -2.1595 -0.5771
 7407SOL     OW33679   3.471   2.470   8.472  0.5197 -0.2837  0.2188
 7407SOL    HW133680   3.396   2.530   8.468 -0.4628 -1.6073 -1.2665
 7407SOL    HW233681   3.516   2.510   8.398  1.0872 -1.5754 -0.1321
 7408SOL     OW33682   1.245   4.112   8.428 -0.7622  0.2691 -0.1331
 7408SOL    HW133683   1.175   4.054   8.397 -0.4298 -1.6508  2.6828
 7408SOL    HW233684   1.314   4.045   8.422 -0.4188  0.2704  3.9369
 7409SOL     OW33685   2.641   2.256   2.602  0.2224 -0.1707 -0.2229
 7409SOL    HW133686   2.676   2.331   2.555 -1.5892  0.1015 -1.1396
 7409SOL    HW233687   2.714   2.253   2.664 -0.6633  2.4262  0.9251
 7410SOL     OW33688   0.202   3.866   1.388  0.5318 -0.4906 -0.2820
 7410SOL    HW133689   0.175   3.802   1.322  0.9136  0.4257 -1.3197
 7410SOL    HW233690   0.218   3.800   1.456  0.4875 -0.4790 -0.2601
 7411SOL     OW33691   1.677   2.835   4.106 -0.4047  0.6948  0.4102
 7411SOL    HW133692   1.649   2.750   4.071 -1.6369  1.3192 -0.1183
 7411SOL    HW233693   1.623   2.894   4.053 -0.6616  1.1996  1.2447
 7412SOL     OW33694   2.961   1.154  14.656 -0.6737 -0.6087  0.3867
 7412SOL    HW133695   2.996   1.191  14.575 -3.1471  1.4120  0.2427
 7412SOL    HW233696   2.868   1.151  14.638 -0.8585 -1.2907  1.4566
 7413SOL     OW33697   3.164   3.579   4.081  0.2279 -0.2284  0.2392
 7413SOL    HW133698   3.246   3.626   4.099  0.6306 -0.7038 -0.3160
 7413SOL    HW233699   3.135   3.628   4.004 -3.1945 -1.5203  0.7360
 7414SOL     OW33700   0.512   3.984   9.927 -0.3640  0.2114  0.5959
 7414SOL    HW133701   0.444   4.034   9.881 -2.1303 -1.8299  0.9871
 7414SOL    HW233702   0.593   4.031   9.909  1.8003 -3.1344  1.6631
 7415SOL     OW33703   4.231   3.068   3.900 -0.4556  0.7311  0.2178
 7415SOL    HW133704   4.220   3.122   3.822  0.5701 -0.0111 -0.4195
 7415SOL    HW233705   4.315   3.098   3.935  0.1207  0.0373 -0.6093
 7416SOL     OW33706   3.148   3.467   5.153  0.1322 -0.2440  0.0686
 7416SOL    HW133707   3.151   3.445   5.246  0.7351  1.0425  0.3543
 7416SOL    HW233708   3.237   3.459   5.120 -0.3150 -2.0725 -0.6741
 7417SOL     OW33709   1.996   4.375   2.248  0.3376 -0.7039 -0.5758
 7417SOL    HW133710   2.014   4.347   2.338 -1.4067  0.2291  0.0629
 7417SOL    HW233711   1.985   4.292   2.201  2.6100 -2.1358  1.3780
 7418SOL     OW33712   2.347   2.111   2.510 -0.0594 -0.4817 -0.7700
 7418SOL    HW133713   2.332   2.203   2.532 -0.1257 -0.9019  0.8891
 7418SOL    HW233714   2.266   2.063   2.494 -1.1118  0.2162  2.6009
 7419SOL     OW33715   0.356   2.852   2.818 -0.1665  0.1258  0.5369
 7419SOL    HW133716   0.378   2.930   2.868  2.4808 -0.2927  0.0301
 7419SOL    HW233717   0.275   2.822   2.860 -1.3936  1.2373 -1.0465
 7420SOL     OW33718   0.206   3.752   7.762 -0.1546  0.6236  0.3635
 7420SOL    HW133719   0.261   3.730   7.837 -1.0187  0.9932  1.1068
 7420SOL    HW233720   0.137   3.797   7.811 -0.4180 -0.4346  0.9614
 7421SOL     OW33721   1.614   1.342   4.648 -0.1935  1.0198  0.0909
 7421SOL    HW133722   1.562   1.315   4.572 -0.8150  0.0942  0.8486
 7421SOL    HW233723   1.590   1.278   4.715 -0.6873  0.5719 -0.5119
 7422SOL     OW33724   1.601   1.993   2.877  0.8752  0.4500 -0.7975
 7422SOL    HW133725   1.583   2.081   2.843 -2.8708  0.3005  0.8401
 7422SOL    HW233726   1.562   1.929   2.818  1.3686  0.8909 -1.6101
 7423SOL     OW33727   2.566   1.146  10.082 -0.1422  0.0279  0.0697
 7423SOL    HW133728   2.569   1.067  10.135 -1.1604 -1.4851 -2.0925
 7423SOL    HW233729   2.488   1.185  10.121  0.1554  0.6920 -0.0077
 7424SOL     OW33730   0.612   3.527  13.674 -0.4372 -0.3231 -0.3949
 7424SOL    HW133731   0.563   3.470  13.733  0.6133 -0.7024  0.1251
 7424SOL    HW233732   0.543   3.591  13.659 -0.6243  0.2221  2.7831
 7425SOL     OW33733   4.474   2.287   9.829 -0.0491 -0.1048 -0.1402
 7425SOL    HW133734   4.491   2.210   9.773 -1.6212 -0.0895 -0.6353
 7425SOL    HW233735   4.567   2.307   9.838 -0.0848 -1.1075  2.5285
 7426SOL     OW33736   2.259   0.470  17.013 -0.6097 -0.0130  0.0614
 7426SOL    HW133737   2.248   0.534  16.943 -2.7492 -0.2525  0.1770
 7426SOL    HW233738   2.250   0.383  16.973 -0.4826  0.2988 -0.6512
 7427SOL     OW33739   2.341   3.720   7.146 -0.4384  0.2924 -0.4046
 7427SOL    HW133740   2.384   3.775   7.211 -0.8066 -0.5129  0.5258
 7427SOL    HW233741   2.252   3.739   7.173 -0.7656  0.1807 -1.3805
 7428SOL     OW33742   2.479   3.907  15.809  0.4607 -0.5372  0.0589
 7428SOL    HW133743   2.477   3.819  15.771  2.0387 -0.2423 -0.7143
 7428SOL    HW233744   2.469   3.883  15.901 -1.4580  2.0653  0.5007
 7429SOL     OW33745   4.079   3.678   6.621  0.2033 -0.6043  0.7653
 7429SOL    HW133746   3.989   3.700   6.596 -0.4819 -1.3266  2.6370
 7429SOL    HW233747   4.127   3.743   6.569 -1.5068  0.5209  0.5517
 7430SOL     OW33748   1.623   3.259   0.187  0.0564 -0.9290  0.2299
 7430SOL    HW133749   1.708   3.299   0.168 -0.1018  0.2042  1.9489
 7430SOL    HW233750   1.615   3.191   0.119  0.4333 -0.8196  0.0725
 7431SOL     OW33751   2.363   0.085   5.951 -0.2057  0.3236  0.2490
 7431SOL    HW133752   2.288   0.123   5.905  1.9887  2.4844 -1.5979
 7431SOL    HW233753   2.420   0.100   5.875 -0.6509 -0.0101 -0.1487
 7432SOL     OW33754   1.166   4.202   9.965 -0.7572  0.2939  0.0858
 7432SOL    HW133755   1.204   4.219  10.051  3.2419 -1.6002 -1.2876
 7432SOL    HW233756   1.135   4.289   9.941 -4.2174 -0.8993  0.2494
 7433SOL     OW33757   0.819   0.551   6.155 -0.4753 -0.1369  0.0081
 7433SOL    HW133758   0.731   0.534   6.122 -0.3792  0.8944 -0.7726
 7433SOL    HW233759   0.820   0.640   6.121  0.1731 -0.0296  0.3135
 7434SOL     OW33760   2.934   0.417   6.609  0.1268  0.5133 -0.2359
 7434SOL    HW133761   2.893   0.429   6.695 -0.5138 -0.1749 -0.4425
 7434SOL    HW233762   3.023   0.389   6.625 -0.4448  0.0953  2.1284
 7435SOL     OW33763   3.851   0.076  14.440  0.4293  0.2957 -0.2017
 7435SOL    HW133764   3.799   0.063  14.519 -0.1254  0.8905 -0.4745
 7435SOL    HW233765   3.939   0.094  14.475  1.0343 -0.6094 -1.2438
 7436SOL     OW33766   0.429   0.985  11.805  0.2608  0.5006  0.1603
 7436SOL    HW133767   0.504   0.993  11.746 -0.1732  0.0717 -0.4535
 7436SOL    HW233768   0.471   1.014  11.885 -1.3015  1.5660  0.5789
 7437SOL     OW33769   1.594   1.541  11.841  0.1094  0.1939 -0.1027
 7437SOL    HW133770   1.537   1.555  11.916  1.0176 -1.3828  0.8900
 7437SOL    HW233771   1.667   1.598  11.863 -0.2226  0.8833 -0.8095
 7438SOL     OW33772   1.645   2.214   9.137  0.3121  0.6436  0.1436
 7438SOL    HW133773   1.710   2.189   9.203  0.5230  1.3111  0.1816
 7438SOL    HW233774   1.670   2.154   9.067  1.0129  0.1097  0.8555
 7439SOL     OW33775   2.723   2.139  14.278  0.0963 -0.4315  0.8193
 7439SOL    HW133776   2.630   2.144  14.299  0.2992 -0.3411  1.6870
 7439SOL    HW233777   2.735   2.045  14.277  0.2520 -0.3807 -1.5937
 7440SOL     OW33778   3.147   3.651   4.897 -0.1635  0.4988  0.1996
 7440SOL    HW133779   3.119   3.572   4.945 -0.0444 -0.3487 -1.1176
 7440SOL    HW233780   3.235   3.634   4.865 -0.4670 -0.7437  0.0122
 7441SOL     OW33781   1.481   4.175   8.741  0.2633  0.2870 -0.0487
 7441SOL    HW133782   1.427   4.111   8.695 -0.2965  1.5708 -1.1668
 7441SOL    HW233783   1.566   4.140   8.716  0.7183  0.0563  1.7882
 7442SOL     OW33784   2.814   2.307   7.580  0.2095  0.4952  0.1854
 7442SOL    HW133785   2.789   2.316   7.672  1.4385  3.6122  0.2204
 7442SOL    HW233786   2.822   2.212   7.576 -0.9362  0.3751  0.6859
 7443SOL     OW33787   4.020   0.051   3.835  0.0649  0.4083 -0.5637
 7443SOL    HW133788   4.051   0.007   3.756 -1.9029  1.1597 -1.7524
 7443SOL    HW233789   4.095   0.109   3.846  0.0866 -0.1723  2.4305
 7444SOL     OW33790   3.830   4.434  17.399 -0.0692  0.0680 -0.2249
 7444SOL    HW133791   3.882   4.355  17.383 -0.6985 -0.1407 -1.2097
 7444SOL    HW233792   3.819   4.459  17.308  2.7390  1.0260 -0.2927
 7445SOL     OW33793   1.642   1.341  13.967  0.3761 -0.0508  0.0959
 7445SOL    HW133794   1.597   1.278  14.023  0.7341 -1.3506 -1.0799
 7445SOL    HW233795   1.606   1.323  13.880  1.2557  0.5740 -0.3954
 7446SOL     OW33796   3.064   3.556   1.132 -0.3814  0.3986 -0.3410
 7446SOL    HW133797   3.147   3.556   1.085  1.5232 -1.6644  3.0026
 7446SOL    HW233798   3.091   3.501   1.206  0.4484  0.2602 -0.7516
 7447SOL     OW33799   2.421   4.394   5.633  0.1293 -0.2405  0.0404
 7447SOL    HW133800   2.358   4.353   5.573 -2.0887 -1.3083  3.1076
 7447SOL    HW233801   2.360   4.411   5.705 -1.8091 -1.6919 -1.2556
 7448SOL     OW33802   3.754   4.627   8.316 -0.0285 -0.4894 -0.2691
 7448SOL    HW133803   3.662   4.627   8.288 -0.5669 -0.4947  1.5418
 7448SOL    HW233804   3.762   4.675   8.398  0.2332 -0.9875 -0.0048
 7449SOL     OW33805   2.429   2.772  16.781  0.6726  0.4626 -0.2452
 7449SOL    HW133806   2.342   2.784  16.744 -0.0422 -1.7293  0.7481
 7449SOL    HW233807   2.473   2.846  16.738 -1.2133  1.5400 -0.3043
 7450SOL     OW33808   2.147   0.976   2.491  0.6788 -0.5228 -0.1196
 7450SOL    HW133809   2.128   0.886   2.466  1.2524 -0.6448 -0.1330
 7450SOL    HW233810   2.060   1.015   2.499  0.7953 -0.6503  1.6874
 7451SOL     OW33811   2.781   2.920   9.115 -0.0654 -0.3411  0.2395
 7451SOL    HW133812   2.747   2.881   9.196 -1.3976  4.1855  1.8715
 7451SOL    HW233813   2.773   2.850   9.050  2.6350 -1.4828  1.1364
 7452SOL     OW33814   4.318   0.779   2.369 -0.1402  0.4424  0.1830
 7452SOL    HW133815   4.270   0.714   2.420  1.2120 -0.1828  0.6440
 7452SOL    HW233816   4.283   0.852   2.420 -0.7645 -0.0745  0.4999
 7453SOL     OW33817   0.728   1.496   3.345 -0.6662 -0.0814  0.2088
 7453SOL    HW133818   0.715   1.455   3.260  1.4065  0.3662 -0.3115
 7453SOL    HW233819   0.782   1.429   3.386  1.4385  0.5317 -1.6101
 7454SOL     OW33820   3.877   2.758   1.390 -0.6298  0.3253 -0.5176
 7454SOL    HW133821   3.807   2.802   1.341  0.9224  1.2066 -1.9546
 7454SOL    HW233822   3.831   2.675   1.405 -1.3474  0.6804 -0.7703
 7455SOL     OW33823   2.433   3.070  13.119  0.3178  0.3436  0.1620
 7455SOL    HW133824   2.433   2.991  13.065  0.7107 -0.4067  1.2691
 7455SOL    HW233825   2.417   3.029  13.204 -2.2850 -0.8833 -0.8965
 7456SOL     OW33826   0.085   3.067   6.574 -0.2098 -0.2287 -0.3389
 7456SOL    HW133827   0.149   3.005   6.538 -0.5216 -0.8450  0.1789
 7456SOL    HW233828   0.116   3.054   6.664  0.7588 -0.8629 -0.7534
 7457SOL     OW33829   3.892   0.308   2.139 -0.3899 -0.1311 -0.6223
 7457SOL    HW133830   3.810   0.309   2.188  1.7397  0.3219  2.9510
 7457SOL    HW233831   3.880   0.388   2.088 -4.4346  0.5089  1.3658
 7458SOL     OW33832   1.970   2.456   2.556  0.1879  0.5404  0.4819
 7458SOL    HW133833   1.939   2.400   2.485 -2.2201  0.0611  1.9094
 7458SOL    HW233834   1.915   2.425   2.628 -0.2412 -0.7707 -0.4109
 7459SOL     OW33835   3.995   2.077   1.955  0.7794 -0.1141  0.0784
 7459SOL    HW133836   3.959   2.154   1.911 -0.3500 -1.6641 -1.7051
 7459SOL    HW233837   4.084   2.072   1.920  0.6450 -2.3043  0.0537
 7460SOL     OW33838   0.436   0.776   7.900  0.0367 -0.1324 -0.4747
 7460SOL    HW133839   0.498   0.820   7.842  0.4864 -1.5759 -1.0921
 7460SOL    HW233840   0.386   0.724   7.838 -0.1424 -1.1634  0.5336
 7461SOL     OW33841   1.664   1.924   2.305  0.6502 -0.1033 -0.2593
 7461SOL    HW133842   1.684   1.959   2.392 -0.6037 -1.5505  0.6070
 7461SOL    HW233843   1.738   1.872   2.273  0.8824  0.5173 -0.7318
 7462SOL     OW33844   2.195   1.231   2.668 -0.7222 -0.3822 -0.0619
 7462SOL    HW133845   2.168   1.166   2.603 -0.1149 -0.3062 -0.3920
 7462SOL    HW233846   2.258   1.181   2.720 -0.8856  0.3320  0.8343
 7463SOL     OW33847   1.205   1.509  10.270  0.1607  0.3579  0.1589
 7463SOL    HW133848   1.195   1.414  10.273  0.3829  0.3572  1.0580
 7463SOL    HW233849   1.138   1.535  10.333 -1.1467  1.3697 -1.6527
 7464SOL     OW33850   2.545   3.723  15.462 -0.0893  0.0819  0.3107
 7464SOL    HW133851   2.599   3.645  15.468 -0.1990  0.0030  0.2774
 7464SOL    HW233852   2.606   3.773  15.408 -1.2270 -1.1116 -2.1168
 7465SOL     OW33853   2.795   1.237   4.402  0.0204 -0.3192 -0.0261
 7465SOL    HW133854   2.708   1.229   4.363 -0.1479  0.7915  0.1307
 7465SOL    HW233855   2.844   1.307   4.360  0.0206 -0.0354  0.4468
 7466SOL     OW33856   2.937   1.035  17.593  0.1446 -0.0066 -0.1853
 7466SOL    HW133857   2.852   1.078  17.600 -0.2230 -0.5041 -1.4638
 7466SOL    HW233858   2.992   1.113  17.593  1.8507 -1.2159  1.3869
 7467SOL     OW33859   4.342   2.524   9.031  0.0004  0.4282  0.1242
 7467SOL    HW133860   4.310   2.611   9.006 -0.2297  0.2042 -0.3745
 7467SOL    HW233861   4.275   2.503   9.096 -0.7297 -2.0906 -1.4355
 7468SOL     OW33862   2.416   4.514   4.548 -0.3950 -0.5249  0.7128
 7468SOL    HW133863   2.511   4.513   4.562  0.3174  1.1816 -3.9363
 7468SOL    HW233864   2.368   4.491   4.627  0.9359  3.1367  2.5626
 7469SOL     OW33865   2.974   1.047   8.349 -0.4651 -0.3898  0.0161
 7469SOL    HW133866   2.921   1.049   8.429  0.1901  0.0506  0.4425
 7469SOL    HW233867   2.942   1.121   8.297 -0.5203  2.7480  4.4255
 7470SOL     OW33868   3.579   0.001   5.171 -0.7862 -0.8818 -0.3389
 7470SOL    HW133869   3.660   0.007   5.119 -2.3825  0.8310 -2.6419
 7470SOL    HW233870   3.568   0.089   5.207 -4.9486 -0.9667 -1.4233
 7471SOL     OW33871   1.044   2.413   5.361  0.2828  0.3002 -0.0629
 7471SOL    HW133872   1.049   2.504   5.390  0.0311 -0.7016  3.0390
 7471SOL    HW233873   1.020   2.423   5.269  1.3170  0.4709 -0.3095
 7472SOL     OW33874   1.300   1.253   7.719  0.0356  0.0116  0.1350
 7472SOL    HW133875   1.377   1.238   7.665 -0.9196 -0.8378 -0.9991
 7472SOL    HW233876   1.331   1.243   7.809  0.2063  0.6678  0.1537
 7473SOL     OW33877   2.844   3.124   2.653  0.3090 -0.2611  0.2590
 7473SOL    HW133878   2.910   3.096   2.716  0.0693 -1.0533  0.1598
 7473SOL    HW233879   2.831   3.042   2.606 -0.7241 -0.3051  0.6188
 7474SOL     OW33880   0.594   1.073   9.171  0.3112 -0.3074  0.1148
 7474SOL    HW133881   0.584   1.167   9.179 -1.2420 -0.3238 -1.6942
 7474SOL    HW233882   0.623   1.057   9.081 -2.0870 -2.2395 -0.3189
 7475SOL     OW33883   2.197   1.431   3.797 -0.1086 -0.3147  0.5312
 7475SOL    HW133884   2.176   1.476   3.715  0.7498  1.7923  1.4476
 7475SOL    HW233885   2.290   1.420   3.776  0.4846  2.2544  1.8371
 7476SOL     OW33886   0.560   2.752   9.217 -0.0278  0.3560  0.7172
 7476SOL    HW133887   0.565   2.808   9.140 -0.6264 -2.1238 -1.1256
 7476SOL    HW233888   0.470   2.767   9.245 -0.3886 -5.1715  2.6629
 7477SOL     OW33889   2.458   1.508   1.654 -0.1991  0.1818  0.3185
 7477SOL    HW133890   2.436   1.415   1.664  1.7518 -0.2467  0.5263
 7477SOL    HW233891   2.514   1.522   1.730  2.7641  0.1937 -1.8962
 7478SOL     OW33892   0.420   0.476   4.937 -0.0495  0.1715 -0.4812
 7478SOL    HW133893   0.458   0.554   4.895  1.2126 -0.5336 -0.6592
 7478SOL    HW233894   0.338   0.463   4.891 -1.8954  0.5746  2.7081
 7479SOL     OW33895   0.802   3.058   9.095  0.0712 -0.2075 -0.0372
 7479SOL    HW133896   0.743   3.082   9.166  0.2999  1.2438 -0.3328
 7479SOL    HW233897   0.833   3.145   9.067 -1.2783  0.6832  1.2389
 7480SOL     OW33898   1.419   3.779   4.681  0.2345  0.5756  0.3205
 7480SOL    HW133899   1.503   3.753   4.644 -0.3382 -0.4265 -0.2963
 7480SOL    HW233900   1.364   3.704   4.659  0.6395  0.3947 -0.0816
 7481SOL     OW33901   3.338   3.888   3.864 -0.4105  0.3599  0.0038
 7481SOL    HW133902   3.352   3.941   3.943  0.3742  1.2845 -0.7499
 7481SOL    HW233903   3.423   3.844   3.863 -0.2972  0.5857 -0.6180
 7482SOL     OW33904   1.747   0.240   6.203  0.1511 -0.3115 -0.3214
 7482SOL    HW133905   1.835   0.219   6.234  0.3824  1.1339 -0.0074
 7482SOL    HW233906   1.696   0.179   6.257 -2.0486  0.7844 -1.1463
 7483SOL     OW33907   2.343   1.908   1.753  0.2775 -0.6739 -0.5412
 7483SOL    HW133908   2.266   1.887   1.806  0.6423  0.7177  0.5381
 7483SOL    HW233909   2.340   1.857   1.672 -0.1547  0.3606 -1.1773
 7484SOL     OW33910   1.281   1.613  10.012 -0.5239 -0.3976  0.7882
 7484SOL    HW133911   1.197   1.595   9.969  0.0285  0.9232 -0.8501
 7484SOL    HW233912   1.275   1.543  10.077 -0.9366  1.4025  2.6854
 7485SOL     OW33913   0.957   4.027   8.552 -0.0041 -0.8001  0.2069
 7485SOL    HW133914   0.884   3.966   8.553  1.3612 -2.4163  0.4791
 7485SOL    HW233915   0.956   4.059   8.642 -0.8200 -0.3046  0.0205
 7486SOL     OW33916   2.514   3.359  10.664 -0.1892 -0.0443 -0.2903
 7486SOL    HW133917   2.509   3.370  10.569  0.8589 -0.0976 -0.3515
 7486SOL    HW233918   2.492   3.445  10.700 -1.6705 -0.8178  0.6610
 7487SOL     OW33919   4.673   1.245  12.912  0.6457  0.4402  0.0698
 7487SOL    HW133920   4.639   1.209  12.830 -1.0806  1.9456  0.1292
 7487SOL    HW233921   4.702   1.331  12.880  0.9870  0.8979  1.6049
 7488SOL     OW33922   0.302   2.287   7.722  0.0591  0.3352  0.1963
 7488SOL    HW133923   0.346   2.368   7.749  0.6153  0.3469 -0.7718
 7488SOL    HW233924   0.369   2.224   7.749 -1.8604 -2.1639 -0.8729
 7489SOL     OW33925   4.622   2.604  16.301  0.3592  0.3659  0.1643
 7489SOL    HW133926   4.702   2.636  16.259 -0.1010 -0.0881 -1.0623
 7489SOL    HW233927   4.575   2.684  16.325  0.1711 -0.0147  1.0687
 7490SOL     OW33928   3.291   3.389   2.681 -0.3879  0.5159 -0.4951
 7490SOL    HW133929   3.268   3.417   2.770 -0.3064 -1.0545  0.0189
 7490SOL    HW233930   3.381   3.363   2.696 -0.6458  0.6691  1.2573
 7491SOL     OW33931   1.322   0.816   1.672 -0.1597 -0.7476 -0.0543
 7491SOL    HW133932   1.382   0.791   1.603 -0.4318 -0.3035 -0.4498
 7491SOL    HW233933   1.279   0.888   1.625 -1.5912 -0.7874  1.2001
 7492SOL     OW33934   4.328   1.126   9.609 -0.2432  0.1753 -0.6749
 7492SOL    HW133935   4.239   1.097   9.591  0.4712 -0.9859 -2.3641
 7492SOL    HW233936   4.379   1.104   9.531 -0.6825  0.2953 -0.9919
 7493SOL     OW33937   0.949   0.531   6.945  0.2231 -0.1277  0.4856
 7493SOL    HW133938   0.874   0.564   6.895  0.4437 -1.5981 -0.8388
 7493SOL    HW233939   1.008   0.518   6.871 -3.0375 -1.0801 -1.9581
 7494SOL     OW33940   2.707   0.672   9.318 -0.2136  0.6425 -0.3525
 7494SOL    HW133941   2.695   0.709   9.405 -0.8201  0.9123 -0.5544
 7494SOL    HW233942   2.622   0.694   9.280 -0.7631  2.1140  1.7625
 7495SOL     OW33943   2.293   4.145   8.269  0.3255 -0.0995  0.1291
 7495SOL    HW133944   2.327   4.127   8.357 -0.3943  1.2889  0.6990
 7495SOL    HW233945   2.354   4.112   8.204 -0.3352 -0.3919 -0.3414
 7496SOL     OW33946   4.460   0.804   7.064  0.1001  0.7032  0.4849
 7496SOL    HW133947   4.497   0.881   7.020 -0.8416  0.7749 -0.1917
 7496SOL    HW233948   4.411   0.860   7.125  0.4629  0.2227  1.2111
 7497SOL     OW33949   1.622   1.785   1.090  0.0193  0.0053  0.0234
 7497SOL    HW133950   1.543   1.745   1.054 -0.6549  1.4842 -0.1220
 7497SOL    HW233951   1.666   1.791   1.005  0.5937  1.2416  0.4189
 7498SOL     OW33952   0.060   3.723   6.753  0.4462  0.0242 -0.4459
 7498SOL    HW133953   0.149   3.697   6.777  0.0389 -1.4670 -0.5484
 7498SOL    HW233954   0.063   3.737   6.659  0.3162 -2.6210 -0.8646
 7499SOL     OW33955   0.976   0.459  13.689  0.8053 -0.2596  0.2898
 7499SOL    HW133956   1.013   0.424  13.607  0.2693  1.0737 -0.5277
 7499SOL    HW233957   0.902   0.402  13.706  0.7958 -0.3478 -0.0453
 7500SOL     OW33958   0.535   0.055   8.260  0.6878  0.0064 -0.2476
 7500SOL    HW133959   0.441   0.056   8.244  0.4113 -0.0539  1.3434
 7500SOL    HW233960   0.567   4.707   8.211  1.1186  0.4781 -0.6823
 7501SOL     OW33961   1.491   0.325   9.172 -0.2639 -0.8169  0.0392
 7501SOL    HW133962   1.499   0.242   9.126  0.9212 -0.7898  0.1996
 7501SOL    HW233963   1.557   0.304   9.239 -0.8009 -0.3944  0.6985
 7502SOL     OW33964   1.228   3.355   1.812  0.1303 -0.2389  0.0256
 7502SOL    HW133965   1.212   3.293   1.884 -0.3709 -0.1975 -0.0475
 7502SOL    HW233966   1.292   3.414   1.852 -0.4053 -0.6779  1.5274
 7503SOL     OW33967   3.284   1.981   1.547  0.3005 -0.0786 -0.2148
 7503SOL    HW133968   3.334   2.052   1.586 -0.0557 -0.5243  1.0732
 7503SOL    HW233969   3.233   2.023   1.479 -1.1194  1.5121  1.8407
 7504SOL     OW33970   1.223   3.668  11.559  0.4818  0.6990  0.0755
 7504SOL    HW133971   1.151   3.731  11.561  0.8947  1.1961 -0.6449
 7504SOL    HW233972   1.269   3.677  11.643 -0.0490 -4.2796  0.8849
 7505SOL     OW33973   2.539   0.224   6.298 -0.0851  0.1646  0.6699
 7505SOL    HW133974   2.615   0.221   6.356  0.9231 -0.4857 -0.6973
 7505SOL    HW233975   2.480   0.280   6.348  0.0053  1.5703 -0.8249
 7506SOL     OW33976   2.829   4.647   0.722 -0.2000  0.1507  0.0701
 7506SOL    HW133977   2.797   4.565   0.683  0.5016 -0.7852  1.4707
 7506SOL    HW233978   2.922   4.649   0.701 -0.2434  2.1334  0.0498
 7507SOL     OW33979   0.713   1.629   9.784  0.0750 -0.0613 -0.6105
 7507SOL    HW133980   0.707   1.551   9.839  3.2001  0.6411  0.7680
 7507SOL    HW233981   0.806   1.651   9.792  0.2569 -0.3198 -1.9740
 7508SOL     OW33982   2.717   4.325  11.681 -0.6846 -0.2024  0.0249
 7508SOL    HW133983   2.719   4.341  11.587 -1.6169 -0.0823  0.0242
 7508SOL    HW233984   2.756   4.406  11.715 -0.7553  0.7748 -2.2552
 7509SOL     OW33985   3.624   3.961  17.400 -0.0410 -0.4076  0.3175
 7509SOL    HW133986   3.621   3.930  17.491  1.6487  1.6165  1.0412
 7509SOL    HW233987   3.717   3.960  17.379 -0.4720  0.7847 -1.6005
 7510SOL     OW33988   0.725   0.195  10.298 -0.2325  0.6198  0.6901
 7510SOL    HW133989   0.650   0.254  10.289 -1.4843 -1.1387 -0.5076
 7510SOL    HW233990   0.750   0.214  10.388  1.7532 -1.0505  0.4934
 7511SOL     OW33991   1.392   3.604   8.102  0.0170  0.7477 -0.0718
 7511SOL    HW133992   1.433   3.551   8.170 -0.6880 -1.1698 -1.1563
 7511SOL    HW233993   1.395   3.691   8.143  1.4007  0.6320  0.0597
 7512SOL     OW33994   4.063   0.546   7.926  0.7483  0.4617 -0.0948
 7512SOL    HW133995   4.073   0.542   8.021 -1.3038 -0.9516  0.0614
 7512SOL    HW233996   3.973   0.516   7.916  1.5043 -1.2331 -1.8006
 7513SOL     OW33997   0.500   1.417   4.066  0.0290  0.3966 -0.1910
 7513SOL    HW133998   0.443   1.370   4.005  1.2711  0.8500 -1.6709
 7513SOL    HW233999   0.578   1.363   4.073  0.5472  1.2551  0.7458
 7514SOL     OW34000   3.202   1.818   8.705 -0.1247  0.0641  0.0075
 7514SOL    HW134001   3.177   1.746   8.763 -0.2055 -0.3285 -0.5052
 7514SOL    HW234002   3.260   1.867   8.762 -0.3331 -1.0482  1.1760
 7515SOL     OW34003   4.030   2.636   0.352 -0.4865  0.4637 -0.2813
 7515SOL    HW134004   4.046   2.672   0.264 -0.8043  0.8183 -0.1971
 7515SOL    HW234005   3.963   2.569   0.341  0.2356 -0.6706  2.2515
 7516SOL     OW34006   3.219   2.043   7.779  0.0449 -0.4546  0.6014
 7516SOL    HW134007   3.198   2.043   7.872 -4.8829 -0.5054 -0.5205
 7516SOL    HW234008   3.222   1.951   7.755  1.0261 -0.4384  0.6829
 7517SOL     OW34009   3.247   2.208   4.826 -0.3728 -0.1942 -0.2330
 7517SOL    HW134010   3.337   2.241   4.835 -0.7499  0.3651  1.4649
 7517SOL    HW234011   3.223   2.236   4.738  1.1373  2.2271  0.1114
 7518SOL     OW34012   1.889   1.888   4.425 -0.0835  0.2189  0.3142
 7518SOL    HW134013   1.828   1.900   4.352 -1.3072 -1.5405  1.0638
 7518SOL    HW234014   1.960   1.930   4.376 -1.0269  1.0866 -0.3266
 7519SOL     OW34015   0.986   4.183  13.776 -0.1766 -0.1048 -0.3924
 7519SOL    HW134016   0.961   4.265  13.734  2.6284  1.5502  1.1679
 7519SOL    HW234017   0.899   4.143  13.785  0.2518 -0.3157  2.8149
 7520SOL     OW34018   4.558   2.541   4.955  0.0296  0.2937  0.1066
 7520SOL    HW134019   4.642   2.580   4.979  0.1061 -0.4887  1.0962
 7520SOL    HW234020   4.554   2.557   4.861 -0.9903 -2.4609 -0.3218
 7521SOL     OW34021   0.998   2.921   2.660  0.2338  0.0126  0.2462
 7521SOL    HW134022   0.940   2.845   2.667  0.9190 -0.5716 -0.2885
 7521SOL    HW234023   0.961   2.977   2.727  0.4458  1.3332 -0.7329
 7522SOL     OW34024   1.707   4.330   5.973  0.4027 -0.6694  0.1627
 7522SOL    HW134025   1.620   4.293   5.960  0.5154 -0.3237 -1.5764
 7522SOL    HW234026   1.719   4.318   6.067  0.6788  1.3237  0.3849
 7523SOL     OW34027   4.081   3.928   4.536  0.3159 -0.4002 -0.2890
 7523SOL    HW134028   4.034   4.001   4.577  2.0544  0.2228  0.5712
 7523SOL    HW234029   4.139   3.969   4.472  1.7042 -1.3303  0.3619
 7524SOL     OW34030   4.262   1.822   2.033 -0.2729 -0.3697  0.5999
 7524SOL    HW134031   4.342   1.783   1.997 -0.7638 -2.1839  1.4173
 7524SOL    HW234032   4.264   1.903   1.982  0.5922 -0.2919  0.7634
 7525SOL     OW34033   4.480   3.487   4.955 -0.4803 -0.3410  0.3693
 7525SOL    HW134034   4.463   3.575   4.988  1.0361  0.6321 -1.4636
 7525SOL    HW234035   4.509   3.520   4.871 -2.0115 -0.9257 -0.3790
 7526SOL     OW34036   2.197   4.242   8.680 -0.6874 -0.0244  0.4179
 7526SOL    HW134037   2.105   4.268   8.691 -1.1181 -1.1874 -0.5052
 7526SOL    HW234038   2.228   4.248   8.771  0.0259 -0.6248  0.2073
 7527SOL     OW34039   2.654   3.417  13.920  0.6196  0.1964  0.2079
 7527SOL    HW134040   2.570   3.435  13.878  0.1258  0.1082  1.1554
 7527SOL    HW234041   2.698   3.380  13.843 -0.8937  1.0188 -1.0516
 7528SOL     OW34042   4.541   1.405   9.976 -0.0617 -0.1402  0.3271
 7528SOL    HW134043   4.456   1.406  10.019  0.3292 -1.6340  1.1262
 7528SOL    HW234044   4.554   1.500   9.973  1.6501 -0.3712  0.3261
 7529SOL     OW34045   3.840   2.870  10.443  0.0215 -0.0187  0.1837
 7529SOL    HW134046   3.834   2.891  10.350 -3.0479  0.9767  0.6483
 7529SOL    HW234047   3.804   2.948  10.483 -1.5590  0.1577 -1.5842
 7530SOL     OW34048   4.332   1.877   9.714  0.2577  0.3195  0.0166
 7530SOL    HW134049   4.370   1.798   9.675  0.3746  0.1989  0.3668
 7530SOL    HW234050   4.341   1.875   9.810  1.7540  3.8586 -0.0723
 7531SOL     OW34051   3.549   3.326  10.542  0.6319  0.7441  0.5779
 7531SOL    HW134052   3.576   3.259  10.478 -1.1870  1.0919 -0.5376
 7531SOL    HW234053   3.563   3.407  10.493 -1.0686  0.4888 -0.3446
 7532SOL     OW34054   0.747   3.606  16.612 -0.2599  0.0508  0.4746
 7532SOL    HW134055   0.700   3.635  16.534  2.6228 -1.5150 -1.7980
 7532SOL    HW234056   0.676   3.607  16.677 -0.7651  0.2466 -0.0858
 7533SOL     OW34057   0.651   0.399   7.769  0.4448 -0.7135  0.0800
 7533SOL    HW134058   0.600   0.361   7.840 -4.0815  3.2492 -1.0216
 7533SOL    HW234059   0.710   0.432   7.836  0.8581  1.4630 -1.3738
 7534SOL     OW34060   4.437   3.202   4.053  0.1730 -0.1371  0.1839
 7534SOL    HW134061   4.445   3.204   4.148  2.3070 -1.6481  0.0294
 7534SOL    HW234062   4.402   3.288   4.029  0.7437  0.2256  0.6675
 7535SOL     OW34063   3.940   1.463   5.943  0.1617 -0.1381  0.1372
 7535SOL    HW134064   3.931   1.371   5.968  2.1474  0.5119  3.3477
 7535SOL    HW234065   3.970   1.458   5.853  0.5412 -0.2789  0.2714
 7536SOL     OW34066   4.703   2.848   2.010  0.3401  0.7006  0.1273
 7536SOL    HW134067   4.629   2.888   1.965 -0.2954  0.6331  1.1143
 7536SOL    HW234068   0.019   2.926   2.044  3.2449 -1.7815  2.1790
 7537SOL     OW34069   1.649   3.721   4.533  0.1195 -0.1945  0.2437
 7537SOL    HW134070   1.673   3.631   4.554 -0.1537 -0.3905 -0.3053
 7537SOL    HW234071   1.680   3.726   4.443 -3.2699 -2.1326 -1.0142
 7538SOL     OW34072   0.036   0.582   0.628 -0.0875  0.4621  0.5443
 7538SOL    HW134073   4.690   0.531   0.664 -0.2972  0.3230 -0.0786
 7538SOL    HW234074   0.018   0.666   0.671 -2.2594  0.3398 -0.1170
 7539SOL     OW34075   4.110   2.833   5.000 -0.0324 -0.3224 -0.0002
 7539SOL    HW134076   4.202   2.859   5.000 -0.9770  3.0408  0.2958
 7539SOL    HW234077   4.087   2.841   5.092  0.7728 -1.5476  0.2980
 7540SOL     OW34078   4.085   2.984   5.521 -0.3707 -0.6050  0.1333
 7540SOL    HW134079   4.162   2.938   5.487  0.0083  1.5730 -1.9680
 7540SOL    HW234080   4.092   2.949   5.610 -0.6963  2.0461  1.1963
 7541SOL     OW34081   3.812   3.399   0.906  0.1743  0.1986 -0.0929
 7541SOL    HW134082   3.767   3.483   0.916  1.9530  1.4082 -2.0731
 7541SOL    HW234083   3.849   3.410   0.818  2.7837  2.9869  1.3386
 7542SOL     OW34084   2.835   2.033   7.623 -0.6226 -0.5553  0.0569
 7542SOL    HW134085   2.916   1.993   7.592  0.5522  1.3997  0.6146
 7542SOL    HW234086   2.797   1.969   7.683  0.6958  0.2556  1.7307
 7543SOL     OW34087   4.109   3.769   5.876  0.0317 -0.2345 -0.0092
 7543SOL    HW134088   4.050   3.778   5.802  1.5437 -0.1773 -1.1943
 7543SOL    HW234089   4.055   3.706   5.924 -1.1308  0.6369 -0.1725
 7544SOL     OW34090   3.427   2.145  14.506 -0.0889  0.3539 -0.4758
 7544SOL    HW134091   3.515   2.128  14.538 -0.5884 -0.0509  0.6758
 7544SOL    HW234092   3.401   2.054  14.487  0.6076 -0.9476  4.7128
 7545SOL     OW34093   0.651   0.966   7.242  0.5363  0.2302  0.0761
 7545SOL    HW134094   0.626   1.004   7.326  0.0239 -2.1865  1.0111
 7545SOL    HW234095   0.601   1.025   7.187  2.4926  1.9727  0.1788
 7546SOL     OW34096   3.921   0.224   7.981  0.3979 -0.2235  0.3063
 7546SOL    HW134097   3.891   0.226   8.072 -2.4012 -1.3573 -0.5695
 7546SOL    HW234098   4.013   0.204   7.999  0.3857  1.4814  2.1971
 7547SOL     OW34099   3.097   2.354   9.167  0.6314 -0.3058 -0.0839
 7547SOL    HW134100   3.119   2.273   9.122  0.2276 -1.2303  1.3813
 7547SOL    HW234101   3.039   2.391   9.100  0.4534  0.8645  0.7117
 7548SOL     OW34102   1.545   2.899   9.289  0.0616  0.3396  0.3193
 7548SOL    HW134103   1.468   2.851   9.260 -1.1911  2.5987 -0.1098
 7548SOL    HW234104   1.595   2.905   9.207 -0.1770  0.2868  0.1703
 7549SOL     OW34105   2.776   2.486   9.770  0.5962  0.3765  1.2294
 7549SOL    HW134106   2.707   2.537   9.812 -1.0815 -0.9068  0.0322
 7549SOL    HW234107   2.726   2.430   9.711  0.2517 -1.9077  3.6889
 7550SOL     OW34108   2.615   2.704  12.124 -0.4472 -0.3479 -0.0618
 7550SOL    HW134109   2.622   2.758  12.045 -0.2395 -1.0754 -0.5312
 7550SOL    HW234110   2.702   2.668  12.138 -0.4143 -0.8142 -1.4618
 7551SOL     OW34111   4.133   4.573  16.231  0.3544  0.1574 -0.1888
 7551SOL    HW134112   4.157   4.487  16.265  1.8331  1.0425  1.0088
 7551SOL    HW234113   4.164   4.581  16.141 -0.0805  0.3780 -0.3203
 7552SOL     OW34114   1.741   4.722   5.287 -0.4715  0.1518 -0.3272
 7552SOL    HW134115   1.760   0.024   5.197  1.9677  0.4163  0.2733
 7552SOL    HW234116   1.809   0.046   5.331  0.7850 -0.6915 -1.2753
 7553SOL     OW34117   3.287   2.744   3.276  0.0987 -0.3132 -0.1211
 7553SOL    HW134118   3.209   2.791   3.304  0.2729  0.8318 -1.5404
 7553SOL    HW234119   3.305   2.685   3.350 -2.1308 -1.5178 -0.5491
 7554SOL     OW34120   4.105   2.918  12.830  0.1255 -0.0781  0.3684
 7554SOL    HW134121   4.028   2.863  12.815 -1.1349  1.8563 -0.2318
 7554SOL    HW234122   4.080   3.002  12.792 -0.7658 -0.7503 -0.5233
 7555SOL     OW34123   1.420   3.814   3.511 -0.1586  0.2223 -0.2184
 7555SOL    HW134124   1.398   3.878   3.443 -0.4032  0.2597 -0.1049
 7555SOL    HW234125   1.482   3.747   3.480  1.1339  0.7027  1.3740
 7556SOL     OW34126   1.693   3.856   6.935  0.5725 -0.0137  0.1977
 7556SOL    HW134127   1.614   3.882   6.982  2.2605  4.3639  0.5700
 7556SOL    HW234128   1.756   3.893   6.997  1.5776 -1.2834 -0.0557
 7557SOL     OW34129   4.163   4.554   1.166 -0.6530  0.1771  0.2362
 7557SOL    HW134130   4.088   4.611   1.154 -0.3812  0.6231  0.6636
 7557SOL    HW234131   4.129   4.472   1.130 -1.1066 -1.1040  3.6217
 7558SOL     OW34132   2.004   1.665   7.589 -0.2048 -0.5402 -0.4277
 7558SOL    HW134133   1.979   1.739   7.645  0.2696 -0.4328 -0.3618
 7558SOL    HW234134   1.988   1.707   7.504  0.9785  0.6242 -0.0641
 7559SOL     OW34135   4.505   1.678   9.498  0.2224  0.0660 -0.4622
 7559SOL    HW134136   4.510   1.595   9.546  1.5930  0.1729 -0.4393
 7559SOL    HW234137   4.598   1.675   9.476  0.7985  3.1302  1.4084
 7560SOL     OW34138   2.275   1.640  15.936 -0.1020  0.3652 -0.1600
 7560SOL    HW134139   2.224   1.594  16.003 -1.2240 -0.2932 -1.4654
 7560SOL    HW234140   2.206   1.701  15.907  0.8869  2.0985  1.1482
 7561SOL     OW34141   2.455   2.271   8.877 -0.9767  0.5591  0.0331
 7561SOL    HW134142   2.462   2.256   8.782 -2.1634  3.3520 -0.4777
 7561SOL    HW234143   2.480   2.191   8.923 -0.3315  0.1110 -1.0736
 7562SOL     OW34144   2.189   3.509   6.285  0.1937 -0.9290  0.0589
 7562SOL    HW134145   2.239   3.435   6.319 -0.5278 -1.3818  0.1432
 7562SOL    HW234146   2.102   3.483   6.316  0.6896 -3.6672 -0.8635
 7563SOL     OW34147   2.759   0.903  15.796 -0.0046 -0.4626 -0.0254
 7563SOL    HW134148   2.804   0.822  15.773 -0.4630 -0.1869 -1.9025
 7563SOL    HW234149   2.674   0.861  15.792  0.1490 -0.7181 -0.6209
 7564SOL     OW34150   2.299   2.845   5.112 -0.0122  0.0546 -0.3912
 7564SOL    HW134151   2.231   2.909   5.088  0.6321  0.8726 -0.0560
 7564SOL    HW234152   2.254   2.798   5.182 -0.2490  1.5564  0.4839
 7565SOL     OW34153   2.039   4.054   1.344 -0.3883  0.0152  0.0113
 7565SOL    HW134154   1.964   4.113   1.357 -2.5176 -2.6770  0.0311
 7565SOL    HW234155   2.062   4.070   1.252  1.1057  0.6147  0.4909
 7566SOL     OW34156   4.380   2.592   4.042 -0.2840 -0.4837  0.1092
 7566SOL    HW134157   4.455   2.638   4.006 -0.1520  0.1310  1.1752
 7566SOL    HW234158   4.318   2.658   4.010 -1.4285 -0.5060  2.3215
 7567SOL     OW34159   3.251   0.252   3.448  0.4601 -0.0781  0.4496
 7567SOL    HW134160   3.198   0.176   3.425  2.1217 -1.5654  1.4414
 7567SOL    HW234161   3.181   0.316   3.455 -1.0365 -1.3954 -2.7379
 7568SOL     OW34162   3.693   3.912  15.227  0.2259 -0.2355 -0.4811
 7568SOL    HW134163   3.627   3.844  15.218  1.1177 -1.1963  0.2166
 7568SOL    HW234164   3.769   3.858  15.249  0.1043  0.0519  0.6879
 7569SOL     OW34165   1.057   1.301   2.884  0.1641 -0.6070  0.1148
 7569SOL    HW134166   1.104   1.378   2.916  1.7503 -1.7893  0.6226
 7569SOL    HW234167   0.999   1.276   2.956 -1.1060  0.5412 -0.5025
 7570SOL     OW34168   3.007   2.626  13.803  0.0158  0.7359  0.5675
 7570SOL    HW134169   3.018   2.594  13.713  0.6657  0.9123  0.5851
 7570SOL    HW234170   2.942   2.567  13.842 -0.2570  0.2649 -0.6045
 7571SOL     OW34171   3.982   3.502   5.222  0.7144 -0.2676 -0.5555
 7571SOL    HW134172   3.999   3.436   5.154  0.9880 -0.0517 -0.6959
 7571SOL    HW234173   4.005   3.581   5.174 -0.4788  0.4574  0.0628
 7572SOL     OW34174   4.456   3.056  11.620  0.1332  0.3694 -0.4187
 7572SOL    HW134175   4.492   3.108  11.692 -2.9811  1.0638  0.6454
 7572SOL    HW234176   4.514   3.075  11.546 -0.4411 -1.2232 -1.2797
 7573SOL     OW34177   3.591   2.435   5.656 -0.0035  0.3099 -0.3352
 7573SOL    HW134178   3.582   2.424   5.562  0.2387  0.1733 -0.3437
 7573SOL    HW234179   3.675   2.394   5.676 -0.4844 -0.6030 -0.1754
 7574SOL     OW34180   3.217   3.284   0.178 -0.1172 -0.1089  0.1815
 7574SOL    HW134181   3.150   3.223   0.145 -0.5864 -0.3444  1.5607
 7574SOL    HW234182   3.164   3.306   0.255 -1.4647 -0.3101 -0.6793
 7575SOL     OW34183   1.818   1.392   3.514  0.0729 -0.1898 -0.3007
 7575SOL    HW134184   1.733   1.407   3.473  0.3651  0.5574 -0.6199
 7575SOL    HW234185   1.879   1.414   3.444 -3.3964  2.3547 -2.4914
 7576SOL     OW34186   3.150   1.957   9.621  0.0337 -0.7353 -0.5735
 7576SOL    HW134187   3.242   1.930   9.631  0.3047 -0.3308 -2.1095
 7576SOL    HW234188   3.104   1.912   9.692  0.2234 -0.5346 -0.3190
 7577SOL     OW34189   2.526   0.683   4.144 -0.0164 -0.3366 -0.0114
 7577SOL    HW134190   2.604   0.671   4.199  1.7846 -1.3093 -2.7952
 7577SOL    HW234191   2.566   0.713   4.063  0.8171 -2.7715 -0.5151
 7578SOL     OW34192   2.926   1.807  12.126  0.3989 -0.6059  0.0140
 7578SOL    HW134193   2.922   1.886  12.073 -0.0998 -0.2072  0.6360
 7578SOL    HW234194   2.994   1.758  12.080 -0.8220 -0.0660 -2.3794
 7579SOL     OW34195   2.079   2.100   7.756  0.2153  0.1059 -0.2987
 7579SOL    HW134196   1.987   2.110   7.780  0.1021  1.7529 -1.4015
 7579SOL    HW234197   2.092   2.179   7.703 -2.1965  1.3575  0.9860
 7580SOL     OW34198   0.224   4.627  11.690 -0.1948 -0.6541  0.0121
 7580SOL    HW134199   0.178   4.563  11.635 -1.2258 -1.9096  2.2878
 7580SOL    HW234200   0.318   4.609  11.680 -0.0210 -0.0940  0.6528
 7581SOL     OW34201   1.858   0.963   2.129 -0.3160  0.6188 -0.0002
 7581SOL    HW134202   1.864   0.917   2.045  1.0688  0.2822  0.2836
 7581SOL    HW234203   1.858   0.900   2.201  1.1766  0.4314 -0.1632
 7582SOL     OW34204   3.232   2.998  11.506  0.1887 -0.0621 -0.4790
 7582SOL    HW134205   3.294   2.934  11.542 -0.6574 -0.7050 -0.1585
 7582SOL    HW234206   3.230   3.070  11.570  0.5965 -0.3964 -0.0896
 7583SOL     OW34207   1.349   2.840  16.219 -0.2670  0.4512  0.1695
 7583SOL    HW134208   1.399   2.760  16.204 -1.5961  0.0236 -2.0337
 7583SOL    HW234209   1.417   2.907  16.225  0.8316 -0.5192 -1.7168
 7584SOL     OW34210   0.700   1.243   2.848 -0.2541  0.6027 -0.3560
 7584SOL    HW134211   0.725   1.329   2.815  2.1641  0.2348  0.5589
 7584SOL    HW234212   0.624   1.218   2.795  0.9847  0.9332 -2.2471
 7585SOL     OW34213   1.881   0.102   5.783 -0.2633 -0.1621 -0.3406
 7585SOL    HW134214   1.826   0.092   5.861  2.0545 -1.2414  1.1392
 7585SOL    HW234215   1.815   0.151   5.734 -0.7643  1.3737  1.8357
 7586SOL     OW34216   3.004   4.517   3.390 -0.0597  0.3970 -0.4366
 7586SOL    HW134217   3.042   4.500   3.304 -0.8729  0.1266 -0.7448
 7586SOL    HW234218   3.032   4.439   3.439 -0.4937  0.5399  0.0298
 7587SOL     OW34219   2.789   0.779  12.024 -0.0288 -0.0451  0.7748
 7587SOL    HW134220   2.817   0.862  12.063  1.3357  0.3523 -1.0447
 7587SOL    HW234221   2.877   0.741  12.018 -0.0444  0.1063 -0.3660
 7588SOL     OW34222   4.446   1.285  16.881  0.6661  0.0895 -0.2994
 7588SOL    HW134223   4.511   1.237  16.829  0.6261 -1.1715  0.8198
 7588SOL    HW234224   4.449   1.233  16.961  1.7494  0.6608  0.0278
 7589SOL     OW34225   0.626   0.155   0.423  0.1946 -0.5606  0.0858
 7589SOL    HW134226   0.718   0.139   0.399  0.2933 -1.4602  1.0727
 7589SOL    HW234227   0.631   0.225   0.489  0.6204  0.7285 -1.3074
 7590SOL     OW34228   2.313   3.865   4.193 -0.0143 -0.7636 -0.1636
 7590SOL    HW134229   2.341   3.856   4.284 -0.0750 -1.3093 -0.1960
 7590SOL    HW234230   2.250   3.935   4.203 -0.6326 -1.2874 -0.3817
 7591SOL     OW34231   2.940   1.229   2.884  0.0776  0.0768  0.0369
 7591SOL    HW134232   2.924   1.323   2.891  2.1736  0.5240 -0.9825
 7591SOL    HW234233   2.859   1.200   2.842 -1.0467  0.4093  2.0105
 7592SOL     OW34234   0.348   4.348   4.543 -0.5254 -0.1448  0.8427
 7592SOL    HW134235   0.352   4.254   4.522 -0.5715  0.7457 -3.1552
 7592SOL    HW234236   0.318   4.381   4.458 -1.6197  0.9701  1.6763
 7593SOL     OW34237   0.037   1.439   4.612  0.9259 -0.2248  0.4187
 7593SOL    HW134238   0.054   1.533   4.603 -1.3288  0.2522  1.0172
 7593SOL    HW234239   0.074   1.407   4.529  0.1521  1.3480 -0.5256
 7594SOL     OW34240   0.618   4.254  12.395  0.5002  0.3052  0.0787
 7594SOL    HW134241   0.708   4.286  12.399  0.1018  1.7402 -2.6185
 7594SOL    HW234242   0.616   4.223  12.305 -2.5633 -1.6966  0.8318
 7595SOL     OW34243   0.770   0.750   6.488  0.5039  0.2524 -0.0531
 7595SOL    HW134244   0.715   0.828   6.490 -1.1253 -0.8521 -1.6112
 7595SOL    HW234245   0.860   0.780   6.500  0.9308 -1.1385  0.2328
 7596SOL     OW34246   2.074   3.316   7.952 -0.5174  0.3832  0.9794
 7596SOL    HW134247   2.068   3.411   7.950 -1.3764  0.3178  0.2155
 7596SOL    HW234248   2.167   3.321   7.970 -0.9871  1.4059  3.1423
 7597SOL     OW34249   0.788   3.773  17.398  0.4465 -0.1362 -0.2869
 7597SOL    HW134250   0.880   3.780  17.421  0.3023  0.8684 -0.0177
 7597SOL    HW234251   0.765   3.683  17.419  2.4106 -0.9088 -1.4770
 7598SOL     OW34252   1.951   2.137  13.688 -0.7494 -0.1905 -0.1863
 7598SOL    HW134253   2.018   2.195  13.722 -1.5224  0.4485  0.2552
 7598SOL    HW234254   1.994   2.057  13.720  1.6642  1.3163  0.3098
 7599SOL     OW34255   0.476   0.110   2.196  0.8587 -0.3127 -0.1902
 7599SOL    HW134256   0.526   0.127   2.116 -0.7786  0.3607 -1.0507
 7599SOL    HW234257   0.422   0.189   2.189 -0.2804 -1.1832 -1.1485
 7600SOL     OW34258   0.464   4.309   6.395  0.1337  0.4052 -0.6099
 7600SOL    HW134259   0.494   4.329   6.483  1.5361 -2.1923 -0.5078
 7600SOL    HW234260   0.429   4.396   6.377  0.5373  0.9795  1.3743
 7601SOL     OW34261   0.528   0.943   2.559 -0.3186 -0.5860 -0.2404
 7601SOL    HW134262   0.519   0.889   2.480 -0.4235  0.1737 -0.7505
 7601SOL    HW234263   0.613   0.909   2.585 -0.9824 -2.6368 -0.7903
 7602SOL     OW34264   2.787   3.851  17.595  0.2570 -0.1596 -0.1515
 7602SOL    HW134265   2.784   3.931  17.543 -3.1003 -1.0943 -1.4235
 7602SOL    HW234266   2.706   3.805  17.572 -0.0759  1.2638 -1.8208
 7603SOL     OW34267   3.894   3.147   3.672  0.2597 -0.2399 -0.1314
 7603SOL    HW134268   3.867   3.220   3.616  2.8553  1.3601  0.7011
 7603SOL    HW234269   3.970   3.111   3.627  0.4706  1.7459 -1.3501
 7604SOL     OW34270   3.807   2.114  12.991  0.4570 -0.0948 -0.1980
 7604SOL    HW134271   3.827   2.197  13.035 -1.5281  1.1349 -1.5877
 7604SOL    HW234272   3.859   2.117  12.910  0.6328  2.5630  0.0143
 7605SOL     OW34273   0.691   1.056   4.452 -0.6028 -0.3794 -0.3716
 7605SOL    HW134274   0.631   1.114   4.405 -0.3434 -0.1866 -0.4602
 7605SOL    HW234275   0.767   1.046   4.396 -0.8924  0.8218 -0.9809
 7606SOL     OW34276   3.570   0.104  16.296  0.0046  0.4341 -0.3957
 7606SOL    HW134277   3.500   0.039  16.285 -0.2525  0.4274  1.3070
 7606SOL    HW234278   3.520   0.185  16.288 -2.2691 -0.9467 -0.0997
 7607SOL     OW34279   0.077   0.906  13.604  0.3149  0.6604 -0.2990
 7607SOL    HW134280   0.021   0.829  13.593 -1.3536  1.8676 -0.2328
 7607SOL    HW234281   0.012   0.965  13.642 -0.8843 -2.2034  2.1048
 7608SOL     OW34282   3.267   2.973   0.058  0.1197 -0.0144 -0.7568
 7608SOL    HW134283   3.185   2.997   0.015  0.3210 -2.7421 -2.6856
 7608SOL    HW234284   3.306   3.056   0.085 -0.4654 -0.4302  1.3731
 7609SOL     OW34285   0.217   1.299   2.203 -0.1385 -0.2772  0.5449
 7609SOL    HW134286   0.243   1.326   2.291 -1.5664  0.2888  0.7863
 7609SOL    HW234287   0.289   1.239   2.183  0.0112  0.4855 -1.2327
 7610SOL     OW34288   4.563   2.902   8.105  0.3633 -0.5128 -1.0643
 7610SOL    HW134289   4.636   2.965   8.100 -0.8271  0.8484 -1.2391
 7610SOL    HW234290   4.546   2.879   8.013  1.5481 -2.7856 -0.7165
 7611SOL     OW34291   2.979   2.418   5.321  0.4057 -0.1730  0.2372
 7611SOL    HW134292   2.905   2.398   5.379 -0.4669  0.9089 -0.5110
 7611SOL    HW234293   2.928   2.437   5.243 -1.4054  0.4480  1.5706
 7612SOL     OW34294   4.384   2.105  11.497  0.0181 -0.2748 -0.1393
 7612SOL    HW134295   4.303   2.084  11.543 -0.4507  0.5447 -0.5800
 7612SOL    HW234296   4.387   2.030  11.438  1.0360  0.7142 -1.3674
 7613SOL     OW34297   0.946   4.652   1.025 -0.2695  1.1303  0.3178
 7613SOL    HW134298   0.993   4.633   0.944  0.2225  2.6472  0.2609
 7613SOL    HW234299   0.894   0.002   1.000 -0.4740  0.7464 -0.4290
 7614SOL     OW34300   0.465   1.277   0.288 -0.1477  0.0360  0.3655
 7614SOL    HW134301   0.559   1.265   0.276 -0.2021 -0.0264 -0.0049
 7614SOL    HW234302   0.434   1.283   0.197 -0.4385  0.5566  0.4981
 7615SOL     OW34303   4.505   0.882   8.625  0.3595  0.4659 -0.2675
 7615SOL    HW134304   4.474   0.812   8.682  0.4348  1.3419  0.8427
 7615SOL    HW234305   4.547   0.835   8.553 -0.1915 -1.2238  0.4990
 7616SOL     OW34306   3.142   4.177  14.924  0.0970  0.4482 -0.4052
 7616SOL    HW134307   3.103   4.182  15.011  0.3342 -1.3516 -0.1777
 7616SOL    HW234308   3.236   4.180  14.943 -0.1839  1.5603  0.7261
 7617SOL     OW34309   2.658   4.339   2.560  0.3913  0.1957  0.3774
 7617SOL    HW134310   2.692   4.368   2.645  2.1258 -0.4855 -0.0836
 7617SOL    HW234311   2.664   4.425   2.517  0.2263 -0.4826 -1.0015
 7618SOL     OW34312   1.891   0.884   1.544  0.0100  0.4371 -0.4613
 7618SOL    HW134313   1.842   0.928   1.474  0.2076 -1.0234 -1.5227
 7618SOL    HW234314   1.985   0.896   1.530  0.2321 -1.0268 -0.2457
 7619SOL     OW34315   4.051   4.344   5.382 -0.0768 -0.6539 -0.0872
 7619SOL    HW134316   3.982   4.356   5.316 -0.2885  1.2583  0.4576
 7619SOL    HW234317   4.002   4.394   5.447  0.2629 -1.2377  0.6122
 7620SOL     OW34318   3.100   2.801   2.186 -0.1746  0.2886 -0.7317
 7620SOL    HW134319   3.009   2.794   2.158  0.1728 -2.5057 -1.1053
 7620SOL    HW234320   3.120   2.887   2.148 -0.9731  1.0721  0.6185
 7621SOL     OW34321   2.696   2.028   8.740  0.0941  0.1189 -0.2854
 7621SOL    HW134322   2.702   1.933   8.750  1.6434  0.0835 -1.6997
 7621SOL    HW234323   2.601   2.044   8.740  0.1226  0.2447 -3.5926
 7622SOL     OW34324   2.081   2.546   7.593 -0.1518 -0.0324  0.3189
 7622SOL    HW134325   2.128   2.533   7.675 -2.3581  0.3416  1.6454
 7622SOL    HW234326   2.002   2.588   7.626  1.5713  2.8314  0.7484
 7623SOL     OW34327   0.880   2.175   9.385  0.1391 -0.0627  0.0144
 7623SOL    HW134328   0.827   2.239   9.432 -1.0349 -3.0617  2.7442
 7623SOL    HW234329   0.884   2.115   9.460 -0.1034  0.3251  0.3349
 7624SOL     OW34330   1.683   4.290   1.782  0.2904  0.1849 -0.3039
 7624SOL    HW134331   1.615   4.249   1.837 -0.8773  1.2995 -0.9144
 7624SOL    HW234332   1.633   4.368   1.756  0.3824  0.4927  0.4348
 7625SOL     OW34333   0.362   4.026   7.689 -0.1010 -0.2902  0.0373
 7625SOL    HW134334   0.353   4.028   7.784  0.7020  0.3926  0.1002
 7625SOL    HW234335   0.274   4.033   7.651  0.3200 -1.8910 -1.2096
 7626SOL     OW34336   4.285   0.580   4.400  0.1718 -0.3341  0.6067
 7626SOL    HW134337   4.296   0.599   4.493  1.8870 -0.8489  0.5079
 7626SOL    HW234338   4.367   0.549   4.361  1.3539  3.3728  0.1813
 7627SOL     OW34339   0.219   4.290  13.551  0.1369  0.2995 -0.1939
 7627SOL    HW134340   0.299   4.296  13.498  0.4762  0.2808  0.3223
 7627SOL    HW234341   0.228   4.349  13.625 -0.9086 -0.1216  0.2612
 7628SOL     OW34342   1.646   3.570   0.748 -0.1718  0.5388 -0.2219
 7628SOL    HW134343   1.649   3.500   0.682  0.7721 -0.4782  0.9035
 7628SOL    HW234344   1.719   3.621   0.713  0.3573 -0.3189 -0.3712
 7629SOL     OW34345   0.804   3.984   1.880 -0.0270  0.6769  0.5236
 7629SOL    HW134346   0.900   3.983   1.882  0.0228  1.4297 -1.5025
 7629SOL    HW234347   0.783   4.073   1.909  2.4246  1.3058  0.3314
 7630SOL     OW34348   4.678   4.460   1.979 -0.0900 -0.0863  0.0732
 7630SOL    HW134349   4.713   4.412   1.904  2.3091 -1.5258  2.0894
 7630SOL    HW234350   4.658   4.549   1.950 -1.4120 -0.7780 -1.1424
 7631SOL     OW34351   3.273   3.247   8.042 -0.2955  0.4901 -0.0511
 7631SOL    HW134352   3.316   3.238   8.127  1.6526 -2.2765 -1.3398
 7631SOL    HW234353   3.249   3.161   8.007  0.2903 -0.0432  0.8473
 7632SOL     OW34354   1.979   3.768  12.484  0.5803  0.7235  0.1337
 7632SOL    HW134355   2.072   3.746  12.493  0.2306  0.2119  2.5079
 7632SOL    HW234356   1.992   3.854  12.443 -2.6587  0.1819 -2.0217
 7633SOL     OW34357   4.594   2.193  13.492  0.3118 -0.4198  0.7044
 7633SOL    HW134358   4.548   2.276  13.475  1.7359  0.2523  0.0998
 7633SOL    HW234359   4.671   2.211  13.438 -1.9386  1.1990 -1.9869
 7634SOL     OW34360   4.615   3.129   2.640  0.1558  0.1901  0.4804
 7634SOL    HW134361   4.568   3.205   2.607 -0.3200  0.3277  1.4577
 7634SOL    HW234362   4.704   3.159   2.621  0.5095 -0.1671  1.5600
 7635SOL     OW34363   1.629   4.669  14.323 -0.2215 -0.3556  0.6881
 7635SOL    HW134364   1.663   4.582  14.304  0.9275  0.1822  0.2257
 7635SOL    HW234365   1.713   4.711  14.341 -1.0137  0.8600  1.5771
 7636SOL     OW34366   0.327   0.656   9.048 -0.2250 -0.7316 -0.3439
 7636SOL    HW134367   0.311   0.577   9.101 -0.3613 -1.2851 -1.2148
 7636SOL    HW234368   0.422   0.650   9.040 -0.5594 -1.0522 -4.0331
 7637SOL     OW34369   2.240   0.323   1.681 -0.6983  0.0148 -0.1183
 7637SOL    HW134370   2.308   0.370   1.631 -1.1183  0.1164 -0.5930
 7637SOL    HW234371   2.192   0.271   1.616 -0.7431 -0.8590  0.6140
 7638SOL     OW34372   3.420   2.809   4.351  0.0775  0.1024 -0.2478
 7638SOL    HW134373   3.356   2.880   4.360 -1.7497 -1.5626 -0.2176
 7638SOL    HW234374   3.427   2.796   4.256 -0.8412  2.5527 -0.6583
 7639SOL     OW34375   3.829   3.700   0.231  0.0122 -1.2860  0.0872
 7639SOL    HW134376   3.786   3.779   0.264 -1.7082 -2.2527  0.1415
 7639SOL    HW234377   3.756   3.639   0.225 -2.1516  1.5331 -1.8976
 7640SOL     OW34378   3.642   1.621   7.949 -0.1881  0.7267 -0.0645
 7640SOL    HW134379   3.562   1.659   7.986  0.9064  1.1503  1.8585
 7640SOL    HW234380   3.689   1.599   8.030  2.3975  0.6071 -1.6164
 7641SOL     OW34381   1.791   1.273   0.526 -0.0630 -0.1329 -0.3149
 7641SOL    HW134382   1.769   1.322   0.447  0.0799  0.0192 -0.2607
 7641SOL    HW234383   1.721   1.300   0.585  0.5513  0.0648  0.3300
 7642SOL     OW34384   2.816   3.001   0.598 -0.3869 -0.3673 -0.2860
 7642SOL    HW134385   2.885   3.006   0.663 -2.1906 -0.2129  1.5974
 7642SOL    HW234386   2.865   3.007   0.515 -0.7459 -0.2094 -0.4858
 7643SOL     OW34387   0.819   4.484   4.618 -0.1044 -0.1184  0.4688
 7643SOL    HW134388   0.771   4.408   4.652 -1.2417  1.0966  1.5625
 7643SOL    HW234389   0.813   4.460   4.526  1.5599 -0.9563  0.5766
 7644SOL     OW34390   2.259   4.157   5.964 -0.5501 -0.3843 -0.0379
 7644SOL    HW134391   2.341   4.118   5.996 -0.0840  1.7443  1.3659
 7644SOL    HW234392   2.276   4.247   5.990  0.7567 -0.2131 -1.4495
 7645SOL     OW34393   1.144   1.798   8.476 -0.3129  0.1184 -0.5880
 7645SOL    HW134394   1.236   1.770   8.478 -0.5442 -0.4630  1.9625
 7645SOL    HW234395   1.157   1.889   8.449 -1.1931  0.1231 -0.9830
 7646SOL     OW34396   3.745   0.460   3.466 -0.2305 -0.7004  0.4044
 7646SOL    HW134397   3.666   0.414   3.495  0.1566 -1.1242  0.7971
 7646SOL    HW234398   3.769   0.418   3.384  1.3713  0.4704  0.2775
 7647SOL     OW34399   0.899   2.367   6.953 -0.1834  0.4288 -0.2261
 7647SOL    HW134400   0.932   2.374   7.043 -0.2389 -1.3038 -0.0690
 7647SOL    HW234401   0.816   2.327   6.980 -0.2121 -0.1362 -1.1498
 7648SOL     OW34402   0.992   1.315   2.027 -0.2588 -0.2987  0.8325
 7648SOL    HW134403   0.927   1.324   1.958 -0.9037 -1.3043  1.3069
 7648SOL    HW234404   1.023   1.405   2.030 -0.2087 -0.1863 -3.6760
 7649SOL     OW34405   2.112   0.063  10.227 -0.6501 -0.3943 -0.2536
 7649SOL    HW134406   2.075   0.079  10.140  1.2927  0.2637 -0.9594
 7649SOL    HW234407   2.156   4.705  10.216  0.9030  0.4369 -0.4907
 7650SOL     OW34408   1.487   4.655   7.278  0.5326 -0.5218 -0.2220
 7650SOL    HW134409   1.575   4.644   7.242  0.9615 -0.2118  0.7182
 7650SOL    HW234410   1.437   4.658   7.197  2.5900 -0.9132 -1.5226
 7651SOL     OW34411   3.921   3.892   6.946  0.9784 -0.1529 -0.1010
 7651SOL    HW134412   3.826   3.891   6.950  0.9311 -3.2399 -1.9317
 7651SOL    HW234413   3.944   3.830   7.015  1.7242 -1.8272 -1.8535
 7652SOL     OW34414   1.190   0.703  12.899  0.8080  0.1047 -0.2196
 7652SOL    HW134415   1.182   0.742  12.986 -1.3496 -2.3389  0.6691
 7652SOL    HW234416   1.284   0.713  12.881  1.0831 -2.9425 -0.5233
 7653SOL     OW34417   1.691   3.086  16.006  0.4084 -0.4430  0.5401
 7653SOL    HW134418   1.782   3.114  15.994 -0.5822  2.3155 -0.7405
 7653SOL    HW234419   1.656   3.170  16.036 -0.7826 -0.5609 -0.5284
 7654SOL     OW34420   2.933   4.029   2.548  0.2977  0.7792  0.1379
 7654SOL    HW134421   2.971   4.103   2.500  0.5192  2.4223  2.8290
 7654SOL    HW234422   2.994   3.959   2.526 -1.9377 -1.0596 -0.2545
 7655SOL     OW34423   1.542   0.210   1.393  0.0136  0.0728 -0.0559
 7655SOL    HW134424   1.575   0.219   1.304 -2.1997  0.7049 -0.8067
 7655SOL    HW234425   1.590   0.282   1.435 -0.7653  0.4531  0.1885
 7656SOL     OW34426   0.726   4.099  17.542 -0.2361 -0.1257 -0.1787
 7656SOL    HW134427   0.807   4.048  17.537 -0.1592  0.0848 -1.0432
 7656SOL    HW234428   0.756   4.178  17.587 -0.0739 -0.6338  0.5972
 7657SOL     OW34429   2.179   1.405  15.236 -0.1812 -0.2030 -0.0654
 7657SOL    HW134430   2.254   1.369  15.190  1.0275  0.7194  1.1647
 7657SOL    HW234431   2.124   1.449  15.172 -1.4295 -1.3680  0.2003
 7658SOL     OW34432   1.701   3.005   8.695 -0.2707  0.0039  0.6939
 7658SOL    HW134433   1.771   3.031   8.756  0.4204  1.6440 -0.8136
 7658SOL    HW234434   1.711   2.911   8.705  1.0044  0.1699  1.1441
 7659SOL     OW34435   2.772   4.310  11.142 -0.3492 -0.5730 -0.2527
 7659SOL    HW134436   2.846   4.361  11.111 -0.9838 -1.2546 -2.9113
 7659SOL    HW234437   2.703   4.344  11.084 -0.2368 -0.6824 -0.4518
 7660SOL     OW34438   4.693   2.147  13.756 -0.0139 -0.0004 -0.1883
 7660SOL    HW134439   4.633   2.091  13.805  0.5137 -0.8536 -0.5257
 7660SOL    HW234440   4.667   2.155  13.664  3.5844  3.3713 -0.9013
 7661SOL     OW34441   3.834   2.187  11.858 -0.0633  0.3123  0.2019
 7661SOL    HW134442   3.854   2.127  11.787  0.5705  0.4856  0.2263
 7661SOL    HW234443   3.918   2.193  11.904  1.1380  1.9393 -2.1756
 7662SOL     OW34444   0.096   1.109   6.722 -0.6021 -0.2028 -0.2495
 7662SOL    HW134445   0.002   1.124   6.716 -0.2697  1.7456 -0.7079
 7662SOL    HW234446   0.123   1.173   6.789  1.7461 -1.4290 -0.0364
 7663SOL     OW34447   1.294   0.521   9.136 -0.0223  0.1355  0.3453
 7663SOL    HW134448   1.386   0.498   9.149 -0.0660  0.0690  0.5386
 7663SOL    HW234449   1.306   0.598   9.081 -2.6502  1.8984  2.1736
 7664SOL     OW34450   2.946   1.177   5.734 -0.1411 -0.2008  0.2875
 7664SOL    HW134451   2.861   1.207   5.765 -0.0447 -0.4670  0.8008
 7664SOL    HW234452   2.931   1.083   5.729  1.3998 -0.4523  0.3126
 7665SOL     OW34453   4.664   3.796  15.134  0.0784  0.4408  0.3278
 7665SOL    HW134454   4.701   3.883  15.117  0.2122  0.0703 -1.3246
 7665SOL    HW234455   4.576   3.829  15.154  0.5594  1.5572  0.5871
 7666SOL     OW34456   0.329   3.612   6.674  0.0300  0.3067  0.1357
 7666SOL    HW134457   0.330   3.695   6.721 -0.1768 -0.6173  1.7807
 7666SOL    HW234458   0.293   3.635   6.589  0.4116  0.6664  0.0728
 7667SOL     OW34459   3.773   4.206   0.574  0.1854 -0.0250  0.1885
 7667SOL    HW134460   3.810   4.122   0.597  0.9138 -0.2528 -1.7943
 7667SOL    HW234461   3.693   4.197   0.627  0.0742 -1.7924 -0.2856
 7668SOL     OW34462   2.722   3.941  10.233 -0.4361 -0.4851  0.1238
 7668SOL    HW134463   2.771   3.905  10.308  1.7639  0.5307 -0.8341
 7668SOL    HW234464   2.729   4.036  10.242 -0.0302 -0.4786 -0.2617
 7669SOL     OW34465   0.564   1.750   6.811  0.5938  0.0297 -0.6270
 7669SOL    HW134466   0.640   1.699   6.839  1.0907  1.2675  0.2176
 7669SOL    HW234467   0.554   1.729   6.718 -1.8800  0.2119 -0.4085
 7670SOL     OW34468   3.082   0.859   8.526 -0.6805  0.0417  0.4282
 7670SOL    HW134469   3.039   0.884   8.608  0.5917 -0.3415  1.2138
 7670SOL    HW234470   3.020   0.889   8.459 -0.1177 -0.7304 -0.4432
 7671SOL     OW34471   2.347   0.319   4.690 -0.7429 -0.2648 -0.5158
 7671SOL    HW134472   2.315   0.244   4.640  1.9807 -0.3749 -2.0633
 7671SOL    HW234473   2.325   0.394   4.635 -2.2717 -0.2166  0.1501
 7672SOL     OW34474   3.988   4.278   6.060 -0.5474 -0.0269 -0.1325
 7672SOL    HW134475   4.022   4.205   6.008 -0.4238  0.4638 -0.7448
 7672SOL    HW234476   4.037   4.354   6.030 -1.9000  0.1986 -1.7846
 7673SOL     OW34477   0.413   3.714   3.585  0.4556  0.3202 -0.4168
 7673SOL    HW134478   0.368   3.668   3.514  3.0519 -2.5702 -0.1806
 7673SOL    HW234479   0.343   3.689   3.645 -0.3945  1.6334 -0.8670
 7674SOL     OW34480   3.984   2.256   4.758 -0.0953 -0.1987  0.4251
 7674SOL    HW134481   3.978   2.319   4.686 -0.5171  1.1623  1.6616
 7674SOL    HW234482   4.035   2.312   4.816  1.2184 -1.1764  0.2197
 7675SOL     OW34483   4.578   0.911   9.620 -0.3388  0.6263 -0.4399
 7675SOL    HW134484   4.524   0.960   9.557 -0.6198  1.3525  0.3594
 7675SOL    HW234485   4.537   0.825   9.623 -0.4258  0.7044  0.5591
 7676SOL     OW34486   3.725   3.507   7.696  0.1723 -0.7817 -0.3005
 7676SOL    HW134487   3.788   3.452   7.649 -0.3800 -0.7834 -1.0472
 7676SOL    HW234488   3.778   3.548   7.765  0.7296  0.4018 -1.4221
 7677SOL     OW34489   4.595   2.608   9.112 -0.2927 -0.1801  0.0728
 7677SOL    HW134490   4.508   2.567   9.107 -0.6332  0.3993  1.2095
 7677SOL    HW234491   4.582   2.699   9.085  0.4273  0.0856  0.6336
 7678SOL     OW34492   4.076   2.003   3.215  0.2333  0.4799  0.1579
 7678SOL    HW134493   4.066   1.916   3.178 -1.5020  0.1002  1.5306
 7678SOL    HW234494   4.113   2.061   3.148  2.1805 -0.3640  0.5080
 7679SOL     OW34495   3.888   2.481   3.448  0.3623 -0.6641  0.4657
 7679SOL    HW134496   3.819   2.542   3.423  0.5129 -0.3770  0.7466
 7679SOL    HW234497   3.863   2.400   3.403 -1.6840  0.2952 -0.1109
 7680SOL     OW34498   2.063   0.751   9.544 -0.3267  0.1005 -0.2388
 7680SOL    HW134499   2.156   0.749   9.566  0.2006 -0.7459 -2.6405
 7680SOL    HW234500   2.030   0.687   9.608  1.1290 -0.1582  0.2617
 7681SOL     OW34501   2.903   2.481   6.467  0.0983 -0.3058  0.0779
 7681SOL    HW134502   2.967   2.468   6.538 -0.6730  0.2359  0.8691
 7681SOL    HW234503   2.951   2.426   6.406  0.3612 -0.9729  0.8831
 7682SOL     OW34504   1.289   0.955   8.940 -0.1568  0.1331  0.6684
 7682SOL    HW134505   1.256   1.017   9.005  0.0156  1.3360 -0.3681
 7682SOL    HW234506   1.380   0.983   8.928 -0.0948 -0.2383  0.2868
 7683SOL     OW34507   0.126   3.982   3.839 -0.4984  0.2337 -0.5763
 7683SOL    HW134508   0.147   4.062   3.887 -0.0122 -2.1477  3.2242
 7683SOL    HW234509   0.148   3.913   3.901 -2.3040  0.2541  0.0597
 7684SOL     OW34510   3.278   0.922   3.029  0.6025 -0.2611 -0.1478
 7684SOL    HW134511   3.311   1.001   2.988 -0.0029 -0.8110 -1.6851
 7684SOL    HW234512   3.320   0.917   3.115  0.1519  1.4015  0.1542
 7685SOL     OW34513   3.388   4.684   7.533  0.0039 -0.2577  0.4032
 7685SOL    HW134514   3.468   4.651   7.494  0.4320 -0.6694  1.6157
 7685SOL    HW234515   3.422   0.027   7.589 -0.7760 -0.9789  1.7794
 7686SOL     OW34516   2.674   4.376   1.984  0.1762  1.2023 -0.0102
 7686SOL    HW134517   2.732   4.413   2.050  0.1344 -0.6980  1.0745
 7686SOL    HW234518   2.699   4.284   1.982  0.0514  1.1394  1.8451
 7687SOL     OW34519   2.937   0.099  13.500 -0.6671  0.5618 -0.1464
 7687SOL    HW134520   3.024   0.061  13.492 -2.4513 -3.3111 -1.0884
 7687SOL    HW234521   2.964   0.180  13.457 -1.6254  1.2582  0.5414
 7688SOL     OW34522   1.131   2.816  13.264  0.1743  0.2837 -0.0103
 7688SOL    HW134523   1.217   2.838  13.301 -0.5670  3.0878  0.1052
 7688SOL    HW234524   1.098   2.894  13.220  1.1637  0.3231 -0.6740
 7689SOL     OW34525   3.981   1.881   8.585 -0.6091  0.3289  0.7386
 7689SOL    HW134526   3.984   1.919   8.497  1.7201 -0.3152  0.5441
 7689SOL    HW234527   3.926   1.935   8.641  0.5997 -0.5032  2.7013
 7690SOL     OW34528   3.753   2.020   7.346  0.6226  0.2994  0.3792
 7690SOL    HW134529   3.836   2.000   7.390  1.6049  1.1940 -1.0540
 7690SOL    HW234530   3.732   2.083   7.415 -1.1393  1.1820 -0.9619
 7691SOL     OW34531   0.883   3.766   5.623 -0.3250  0.6724 -0.1132
 7691SOL    HW134532   0.890   3.861   5.625  0.5072  0.5928  0.4937
 7691SOL    HW234533   0.937   3.733   5.694 -1.4329 -0.9367 -0.0061
 7692SOL     OW34534   2.284   1.671   6.213 -0.4142  0.0052 -0.0898
 7692SOL    HW134535   2.378   1.688   6.224 -0.4774 -0.3109  0.9501
 7692SOL    HW234536   2.281   1.595   6.272 -2.3918 -0.9917 -1.4765
 7693SOL     OW34537   0.877   0.479  10.953 -0.3787  0.0770  0.1553
 7693SOL    HW134538   0.970   0.470  10.976 -0.4043  0.0540  0.2485
 7693SOL    HW234539   0.846   0.533  11.026  1.1920 -0.2817  1.0886
 7694SOL     OW34540   0.811   4.608  15.570 -0.8246  0.0867  0.0085
 7694SOL    HW134541   0.831   4.701  15.579 -0.8229  0.0800  0.0762
 7694SOL    HW234542   0.760   4.602  15.489  1.5067  2.1495 -1.5918
 7695SOL     OW34543   4.272   4.458   2.539 -0.2007 -0.0105 -0.2286
 7695SOL    HW134544   4.226   4.516   2.599 -0.2319 -2.0910  1.7273
 7695SOL    HW234545   4.206   4.448   2.470  1.4317  0.3377 -1.8499
 7696SOL     OW34546   2.199   0.606  17.260  0.1425 -0.1191  0.2231
 7696SOL    HW134547   2.249   0.572  17.186  1.0686 -1.3676  1.4092
 7696SOL    HW234548   2.261   0.591  17.332 -2.0262  1.6136  2.4502
 7697SOL     OW34549   1.899   0.094   0.668  0.0453  0.5256 -0.7966
 7697SOL    HW134550   1.890   0.032   0.739  0.4470  0.2394 -0.9953
 7697SOL    HW234551   1.918   0.168   0.725 -1.6258  1.7187 -1.7772
 7698SOL     OW34552   1.781   2.863  12.497 -0.1720 -0.2409  0.1972
 7698SOL    HW134553   1.808   2.954  12.507 -1.1680  0.0897 -0.0439
 7698SOL    HW234554   1.715   2.871  12.427  0.8392  0.0914 -0.7107
 7699SOL     OW34555   4.321   2.060   7.882  1.1712  0.0733  0.6400
 7699SOL    HW134556   4.310   2.030   7.792  1.9723 -2.9571  1.5424
 7699SOL    HW234557   4.342   1.981   7.932  2.5017 -0.6332 -1.0279
 7700SOL     OW34558   1.540   1.391  10.512 -0.0758  0.5914 -0.5435
 7700SOL    HW134559   1.628   1.353  10.513 -0.3074 -0.0285 -2.7722
 7700SOL    HW234560   1.494   1.319  10.555  0.4282 -0.0005 -0.9780
 7701SOL     OW34561   3.967   1.129   4.815 -0.3045 -0.4643  0.2113
 7701SOL    HW134562   3.989   1.045   4.774  4.2108  0.6322  0.3352
 7701SOL    HW234563   3.875   1.134   4.788 -0.5587 -0.1650  1.1362
 7702SOL     OW34564   3.548   2.777   3.614  0.5016  0.5915  0.1084
 7702SOL    HW134565   3.554   2.740   3.702 -1.5572 -0.8558 -0.3442
 7702SOL    HW234566   3.581   2.863   3.640 -0.6194  0.6763  1.2826
 7703SOL     OW34567   3.220   2.173   9.470 -0.4001 -0.4273 -0.0731
 7703SOL    HW134568   3.147   2.223   9.434  0.9205  1.6182  0.0731
 7703SOL    HW234569   3.170   2.101   9.508  2.1990 -2.2342 -0.1039
 7704SOL     OW34570   2.204   0.703   6.666 -0.6038  0.3201 -0.1983
 7704SOL    HW134571   2.298   0.681   6.670 -0.9787 -1.5465 -1.5669
 7704SOL    HW234572   2.172   0.617   6.640  1.6316 -1.1070  1.6615
 7705SOL     OW34573   0.128   0.947   1.689  0.3542 -0.8238  0.3638
 7705SOL    HW134574   0.079   0.935   1.607  1.4406 -0.0597 -0.3952
 7705SOL    HW234575   0.218   0.945   1.657 -0.0933  1.5890 -0.9836
 7706SOL     OW34576   1.476   1.936   4.983 -0.2149 -0.2538  0.2798
 7706SOL    HW134577   1.475   1.840   4.988  1.6175 -0.1506  2.5833
 7706SOL    HW234578   1.487   1.961   4.891  0.8035  1.9125  1.0060
 7707SOL     OW34579   4.312   2.892   5.367  0.0592 -0.3749 -0.5628
 7707SOL    HW134580   4.335   2.800   5.355  0.0852 -0.5017  0.4251
 7707SOL    HW234581   4.388   2.932   5.408  1.0022 -3.9187  1.1825
 7708SOL     OW34582   0.482   3.037   6.559  0.0427  0.4556 -0.3716
 7708SOL    HW134583   0.483   3.047   6.464  0.0458  1.4366 -0.2757
 7708SOL    HW234584   0.398   2.993   6.562  1.2615 -1.8875 -0.8611
 7709SOL     OW34585   0.579   1.231   0.744 -0.1395  0.1671  0.0861
 7709SOL    HW134586   0.491   1.211   0.715 -0.5336  0.9095  0.7686
 7709SOL    HW234587   0.627   1.252   0.664 -0.8514  0.2898 -0.3008
 7710SOL     OW34588   4.540   4.141  16.040  0.1765  0.0069  0.0018
 7710SOL    HW134589   4.555   4.173  16.129 -1.6690 -2.0866  1.0361
 7710SOL    HW234590   4.518   4.049  16.056 -1.4274  0.3132 -0.4281
 7711SOL     OW34591   3.802   3.587   3.338 -0.2254 -0.0455  0.2079
 7711SOL    HW134592   3.710   3.563   3.329  0.1270 -1.4542  0.4430
 7711SOL    HW234593   3.782   3.660   3.397  1.7383  2.0530 -1.7197
 7712SOL     OW34594   4.217   0.293  11.124 -0.1058 -0.3559  0.6961
 7712SOL    HW134595   4.137   0.260  11.167  0.9099 -1.5621  1.6556
 7712SOL    HW234596   4.192   0.278  11.033  2.9930  0.2816 -0.2248
 7713SOL     OW34597   3.506   4.004   3.228  0.2485 -0.0433 -0.4382
 7713SOL    HW134598   3.580   3.997   3.168  1.3274  0.5565  0.8130
 7713SOL    HW234599   3.443   4.053   3.176 -1.3977 -0.1009  1.5065
 7714SOL     OW34600   2.259   0.419   3.700 -0.3341 -0.1045  0.1439
 7714SOL    HW134601   2.293   0.330   3.692  0.7293  0.3097 -0.0664
 7714SOL    HW234602   2.329   0.456   3.754  0.0990 -1.1662  0.3148
 7715SOL     OW34603   4.104   3.376  14.895 -0.2212 -0.2929 -0.5897
 7715SOL    HW134604   4.056   3.394  14.814  0.0671 -0.0079 -0.6939
 7715SOL    HW234605   4.151   3.296  14.873  0.3432  0.6230 -2.7304
 7716SOL     OW34606   1.678   3.108  12.119 -0.1250 -0.5678 -0.5228
 7716SOL    HW134607   1.585   3.090  12.106 -0.5547  0.3273  1.1427
 7716SOL    HW234608   1.669   3.156  12.202  0.2074  0.3645 -1.0223
 7717SOL     OW34609   1.027   3.101   1.811  0.1878 -0.4239 -0.7851
 7717SOL    HW134610   1.006   3.064   1.725 -0.5416  0.4216 -0.9636
 7717SOL    HW234611   1.014   3.192   1.786 -0.6080  0.2711  2.2739
 7718SOL     OW34612   1.709   0.314  13.033 -0.1910  0.3942 -0.6441
 7718SOL    HW134613   1.791   0.355  13.006  0.1320  1.1115  1.4601
 7718SOL    HW234614   1.707   0.340  13.125 -0.9929 -0.3991 -0.4375
 7719SOL     OW34615   4.135   0.704  16.912 -0.0792  0.1053 -0.1524
 7719SOL    HW134616   4.136   0.740  17.001  0.7801 -0.1443 -0.0702
 7719SOL    HW234617   4.148   0.777  16.852  0.9569 -0.5891 -0.7490
 7720SOL     OW34618   0.796   4.184   4.367 -0.0060 -0.5341  0.0702
 7720SOL    HW134619   0.775   4.122   4.297  0.8799 -1.9355  1.0463
 7720SOL    HW234620   0.856   4.133   4.422  0.9557  1.5344  0.9824
 7721SOL     OW34621   3.302   1.557   9.957  0.4734 -0.0891 -0.3191
 7721SOL    HW134622   3.306   1.561  10.052  0.1730 -0.2706 -0.2976
 7721SOL    HW234623   3.350   1.635   9.930 -0.4060  1.7019  3.2968
 7722SOL     OW34624   3.537   0.578   8.967 -0.3964 -0.1523 -0.9375
 7722SOL    HW134625   3.613   0.613   8.920 -0.3766 -0.1221 -0.8840
 7722SOL    HW234626   3.497   0.649   9.018 -0.6246 -1.0403  0.1221
 7723SOL     OW34627   4.117   1.807   9.128 -0.9941  0.5694 -0.0196
 7723SOL    HW134628   4.059   1.866   9.177  0.3027  0.3713  1.7607
 7723SOL    HW234629   4.162   1.755   9.195  0.7051  0.8450 -0.9319
 7724SOL     OW34630   0.809   2.512  14.019 -0.1832 -0.0731 -0.0857
 7724SOL    HW134631   0.749   2.535  13.948 -1.6716 -0.2545  1.1399
 7724SOL    HW234632   0.894   2.551  13.997 -0.7768  0.9978 -0.4976
 7725SOL     OW34633   1.875   1.084   5.102  0.5787 -0.2978 -0.4769
 7725SOL    HW134634   1.924   1.016   5.148  0.8010  0.8072  0.9044
 7725SOL    HW234635   1.906   1.163   5.146 -0.5734 -0.0003 -0.1917
 7726SOL     OW34636   4.506   2.509   0.257 -0.8158  0.7034  0.1645
 7726SOL    HW134637   4.519   2.600   0.285  0.0543  0.8005 -0.5303
 7726SOL    HW234638   4.579   2.475   0.310  0.2031  0.4068 -1.4252
 7727SOL     OW34639   0.576   4.193   7.002 -0.3092  0.9114 -0.4344
 7727SOL    HW134640   0.588   4.288   6.995  0.4671  0.5833 -3.6061
 7727SOL    HW234641   0.650   4.172   7.059 -0.1408 -0.9890 -1.3691
 7728SOL     OW34642   2.846   0.815   6.642 -0.6745  0.0622 -0.1447
 7728SOL    HW134643   2.835   0.744   6.580  1.4528 -1.2644  1.0097
 7728SOL    HW234644   2.941   0.808   6.656 -0.9168 -2.0017  0.3411
 7729SOL     OW34645   4.711   2.598   7.982  0.0089  0.3680  0.6750
 7729SOL    HW134646   0.075   2.571   7.995 -0.2822 -0.7061  0.4509
 7729SOL    HW234647   4.702   2.571   7.891 -0.1319  1.0203  0.4981
 7730SOL     OW34648   2.858   2.722  15.714 -0.3211  0.5840  0.4743
 7730SOL    HW134649   2.875   2.650  15.774 -0.8471 -0.4793 -0.6487
 7730SOL    HW234650   2.931   2.703  15.655 -0.7131  0.0672  0.1553
 7731SOL     OW34651   0.251   3.462   7.726 -0.3082  0.0348  0.3863
 7731SOL    HW134652   0.228   3.553   7.711 -1.0102 -0.1319  0.4644
 7731SOL    HW234653   0.206   3.452   7.809  0.3947  2.4762  1.0415
 7732SOL     OW34654   3.572   4.374   5.036  0.1757 -0.1423  0.3441
 7732SOL    HW134655   3.621   4.293   5.050  0.2435 -0.1460  0.0902
 7732SOL    HW234656   3.566   4.409   5.125  0.4281  0.3109  0.1876
 7733SOL     OW34657   1.414   1.245   7.970  0.2370 -0.0699 -0.6986
 7733SOL    HW134658   1.390   1.304   8.042  0.0061  1.2127 -1.8324
 7733SOL    HW234659   1.446   1.166   8.015 -1.5486  0.0507  0.7840
 7734SOL     OW34660   1.434   0.758   3.105 -0.0456 -0.4970  0.5165
 7734SOL    HW134661   1.509   0.700   3.094 -0.2759 -0.6311 -0.3307
 7734SOL    HW234662   1.475   0.844   3.115 -0.1350 -0.2843 -0.9336
 7735SOL     OW34663   2.153   0.327   5.123  0.4135 -0.7135  0.0208
 7735SOL    HW134664   2.067   0.359   5.149  1.7450  2.8948 -0.0486
 7735SOL    HW234665   2.124   0.254   5.067 -1.5791  0.3772 -0.3680
 7736SOL     OW34666   4.111   0.320   5.917 -0.0261  0.4969  0.2443
 7736SOL    HW134667   4.201   0.345   5.896  0.4756 -2.5195 -1.1242
 7736SOL    HW234668   4.122   0.242   5.971  0.9347 -0.5240 -1.4301
 7737SOL     OW34669   0.142   3.545   3.045  0.0642  0.3042  0.3551
 7737SOL    HW134670   0.133   3.640   3.059 -1.8619  0.3948 -1.5662
 7737SOL    HW234671   0.229   3.542   3.005 -0.8732 -0.5594 -1.6319
 7738SOL     OW34672   0.844   1.468   1.600 -0.5582  0.0194 -0.4217
 7738SOL    HW134673   0.813   1.439   1.685 -0.5249 -1.6881 -0.9817
 7738SOL    HW234674   0.768   1.484   1.545 -0.4812  1.6327 -0.0577
 7739SOL     OW34675   2.258   0.228   8.050 -0.4782  0.3005 -0.1056
 7739SOL    HW134676   2.261   0.291   7.978  0.2105  0.8283  0.3809
 7739SOL    HW234677   2.205   0.278   8.112  0.8314  1.7974 -0.1728
 7740SOL     OW34678   2.934   1.331  12.918  0.0746  0.5473 -0.3036
 7740SOL    HW134679   2.880   1.364  12.847  0.5934 -0.8369 -1.3385
 7740SOL    HW234680   2.916   1.238  12.906 -0.6204  0.5390  0.7697
 7741SOL     OW34681   2.500   0.136   8.135 -0.3319 -0.1139 -0.4853
 7741SOL    HW134682   2.420   0.185   8.122 -0.4528 -0.4336 -0.9316
 7741SOL    HW234683   2.548   0.198   8.190 -0.3063 -1.3114  0.8601
 7742SOL     OW34684   1.030   2.780   3.385 -0.2228 -0.3813 -0.5099
 7742SOL    HW134685   0.938   2.802   3.374  0.1006  0.5976 -1.2570
 7742SOL    HW234686   1.032   2.689   3.356  1.8364 -0.7755  0.8755
 7743SOL     OW34687   0.022   3.704   8.344  0.2416 -0.3089 -0.1547
 7743SOL    HW134688   0.023   3.702   8.440 -2.4831 -1.1667 -0.1418
 7743SOL    HW234689   4.718   3.791   8.319  1.6257 -0.0612 -0.9843
 7744SOL     OW34690   1.448   3.514   1.896 -0.1881  0.3251  0.7858
 7744SOL    HW134691   1.452   3.596   1.946  0.4071  1.1267 -0.5780
 7744SOL    HW234692   1.496   3.533   1.816 -1.3069 -1.4076 -0.3005
 7745SOL     OW34693   2.656   3.973  10.551 -0.1292  0.9001  0.1392
 7745SOL    HW134694   2.691   4.060  10.534 -0.4054  0.7979 -0.9504
 7745SOL    HW234695   2.731   3.925  10.516  0.9202  2.0145  0.8474
 7746SOL     OW34696   1.607   2.715   4.477  0.0970 -0.2853  0.3372
 7746SOL    HW134697   1.693   2.742   4.444  0.2186 -0.7379  0.2897
 7746SOL    HW234698   1.578   2.785   4.536 -1.2654  0.7789 -1.5875
 7747SOL     OW34699   2.226   3.074   5.996  0.2781 -0.3758 -0.7590
 7747SOL    HW134700   2.197   3.147   5.941  0.7370 -0.3080 -0.9121
 7747SOL    HW234701   2.318   3.098   6.002  0.1801  0.0929 -1.0972
 7748SOL     OW34702   1.092   0.708   9.742 -0.5499  0.2263  0.4062
 7748SOL    HW134703   1.144   0.628   9.743  0.7098  1.0068 -2.4242
 7748SOL    HW234704   1.014   0.665   9.776  0.2148  1.0785  3.2319
 7749SOL     OW34705   2.460   3.052  10.553 -0.1996 -0.4232  1.3857
 7749SOL    HW134706   2.551   3.062  10.526  0.1144  0.9888  3.0327
 7749SOL    HW234707   2.464   3.111  10.628 -2.2440 -1.4689  2.3263
 7750SOL     OW34708   0.027   1.722   7.964  0.2079  0.0747 -0.5217
 7750SOL    HW134709   0.087   1.660   7.921  0.5959  0.2890 -0.2892
 7750SOL    HW234710   4.677   1.672   7.937  1.2308 -2.4141  1.1122
 7751SOL     OW34711   3.900   2.584  11.225  0.0392 -0.0049  0.1035
 7751SOL    HW134712   3.935   2.672  11.238  1.1668 -0.3314 -0.6722
 7751SOL    HW234713   3.983   2.536  11.227  1.3334  2.2138 -0.0155
 7752SOL     OW34714   3.336   1.545  15.100  0.1971  0.5384  0.2356
 7752SOL    HW134715   3.365   1.580  15.184 -1.0997  0.3552  0.7654
 7752SOL    HW234716   3.403   1.583  15.044  0.3397  1.4222  1.0022
 7753SOL     OW34717   3.976   3.857   2.054 -0.4680  0.1157 -0.7434
 7753SOL    HW134718   4.032   3.826   1.983  0.5724 -0.4780  0.3381
 7753SOL    HW234719   3.887   3.861   2.020 -0.0878 -1.6414 -1.8960
 7754SOL     OW34720   4.488   0.059   8.373 -0.3040  0.4229 -0.0399
 7754SOL    HW134721   4.538   0.132   8.409  0.8084  0.5278 -1.7764
 7754SOL    HW234722   4.522   4.711   8.421 -0.6999  0.8807  0.9479
 7755SOL     OW34723   3.222   4.047  15.318 -0.1014  0.0238 -0.3316
 7755SOL    HW134724   3.148   4.082  15.269 -0.4311  2.7594  2.1625
 7755SOL    HW234725   3.174   3.994  15.381  1.2652  0.0548  0.7348
 7756SOL     OW34726   4.009   1.176   6.668  0.1796  0.8705 -0.0491
 7756SOL    HW134727   3.982   1.179   6.576  1.3697  1.5016 -0.3724
 7756SOL    HW234728   3.965   1.094   6.694  0.5621  0.3806 -0.9516
 7757SOL     OW34729   1.685   4.483   0.462 -0.2238 -0.1615 -0.3426
 7757SOL    HW134730   1.668   4.414   0.398 -0.7952  0.8423 -1.2846
 7757SOL    HW234731   1.775   4.503   0.437  0.2585  1.3035  2.5909
 7758SOL     OW34732   2.901   3.937   3.844  0.0901 -0.3865  0.0794
 7758SOL    HW134733   2.825   3.951   3.900  0.1962 -0.6359  0.2809
 7758SOL    HW234734   2.867   3.878   3.776 -0.8993 -0.5878  0.7657
 7759SOL     OW34735   2.752   1.638   7.074  0.2831  0.4967 -0.1148
 7759SOL    HW134736   2.731   1.552   7.111 -1.2178  1.8442  2.1326
 7759SOL    HW234737   2.764   1.614   6.982 -1.4516 -0.8135  0.0044
 7760SOL     OW34738   4.219   0.571   0.208 -0.7042 -0.0823 -0.3110
 7760SOL    HW134739   4.269   0.635   0.259 -1.2432  1.2955 -1.5198
 7760SOL    HW234740   4.264   0.584   0.125 -0.3841  0.2054 -0.0956
 7761SOL     OW34741   3.904   1.174   6.057 -0.6358 -0.8935  0.3736
 7761SOL    HW134742   3.866   1.096   6.016  0.6361 -2.3743  2.0363
 7761SOL    HW234743   3.818   1.213   6.077  0.3808  2.7086 -2.2951
 7762SOL     OW34744   1.167   1.995   1.026  0.0709  0.2351 -0.3382
 7762SOL    HW134745   1.107   2.052   1.073  2.1180  1.0244  1.3357
 7762SOL    HW234746   1.204   1.952   1.103 -1.9756 -1.1086 -0.1199
 7763SOL     OW34747   2.237   0.783   8.292 -0.8047  0.0155  0.2250
 7763SOL    HW134748   2.190   0.700   8.298  0.7868 -1.1024 -2.6290
 7763SOL    HW234749   2.165   0.845   8.281 -0.5429  0.3497  0.3942
 7764SOL     OW34750   3.646   2.906   1.569 -0.3007  0.0547 -0.1649
 7764SOL    HW134751   3.570   2.951   1.606 -0.6415 -0.8763  0.2648
 7764SOL    HW234752   3.715   2.973   1.565  1.1494 -1.5283 -1.4546
 7765SOL     OW34753   2.812   2.874  11.746 -0.1251 -0.5755  0.3550
 7765SOL    HW134754   2.796   2.917  11.662 -0.6602 -0.2503  0.6215
 7765SOL    HW234755   2.885   2.817  11.724 -0.1275 -0.4234 -0.0494
 7766SOL     OW34756   4.117   0.501  10.157  0.1204 -0.8439 -0.2188
 7766SOL    HW134757   4.127   0.415  10.115  1.7116 -1.3911  1.3151
 7766SOL    HW234758   4.137   0.492  10.250 -0.7778  2.1545  0.2573
 7767SOL     OW34759   2.949   3.589   3.099  0.0809  0.9578  0.1229
 7767SOL    HW134760   2.886   3.622   3.162 -1.0392 -1.0347  0.0369
 7767SOL    HW234761   3.023   3.585   3.159 -1.5271  2.3023  2.2056
 7768SOL     OW34762   0.012   4.496   8.665 -0.3182 -0.0193  0.8676
 7768SOL    HW134763   0.051   4.409   8.673  3.6280  1.5677 -0.8301
 7768SOL    HW234764   0.013   4.530   8.754  0.8142  0.3185  0.7231
 7769SOL     OW34765   2.704   4.494  15.223 -0.0837  0.2679 -0.4369
 7769SOL    HW134766   2.727   4.530  15.137  1.8995  3.1674  1.3030
 7769SOL    HW234767   2.773   4.535  15.275 -0.8168  0.9738 -0.0236
 7770SOL     OW34768   4.543   3.787   3.205  0.0171 -0.4000  0.7272
 7770SOL    HW134769   4.556   3.845   3.131 -1.2629  0.9811  1.5786
 7770SOL    HW234770   4.453   3.800   3.236  0.7226  0.9680  2.2111
 7771SOL     OW34771   2.010   3.129   7.057 -0.3967  0.1072 -0.2900
 7771SOL    HW134772   2.055   3.127   7.142 -1.4889  0.9014  0.3098
 7771SOL    HW234773   2.074   3.184   7.012 -0.8879  0.6662 -0.3130
 7772SOL     OW34774   0.967   1.980   4.318 -0.1829  0.0859  0.1193
 7772SOL    HW134775   0.940   1.978   4.226 -1.0585 -0.8764  0.3994
 7772SOL    HW234776   1.032   1.911   4.319  0.1492  0.3582 -2.3328
 7773SOL     OW34777   3.746   1.381   1.432 -0.3921 -0.9902  0.0604
 7773SOL    HW134778   3.759   1.313   1.498 -2.0044 -1.7704 -0.4107
 7773SOL    HW234779   3.651   1.374   1.424 -0.4774 -0.0001  0.1978
 7774SOL     OW34780   3.036   1.209   5.161 -0.2893  0.0407  0.2033
 7774SOL    HW134781   2.983   1.227   5.239  0.2524 -0.7886  0.7568
 7774SOL    HW234782   3.015   1.117   5.146 -0.5434 -0.0304  0.9787
 7775SOL     OW34783   4.149   3.399   2.561  0.0513 -0.5600  0.8008
 7775SOL    HW134784   4.152   3.495   2.565  2.9622 -0.5116 -2.7432
 7775SOL    HW234785   4.085   3.378   2.629 -1.9455  1.5415 -0.4424
 7776SOL     OW34786   4.089   2.908   3.195  0.1792  0.2999 -0.4447
 7776SOL    HW134787   4.022   2.852   3.234 -0.8571  2.7505  1.3084
 7776SOL    HW234788   4.042   2.957   3.127  1.9317  2.0582 -0.3912
 7777SOL     OW34789   4.122   0.644   8.229  0.3902  0.2876 -0.2363
 7777SOL    HW134790   4.120   0.738   8.244  0.0165  0.5065 -1.6629
 7777SOL    HW234791   4.133   0.616   8.320  1.2892  2.4582  0.3203
 7778SOL     OW34792   0.621   1.456   1.452  0.2386  0.3985  0.2788
 7778SOL    HW134793   0.600   1.549   1.448 -0.5971  0.2942  2.5138
 7778SOL    HW234794   0.638   1.435   1.360 -2.5301 -1.6145  0.2287
 7779SOL     OW34795   4.655   4.396   2.509 -0.2477 -0.2070  0.4123
 7779SOL    HW134796   4.622   4.484   2.497  1.0903 -0.0104 -1.7993
 7779SOL    HW234797   4.656   4.369   2.417  0.6811 -0.3286  0.4556
 7780SOL     OW34798   2.243   1.339   3.118 -0.2014 -0.4442  0.1981
 7780SOL    HW134799   2.268   1.378   3.201  0.3268  0.1582 -0.2439
 7780SOL    HW234800   2.310   1.381   3.063 -0.6413 -1.6402 -1.2445
 7781SOL     OW34801   2.035   1.991   7.479 -0.6683 -0.1742 -0.2954
 7781SOL    HW134802   1.950   2.027   7.504  0.3158  1.6688  0.4523
 7781SOL    HW234803   2.057   2.060   7.416  1.1102 -3.9313 -3.8070
 7782SOL     OW34804   4.291   2.090   8.360  0.1225 -0.4548 -0.5545
 7782SOL    HW134805   4.368   2.143   8.338  0.3129  0.0392  1.3712
 7782SOL    HW234806   4.339   2.015   8.394  0.1458 -1.0677 -1.9410
 7783SOL     OW34807   1.394   3.095  12.123 -0.0745 -0.1640  0.3100
 7783SOL    HW134808   1.306   3.112  12.089  0.1815  0.0011 -0.2786
 7783SOL    HW234809   1.431   3.183  12.120 -2.1860  0.6700 -1.7670
 7784SOL     OW34810   4.493   2.271  15.490 -0.2835  0.0065 -0.0318
 7784SOL    HW134811   4.472   2.315  15.408  0.2920 -0.5389 -0.4732
 7784SOL    HW234812   4.442   2.191  15.475 -0.7020  0.3278 -0.3030
 7785SOL     OW34813   3.848   0.297   5.833 -0.4537 -0.5070 -0.2364
 7785SOL    HW134814   3.938   0.319   5.854 -0.4180 -0.0058 -0.9376
 7785SOL    HW234815   3.832   0.237   5.906  2.3659 -0.8844  0.0626
 7786SOL     OW34816   2.661   4.138   4.578 -0.3112 -0.1529  0.4007
 7786SOL    HW134817   2.699   4.064   4.625  1.2590  0.7077  0.4945
 7786SOL    HW234818   2.733   4.200   4.567 -0.8289  0.3283 -0.3292
 7787SOL     OW34819   1.496   3.975   3.705 -0.4816  0.7391 -0.1459
 7787SOL    HW134820   1.464   3.938   3.623  0.2240 -0.7484  0.2501
 7787SOL    HW234821   1.583   4.003   3.678  0.5919  0.0316  2.4696
 7788SOL     OW34822   1.091   3.030   3.774 -0.3567 -0.0806 -0.2813
 7788SOL    HW134823   1.152   2.967   3.736 -0.5298 -0.9573  0.8740
 7788SOL    HW234824   1.132   3.028   3.861 -0.7517 -1.2118 -0.1157
 7789SOL     OW34825   4.534   2.539   5.996  0.0066 -0.4423  0.1759
 7789SOL    HW134826   4.541   2.609   6.062  0.9628  0.2963 -0.7278
 7789SOL    HW234827   4.495   2.466   6.046  0.1100  0.3874  1.4868
 7790SOL     OW34828   0.667   2.267  13.996  0.0767 -0.1846 -0.3390
 7790SOL    HW134829   0.709   2.248  13.912 -1.1886 -0.9015 -0.8151
 7790SOL    HW234830   0.697   2.358  14.002  1.9101 -0.8481  0.5780
 7791SOL     OW34831   0.316   1.863  11.549  0.8704 -0.2900  0.1225
 7791SOL    HW134832   0.394   1.915  11.530  1.0906 -1.3495 -1.8418
 7791SOL    HW234833   0.317   1.859  11.645 -0.6739  1.0712  0.2088
 7792SOL     OW34834   3.790   2.122   1.656 -0.6726 -0.5301 -0.1695
 7792SOL    HW134835   3.805   2.035   1.621  1.5274  0.3308 -1.3521
 7792SOL    HW234836   3.879   2.152   1.675 -1.4318 -0.2041  2.9611
 7793SOL     OW34837   3.197   4.054  12.866 -0.1043  0.1639 -0.4218
 7793SOL    HW134838   3.291   4.064  12.883 -0.2221 -2.3740  1.7585
 7793SOL    HW234839   3.187   3.963  12.895  0.1411  0.4754  0.6567
 7794SOL     OW34840   0.389   0.483   2.823  0.1579 -0.3099  0.1224
 7794SOL    HW134841   0.410   0.525   2.739  1.0673 -0.0801  0.4625
 7794SOL    HW234842   0.386   0.396   2.782  1.2922 -1.1167  1.7629
 7795SOL     OW34843   3.443   3.908  12.004 -0.3525 -0.5941  0.1571
 7795SOL    HW134844   3.420   3.979  12.064 -0.5497  0.9572 -1.7445
 7795SOL    HW234845   3.435   3.961  11.924 -0.7568 -0.9838 -0.0595
 7796SOL     OW34846   4.180   0.250   0.513  0.1085  0.0253  0.4973
 7796SOL    HW134847   4.147   0.265   0.602 -2.2950 -1.6804 -0.0937
 7796SOL    HW234848   4.154   0.161   0.486 -0.1862 -0.4371  2.3141
 7797SOL     OW34849   2.257   0.082   8.375 -0.2544  0.8589  0.2778
 7797SOL    HW134850   2.333   0.120   8.419 -0.0272  2.3537 -1.4239
 7797SOL    HW234851   2.244   0.013   8.441 -1.2340 -0.1461 -0.9771
 7798SOL     OW34852   2.488   4.351   3.849 -0.7740  0.2340 -0.0450
 7798SOL    HW134853   2.432   4.388   3.917  0.4624 -0.0417  1.1089
 7798SOL    HW234854   2.456   4.260   3.850  0.2734 -0.1218  0.4719
 7799SOL     OW34855   1.915   1.953   8.729  0.3786  0.0464 -0.5930
 7799SOL    HW134856   1.995   1.928   8.681 -0.6202  0.8583 -2.6792
 7799SOL    HW234857   1.966   1.966   8.809  0.0464 -1.4381 -0.1448
 7800SOL     OW34858   0.076   1.580   9.470 -0.1231 -0.3373  0.3302
 7800SOL    HW134859   0.059   1.486   9.474  0.1519 -0.3464  1.2835
 7800SOL    HW234860   0.118   1.602   9.387 -1.3604  2.6806  0.4909
 7801SOL     OW34861   3.622   3.125  16.858 -0.3500  0.5023 -0.0699
 7801SOL    HW134862   3.543   3.110  16.806 -0.7636 -2.7502  1.5273
 7801SOL    HW234863   3.688   3.099  16.793 -1.6428 -1.0579 -0.7704
 7802SOL     OW34864   2.527   0.778  14.749  0.1160 -0.0697  0.1940
 7802SOL    HW134865   2.518   0.822  14.833  0.6973  3.1542 -1.4441
 7802SOL    HW234866   2.617   0.745  14.748  0.3416  0.5385  0.2834
 7803SOL     OW34867   1.579   0.619   5.042  0.2501  0.4200 -0.4021
 7803SOL    HW134868   1.494   0.649   5.009  0.1643 -1.5171 -1.9737
 7803SOL    HW234869   1.556   0.577   5.125  0.0016  2.7626  0.7121
 7804SOL     OW34870   0.068   0.204   2.116  0.6272  0.2484  0.2611
 7804SOL    HW134871   0.061   0.297   2.095  0.3511  0.1000 -0.2893
 7804SOL    HW234872   0.160   0.184   2.098  0.0296 -2.8191  0.6580
 7805SOL     OW34873   3.214   2.268   2.029 -0.2263  0.0862 -0.7619
 7805SOL    HW134874   3.166   2.195   2.067 -0.9430  0.2579 -1.3426
 7805SOL    HW234875   3.191   2.341   2.086  1.5165  1.7240 -2.1528
 7806SOL     OW34876   3.116   2.257  15.736 -0.3337  0.5851 -0.2647
 7806SOL    HW134877   3.033   2.251  15.689 -0.4879 -0.0862  0.0929
 7806SOL    HW234878   3.170   2.257  15.657 -0.0594 -1.7415 -0.0891
 7807SOL     OW34879   1.512   2.661   2.383 -0.0720 -0.8032  0.3339
 7807SOL    HW134880   1.479   2.740   2.341 -1.1843 -0.8221  1.1710
 7807SOL    HW234881   1.481   2.595   2.321  2.5682 -0.0932 -1.7478
 7808SOL     OW34882   2.079   1.979   5.696  0.1057 -0.1125 -0.2812
 7808SOL    HW134883   2.045   2.049   5.641  3.4169  1.0515 -0.8627
 7808SOL    HW234884   2.118   2.025   5.770  0.8190  1.9281 -1.9215
 7809SOL     OW34885   2.786   2.940   4.343  0.2217  0.1308  0.5340
 7809SOL    HW134886   2.866   2.913   4.299  0.3999  1.7121 -0.1077
 7809SOL    HW234887   2.797   3.034   4.355 -3.5660  0.8929 -1.8694
 7810SOL     OW34888   1.611   0.864   6.898  0.3667  0.6386 -0.1125
 7810SOL    HW134889   1.536   0.809   6.879 -0.1838  1.6061 -0.7408
 7810SOL    HW234890   1.627   0.914   6.818 -1.4184 -0.5344 -1.1962
 7811SOL     OW34891   3.055   0.272   5.708  0.0172 -0.2918  1.0165
 7811SOL    HW134892   3.079   0.191   5.663  0.1458  0.6757 -0.6680
 7811SOL    HW234893   3.131   0.291   5.763  2.9497 -0.8071 -2.9002
 7812SOL     OW34894   2.182   0.213   8.980 -0.5699 -0.1950  0.0811
 7812SOL    HW134895   2.264   0.221   9.028 -1.1207 -0.2416  1.0484
 7812SOL    HW234896   2.133   0.292   9.002 -2.2133 -1.3541  0.6453
 7813SOL     OW34897   1.484   4.487  10.385 -0.4420  0.2109 -0.0601
 7813SOL    HW134898   1.481   4.450  10.297 -0.1493  1.6034 -0.6514
 7813SOL    HW234899   1.420   4.429  10.426  0.7650 -0.6518  0.6292
 7814SOL     OW34900   1.551   4.697   2.822 -0.5694 -0.2135  0.1556
 7814SOL    HW134901   1.547   4.632   2.892  2.2400 -1.3188 -0.6935
 7814SOL    HW234902   1.594   0.037   2.875  0.6188 -0.4398 -0.5183
 7815SOL     OW34903   0.977   1.125   9.329  0.2223 -0.2709 -0.4251
 7815SOL    HW134904   0.923   1.176   9.389  1.0143  0.1594 -0.0853
 7815SOL    HW234905   0.967   1.195   9.264 -0.4503  1.0964  1.1367
 7816SOL     OW34906   0.661   2.102  17.077  0.3942  0.1455 -0.0661
 7816SOL    HW134907   0.638   2.009  17.078  1.2000 -0.0207  2.6247
 7816SOL    HW234908   0.709   2.105  16.995  1.0822 -1.7784  0.2519
 7817SOL     OW34909   0.789   2.015   3.358 -0.2367 -0.0671  0.9958
 7817SOL    HW134910   0.768   1.941   3.301 -0.9423  0.2451  0.8497
 7817SOL    HW234911   0.851   1.982   3.423  0.3911 -1.2616 -0.2247
 7818SOL     OW34912   4.185   0.103   8.416  0.1387 -0.1344 -0.3203
 7818SOL    HW134913   4.275   0.108   8.383  1.1036 -0.2994  2.2950
 7818SOL    HW234914   4.178   0.009   8.403  3.4231 -0.5762  0.9295
 7819SOL     OW34915   3.079   2.386   6.647  0.4404  0.4466 -0.2902
 7819SOL    HW134916   3.172   2.369   6.660  0.7017  2.0885 -0.0881
 7819SOL    HW234917   3.053   2.395   6.739 -2.4517  1.6664 -1.2290
 7820SOL     OW34918   3.865   1.732  11.380  0.2204  0.1524  0.4761
 7820SOL    HW134919   3.790   1.675  11.398 -0.1341 -0.1251 -1.8832
 7820SOL    HW234920   3.856   1.720  11.285  0.5977  1.2120  0.3015
 7821SOL     OW34921   0.694   2.667  17.188  0.0487  0.0359  0.5330
 7821SOL    HW134922   0.690   2.762  17.177 -0.2746 -0.1194 -0.6534
 7821SOL    HW234923   0.637   2.658  17.265  0.2869  2.0794  0.9628
 7822SOL     OW34924   3.399   3.340   3.394 -0.1824 -0.2242  0.2173
 7822SOL    HW134925   3.458   3.265   3.390 -0.0217 -0.1990  2.1615
 7822SOL    HW234926   3.457   3.415   3.386 -0.8591  0.2714 -0.1412
 7823SOL     OW34927   3.308   4.144  13.784  0.2892  0.4419  0.2848
 7823SOL    HW134928   3.229   4.148  13.730 -0.3686  1.1949  1.2876
 7823SOL    HW234929   3.272   4.130  13.872  0.7442 -1.4026  0.1587
 7824SOL     OW34930   4.268   1.096  17.076 -0.2547 -0.2260  0.0618
 7824SOL    HW134931   4.224   1.020  17.113  0.3749 -2.0098 -2.9133
 7824SOL    HW234932   4.195   1.149  17.045 -1.3981 -0.8240  1.6818
 7825SOL     OW34933   1.836   2.691   1.505  0.0423 -0.3930  0.0221
 7825SOL    HW134934   1.919   2.650   1.481  1.0338  1.1359  0.8762
 7825SOL    HW234935   1.850   2.708   1.598 -1.1884 -2.1554  0.5388
 7826SOL     OW34936   4.045   2.258  13.886 -0.3852  0.0395 -0.4914
 7826SOL    HW134937   4.079   2.255  13.975 -0.1906 -0.9573 -0.5976
 7826SOL    HW234938   4.064   2.340  13.841  2.1720  0.0161  0.5694
 7827SOL     OW34939   3.631   3.489   6.317  0.0428 -0.0742 -0.9386
 7827SOL    HW134940   3.684   3.471   6.395 -0.5759  0.5494 -0.3683
 7827SOL    HW234941   3.690   3.462   6.247  1.3406 -2.1370  0.9551
 7828SOL     OW34942   2.791   3.039   9.493 -0.3968  0.1005 -0.1555
 7828SOL    HW134943   2.863   3.086   9.536 -1.6228  0.8595  1.0878
 7828SOL    HW234944   2.760   3.104   9.431  1.5160  0.0771 -1.1457
 7829SOL     OW34945   2.347   1.469  10.099  0.4077 -0.0274 -0.7196
 7829SOL    HW134946   2.438   1.454  10.124  0.4224  3.5467  1.3593
 7829SOL    HW234947   2.315   1.452  10.187 -0.7576  2.2494 -0.7129
 7830SOL     OW34948   2.320   1.860   4.159 -0.0511 -0.0905  0.1174
 7830SOL    HW134949   2.309   1.949   4.193 -1.7262  0.2508 -1.3109
 7830SOL    HW234950   2.414   1.860   4.141  0.2862  1.5754  1.9902
 7831SOL     OW34951   0.445   4.064   2.715  0.5679  0.2386 -0.0591
 7831SOL    HW134952   0.467   4.141   2.767  1.4393 -0.3451  0.4312
 7831SOL    HW234953   0.440   4.098   2.625 -0.7240 -0.1432 -0.1315
 7832SOL     OW34954   3.799   0.843   8.016  0.1782 -0.4445  0.2575
 7832SOL    HW134955   3.712   0.882   8.022 -0.0460 -0.9624  0.4157
 7832SOL    HW234956   3.853   0.921   8.010 -0.0327 -0.1378  2.3960
 7833SOL     OW34957   1.271   0.532   2.986 -0.7234 -0.0878  0.5449
 7833SOL    HW134958   1.320   0.601   3.032  0.1027  0.6079 -1.3206
 7833SOL    HW234959   1.197   0.587   2.959 -2.0193 -1.6323  0.9810
 7834SOL     OW34960   4.450   1.849   5.555 -0.4492  0.0857 -0.2951
 7834SOL    HW134961   4.420   1.763   5.523  1.9896 -0.9588  0.2210
 7834SOL    HW234962   4.471   1.834   5.647  1.5684 -0.9301 -0.9057
 7835SOL     OW34963   4.406   3.080  16.252 -0.2459 -0.6178 -0.1859
 7835SOL    HW134964   4.452   3.153  16.210  2.0637 -2.5694 -1.0216
 7835SOL    HW234965   4.345   3.059  16.182 -1.0374  0.1580  0.2797
 7836SOL     OW34966   1.821   0.985   2.855  1.0183 -0.6237  0.0778
 7836SOL    HW134967   1.811   0.899   2.813  3.0148 -0.9174  0.2136
 7836SOL    HW234968   1.908   0.964   2.888  1.5909 -1.8795 -2.2492
 7837SOL     OW34969   0.037   0.212   6.149 -0.0832  0.1413 -0.2990
 7837SOL    HW134970   0.111   0.206   6.210 -0.1596  0.2442 -0.1965
 7837SOL    HW234971   4.703   0.244   6.215  2.1612 -0.1086  1.8931
 7838SOL     OW34972   0.620   1.704   4.439  0.2726  0.1721  0.3466
 7838SOL    HW134973   0.525   1.704   4.426  0.6199 -1.3930 -2.2804
 7838SOL    HW234974   0.638   1.612   4.459 -0.7470  0.0333  0.6466
 7839SOL     OW34975   1.222   3.875   3.231  0.3332 -0.4331  0.5396
 7839SOL    HW134976   1.317   3.871   3.239  0.1943 -0.6484  2.0623
 7839SOL    HW234977   1.195   3.783   3.226 -0.8545 -0.1389  1.5428
 7840SOL     OW34978   2.579   4.408  10.965 -0.1156  0.0139 -0.9135
 7840SOL    HW134979   2.590   4.344  10.895  1.1877 -0.3339 -0.3746
 7840SOL    HW234980   2.532   4.483  10.928 -0.9816 -0.6271 -1.1144
 7841SOL     OW34981   3.352   1.594   2.300 -0.5309  0.8039  0.6436
 7841SOL    HW134982   3.388   1.590   2.389 -0.6327  0.2100  0.6550
 7841SOL    HW234983   3.380   1.682   2.275 -0.0424  1.1703  2.4604
 7842SOL     OW34984   0.879   0.658   0.905  0.1940  0.0388  0.0547
 7842SOL    HW134985   0.897   0.700   0.821 -0.5165 -1.4548 -0.8358
 7842SOL    HW234986   0.894   0.567   0.879  0.5211  0.2621 -0.5473
 7843SOL     OW34987   1.244   1.041   8.165  0.4488 -0.6060  0.3178
 7843SOL    HW134988   1.337   1.060   8.153  0.0385  0.1278 -1.5918
 7843SOL    HW234989   1.221   1.103   8.234  1.4378 -0.7601  0.7945
 7844SOL     OW34990   4.377   0.347   5.337 -0.2644  0.2018  0.1113
 7844SOL    HW134991   4.331   0.319   5.258 -0.0805  3.3077 -1.0803
 7844SOL    HW234992   4.369   0.275   5.400 -0.7845  0.2876  0.1459
 7845SOL     OW34993   2.872   1.412   4.887  0.0590 -0.5594 -0.0282
 7845SOL    HW134994   2.832   1.458   4.962  0.7780 -2.1342  1.3222
 7845SOL    HW234995   2.827   1.328   4.885  0.4242 -0.7378 -0.4384
 7846SOL     OW34996   1.005   1.612   9.616  0.1571 -0.0719 -0.2024
 7846SOL    HW134997   1.019   1.693   9.568  3.8989 -0.7929 -0.3718
 7846SOL    HW234998   0.995   1.647   9.704 -0.0084  1.7830 -0.9687
 7847SOL     OW34999   2.005   4.705   4.171 -0.0514  0.3362  0.4088
 7847SOL    HW135000   1.961   0.046   4.119 -0.6531 -0.4002 -0.0429
 7847SOL    HW235001   2.081   0.022   4.210  1.0475 -2.6897  1.6532
 7848SOL     OW35002   1.953   1.793   7.860  0.1616  0.3165 -0.1491
 7848SOL    HW135003   1.913   1.838   7.935  0.3928 -1.4705  1.0504
 7848SOL    HW235004   2.045   1.801   7.886 -0.0625  0.7983  0.4946
 7849SOL     OW35005   1.130   3.693  16.936 -0.0099 -0.2372 -0.3678
 7849SOL    HW135006   1.180   3.692  17.018  1.6083 -0.6651 -1.3723
 7849SOL    HW235007   1.188   3.650  16.874 -0.9291 -0.5881 -0.9819
 7850SOL     OW35008   3.044   2.672  11.142 -0.1296 -0.5022 -0.0034
 7850SOL    HW135009   3.120   2.705  11.095 -2.7938  3.3764 -1.6384
 7850SOL    HW235010   3.046   2.578  11.127 -0.0915 -0.1472 -2.3325
 7851SOL     OW35011   3.230   2.562   5.657  0.5832  0.0985  0.1075
 7851SOL    HW135012   3.243   2.485   5.601  1.4464 -0.5224  1.1606
 7851SOL    HW235013   3.223   2.634   5.594 -0.7990  0.9583  1.2677
 7852SOL     OW35014   3.665   3.867   6.833 -0.4752  0.2028 -0.1588
 7852SOL    HW135015   3.618   3.940   6.873 -0.4761  0.3405 -0.4091
 7852SOL    HW235016   3.606   3.791   6.837 -0.3024  0.1106  0.5450
 7853SOL     OW35017   1.110   2.985   3.013 -0.2971  0.1977 -0.1320
 7853SOL    HW135018   1.164   2.954   3.086 -0.0155 -1.2304 -0.9503
 7853SOL    HW235019   1.065   2.902   2.996 -1.7697  0.8448  0.6384
 7854SOL     OW35020   2.023   1.164   7.715 -0.1479  0.4111 -0.6092
 7854SOL    HW135021   2.118   1.155   7.724 -0.2367  0.2425  0.2340
 7854SOL    HW235022   2.004   1.254   7.687 -0.2652  1.3771  2.5174
 7855SOL     OW35023   1.019   0.845   2.089 -0.5670  0.0913  0.5711
 7855SOL    HW135024   1.065   0.800   2.160 -0.6382  0.6070  0.9420
 7855SOL    HW235025   0.968   0.771   2.056  1.0231 -1.3674  1.3859
 7856SOL     OW35026   1.633   2.110  17.414 -0.4656 -0.0628  0.3272
 7856SOL    HW135027   1.725   2.104  17.440 -0.2998  0.6833 -0.0866
 7856SOL    HW235028   1.627   2.042  17.348 -1.8058  1.4549 -1.1038
 7857SOL     OW35029   3.941   2.016   5.909 -0.6469 -0.5446  0.4034
 7857SOL    HW135030   3.919   2.056   5.825 -1.3707 -1.2333  0.2624
 7857SOL    HW235031   3.902   1.932   5.882  0.1064  0.4969 -3.8653
 7858SOL     OW35032   2.593   2.648   7.219  0.1841  0.5205  0.1390
 7858SOL    HW135033   2.610   2.574   7.278  0.4721 -1.7974 -2.8925
 7858SOL    HW235034   2.579   2.715   7.286 -1.3024 -0.0952  0.4357
 7859SOL     OW35035   1.398   4.333   8.422 -0.1809 -0.5323  0.3205
 7859SOL    HW135036   1.325   4.275   8.398 -1.9823  1.8577  0.0745
 7859SOL    HW235037   1.467   4.267   8.426  0.4664  0.2625  2.1383
 7860SOL     OW35038   3.927   0.019  10.112 -0.3482  0.0308  0.0279
 7860SOL    HW135039   3.982   0.004  10.035 -0.8960 -0.0856 -0.3347
 7860SOL    HW235040   3.990   0.053  10.176  1.2531 -0.7823 -1.1230
 7861SOL     OW35041   1.506   4.659  17.413 -0.0124 -0.2453  0.0606
 7861SOL    HW135042   1.566   4.710  17.468  1.1754 -1.0977 -0.4520
 7861SOL    HW235043   1.564   4.666  17.337 -2.0659  0.7728 -1.4109
 7862SOL     OW35044   1.857   2.140   9.281  0.4395  0.2467  0.4444
 7862SOL    HW135045   1.942   2.161   9.244  0.9072 -0.4114  1.1473
 7862SOL    HW235046   1.860   2.045   9.284  0.3328  0.2572  0.8547
 7863SOL     OW35047   1.032   3.170   5.132 -0.3923  0.1268 -0.3745
 7863SOL    HW135048   0.992   3.255   5.116  0.0785  0.2122 -1.0999
 7863SOL    HW235049   1.015   3.121   5.052  0.3178 -2.8437  1.2756
 7864SOL     OW35050   4.136   3.962   8.539  0.8808  0.2791 -0.4769
 7864SOL    HW135051   4.078   3.958   8.615  1.8588 -0.6103  0.2142
 7864SOL    HW235052   4.083   3.920   8.471  2.9315 -2.2762 -0.5028
 7865SOL     OW35053   3.170   0.504   3.884 -0.0754 -0.2628  0.8964
 7865SOL    HW135054   3.146   0.418   3.917 -0.4628 -1.2229 -1.9095
 7865SOL    HW235055   3.260   0.493   3.855 -0.2547  0.5909  0.0213
 7866SOL     OW35056   4.710   1.143  12.304 -0.0505 -0.5278  0.0511
 7866SOL    HW135057   4.644   1.181  12.246 -1.4885 -0.5784  1.6648
 7866SOL    HW235058   0.043   1.106  12.240 -1.4926 -2.7454 -0.0035
 7867SOL     OW35059   0.239   1.670  13.302 -0.8903  0.0847  0.0802
 7867SOL    HW135060   0.173   1.720  13.349 -0.3355 -0.5524  1.5346
 7867SOL    HW235061   0.209   1.700  13.216  1.2501 -2.0583 -1.4466
 7868SOL     OW35062   1.926   0.195   3.015 -0.1567  0.2713 -0.3978
 7868SOL    HW135063   1.947   0.115   2.966  0.7550 -1.1274  2.3255
 7868SOL    HW235064   1.831   0.186   3.009 -0.0282  0.3460 -2.6746
 7869SOL     OW35065   1.934   3.607   2.146  0.2976 -0.4218 -1.0630
 7869SOL    HW135066   2.015   3.654   2.125 -0.9932  1.4231 -1.8872
 7869SOL    HW235067   1.965   3.534   2.200  0.8622  0.6875  0.1053
 7870SOL     OW35068   0.701   0.707  10.243  0.1674  0.9120  0.1366
 7870SOL    HW135069   0.783   0.751  10.267  1.1245  0.6328 -2.5714
 7870SOL    HW235070   0.648   0.710  10.322  0.7833  0.8288  0.5507
 7871SOL     OW35071   2.518   2.479   2.723  0.3194  0.3852  0.3040
 7871SOL    HW135072   2.505   2.536   2.648  3.1002  0.4596 -0.1114
 7871SOL    HW235073   2.577   2.414   2.686 -1.2680 -0.5076 -0.6570
 7872SOL     OW35074   2.052   4.031   0.656  0.1269  0.8540  0.1271
 7872SOL    HW135075   2.039   4.115   0.612 -0.0057 -0.0366 -1.5484
 7872SOL    HW235076   2.024   4.060   0.742  3.0354 -0.0778  1.3580
 7873SOL     OW35077   3.945   2.771   4.178  0.2693  0.1531  0.3874
 7873SOL    HW135078   3.924   2.714   4.104  1.7782 -0.5143  0.4928
 7873SOL    HW235079   3.859   2.807   4.201 -0.5512 -1.9656  0.6640
 7874SOL     OW35080   3.630   2.042  14.691 -0.6998 -0.3546  0.0385
 7874SOL    HW135081   3.679   2.108  14.741 -3.4256  2.5079 -1.0817
 7874SOL    HW235082   3.599   1.985  14.761 -1.3403  2.3853  2.0037
 7875SOL     OW35083   0.102   4.237   3.971 -0.0200 -0.0261  0.2169
 7875SOL    HW135084   0.163   4.300   4.010  0.0790  0.5268 -0.8343
 7875SOL    HW235085   0.094   4.285   3.888  1.5730 -0.4824 -0.2119
 7876SOL     OW35086   1.355   3.844   8.211  0.1309 -0.9770 -0.2654
 7876SOL    HW135087   1.274   3.864   8.260  1.9807  0.2092  2.3202
 7876SOL    HW235088   1.339   3.883   8.125  1.6650 -2.4198 -1.1893
 7877SOL     OW35089   2.781   0.719   8.096 -0.7969  0.3178  0.9053
 7877SOL    HW135090   2.769   0.631   8.061  0.1780  0.7232 -0.4547
 7877SOL    HW235091   2.864   0.716   8.143 -1.0838  0.6540  1.4321
 7878SOL     OW35092   2.171   3.713   2.076  0.1698 -0.1646 -0.1301
 7878SOL    HW135093   2.263   3.688   2.070  0.1408 -0.5717  1.1371
 7878SOL    HW235094   2.179   3.792   2.022  1.7168  0.6517  1.2982
 7879SOL     OW35095   0.312   0.089   8.640 -0.0725 -0.3702 -0.1787
 7879SOL    HW135096   0.392   0.085   8.692 -0.7680  1.4441  1.0427
 7879SOL    HW235097   0.328   0.166   8.586  0.3520 -0.3393 -0.0108
 7880SOL     OW35098   3.054   1.522  10.464  0.2496  0.4077 -0.6644
 7880SOL    HW135099   3.026   1.606  10.498 -0.6692 -0.1597 -0.0159
 7880SOL    HW235100   3.135   1.514  10.515 -1.8339 -1.8498  2.2912
 7881SOL     OW35101   0.011   3.201   4.164  0.5638 -0.2096 -0.0022
 7881SOL    HW135102   0.027   3.177   4.073  2.4455 -1.4301  0.6559
 7881SOL    HW235103   0.102   3.221   4.187 -0.2477  1.5067  1.7637
 7882SOL     OW35104   2.572   0.065   4.409  0.3393  0.5966 -0.4177
 7882SOL    HW135105   2.545   4.720   4.351  1.0572 -0.6401  0.7667
 7882SOL    HW235106   2.577   0.023   4.495  0.7140 -1.2622 -1.3361
 7883SOL     OW35107   0.036   2.201   5.554 -0.1711  0.1852  0.4825
 7883SOL    HW135108   4.684   2.201   5.609 -1.4314 -1.5188 -1.2777
 7883SOL    HW235109   0.083   2.124   5.585 -0.9567 -0.9499 -1.0767
 7884SOL     OW35110   0.846   0.719   9.980  0.3197  0.2177  0.1516
 7884SOL    HW135111   0.787   0.718   9.904 -0.5098  2.2637  0.7652
 7884SOL    HW235112   0.786   0.696  10.052  1.6965 -0.3088  1.1186
 7885SOL     OW35113   1.038   4.263  10.387  0.2375  0.3110 -0.2312
 7885SOL    HW135114   1.084   4.239  10.306  3.5918  0.9073  1.5089
 7885SOL    HW235115   1.101   4.241  10.455 -0.5238 -1.5886 -0.1472
 7886SOL     OW35116   0.499   2.138  11.251  0.1927  0.1415  0.4843
 7886SOL    HW135117   0.584   2.116  11.211  0.6000  0.3267  1.2534
 7886SOL    HW235118   0.508   2.098  11.337 -0.3339 -0.5345  0.2258
 7887SOL     OW35119   0.124   3.135   0.542 -0.9379 -0.5961 -0.4941
 7887SOL    HW135120   0.089   3.210   0.589  2.6335  0.4428  0.5562
 7887SOL    HW235121   0.217   3.158   0.552 -0.8944  0.6378 -3.7222
 7888SOL     OW35122   0.054   1.487   2.587 -0.1341  0.2990  0.5636
 7888SOL    HW135123   4.685   1.484   2.583 -0.0265 -3.1456  0.2791
 7888SOL    HW235124   0.061   1.557   2.652  3.2242  0.1447  0.3617
 7889SOL     OW35125   4.265   2.925   7.721  0.1384 -0.1235  0.8071
 7889SOL    HW135126   4.224   2.965   7.797  1.1507 -2.1461  2.4496
 7889SOL    HW235127   4.187   2.879   7.690  0.2603 -1.0909  1.9413
 7890SOL     OW35128   2.896   0.551  13.153  0.3102  0.4170 -0.6256
 7890SOL    HW135129   2.828   0.596  13.204  0.2756 -0.9099  0.4770
 7890SOL    HW235130   2.881   0.601  13.073  0.6908  0.7479 -0.4874
 7891SOL     OW35131   4.071   1.316  14.007 -0.6732 -0.4334  0.2410
 7891SOL    HW135132   4.143   1.348  13.953 -0.3643 -1.0372  0.3020
 7891SOL    HW235133   4.014   1.273  13.944 -0.9664 -0.8656  0.8003
 7892SOL     OW35134   0.364   3.442  10.944  0.6161  0.2276 -0.2522
 7892SOL    HW135135   0.454   3.460  10.918  1.1200  0.0601  1.3940
 7892SOL    HW235136   0.385   3.380  11.014 -1.1712  0.3304  0.3881
 7893SOL     OW35137   2.162   0.731  13.945  0.0654 -0.2766  0.1099
 7893SOL    HW135138   2.229   0.668  13.921 -0.0729 -0.9030  1.3743
 7893SOL    HW235139   2.215   0.797  13.990  0.2660  0.3491 -1.0524
 7894SOL     OW35140   2.400   1.066  13.777  0.5435 -0.9003  0.0977
 7894SOL    HW135141   2.401   0.989  13.721  2.7852 -1.3321  0.7531
 7894SOL    HW235142   2.305   1.064  13.792  0.2846 -1.2767 -1.5894
 7895SOL     OW35143   4.333   3.055   3.281 -0.1287 -0.3027  0.1419
 7895SOL    HW135144   4.348   3.012   3.365 -0.4232 -1.1475 -0.2408
 7895SOL    HW235145   4.243   3.026   3.269 -0.0559  0.1409 -1.5787
 7896SOL     OW35146   2.379   0.721   9.507 -1.0524 -0.4291  0.9333
 7896SOL    HW135147   2.381   0.626   9.521 -1.1324 -0.3872  1.2228
 7896SOL    HW235148   2.318   0.725   9.433 -0.1665 -2.7186  0.0576
 7897SOL     OW35149   1.343   2.704  16.542  0.0818 -0.4159  0.0592
 7897SOL    HW135150   1.390   2.747  16.470  1.1646 -1.1895  0.3078
 7897SOL    HW235151   1.419   2.693  16.600  1.3258  0.5353 -1.3887
 7898SOL     OW35152   1.664   4.409  15.756 -0.5456 -0.3101  0.1567
 7898SOL    HW135153   1.622   4.421  15.671 -0.8782 -0.7091  0.2644
 7898SOL    HW235154   1.671   4.493  15.801 -1.4340 -0.6570  0.9437
 7899SOL     OW35155   1.642   2.602   6.863  0.0652 -0.0986  0.0510
 7899SOL    HW135156   1.734   2.621   6.848 -0.5051  0.6752 -2.4270
 7899SOL    HW235157   1.653   2.522   6.915  0.7108  1.1296  1.7898
 7900SOL     OW35158   1.499   1.383   3.837  0.1131 -0.2258 -0.3758
 7900SOL    HW135159   1.421   1.427   3.870 -0.8692 -1.4746 -1.0505
 7900SOL    HW235160   1.540   1.382   3.924  0.8738  0.2099 -0.7306
 7901SOL     OW35161   3.816   1.831   2.853 -0.1912 -0.5825  0.1850
 7901SOL    HW135162   3.824   1.737   2.836  1.4713 -0.3868 -0.1068
 7901SOL    HW235163   3.882   1.828   2.922  0.0851 -0.7984 -0.0843
 7902SOL     OW35164   2.224   0.790   6.253  0.0182 -0.3452 -0.0747
 7902SOL    HW135165   2.219   0.699   6.284 -0.2718 -0.3415 -0.1112
 7902SOL    HW235166   2.135   0.822   6.238  0.7583  1.1573 -1.2299
 7903SOL     OW35167   4.372   3.480   9.638  1.1425 -0.2263 -0.4869
 7903SOL    HW135168   4.375   3.407   9.699 -2.4883  1.2095  1.3926
 7903SOL    HW235169   4.290   3.527   9.651  1.7902  0.5450  0.8482
 7904SOL     OW35170   0.705   1.616   2.107 -0.1120 -0.8175  0.1371
 7904SOL    HW135171   0.755   1.536   2.122 -1.2298 -1.2506  1.5863
 7904SOL    HW235172   0.776   1.680   2.109 -1.2307  0.4423 -0.2213
 7905SOL     OW35173   3.663   1.098   5.074  0.1564  0.2929 -0.4732
 7905SOL    HW135174   3.686   1.190   5.060 -1.7986  0.7964 -0.3675
 7905SOL    HW235175   3.569   1.095   5.056 -0.0559  1.2286  0.4977
 7906SOL     OW35176   2.493   3.156   5.953  0.1303 -0.0485  0.3809
 7906SOL    HW135177   2.560   3.214   5.916 -0.0322  1.7500  2.8993
 7906SOL    HW235178   2.512   3.071   5.915  0.3961  0.2592 -0.1713
 7907SOL     OW35179   2.483   4.713   6.698  0.1319 -0.0879  0.2629
 7907SOL    HW135180   2.518   4.626   6.716 -1.2399 -0.2177  2.3377
 7907SOL    HW235181   2.548   0.037   6.748 -0.5878  0.7757  0.3336
 7908SOL     OW35182   2.530   2.903   5.833 -0.0672 -0.0384  0.0435
 7908SOL    HW135183   2.483   2.947   5.762 -0.4520  0.2022  0.4447
 7908SOL    HW235184   2.544   2.828   5.776  0.2198 -0.7035  0.9831
 7909SOL     OW35185   0.516   1.376   7.310 -0.2188 -0.2925 -0.2279
 7909SOL    HW135186   0.528   1.465   7.341 -0.2754 -0.4063  0.1224
 7909SOL    HW235187   0.587   1.358   7.248 -0.1721 -2.3593  0.4282
 7910SOL     OW35188   1.856   3.409   0.095  0.3151 -0.0141  0.1901
 7910SOL    HW135189   1.858   3.340   0.028 -3.1267 -1.3965  1.4864
 7910SOL    HW235190   1.951   3.420   0.104  0.3602  0.0626 -0.3810
 7911SOL     OW35191   3.183   1.401  14.497  0.7576 -0.8034 -0.2712
 7911SOL    HW135192   3.216   1.366  14.580  0.5228  0.9628  0.5577
 7911SOL    HW235193   3.184   1.319  14.448  5.9790  0.5720 -2.4217
 7912SOL     OW35194   3.606   1.378   2.803  0.4527 -0.1323 -0.7720
 7912SOL    HW135195   3.669   1.307   2.814  0.3250 -0.2896 -1.0528
 7912SOL    HW235196   3.661   1.455   2.804 -0.8603  0.7896  0.5871
 7913SOL     OW35197   2.249   3.050   6.784  0.0468 -0.0598  0.2360
 7913SOL    HW135198   2.260   3.135   6.827  0.2744  0.4804 -0.8910
 7913SOL    HW235199   2.330   3.004   6.805 -1.3340 -2.7329 -0.2426
 7914SOL     OW35200   1.770   3.792   6.520  0.0140 -0.0400  0.1113
 7914SOL    HW135201   1.679   3.820   6.536 -0.3172 -0.2939 -1.3526
 7914SOL    HW235202   1.775   3.701   6.551 -2.0034 -0.4054 -0.6266
 7915SOL     OW35203   1.486   1.556   7.301  0.0543 -0.3894  0.1812
 7915SOL    HW135204   1.424   1.512   7.242 -1.6060  1.6742  0.3534
 7915SOL    HW235205   1.434   1.633   7.324 -0.7802 -0.9078  0.0198
 7916SOL     OW35206   0.633   2.359   8.873 -0.5921 -0.2843 -0.6992
 7916SOL    HW135207   0.559   2.408   8.910 -0.8535  0.6631 -2.4490
 7916SOL    HW235208   0.589   2.323   8.796  1.0563 -1.3391 -1.1384
 7917SOL     OW35209   3.757   4.088   6.440  0.0207  0.2125 -0.3241
 7917SOL    HW135210   3.761   4.019   6.373 -0.2593  0.5537 -0.6900
 7917SOL    HW235211   3.823   4.056   6.502  1.3761  0.3611 -1.7001
 7918SOL     OW35212   4.034   3.808  11.292 -0.8393  0.2924 -0.6497
 7918SOL    HW135213   4.122   3.847  11.291 -1.4055  1.6623  2.1711
 7918SOL    HW235214   4.059   3.716  11.300 -0.7185  0.3994  0.2159
 7919SOL     OW35215   0.091   2.417   5.042 -0.1149 -0.4160  0.0533
 7919SOL    HW135216   0.075   2.343   4.983 -0.6860  0.3713 -0.7788
 7919SOL    HW235217   0.178   2.442   5.010 -0.7037  1.0628 -0.3586
 7920SOL     OW35218   1.470   1.270   4.392 -0.4028 -0.1475  0.0662
 7920SOL    HW135219   1.483   1.184   4.351 -0.5369 -0.2401  0.2188
 7920SOL    HW235220   1.398   1.300   4.337 -1.0918 -1.8070  0.0531
 7921SOL     OW35221   2.163   0.384   7.230 -0.1391 -0.1642 -0.3853
 7921SOL    HW135222   2.114   0.304   7.211 -1.4938  0.8795 -1.2937
 7921SOL    HW235223   2.243   0.376   7.176 -0.9004 -1.5553 -1.3218
 7922SOL     OW35224   0.590   3.831  16.596 -0.2293  0.1367  0.2784
 7922SOL    HW135225   0.673   3.823  16.550 -1.6302 -2.0777 -1.8714
 7922SOL    HW235226   0.609   3.828  16.690 -1.6564  1.8892  0.6407
 7923SOL     OW35227   0.969   4.102  10.731  0.4933  0.3758 -0.4153
 7923SOL    HW135228   0.917   4.031  10.769  0.8793 -0.6746 -1.8503
 7923SOL    HW235229   0.996   4.148  10.810 -2.6047  1.2009  0.1764
 7924SOL     OW35230   2.645   0.250  16.038  0.0910 -1.0272  0.3797
 7924SOL    HW135231   2.563   0.242  16.086 -2.1517  0.3783 -3.2178
 7924SOL    HW235232   2.696   0.308  16.095 -0.1721  1.3929 -1.8529
 7925SOL     OW35233   1.179   1.293   7.307 -0.0515  0.3427  0.0714
 7925SOL    HW135234   1.101   1.309   7.360  0.4165  1.7081  0.3496
 7925SOL    HW235235   1.183   1.370   7.251  1.1567  0.0899 -0.1949
 7926SOL     OW35236   2.556   4.431   6.063  0.3174 -0.3720  0.3711
 7926SOL    HW135237   2.572   4.468   5.976 -0.8187  1.1974  0.8461
 7926SOL    HW235238   2.575   4.512   6.112  2.6970 -0.8562  0.2671
 7927SOL     OW35239   4.390   1.306  12.428  0.6980 -0.1625 -0.1030
 7927SOL    HW135240   4.463   1.365  12.411 -1.2488  1.9675 -1.0792
 7927SOL    HW235241   4.361   1.334  12.515 -1.3628  1.5930 -1.3644
 7928SOL     OW35242   1.662   2.927   2.913  0.0747  0.1380  0.3816
 7928SOL    HW135243   1.688   2.951   2.824 -0.0346 -1.3257 -0.0384
 7928SOL    HW235244   1.587   2.879   2.876  0.8181 -1.8049  1.4322
 7929SOL     OW35245   2.304   0.541  11.806 -0.0215 -0.4595 -0.6138
 7929SOL    HW135246   2.370   0.566  11.870 -0.3537 -0.0481 -0.4274
 7929SOL    HW235247   2.226   0.566  11.857 -1.8515 -0.2661 -3.4757
 7930SOL     OW35248   2.147   1.651  17.347 -0.0755 -0.1762  0.0516
 7930SOL    HW135249   2.135   1.663  17.441  2.4029  0.9452  0.2440
 7930SOL    HW235250   2.205   1.724  17.323 -2.4470  1.3759 -0.9683
 7931SOL     OW35251   2.854   4.623  11.368 -0.2670  0.1865 -0.2877
 7931SOL    HW135252   2.778   4.682  11.361 -0.2043  0.1485 -1.2806
 7931SOL    HW235253   2.887   4.651  11.453 -0.4718 -0.6066  0.0459
 7932SOL     OW35254   2.040   3.718   5.361 -0.1530 -0.2431  0.0431
 7932SOL    HW135255   1.951   3.685   5.351  0.2750 -1.7945  1.4263
 7932SOL    HW235256   2.046   3.790   5.298 -0.4354  0.5414  0.9083
 7933SOL     OW35257   0.831   2.260  11.699  0.6381  0.3243  0.4880
 7933SOL    HW135258   0.915   2.234  11.738  0.8426 -0.0319 -0.1830
 7933SOL    HW235259   0.784   2.177  11.696  0.6641  0.4342 -3.1130
 7934SOL     OW35260   3.556   1.428   5.171  0.2445 -0.0236  0.5254
 7934SOL    HW135261   3.512   1.384   5.243  0.8023 -0.8706  0.3524
 7934SOL    HW235262   3.544   1.523   5.183  2.0142  0.3005 -0.1580
 7935SOL     OW35263   4.150   0.808   7.913 -0.1365 -0.0349 -0.1419
 7935SOL    HW135264   4.084   0.740   7.914 -1.5728  1.3526 -1.1843
 7935SOL    HW235265   4.229   0.761   7.886 -0.1066 -0.3279  0.4714
 7936SOL     OW35266   3.835   3.595   2.925  0.0301 -0.3203  0.2446
 7936SOL    HW135267   3.899   3.660   2.953 -1.2747  0.4390  1.4481
 7936SOL    HW235268   3.896   3.526   2.896 -1.0027 -1.1980  0.1434
 7937SOL     OW35269   0.896   1.853  17.115 -0.0432 -0.0277  0.3201
 7937SOL    HW135270   0.923   1.794  17.045 -1.1379 -1.2025  0.8827
 7937SOL    HW235271   0.850   1.914  17.057  1.3250  1.3321  0.6856
 7938SOL     OW35272   2.289   2.397  10.078  0.3446  0.4949 -0.2968
 7938SOL    HW135273   2.194   2.392  10.087  0.5205 -1.5634  0.4172
 7938SOL    HW235274   2.304   2.303  10.088 -2.7836  0.0426  0.0354
 7939SOL     OW35275   1.774   4.430   9.639  0.0037  0.0063 -0.2983
 7939SOL    HW135276   1.833   4.406   9.567  1.1786 -2.3818  1.4431
 7939SOL    HW235277   1.826   4.494   9.688 -5.1558  3.5030  0.6459
 7940SOL     OW35278   2.287   1.072   8.622 -0.2508  0.2305 -0.1713
 7940SOL    HW135279   2.308   1.059   8.530  1.7692 -2.1617  0.6431
 7940SOL    HW235280   2.233   0.997   8.644  1.9350 -1.2600  0.0316
 7941SOL     OW35281   1.487   2.995   3.994  0.4396  0.3787  0.2620
 7941SOL    HW135282   1.461   2.950   3.914  0.8877  0.6250 -0.0166
 7941SOL    HW235283   1.421   2.958   4.053  2.0014 -3.2056 -0.2674
 7942SOL     OW35284   4.137   4.453   4.977 -0.0248 -0.0660 -0.1043
 7942SOL    HW135285   4.154   4.532   5.029 -1.3536  1.3633 -1.8323
 7942SOL    HW235286   4.042   4.449   4.988 -0.0295  1.1627  0.3522
 7943SOL     OW35287   1.002   3.874   0.201  0.1256 -0.7835  0.0506
 7943SOL    HW135288   0.917   3.896   0.163  0.0072  0.2596  0.9139
 7943SOL    HW235289   1.046   3.957   0.185 -1.8869  0.3925  0.5928
 7944SOL     OW35290   0.319   2.610   7.745  0.3630 -0.2800 -0.2067
 7944SOL    HW135291   0.346   2.592   7.655 -3.1765  1.1351 -1.5464
 7944SOL    HW235292   0.372   2.689   7.759  0.5416 -0.4444  0.0626
 7945SOL     OW35293   1.735   3.814   7.391  0.4128 -0.4493 -0.4407
 7945SOL    HW135294   1.738   3.881   7.323  0.4221 -2.4803 -2.4652
 7945SOL    HW235295   1.696   3.861   7.464  0.2629 -2.4728  0.7850
 7946SOL     OW35296   3.999   0.818   4.921  0.4906 -0.1833  0.2819
 7946SOL    HW135297   4.034   0.849   4.837 -0.3763 -2.5057 -0.9314
 7946SOL    HW235298   3.907   0.811   4.897  0.7720  1.4589 -1.2279
 7947SOL     OW35299   3.068   0.395  12.976 -0.6443  0.1556  0.6012
 7947SOL    HW135300   3.018   0.416  13.054 -0.0201  1.0963  0.7454
 7947SOL    HW235301   3.016   0.332  12.925 -1.5576 -0.7785  2.6934
 7948SOL     OW35302   2.392   0.678  16.547  0.7329 -0.0110 -0.1532
 7948SOL    HW135303   2.399   0.769  16.519 -2.5571  0.1943 -0.2967
 7948SOL    HW235304   2.476   0.640  16.520  0.1120 -1.6401  0.2153
 7949SOL     OW35305   2.752   1.558   5.076 -0.2124 -0.0750 -0.6962
 7949SOL    HW135306   2.692   1.604   5.135 -1.8321 -3.5432  0.3977
 7949SOL    HW235307   2.834   1.602   5.095 -1.3384  1.9322 -0.4339
 7950SOL     OW35308   1.138   2.216   6.847 -0.2564 -0.2311 -0.5634
 7950SOL    HW135309   1.229   2.222   6.877 -0.1097  0.4742 -1.1471
 7950SOL    HW235310   1.099   2.286   6.899  1.0492 -1.0360  1.5033
 7951SOL     OW35311   0.854   2.817   4.600  0.0462  0.1159  0.1894
 7951SOL    HW135312   0.855   2.877   4.525 -1.6270 -2.3703 -1.8037
 7951SOL    HW235313   0.949   2.813   4.611  0.2646  1.5356 -1.1750
 7952SOL     OW35314   2.520   2.473   7.592  0.2951  1.0941  0.0566
 7952SOL    HW135315   2.472   2.552   7.564  1.3480  1.3245 -1.1076
 7952SOL    HW235316   2.504   2.414   7.518  0.3336  0.5472  0.4882
 7953SOL     OW35317   4.588   1.397   5.696  0.0413  0.0722  0.1158
 7953SOL    HW135318   4.609   1.342   5.621 -1.7580  0.0714 -0.3744
 7953SOL    HW235319   4.511   1.449   5.672  0.8491  1.8320  1.3092
 7954SOL     OW35320   3.128   2.765   2.998  0.3915 -0.0322  0.5355
 7954SOL    HW135321   3.038   2.797   2.999  0.9192  1.5026 -0.5319
 7954SOL    HW235322   3.154   2.762   3.090  1.5517 -2.0162  0.1398
 7955SOL     OW35323   0.628   3.311   1.655 -0.3227  0.9272 -0.7009
 7955SOL    HW135324   0.715   3.308   1.695 -1.1014  1.0886  0.9941
 7955SOL    HW235325   0.608   3.218   1.643  1.6748  0.3387  0.4020
 7956SOL     OW35326   1.416   1.917   6.257 -0.0253 -0.3454  0.9859
 7956SOL    HW135327   1.418   2.007   6.225 -1.0738 -1.2456 -1.6044
 7956SOL    HW235328   1.398   1.936   6.349 -1.3405 -0.2049  0.7017
 7957SOL     OW35329   3.554   3.588  10.475  0.1572  0.0688  0.1227
 7957SOL    HW135330   3.516   3.632  10.551 -0.2541 -0.2896  0.1193
 7957SOL    HW235331   3.631   3.645  10.467  0.0594  0.0613 -0.8239
 7958SOL     OW35332   2.248   3.755  12.532 -0.7277 -0.2155 -0.6856
 7958SOL    HW135333   2.315   3.767  12.600  0.8526 -3.3102 -1.6671
 7958SOL    HW235334   2.271   3.826  12.473  0.1216  0.7274  0.7775
 7959SOL     OW35335   2.737   0.636  14.848 -0.0241  0.3227 -0.4855
 7959SOL    HW135336   2.762   0.692  14.921  0.8283  0.6094 -0.9980
 7959SOL    HW235337   2.795   0.564  14.873  1.5334  1.7866  0.0459
 7960SOL     OW35338   2.311   0.134   5.321 -0.1573  0.6659  0.6249
 7960SOL    HW135339   2.248   0.068   5.350 -0.1631  0.4754  0.1884
 7960SOL    HW235340   2.324   0.101   5.232  0.1835 -0.1042  0.9598
 7961SOL     OW35341   3.748   3.561  14.977 -0.2095 -0.0426  0.0119
 7961SOL    HW135342   3.818   3.565  15.042  0.7694  0.0579 -1.0526
 7961SOL    HW235343   3.717   3.471  14.989 -1.5017  0.3971  0.0127
 7962SOL     OW35344   3.873   4.321   3.419 -0.0576 -0.5691 -0.4977
 7962SOL    HW135345   3.783   4.337   3.446  0.4459 -1.2756  1.6231
 7962SOL    HW235346   3.867   4.350   3.328 -2.6521  2.6815  0.7264
 7963SOL     OW35347   3.190   4.578  10.255  0.0624  0.4351  0.3697
 7963SOL    HW135348   3.110   4.579  10.308  0.5587 -0.3786  1.1388
 7963SOL    HW235349   3.178   4.666  10.220  2.0484  0.0472 -1.2873
 7964SOL     OW35350   0.586   4.680   3.674  0.1611 -0.1760  0.2881
 7964SOL    HW135351   0.613   4.712   3.760 -0.9197  1.8988 -0.1333
 7964SOL    HW235352   0.579   4.586   3.684 -1.1605 -0.1486 -0.4123
 7965SOL     OW35353   2.591   1.916   3.601  0.3789 -0.0019 -0.1670
 7965SOL    HW135354   2.665   1.911   3.540 -0.5490 -0.6819 -1.2331
 7965SOL    HW235355   2.519   1.935   3.541  1.0467  0.4943 -0.8127
 7966SOL     OW35356   3.302   0.772   8.182 -0.5589  0.1203  0.0925
 7966SOL    HW135357   3.394   0.773   8.207 -0.6736 -1.1256  0.5799
 7966SOL    HW235358   3.283   0.866   8.179  0.7295  0.4180  1.5217
 7967SOL     OW35359   3.684   3.204   2.564  0.0001 -0.0925 -0.2845
 7967SOL    HW135360   3.640   3.150   2.498  1.4670 -2.6893  0.8633
 7967SOL    HW235361   3.774   3.203   2.532 -0.0718 -0.9856 -0.4452
 7968SOL     OW35362   1.246   1.851   3.888  0.6367 -0.6363  0.3325
 7968SOL    HW135363   1.305   1.923   3.910 -0.1394 -1.1423  4.1437
 7968SOL    HW235364   1.302   1.802   3.827 -0.3003  1.5944 -2.2967
 7969SOL     OW35365   0.293   3.218   5.228 -0.7797 -0.0864 -0.3913
 7969SOL    HW135366   0.379   3.207   5.187 -0.9464  0.5133 -0.9053
 7969SOL    HW235367   0.243   3.262   5.158 -1.0879  0.6669  0.2931
 7970SOL     OW35368   2.157   2.562  15.367 -0.0521  0.3684  0.1661
 7970SOL    HW135369   2.113   2.594  15.288 -1.1731 -0.0757  0.6134
 7970SOL    HW235370   2.201   2.639  15.403  0.9081 -0.6646  1.1915
 7971SOL     OW35371   4.003   4.200   7.973  0.4642 -0.5569  0.1964
 7971SOL    HW135372   3.964   4.124   8.015  2.8669 -1.3576  0.9501
 7971SOL    HW235373   3.993   4.254   8.052  0.4214 -0.1320 -0.0981
 7972SOL     OW35374   3.340   2.344   8.143  0.0148 -0.1888 -0.1183
 7972SOL    HW135375   3.322   2.255   8.175  1.4216 -0.6339 -0.5381
 7972SOL    HW235376   3.386   2.327   8.060  3.1427 -0.3910  1.6615
 7973SOL     OW35377   1.572   2.924  14.851 -0.1619  0.3061 -0.0268
 7973SOL    HW135378   1.633   2.918  14.778  0.3752  0.7844  0.3837
 7973SOL    HW235379   1.542   2.834  14.866  0.9588 -0.0309  0.1602
 7974SOL     OW35380   0.027   3.052   5.619  0.0079 -0.1786  0.4499
 7974SOL    HW135381   0.113   3.084   5.648 -0.2992 -0.4856  1.6868
 7974SOL    HW235382   4.700   3.097   5.685  0.9239 -0.6726  1.5310
 7975SOL     OW35383   0.958   2.855   6.647  0.2044 -0.0198  0.3635
 7975SOL    HW135384   0.880   2.911   6.645  0.6347  0.6125  1.1270
 7975SOL    HW235385   1.020   2.901   6.705 -0.6296  0.2008  1.0753
 7976SOL     OW35386   2.725   0.100   2.483 -0.2968 -0.1499  0.2688
 7976SOL    HW135387   2.784   0.144   2.422 -0.5770  2.4341  1.8712
 7976SOL    HW235388   2.702   0.014   2.447 -3.9612  1.0623 -0.2594
 7977SOL     OW35389   2.002   1.751   0.478  0.6352  0.1146  0.0984
 7977SOL    HW135390   2.012   1.699   0.557  0.5245 -0.6199 -0.3717
 7977SOL    HW235391   2.085   1.798   0.473  0.0945  0.9025 -1.4371
 7978SOL     OW35392   3.851   2.194  15.948 -1.0407  0.3050  0.4201
 7978SOL    HW135393   3.778   2.185  16.009 -0.0871 -0.8310  1.3652
 7978SOL    HW235394   3.821   2.261  15.886 -2.4410  0.3725  1.1776
 7979SOL     OW35395   3.973   1.208   2.405  0.7494 -0.6132 -0.1567
 7979SOL    HW135396   3.952   1.179   2.316  0.8213  0.6982 -0.6073
 7979SOL    HW235397   3.909   1.279   2.410  1.3982  0.0986 -1.6866
 7980SOL     OW35398   3.661   3.677   5.366  0.0068  0.1122  0.0581
 7980SOL    HW135399   3.677   3.587   5.336 -2.7284 -0.5412  0.5892
 7980SOL    HW235400   3.578   3.656   5.408 -2.2425  0.2477 -4.4059
 7981SOL     OW35401   4.597   0.427   2.831  0.0814 -0.1479 -0.1107
 7981SOL    HW135402   4.625   0.487   2.762  0.6807 -1.6262 -1.1425
 7981SOL    HW235403   4.671   0.367   2.827  0.8895  0.7874  0.6574
 7982SOL     OW35404   1.890   1.788   6.302  0.0585 -0.1153 -0.1011
 7982SOL    HW135405   1.875   1.882   6.296 -2.2093 -0.5016 -0.5182
 7982SOL    HW235406   1.982   1.793   6.330  0.4043 -0.9689 -1.0902
 7983SOL     OW35407   0.869   4.503  16.480 -0.3536  0.3610  0.1781
 7983SOL    HW135408   0.908   4.440  16.541 -1.8679 -0.1217  0.6446
 7983SOL    HW235409   0.901   4.461  16.400  0.3277  1.8262 -0.3077
 7984SOL     OW35410   1.402   4.721   2.463 -0.4811 -0.4337  0.0139
 7984SOL    HW135411   1.458   0.053   2.411  0.4584  0.7452  2.3635
 7984SOL    HW235412   1.460   4.645   2.462  1.6879  1.1807  2.3103
 7985SOL     OW35413   0.163   3.821  14.889  0.2831 -0.2051 -0.2641
 7985SOL    HW135414   0.173   3.737  14.844  0.9785 -0.5298  0.4932
 7985SOL    HW235415   0.069   3.828  14.869  0.5207 -0.1664 -1.3663
 7986SOL     OW35416   4.552   3.276  11.749 -0.5589 -0.1822 -0.1618
 7986SOL    HW135417   4.593   3.228  11.821  0.9734  0.9409 -0.2892
 7986SOL    HW235418   4.619   3.341  11.728  0.8278 -1.0063  1.6483
 7987SOL     OW35419   0.150   0.184   2.395  0.1066 -0.0621  0.3835
 7987SOL    HW135420   0.107   0.110   2.438  1.2152 -0.7403  0.3295
 7987SOL    HW235421   0.107   0.190   2.309 -0.6824 -1.1943  0.6931
 7988SOL     OW35422   2.414   2.962   3.237  0.0526 -0.3568 -0.9734
 7988SOL    HW135423   2.420   2.971   3.142  3.5711 -0.1315 -0.7041
 7988SOL    HW235424   2.457   2.879   3.258 -0.8213 -0.7490 -0.7249
 7989SOL     OW35425   2.294   2.821   1.127 -0.2039  0.3237  0.5301
 7989SOL    HW135426   2.376   2.829   1.176 -0.4383  1.0428  0.7923
 7989SOL    HW235427   2.310   2.871   1.047 -0.5698 -0.4040 -0.0017
 7990SOL     OW35428   1.450   1.275   1.296  0.3677 -0.7276 -0.0456
 7990SOL    HW135429   1.499   1.342   1.344 -0.4212 -0.5700  0.5406
 7990SOL    HW235430   1.357   1.294   1.304  0.9023  1.5308  0.8634
 7991SOL     OW35431   0.539   4.473   7.921 -0.4567 -0.7924  0.9663
 7991SOL    HW135432   0.455   4.463   7.967  0.0915 -0.4235  2.0609
 7991SOL    HW235433   0.542   4.568   7.914  0.3984 -0.7869  1.4423
 7992SOL     OW35434   3.508   1.638  14.877 -0.4037  0.2886 -0.0055
 7992SOL    HW135435   3.473   1.569  14.821 -1.3183  0.4549  0.3749
 7992SOL    HW235436   3.594   1.597  14.890 -1.4888 -1.4860  1.4988
 7993SOL     OW35437   0.696   1.513   0.677 -0.3456 -0.1742 -0.0829
 7993SOL    HW135438   0.618   1.509   0.622  0.9393 -2.0119 -1.7398
 7993SOL    HW235439   0.653   1.500   0.762  0.9622  0.6632  0.7208
 7994SOL     OW35440   2.459   3.052   5.347 -0.1164 -0.5182 -0.1755
 7994SOL    HW135441   2.364   3.042   5.357 -0.0481 -1.1078 -0.0864
 7994SOL    HW235442   2.480   3.120   5.410  0.7221 -1.9086  1.0263
 7995SOL     OW35443   0.346   1.882   5.399 -0.1094 -0.1121 -0.1743
 7995SOL    HW135444   0.426   1.830   5.394  1.0303  1.5061  0.8594
 7995SOL    HW235445   0.359   1.929   5.316  1.1061 -1.2457 -0.6279
 7996SOL     OW35446   3.932   0.193   3.478  0.0597 -0.0274 -0.3284
 7996SOL    HW135447   4.008   0.236   3.516  1.0517 -1.8900 -0.2280
 7996SOL    HW235448   3.925   0.238   3.394  0.9328  1.8576  0.5968
 7997SOL     OW35449   0.341   3.298  11.592 -0.0239 -0.0837 -0.5421
 7997SOL    HW135450   0.421   3.344  11.567 -0.6616  0.3958 -1.6591
 7997SOL    HW235451   0.367   3.206  11.597 -1.4328 -0.4669 -0.3716
 7998SOL     OW35452   1.831   0.028   5.024 -0.2519 -0.0623 -0.4700
 7998SOL    HW135453   1.925   0.046   5.033 -0.3273 -0.3408  0.8859
 7998SOL    HW235454   1.800   0.108   4.980 -0.8638  0.9126  1.7474
 7999SOL     OW35455   3.965   4.427  13.798  0.6551  0.0777 -0.2349
 7999SOL    HW135456   3.883   4.406  13.752 -1.0738 -2.0885  3.8149
 7999SOL    HW235457   4.019   4.350  13.778 -2.3634 -1.8560 -1.0439
 8000SOL     OW35458   2.259   2.684   6.749  0.4562  0.4243  0.0403
 8000SOL    HW135459   2.327   2.738   6.709  1.5844 -1.5036 -0.6402
 8000SOL    HW235460   2.286   2.595   6.725  0.1705  0.0721  1.0071
 8001SOL     OW35461   1.727   0.734   2.795  0.1361 -0.0719  0.4054
 8001SOL    HW135462   1.745   0.672   2.725 -0.3189  0.0361  0.1983
 8001SOL    HW235463   1.747   0.674   2.867  0.2551 -0.0235  0.4141
 8002SOL     OW35464   3.628   3.472  11.697  0.1449  0.0676  0.4127
 8002SOL    HW135465   3.693   3.524  11.650  0.4803 -1.1867 -0.5263
 8002SOL    HW235466   3.557   3.500  11.639 -1.4062  1.0379  2.8087
 8003SOL     OW35467   1.438   0.555   5.604  0.3136  0.1032 -0.5230
 8003SOL    HW135468   1.511   0.596   5.650  1.1825 -2.1784  0.1266
 8003SOL    HW235469   1.469   0.490   5.540  1.6243  0.0840  0.1317
 8004SOL     OW35470   0.564   3.868   4.495 -0.0740  0.0852 -0.2499
 8004SOL    HW135471   0.502   3.798   4.514  0.0749  0.1440  0.4767
 8004SOL    HW235472   0.628   3.828   4.436  0.1866  0.1419 -0.0057
 8005SOL     OW35473   0.045   3.870   2.311  0.5281 -0.6890  0.4496
 8005SOL    HW135474   0.081   3.929   2.377 -0.0384  1.6877 -1.3324
 8005SOL    HW235475   0.097   3.790   2.321 -0.0931 -1.0607  0.6566
 8006SOL     OW35476   3.232   0.036   9.633  0.0724  0.3276 -0.4541
 8006SOL    HW135477   3.213   4.683   9.583 -1.3889 -1.1212  2.4575
 8006SOL    HW235478   3.213   4.723   9.717 -0.3983 -0.5574 -0.9736
 8007SOL     OW35479   0.925   1.648   4.427 -0.6355 -0.3908 -0.0232
 8007SOL    HW135480   0.920   1.652   4.523  1.2094 -0.1092  0.0588
 8007SOL    HW235481   0.835   1.678   4.415 -1.0081 -1.4483  0.1367
 8008SOL     OW35482   1.910   1.743  13.687 -0.0250  0.2048 -0.4225
 8008SOL    HW135483   1.961   1.733  13.606  0.9514 -1.2931  0.3754
 8008SOL    HW235484   1.961   1.813  13.727 -1.6765  0.0112  2.0079
 8009SOL     OW35485   0.799   3.254   8.170 -0.5046 -0.3056 -0.2965
 8009SOL    HW135486   0.766   3.343   8.155  1.0844  0.4053  0.4125
 8009SOL    HW235487   0.858   3.241   8.095  1.1711  1.7191  0.6750
 8010SOL     OW35488   3.656   0.109   0.059  0.0904 -0.4355  0.2019
 8010SOL    HW135489   3.737   0.094   0.010  0.6487  0.4258  0.8574
 8010SOL    HW235490   3.608   0.160  17.701 -0.3323 -1.0474  0.0351
 8011SOL     OW35491   1.202   1.605   2.527  0.0345 -0.1845  0.1233
 8011SOL    HW135492   1.258   1.682   2.529  2.6515 -2.0452 -0.8459
 8011SOL    HW235493   1.268   1.537   2.542  2.4378  1.8840 -1.2205
 8012SOL     OW35494   0.345   1.056   8.865 -0.2974  0.2705 -0.3685
 8012SOL    HW135495   0.282   1.045   8.936  1.4133  1.8228  1.3955
 8012SOL    HW235496   0.427   1.035   8.910 -1.5159  0.7910  2.0927
 8013SOL     OW35497   4.062   2.320   3.179 -0.2007 -0.0108  0.2210
 8013SOL    HW135498   4.025   2.295   3.095  0.0998  2.9490 -0.7792
 8013SOL    HW235499   3.995   2.279   3.234 -0.4033  0.1445  0.0901
 8014SOL     OW35500   3.656   4.589   7.730 -0.2955  0.4486  0.1383
 8014SOL    HW135501   3.649   4.572   7.637 -4.1964 -0.7462  0.6713
 8014SOL    HW235502   3.733   4.644   7.748 -0.8782  1.9100 -1.8350
 8015SOL     OW35503   4.050   0.833  12.620  0.3675  0.3302  0.1227
 8015SOL    HW135504   4.057   0.743  12.650  0.4240  0.6407  1.0202
 8015SOL    HW235505   3.958   0.859  12.632  0.5168  2.0329 -2.2361
 8016SOL     OW35506   2.851   1.070  11.291 -0.7030 -0.6663  0.0006
 8016SOL    HW135507   2.815   1.139  11.347 -1.5871 -0.5765 -0.6846
 8016SOL    HW235508   2.861   1.005  11.361 -0.0635 -0.8169 -0.2243
 8017SOL     OW35509   2.684   1.716   1.097 -0.3239  0.0241  0.2639
 8017SOL    HW135510   2.627   1.780   1.139 -1.3840 -2.2610  2.3111
 8017SOL    HW235511   2.631   1.681   1.025 -0.0794 -1.2908  0.7337
 8018SOL     OW35512   3.333   1.807   6.536 -0.3343 -0.0971  0.0532
 8018SOL    HW135513   3.264   1.776   6.596 -0.7140  2.7619  1.1024
 8018SOL    HW235514   3.366   1.882   6.584  0.2353  0.9912 -2.0409
 8019SOL     OW35515   4.524   2.300  10.096  0.3817  0.1284  0.1220
 8019SOL    HW135516   4.516   2.210  10.128 -2.0519  0.1159 -0.5830
 8019SOL    HW235517   4.496   2.291  10.005 -0.0816 -0.0934  0.2892
 8020SOL     OW35518   4.346   0.030   2.240  0.4117 -0.2061  0.4934
 8020SOL    HW135519   4.394   0.108   2.267 -1.1326  0.6012  0.9286
 8020SOL    HW235520   4.259   0.063   2.262  0.5281  0.5957 -0.2213
 8021SOL     OW35521   0.697   2.113   8.648  0.2028  0.6581 -0.1849
 8021SOL    HW135522   0.716   2.072   8.733  1.8564  0.2871 -0.7446
 8021SOL    HW235523   0.606   2.142   8.657  0.4097  1.2625 -0.0589
 8022SOL     OW35524   3.033   0.909   7.534  0.5255 -0.0246 -0.3814
 8022SOL    HW135525   3.008   0.825   7.571 -1.3828  1.1462  0.9657
 8022SOL    HW235526   3.074   0.952   7.609  1.1329  1.2022 -1.4260
 8023SOL     OW35527   2.175   0.448   4.087 -0.0405  0.0224 -0.2196
 8023SOL    HW135528   2.171   0.517   4.154 -1.3672  0.0694 -0.3506
 8023SOL    HW235529   2.235   0.477   4.019  0.6468 -3.1081 -0.9428
 8024SOL     OW35530   2.070   1.167  13.828  0.2915  0.2709 -0.1661
 8024SOL    HW135531   2.004   1.222  13.869 -0.4961 -1.0324  0.3060
 8024SOL    HW235532   2.033   1.080  13.844  1.1811 -0.2637 -1.0553
 8025SOL     OW35533   2.238   1.734  15.145  0.0625  0.1667  0.3495
 8025SOL    HW135534   2.307   1.768  15.087 -0.7862 -0.4355 -1.0083
 8025SOL    HW235535   2.228   1.819  15.189  0.6292 -0.7802  2.3086
 8026SOL     OW35536   1.767   1.685  13.063 -0.7261  0.1607  0.0791
 8026SOL    HW135537   1.776   1.621  12.993  1.2423 -1.3375  1.7320
 8026SOL    HW235538   1.829   1.750  13.031 -0.0288  0.6164  2.3520
 8027SOL     OW35539   4.134   3.459  15.152 -0.5625  0.2296  0.2028
 8027SOL    HW135540   4.136   3.374  15.194  0.5749  0.3660  0.4237
 8027SOL    HW235541   4.134   3.433  15.060 -0.8731 -0.7781  0.4936
 8028SOL     OW35542   0.841   4.153  12.953 -0.0522 -0.2526 -0.1243
 8028SOL    HW135543   0.910   4.168  12.887 -1.0320 -2.4809 -1.6678
 8028SOL    HW235544   0.787   4.231  12.940  0.4631 -0.2078 -2.1364
 8029SOL     OW35545   0.737   3.325  16.634  0.0998  0.2744 -0.4939
 8029SOL    HW135546   0.723   3.320  16.729 -1.0945 -0.8233 -0.7405
 8029SOL    HW235547   0.750   3.419  16.623 -0.6318  0.5566  1.0472
 8030SOL     OW35548   2.218   3.296   9.422  0.2980  0.4647 -0.1148
 8030SOL    HW135549   2.174   3.314   9.505 -0.2422  0.7209 -0.4610
 8030SOL    HW235550   2.302   3.261   9.453  1.8709  0.6948 -4.1658
 8031SOL     OW35551   0.640   4.113   1.516 -0.3813  0.2181  0.2336
 8031SOL    HW135552   0.693   4.190   1.497  1.6543 -1.1330  0.4471
 8031SOL    HW235553   0.556   4.158   1.521 -0.4810  0.1611 -0.8156
 8032SOL     OW35554   3.778   1.827   7.144 -0.2962 -0.4776 -0.0622
 8032SOL    HW135555   3.718   1.784   7.205  0.4039 -0.7010  0.4677
 8032SOL    HW235556   3.792   1.911   7.187  1.7908 -1.3937  1.0564
 8033SOL     OW35557   1.580   0.878   5.255 -0.6477  0.2581  0.0160
 8033SOL    HW135558   1.489   0.858   5.278  0.2363 -2.1231  1.3828
 8033SOL    HW235559   1.619   0.866   5.341 -0.0407 -2.0316 -0.5798
 8034SOL     OW35560   1.768   3.408   5.758 -0.0795  0.1627 -0.4476
 8034SOL    HW135561   1.782   3.483   5.700  2.0405 -1.1913 -1.6955
 8034SOL    HW235562   1.859   3.406   5.789 -0.2829  0.3283  0.1548
 8035SOL     OW35563   1.008   4.702   6.410 -0.0600 -0.1061 -0.5390
 8035SOL    HW135564   1.018   0.013   6.323  0.2875  0.4302 -0.2693
 8035SOL    HW235565   0.926   4.656   6.396  0.4036 -1.1585  0.1478
 8036SOL     OW35566   2.373   0.045   3.970 -0.5061  0.6356 -0.7543
 8036SOL    HW135567   2.316   0.099   4.024 -0.4958 -0.7607  0.6509
 8036SOL    HW235568   2.456   0.078   4.005 -0.6555 -0.9464  1.0758
 8037SOL     OW35569   2.113   4.248   1.550 -0.4048  0.6372 -0.0174
 8037SOL    HW135570   2.079   4.178   1.494  0.7403 -0.4645  0.6666
 8037SOL    HW235571   2.050   4.241   1.622 -1.9904 -0.8746 -1.5474
 8038SOL     OW35572   0.630   3.325   3.700 -0.5959 -0.0501 -0.2875
 8038SOL    HW135573   0.694   3.261   3.731 -0.6051 -0.2370 -0.6591
 8038SOL    HW235574   0.569   3.281   3.640 -1.7775  0.2316  0.7026
 8039SOL     OW35575   4.093   1.791  10.997 -0.3873  0.4203 -0.2152
 8039SOL    HW135576   4.062   1.874  11.032 -0.3975 -0.2532  1.3842
 8039SOL    HW235577   4.170   1.773  11.051  0.5086  0.9602 -1.3176
 8040SOL     OW35578   0.733   3.263  12.368  0.6808  0.0981  0.0025
 8040SOL    HW135579   0.747   3.208  12.445 -1.2756  0.9881  0.9948
 8040SOL    HW235580   0.783   3.339  12.395 -0.5777  0.4119  1.4825
 8041SOL     OW35581   3.925   3.809   4.794 -0.4236  0.1801 -0.2652
 8041SOL    HW135582   3.950   3.896   4.764 -1.0484 -0.4738 -2.6525
 8041SOL    HW235583   3.924   3.753   4.716 -1.1199 -1.0972  0.6572
 8042SOL     OW35584   2.024   4.143  13.021 -0.6757  0.0755 -0.2663
 8042SOL    HW135585   2.050   4.152  13.113 -0.7798  3.1090 -0.5334
 8042SOL    HW235586   2.100   4.104  12.977 -0.7559  0.9345 -1.1595
 8043SOL     OW35587   2.460   0.588   6.651  0.1360 -0.6075  0.2134
 8043SOL    HW135588   2.501   0.660   6.603 -2.5453 -1.5701 -3.4711
 8043SOL    HW235589   2.508   0.582   6.734 -0.1250 -0.9028  0.3438
 8044SOL     OW35590   0.911   0.416   4.233  1.0282 -0.4457  0.0892
 8044SOL    HW135591   0.878   0.408   4.323 -0.4679  0.3381 -0.3768
 8044SOL    HW235592   0.967   0.339   4.239  2.7386  0.8485  0.5931
 8045SOL     OW35593   0.282   1.368   5.867 -0.0247 -0.1838  1.0416
 8045SOL    HW135594   0.224   1.366   5.943  1.8872 -0.0876  2.5283
 8045SOL    HW235595   0.217   1.343   5.802  0.6325  1.8387 -0.3879
 8046SOL     OW35596   3.281   0.089   0.232  0.3119 -0.4562 -0.2101
 8046SOL    HW135597   3.347   0.158   0.233  0.1654 -0.3079 -0.6067
 8046SOL    HW235598   3.339   0.030   0.280  2.6027  1.0563 -1.1052
 8047SOL     OW35599   2.011   0.715   9.048 -0.3653  0.9211  0.2455
 8047SOL    HW135600   1.962   0.765   8.984  0.9465  0.5549 -1.0516
 8047SOL    HW235601   1.970   0.629   9.050 -0.7559  1.1025 -0.2304
 8048SOL     OW35602   3.851   1.119   7.181  0.3741 -0.2293 -0.3451
 8048SOL    HW135603   3.829   1.203   7.221 -3.5290 -0.7704 -1.3165
 8048SOL    HW235604   3.770   1.090   7.140 -1.0165  0.6305  1.7842
 8049SOL     OW35605   1.295   0.370   5.133  0.1135  0.2671  0.5338
 8049SOL    HW135606   1.348   0.438   5.091 -0.6103  0.6513  0.2411
 8049SOL    HW235607   1.205   0.395   5.114  0.7044  1.5746 -0.5247
 8050SOL     OW35608   2.736   3.228   0.299 -0.0940  0.6161 -0.1076
 8050SOL    HW135609   2.657   3.267   0.262 -1.1894 -3.0845 -1.6965
 8050SOL    HW235610   2.723   3.211   0.393 -2.7683  1.8034 -0.2545
 8051SOL     OW35611   4.701   3.053   6.057 -0.3283  0.2784  0.3697
 8051SOL    HW135612   0.061   3.022   6.082 -0.3586 -0.2977 -0.2425
 8051SOL    HW235613   4.670   3.093   6.138  1.8057  1.9747  0.3375
 8052SOL     OW35614   0.951   3.311   4.005 -0.5659  0.3094  0.0941
 8052SOL    HW135615   0.929   3.400   3.976 -1.5666  0.6392  1.8530
 8052SOL    HW235616   0.868   3.265   4.004 -1.2148  1.4776 -1.1367
 8053SOL     OW35617   2.424   4.027  17.387 -0.2262  0.0259  0.3505
 8053SOL    HW135618   2.368   4.087  17.436 -1.9279  0.1167 -1.6985
 8053SOL    HW235619   2.510   4.067  17.394  0.3895 -0.6741 -3.1474
 8054SOL     OW35620   0.152   3.632   2.629  0.1405  0.4043 -0.2883
 8054SOL    HW135621   0.187   3.721   2.632  0.1098  0.2712  3.9995
 8054SOL    HW235622   0.091   3.639   2.555 -0.7241 -0.4553  0.3547
 8055SOL     OW35623   0.903   1.623   4.686 -0.4901 -0.1023 -0.3664
 8055SOL    HW135624   0.822   1.626   4.737  1.1424  1.3313  2.1539
 8055SOL    HW235625   0.956   1.577   4.751 -2.0655  2.2574  2.5748
 8056SOL     OW35626   1.358   1.816   9.864  0.2072 -0.5180 -0.3319
 8056SOL    HW135627   1.329   1.746   9.923 -0.0905 -1.5331 -1.6691
 8056SOL    HW235628   1.441   1.779   9.834  0.8481  1.7739 -1.3813
 8057SOL     OW35629   3.492   1.529  17.032  0.0566  0.5384 -0.2745
 8057SOL    HW135630   3.461   1.474  16.960 -1.4836 -0.0664  0.8471
 8057SOL    HW235631   3.407   1.539  17.076  1.5758  0.8544  2.5521
 8058SOL     OW35632   1.829   0.020   6.899  0.0943  0.3855  0.1597
 8058SOL    HW135633   1.922   0.035   6.887  0.8975 -2.3782  2.9421
 8058SOL    HW235634   1.795   0.083   6.836  1.1390 -0.9178 -1.6973
 8059SOL     OW35635   2.019   3.381   8.333  0.2560  0.3328  0.8059
 8059SOL    HW135636   2.097   3.432   8.309  1.3192 -0.1975  3.1020
 8059SOL    HW235637   1.954   3.415   8.273  0.1639  0.6381  1.0824
 8060SOL     OW35638   0.703   4.522   2.814  0.2305 -0.0257 -1.0378
 8060SOL    HW135639   0.655   4.572   2.748 -1.1054  1.6869  1.2269
 8060SOL    HW235640   0.776   4.482   2.765 -0.9518 -1.7778 -1.3786
 8061SOL     OW35641   0.506   3.131   1.386 -0.1082 -0.3897 -0.0585
 8061SOL    HW135642   0.571   3.120   1.317  1.7748  1.6008  1.3809
 8061SOL    HW235643   0.426   3.154   1.339  1.2145  0.3157 -1.9643
 8062SOL     OW35644   1.950   2.127  16.811  0.5255  0.5959 -0.1857
 8062SOL    HW135645   1.975   2.098  16.723 -0.0031  2.1427 -0.8342
 8062SOL    HW235646   1.933   2.047  16.860  2.0867  0.5262  0.2474
 8063SOL     OW35647   2.488   3.798   6.678 -0.4469  0.4903 -0.0298
 8063SOL    HW135648   2.426   3.762   6.741 -1.0165  1.9629  0.2526
 8063SOL    HW235649   2.547   3.842   6.740 -0.0081  1.7954 -1.3573
 8064SOL     OW35650   3.139   3.287   0.783  0.2077  0.2958  0.3909
 8064SOL    HW135651   3.205   3.247   0.726  0.8765 -0.3649  1.6206
 8064SOL    HW235652   3.163   3.379   0.773 -1.7311  0.8038  0.4859
 8065SOL     OW35653   1.111   1.669   5.371 -0.2502 -0.1703 -0.5066
 8065SOL    HW135654   1.165   1.654   5.293 -1.3718  0.3910 -1.4036
 8065SOL    HW235655   1.182   1.700   5.427  0.6527 -2.6025 -0.3401
 8066SOL     OW35656   2.403   0.959   8.938  0.1819 -0.0070  0.5975
 8066SOL    HW135657   2.402   0.941   8.844  1.8011  0.9958  0.3962
 8066SOL    HW235658   2.490   0.990   8.964  0.9401 -0.2378 -1.6490
 8067SOL     OW35659   3.922   4.543   7.907 -0.3351  0.4709  0.4169
 8067SOL    HW135660   4.010   4.578   7.897  0.2123 -1.4838 -1.6351
 8067SOL    HW235661   3.872   4.619   7.877 -0.4569  0.7517  1.3242
 8068SOL     OW35662   1.983   3.847  11.786 -0.0650  0.1775 -0.2620
 8068SOL    HW135663   1.936   3.897  11.852 -0.8991 -1.2816  0.2387
 8068SOL    HW235664   2.062   3.818  11.833  0.5447  1.1382 -0.6999
 8069SOL     OW35665   3.590   3.716   7.991  0.3513 -0.0470  0.2707
 8069SOL    HW135666   3.550   3.632   7.969  0.4139  0.3172 -1.2050
 8069SOL    HW235667   3.664   3.717   7.930  0.2291  0.6956  0.1400
 8070SOL     OW35668   2.936   1.321   6.192 -0.1202  0.1521 -0.0912
 8070SOL    HW135669   3.017   1.276   6.170 -0.3159 -0.7898  1.1570
 8070SOL    HW235670   2.950   1.341   6.284 -0.9979 -1.2767  0.3448
 8071SOL     OW35671   4.204   1.152  16.437 -0.1573 -0.5164  0.6860
 8071SOL    HW135672   4.144   1.202  16.492 -2.9452 -1.3002 -1.6622
 8071SOL    HW235673   4.270   1.129  16.504  1.0096  1.8764  0.3436
 8072SOL     OW35674   2.477   0.972   9.444 -0.4951  0.5339  0.2502
 8072SOL    HW135675   2.557   0.979   9.497  0.3772 -1.9261 -0.7478
 8072SOL    HW235676   2.448   0.884   9.467  1.9653  0.6629  3.9134
 8073SOL     OW35677   1.108   3.579   8.596 -0.1008 -0.0269  0.6903
 8073SOL    HW135678   1.095   3.660   8.646 -0.6172  0.2070  0.1678
 8073SOL    HW235679   1.087   3.508   8.656 -1.4059  0.6604  1.0352
 8074SOL     OW35680   2.543   1.642   2.461 -0.1262  0.5799  0.2516
 8074SOL    HW135681   2.471   1.630   2.524 -2.6908 -0.5626 -2.9133
 8074SOL    HW235682   2.490   1.658   2.383  0.1349  3.3025  0.6250
 8075SOL     OW35683   3.494   0.638  14.008  0.0659 -0.1202 -0.0322
 8075SOL    HW135684   3.451   0.641  13.923 -1.6677  1.6342  0.9162
 8075SOL    HW235685   3.424   0.631  14.073  0.0435  0.2167 -0.0210
 8076SOL     OW35686   3.053   0.114   8.834 -0.1100  0.3097 -0.1290
 8076SOL    HW135687   3.088   0.182   8.776  3.7083 -1.1620  0.4867
 8076SOL    HW235688   3.074   0.157   8.917 -1.4388  1.7355 -0.5370
 8077SOL     OW35689   3.465   2.109  13.640  0.2602 -0.6667 -0.3859
 8077SOL    HW135690   3.451   2.166  13.715 -0.4972 -0.0312 -1.0216
 8077SOL    HW235691   3.531   2.052  13.680  1.4234  0.4584 -0.7157
 8078SOL     OW35692   1.784   2.432   4.351  0.1505 -0.4548 -0.6098
 8078SOL    HW135693   1.710   2.383   4.314  1.6155 -1.0401 -2.7779
 8078SOL    HW235694   1.746   2.520   4.359 -1.6299 -1.2478 -0.3296
 8079SOL     OW35695   1.691   2.967   9.075  0.1605 -0.1446  0.4195
 8079SOL    HW135696   1.742   2.978   8.994 -1.3420  2.2125 -0.2131
 8079SOL    HW235697   1.708   3.050   9.119 -0.6439 -0.1794  0.7859
 8080SOL     OW35698   0.250   4.317   0.635  0.6583 -0.6832 -0.0638
 8080SOL    HW135699   0.308   4.321   0.711  1.0899 -4.0024 -0.1958
 8080SOL    HW235700   0.241   4.411   0.619  1.0054 -0.1210  3.1696
 8081SOL     OW35701   1.722   2.982   0.824  0.3152 -0.1641  0.2350
 8081SOL    HW135702   1.743   3.071   0.798 -1.3434  0.0281 -0.4281
 8081SOL    HW235703   1.808   2.939   0.821  0.0758 -0.5809 -0.5313
 8082SOL     OW35704   3.734   3.537   3.795  0.1667 -0.3624  0.2014
 8082SOL    HW135705   3.809   3.596   3.794  0.4582 -0.7629 -1.8490
 8082SOL    HW235706   3.758   3.479   3.867 -2.4941 -2.6206 -0.6840
 8083SOL     OW35707   0.589   3.315   0.934  0.1838  0.5333 -0.3353
 8083SOL    HW135708   0.599   3.232   0.980 -0.9765 -0.0094 -1.0695
 8083SOL    HW235709   0.621   3.372   1.004  1.9426 -0.9144  0.0330
 8084SOL     OW35710   2.937   2.309   4.097  0.2085  0.3858  0.0981
 8084SOL    HW135711   2.963   2.217   4.110 -0.7713 -0.0169 -0.7189
 8084SOL    HW235712   3.008   2.341   4.042 -0.3580  0.7446 -0.4275
 8085SOL     OW35713   2.614   4.484  12.487 -0.2818 -0.1541 -0.0928
 8085SOL    HW135714   2.680   4.432  12.442 -0.7978 -1.3035  0.4764
 8085SOL    HW235715   2.607   4.439  12.571 -0.2018 -0.6176 -0.3357
 8086SOL     OW35716   2.677   4.590   2.371  0.1971 -0.5861  0.6831
 8086SOL    HW135717   2.741   4.556   2.308 -0.5292  1.0470 -0.9403
 8086SOL    HW235718   2.594   4.567   2.328  0.2084 -1.1087  0.9335
 8087SOL     OW35719   4.123   1.400   5.438 -0.5149 -0.6606 -1.0531
 8087SOL    HW135720   4.029   1.385   5.424 -0.7882 -1.2756  1.3658
 8087SOL    HW235721   4.154   1.448   5.361 -3.6924  0.7740 -1.4889
 8088SOL     OW35722   3.489   2.579   3.015  0.8299 -0.9560  0.2450
 8088SOL    HW135723   3.408   2.617   2.981  0.4129 -0.5896  1.6517
 8088SOL    HW235724   3.556   2.636   2.978 -0.6261 -0.1527 -1.1724
 8089SOL     OW35725   2.934   4.569   7.856 -0.2070 -0.5189 -0.3938
 8089SOL    HW135726   2.989   4.637   7.895 -1.6515  0.3646  0.0951
 8089SOL    HW235727   2.995   4.507   7.817 -0.1714  0.1583 -1.4286
 8090SOL     OW35728   1.082   1.931   2.984  0.2326 -0.1003  0.5760
 8090SOL    HW135729   1.135   1.897   2.912  0.1940  0.3574  0.3364
 8090SOL    HW235730   1.010   1.868   2.989  0.2806 -0.0617  1.7813
 8091SOL     OW35731   0.727   2.050   2.030  0.5568  0.5379 -0.1202
 8091SOL    HW135732   0.639   2.016   2.014  1.3724 -2.8802  2.6617
 8091SOL    HW235733   0.754   2.020   2.117 -0.1893 -1.1160 -0.4542
 8092SOL     OW35734   1.965   2.719   5.037 -0.2275  0.0248  0.3566
 8092SOL    HW135735   1.883   2.705   5.085 -0.3832  2.6736  0.8672
 8092SOL    HW235736   1.988   2.811   5.051  0.7343  0.2720 -2.8769
 8093SOL     OW35737   2.325   4.540  15.443  0.5555 -0.0504  0.6617
 8093SOL    HW135738   2.351   4.448  15.450 -0.5802 -0.6380 -2.7285
 8093SOL    HW235739   2.245   4.526  15.393  1.6373 -3.2803 -0.1497
 8094SOL     OW35740   0.478   2.044   5.608  0.0273 -0.4154 -0.0078
 8094SOL    HW135741   0.537   1.991   5.554 -0.1827 -0.4255 -0.2234
 8094SOL    HW235742   0.397   2.000   5.585 -0.4656  0.6191 -0.2393
 8095SOL     OW35743   2.156   2.184   8.087  0.2426  0.1765  0.1270
 8095SOL    HW135744   2.238   2.188   8.039  0.5236 -0.6829  0.5309
 8095SOL    HW235745   2.163   2.262   8.142  0.7370 -0.4332  0.9368
 8096SOL     OW35746   1.065   2.430  17.472  0.3091  1.0949  0.6551
 8096SOL    HW135747   1.126   2.491  17.430 -1.3881  1.9926 -0.5196
 8096SOL    HW235748   0.981   2.475  17.463 -0.4696 -0.0313  2.1669
 8097SOL     OW35749   3.997   0.207   4.749  0.5567  0.3334 -0.6360
 8097SOL    HW135750   3.936   0.239   4.682  0.7715  0.7411 -0.6401
 8097SOL    HW235751   4.069   0.179   4.693 -0.3453 -1.9240 -0.6712
 8098SOL     OW35752   1.261   3.291   7.724 -0.2502  0.1212 -0.5655
 8098SOL    HW135753   1.299   3.342   7.795  0.4645 -1.5542  0.2547
 8098SOL    HW235754   1.285   3.206   7.762 -0.7813 -0.5201 -1.6703
 8099SOL     OW35755   1.137   3.627   2.672  0.0212 -0.7085  0.1165
 8099SOL    HW135756   1.116   3.534   2.681  0.8238 -0.8388  0.5772
 8099SOL    HW235757   1.094   3.641   2.588 -1.7099 -5.3009  0.2343
 8100SOL     OW35758   0.247   2.927   4.374 -0.0805 -0.0735  0.1339
 8100SOL    HW135759   0.323   2.876   4.401 -1.3091 -1.6330  0.6793
 8100SOL    HW235760   0.235   2.898   4.283  1.7252 -0.8693  0.1486
 8101SOL     OW35761   3.272   2.839   0.280  0.6128 -0.0681  0.0204
 8101SOL    HW135762   3.360   2.850   0.317  0.6888  1.5125 -0.6206
 8101SOL    HW235763   3.269   2.892   0.201  0.6311  2.2956  1.5884
 8102SOL     OW35764   1.919   1.920   2.681 -0.0207  0.4766 -0.0472
 8102SOL    HW135765   1.905   1.826   2.692  1.2934  0.2740 -0.0893
 8102SOL    HW235766   1.936   1.954   2.768  0.0125  0.8138 -0.1862
 8103SOL     OW35767   0.814   0.456   3.043  0.2085  0.5021  0.4264
 8103SOL    HW135768   0.796   0.464   2.949  0.5921  0.0034  0.3117
 8103SOL    HW235769   0.898   0.414   3.024 -0.0353 -0.2893  1.1249
 8104SOL     OW35770   1.435   2.917   4.301 -0.4091 -0.3686  0.5268
 8104SOL    HW135771   1.359   2.924   4.359  0.0249 -1.8452  1.2637
 8104SOL    HW235772   1.418   2.837   4.252 -0.1790  0.6633 -1.2422
 8105SOL     OW35773   3.544   3.425  16.397  0.1022 -0.0560  0.6657
 8105SOL    HW135774   3.610   3.376  16.349 -0.5487  0.4875 -0.7935
 8105SOL    HW235775   3.582   3.443  16.483  1.0086  0.9749  0.0546
 8106SOL     OW35776   1.964   1.256   6.983 -0.0845  0.3995 -0.3282
 8106SOL    HW135777   1.908   1.193   7.027  2.3291 -1.2169  0.3997
 8106SOL    HW235778   2.048   1.212   6.991 -0.0754  0.2545 -1.2098
 8107SOL     OW35779   1.051   4.365   7.929 -0.2057  0.7446 -0.2501
 8107SOL    HW135780   0.984   4.297   7.939 -0.0068  0.8578  1.8326
 8107SOL    HW235781   1.043   4.382   7.835 -1.4277  2.8402  0.2375
 8108SOL     OW35782   2.815   3.373   2.945  0.6174  0.5629  0.4275
 8108SOL    HW135783   2.857   3.450   2.984  1.8510  0.0080  0.2246
 8108SOL    HW235784   2.843   3.387   2.855 -0.2905 -1.5941 -0.1895
 8109SOL     OW35785   4.270   1.579  12.320  0.3808 -1.0098 -0.2234
 8109SOL    HW135786   4.225   1.543  12.244 -0.5493 -0.8887  0.2788
 8109SOL    HW235787   4.322   1.653  12.289  0.4809 -1.0651 -0.1885
 8110SOL     OW35788   2.398   4.067  10.734  0.0975 -0.3239 -0.4133
 8110SOL    HW135789   2.411   4.012  10.657 -1.9058 -0.1530 -0.8824
 8110SOL    HW235790   2.415   4.151  10.692 -2.7684  0.9436  0.9851
 8111SOL     OW35791   4.101   0.357   6.363 -0.0075  0.4071  0.3300
 8111SOL    HW135792   4.044   0.307   6.421  2.2320 -2.7660 -0.2025
 8111SOL    HW235793   4.170   0.394   6.417  1.0968 -0.2696 -0.6125
 8112SOL     OW35794   2.973   0.442  12.498 -0.2785 -0.9117  0.3874
 8112SOL    HW135795   2.958   0.352  12.527 -0.9987 -1.1587 -0.7981
 8112SOL    HW235796   2.886   0.480  12.500 -0.0763 -0.3708 -1.5837
 8113SOL     OW35797   2.800   0.995   8.579  0.4859  0.3387 -0.2414
 8113SOL    HW135798   2.763   1.065   8.633 -0.2014 -1.2417  1.3420
 8113SOL    HW235799   2.727   0.983   8.518  2.1399  1.3660 -2.4177
 8114SOL     OW35800   3.463   4.347  16.739  0.6330  0.3893 -0.4417
 8114SOL    HW135801   3.530   4.396  16.692  0.0478  0.6668 -0.9886
 8114SOL    HW235802   3.499   4.262  16.763 -0.7447  0.0934  0.5717
 8115SOL     OW35803   2.119   4.490   3.474 -0.5459 -0.2465  0.1289
 8115SOL    HW135804   2.182   4.501   3.544  0.6381  0.9831 -1.1369
 8115SOL    HW235805   2.059   4.422   3.507 -1.8890  0.5261 -0.7049
 8116SOL     OW35806   4.201   4.001   5.038 -0.3906  0.6555  0.1213
 8116SOL    HW135807   4.115   4.042   5.027 -1.9402 -2.5065  0.3696
 8116SOL    HW235808   4.255   4.039   4.968  0.3008  1.2039  0.9515
 8117SOL     OW35809   2.531   2.996   6.846 -0.1214 -0.0315 -0.2098
 8117SOL    HW135810   2.535   2.904   6.872 -0.8852 -0.5447 -1.8684
 8117SOL    HW235811   2.604   3.028   6.899  0.7053  1.3060 -2.1191
 8118SOL     OW35812   0.625   4.475   3.106  0.1682 -0.0309 -0.1315
 8118SOL    HW135813   0.647   4.548   3.164  0.4078 -0.8946  0.8374
 8118SOL    HW235814   0.665   4.502   3.023 -2.2380 -0.2046 -1.3533
 8119SOL     OW35815   1.995   3.210   6.668  0.2544  0.0937  0.0823
 8119SOL    HW135816   1.970   3.276   6.733  0.3933 -1.0353  1.2721
 8119SOL    HW235817   1.956   3.137   6.715  1.5894  0.2526  1.4284
 8120SOL     OW35818   4.015   1.273  16.603 -0.7172 -0.0607  0.1242
 8120SOL    HW135819   3.935   1.257  16.653 -1.4699 -0.0242 -1.0547
 8120SOL    HW235820   3.974   1.279  16.516  1.1954 -0.1151 -0.7869
 8121SOL     OW35821   2.293   0.493   4.488 -0.8656 -0.5346 -0.3513
 8121SOL    HW135822   2.348   0.467   4.413 -1.9200 -0.8011 -1.0396
 8121SOL    HW235823   2.259   0.579   4.465 -0.9736 -0.6275 -0.5447
 8122SOL     OW35824   0.291   3.645   3.358 -0.1368 -0.6897  0.1525
 8122SOL    HW135825   0.310   3.551   3.354  0.5321 -0.4198 -2.6413
 8122SOL    HW235826   0.278   3.675   3.268 -1.6965 -0.1885  0.5369
 8123SOL     OW35827   1.419   3.031   7.212  0.1951 -0.2671 -0.5006
 8123SOL    HW135828   1.459   2.976   7.145  2.0190  0.8561 -0.3474
 8123SOL    HW235829   1.492   3.034   7.273  0.5501  1.6388 -1.0009
 8124SOL     OW35830   1.490   3.922   4.250  0.2620  0.5053 -0.1727
 8124SOL    HW135831   1.452   3.940   4.164  0.6918 -0.7583 -0.6208
 8124SOL    HW235832   1.573   3.970   4.244  0.6282 -0.3478 -1.6533
 8125SOL     OW35833   2.123   0.547   8.518  0.3314  0.6201  0.2354
 8125SOL    HW135834   2.177   0.471   8.539  1.2441  1.1959 -0.0083
 8125SOL    HW235835   2.039   0.509   8.542  1.2791 -1.4445  0.2510
 8126SOL     OW35836   2.056   3.774   8.166 -0.4354  0.1405 -0.3199
 8126SOL    HW135837   1.981   3.740   8.214 -1.6926  0.7702 -1.8299
 8126SOL    HW235838   2.045   3.867   8.188  1.2081  0.3481 -0.4003
 8127SOL     OW35839   1.347   3.576  15.997  0.5525 -0.1241  0.1397
 8127SOL    HW135840   1.289   3.651  15.999 -1.3490 -1.5867 -0.0289
 8127SOL    HW235841   1.289   3.510  15.959 -0.4304  1.0827 -0.4338
 8128SOL     OW35842   3.558   4.255   6.402 -0.1861 -0.6061 -0.1362
 8128SOL    HW135843   3.618   4.186   6.431 -0.8244 -0.9529  0.3609
 8128SOL    HW235844   3.613   4.291   6.333  0.3847 -0.0047  0.6313
 8129SOL     OW35845   0.648   1.756   3.398 -1.1271 -0.0820 -0.0856
 8129SOL    HW135846   0.712   1.688   3.380 -0.9211  0.2136 -0.4542
 8129SOL    HW235847   0.663   1.770   3.492  0.9881  2.0342 -0.7458
 8130SOL     OW35848   2.429   3.030   2.984 -0.2853  0.4139  0.0101
 8130SOL    HW135849   2.398   2.995   2.901  2.4656 -0.6881 -0.5595
 8130SOL    HW235850   2.362   3.092   3.015 -1.4254 -0.5618 -0.4971
 8131SOL     OW35851   1.052   1.936   2.360  0.5693 -0.3045  0.1256
 8131SOL    HW135852   1.071   2.027   2.337  1.9653 -0.5328  0.3648
 8131SOL    HW235853   1.016   1.896   2.282 -0.3245 -1.3337  1.0605
 8132SOL     OW35854   3.323   4.670   2.466  0.2542 -0.3833 -0.1957
 8132SOL    HW135855   3.297   4.597   2.523  0.2017 -2.0060 -2.3139
 8132SOL    HW235856   3.318   4.631   2.379 -0.4711  3.6209 -1.9737
 8133SOL     OW35857   0.634   1.818   3.704 -0.2656  0.5540  0.1948
 8133SOL    HW135858   0.592   1.747   3.753  0.7612  0.4133  0.8934
 8133SOL    HW235859   0.706   1.834   3.766 -0.3310 -1.1598  0.7103
 8134SOL     OW35860   4.391   0.738  10.407  0.6879 -0.1894  0.2453
 8134SOL    HW135861   4.376   0.824  10.446 -0.2548 -0.0406 -0.4512
 8134SOL    HW235862   4.349   0.758  10.323 -1.4928 -2.6057  0.7510
 8135SOL     OW35863   4.109   2.085   0.166 -0.2320  0.5902 -0.2570
 8135SOL    HW135864   4.097   2.053   0.256 -1.2619  2.2007  0.1879
 8135SOL    HW235865   4.200   2.114   0.171  0.7196 -2.1032 -2.2015
 8136SOL     OW35866   4.601   0.997   8.136  0.3129  0.4319 -0.8659
 8136SOL    HW135867   4.509   0.985   8.110  0.0942  3.1496 -1.3274
 8136SOL    HW235868   4.587   1.032   8.224 -6.5695 -2.6324 -0.6824
 8137SOL     OW35869   0.850   0.645   1.986 -0.2841  0.2009  0.1050
 8137SOL    HW135870   0.900   0.579   1.939  0.9417  0.5378  0.9406
 8137SOL    HW235871   0.794   0.589   2.040 -0.8747  0.4426 -0.2596
 8138SOL     OW35872   4.649   3.165   5.830 -0.1929 -0.5658  0.2216
 8138SOL    HW135873   4.668   3.126   5.915  0.4748  0.0420  0.3475
 8138SOL    HW235874   4.724   3.223   5.840 -0.6732 -0.3953  2.7908
 8139SOL     OW35875   2.799   1.836   6.424  0.3166 -0.3758  0.2805
 8139SOL    HW135876   2.883   1.878   6.406 -0.4158  1.2696  0.7084
 8139SOL    HW235877   2.810   1.756   6.373 -0.3685 -0.6921  0.6209
 8140SOL     OW35878   2.426   0.432   0.752 -0.2005  0.2254 -0.0170
 8140SOL    HW135879   2.341   0.473   0.733 -0.5542 -0.4385  0.1364
 8140SOL    HW235880   2.491   0.497   0.724 -2.2476  1.8935 -0.9543
 8141SOL     OW35881   4.469   0.426   6.222 -0.2428  0.2112 -0.7511
 8141SOL    HW135882   4.397   0.489   6.214  0.7231  0.7886 -5.0006
 8141SOL    HW235883   4.545   0.466   6.180  0.6322 -0.9198 -0.2342
 8142SOL     OW35884   3.586   4.397  16.295  0.5347 -0.2940  0.3654
 8142SOL    HW135885   3.585   4.461  16.366  0.6513  0.0094  0.0952
 8142SOL    HW235886   3.494   4.401  16.271  0.2939 -0.0878  1.3039
 8143SOL     OW35887   4.430   4.545   6.099  0.0536  0.0655  0.0132
 8143SOL    HW135888   4.395   4.628   6.134 -0.3780  0.6167 -1.7317
 8143SOL    HW235889   4.492   4.570   6.031  2.3308 -2.2894  1.2527
 8144SOL     OW35890   2.640   3.188  10.128  0.1979 -0.1223  0.8879
 8144SOL    HW135891   2.562   3.134  10.120  2.0453 -2.4526 -1.3657
 8144SOL    HW235892   2.694   3.134  10.186 -1.1173  0.7220  2.8979
 8145SOL     OW35893   2.759   1.865   9.328  0.8160  0.3175  0.3782
 8145SOL    HW135894   2.726   1.925   9.395  0.3217  1.4250 -0.8355
 8145SOL    HW235895   2.851   1.846   9.348  0.0726 -2.5491  1.0720
 8146SOL     OW35896   4.689   1.211   1.716 -0.1105 -0.3584  0.0666
 8146SOL    HW135897   0.025   1.141   1.698  0.6085  0.9026 -2.3136
 8146SOL    HW235898   4.633   1.219   1.639  3.2940 -1.8267 -2.5103
 8147SOL     OW35899   2.887   2.420  14.203  0.1442 -0.5621 -0.0888
 8147SOL    HW135900   2.838   2.354  14.253 -0.4350 -1.7432 -2.1911
 8147SOL    HW235901   2.974   2.431  14.241 -0.8748  2.7796  1.2006
 8148SOL     OW35902   0.633   2.567   2.786 -0.0239 -0.2228 -0.1710
 8148SOL    HW135903   0.717   2.525   2.767 -0.4719 -2.3063  2.4798
 8148SOL    HW235904   0.580   2.488   2.780  0.9739 -0.8693 -0.3871
 8149SOL     OW35905   2.514   1.197   8.741  0.2520 -0.1270 -0.1294
 8149SOL    HW135906   2.488   1.281   8.779  0.5736 -0.0071 -0.1689
 8149SOL    HW235907   2.428   1.162   8.719  0.1518 -0.6805  1.1516
 8150SOL     OW35908   2.937   1.363  16.519  0.3753  0.2796 -0.5129
 8150SOL    HW135909   2.869   1.307  16.558  0.1333  1.0915  0.2459
 8150SOL    HW235910   2.919   1.445  16.566 -0.1855 -0.1494  0.0333
 8151SOL     OW35911   3.523   4.606  10.471  0.3325  0.2222  0.4683
 8151SOL    HW135912   3.503   4.694  10.439 -0.6603 -1.0611 -2.4762
 8151SOL    HW235913   3.438   4.563  10.468 -0.2118  1.2265  1.8928
 8152SOL     OW35914   3.493   1.229  17.175 -0.3170  0.0002 -0.4237
 8152SOL    HW135915   3.510   1.160  17.240 -3.7831 -1.4829 -1.0930
 8152SOL    HW235916   3.447   1.293  17.229 -0.6362 -0.2360 -0.4214
 8153SOL     OW35917   1.470   4.474   5.283 -0.9535 -0.1355  0.2749
 8153SOL    HW135918   1.418   4.514   5.213 -0.8412  0.8505  0.7621
 8153SOL    HW235919   1.536   4.427   5.230  0.6612  0.6125  1.6231
 8154SOL     OW35920   1.530   2.676  17.669 -0.2646  0.2570  0.4468
 8154SOL    HW135921   1.485   2.592  17.663 -0.7617  0.6866 -1.7427
 8154SOL    HW235922   1.459   2.740  17.677  0.0160  0.4798  1.2460
 8155SOL     OW35923   2.683   0.097  11.372  0.1935  0.5036 -0.2963
 8155SOL    HW135924   2.642   0.098  11.459 -0.3800 -2.0113 -0.5536
 8155SOL    HW235925   2.728   0.182  11.371 -0.4259  0.8722  2.9622
 8156SOL     OW35926   1.057   0.483   9.267  0.0855  0.3506 -0.1867
 8156SOL    HW135927   1.132   0.521   9.220 -0.0682  0.2315 -0.5320
 8156SOL    HW235928   1.046   0.553   9.330  0.8593 -0.2486  0.6079
 8157SOL     OW35929   0.276   2.744   8.912 -0.1264 -0.0948 -0.9655
 8157SOL    HW135930   0.301   2.686   8.984  2.4789  1.1448 -0.8530
 8157SOL    HW235931   0.340   2.721   8.844 -1.3761  0.5626 -2.3599
 8158SOL     OW35932   2.799   1.158   8.814  0.5561  0.4516 -0.1259
 8158SOL    HW135933   2.733   1.222   8.789  0.8121  0.1926 -1.4890
 8158SOL    HW235934   2.875   1.213   8.832 -0.3857  1.4987  0.6494
 8159SOL     OW35935   3.004   2.042  12.011  0.1667  0.1902 -0.3081
 8159SOL    HW135936   3.054   2.094  12.073 -0.2865  0.4206 -0.1315
 8159SOL    HW235937   2.918   2.075  12.038 -0.0679 -0.9802  0.3705
 8160SOL     OW35938   1.093   4.068   4.390  0.5855  0.1623 -0.3743
 8160SOL    HW135939   1.024   4.024   4.440  3.1756 -1.2365  1.9418
 8160SOL    HW235940   1.163   4.040   4.448  0.9576 -0.0681 -0.9315
 8161SOL     OW35941   3.149   4.534   0.183 -0.1882  0.0058  0.3517
 8161SOL    HW135942   3.111   4.622   0.181 -3.1198 -1.2488  0.1746
 8161SOL    HW235943   3.230   4.540   0.233  0.2294 -1.7140 -0.1175
 8162SOL     OW35944   0.126   1.769  10.013  0.0853 -0.4412  0.1954
 8162SOL    HW135945   0.111   1.840  10.076  1.7237  0.0241  0.0713
 8162SOL    HW235946   0.222   1.768  10.018  0.1274  0.2830 -0.5122
 8163SOL     OW35947   4.320   3.246  12.977 -0.0352  0.6374 -0.4869
 8163SOL    HW135948   4.400   3.193  12.985  0.8441  2.1704  0.7819
 8163SOL    HW235949   4.309   3.272  13.068 -0.0560 -1.7933  0.2179
 8164SOL     OW35950   4.123   3.341  12.464  0.5728  0.0948  0.5271
 8164SOL    HW135951   4.161   3.309  12.383  1.7482  1.5398  0.5184
 8164SOL    HW235952   4.166   3.427  12.472 -0.2478  0.5583 -0.0323
 8165SOL     OW35953   3.527   1.587   3.332 -0.6624  0.0949  0.5814
 8165SOL    HW135954   3.485   1.618   3.412 -2.2717  0.1793 -0.3015
 8165SOL    HW235955   3.497   1.659   3.277  1.8782  0.3752 -0.4640
 8166SOL     OW35956   0.620   0.513   6.409 -0.3196  0.0283 -0.1559
 8166SOL    HW135957   0.558   0.567   6.361 -1.0948 -0.6203  0.1041
 8166SOL    HW235958   0.677   0.585   6.436  1.7691 -1.0938 -1.5804
 8167SOL     OW35959   1.051   0.818   1.043 -0.2967  0.7798 -0.3934
 8167SOL    HW135960   0.996   0.895   1.057 -0.2502  1.4271 -3.5905
 8167SOL    HW235961   0.986   0.760   1.005  0.2762  0.3867 -0.7793
 8168SOL     OW35962   2.387   2.670   6.358  0.3312 -0.3437  0.2708
 8168SOL    HW135963   2.473   2.662   6.315  0.0358 -0.3374 -0.3291
 8168SOL    HW235964   2.419   2.708   6.440 -0.1848 -0.4232  0.5042
 8169SOL     OW35965   2.738   2.625  13.155 -0.0676  0.1373 -0.1090
 8169SOL    HW135966   2.674   2.570  13.200  0.3696 -0.6846 -0.4797
 8169SOL    HW235967   2.821   2.593  13.190  0.3311  0.0549 -1.1142
 8170SOL     OW35968   4.658   0.274   5.686 -0.1696  0.2629  0.1048
 8170SOL    HW135969   4.677   0.233   5.770  1.2712  0.4219 -0.1333
 8170SOL    HW235970   0.016   0.272   5.640  0.4308 -0.2072  1.2409
 8171SOL     OW35971   3.789   1.811  14.934  0.0403 -0.5206 -0.7915
 8171SOL    HW135972   3.846   1.870  14.884  1.5475 -0.5291  0.9338
 8171SOL    HW235973   3.703   1.852  14.926  1.4033  2.1898 -1.5607
 8172SOL     OW35974   0.153   2.135  10.779 -0.1732  0.3832  0.3840
 8172SOL    HW135975   0.122   2.072  10.844 -0.0687 -0.4308 -0.3634
 8172SOL    HW235976   0.127   2.222  10.811 -0.7973  0.8440 -1.3575
 8173SOL     OW35977   2.887   2.121   6.929  0.3551 -0.0542  0.4997
 8173SOL    HW135978   2.856   2.135   6.840  0.7561  0.0437  0.3720
 8173SOL    HW235979   2.832   2.189   6.969  0.5412 -0.9153  2.2186
 8174SOL     OW35980   2.001   3.870  11.520  0.3456 -0.0889 -0.3306
 8174SOL    HW135981   1.946   3.949  11.519 -0.0364 -0.3711 -1.2477
 8174SOL    HW235982   2.001   3.855  11.615 -1.3522  1.1886 -0.1368
 8175SOL     OW35983   1.915   3.861   0.388 -0.5953 -0.1932  0.1342
 8175SOL    HW135984   1.988   3.904   0.344  0.2105 -2.1152 -0.4302
 8175SOL    HW235985   1.861   3.938   0.404  1.9601  1.5426  0.3998
 8176SOL     OW35986   3.600   0.868   9.531  0.6430  0.4071  0.3759
 8176SOL    HW135987   3.564   0.780   9.540 -2.0172  1.5427  0.9783
 8176SOL    HW235988   3.514   0.910   9.538  0.8283  0.6607  1.0808
 8177SOL     OW35989   2.346   2.931   2.737 -0.0615  0.3142 -0.1231
 8177SOL    HW135990   2.342   2.871   2.662  0.7216 -1.5766  1.3319
 8177SOL    HW235991   2.418   2.986   2.706  1.4951 -0.6045  1.8213
 8178SOL     OW35992   0.793   4.118   7.133  0.4834 -1.2119 -0.0296
 8178SOL    HW135993   0.790   4.041   7.190  1.4492  0.0526  1.7567
 8178SOL    HW235994   0.889   4.125   7.132  0.3821  0.2779 -0.3715
 8179SOL     OW35995   2.975   1.558   6.610  0.4197  0.3531 -0.1848
 8179SOL    HW135996   3.030   1.634   6.629 -0.0396  0.7151 -0.2821
 8179SOL    HW235997   3.046   1.495   6.613 -0.9326 -1.1823 -0.4069
 8180SOL     OW35998   3.134   2.637   5.379  0.1121  0.0178  0.0098
 8180SOL    HW135999   3.073   2.710   5.364  1.9043  1.3593 -0.7403
 8180SOL    HW236000   3.075   2.562   5.369  0.6594 -0.8074  2.9997
 8181SOL     OW36001   1.144   3.108  14.132 -0.3402  0.1376 -0.3409
 8181SOL    HW136002   1.179   3.151  14.054 -0.3260  0.6347 -0.0600
 8181SOL    HW236003   1.056   3.144  14.129 -1.2202 -2.0064 -0.0958
 8182SOL     OW36004   3.018   0.540  11.264  0.3274  0.4880  0.2198
 8182SOL    HW136005   3.005   0.576  11.176 -1.6619 -0.0732  0.2741
 8182SOL    HW236006   3.111   0.561  11.275  0.2453  1.4266 -0.9041
 8183SOL     OW36007   1.364   4.594   5.067  0.0871 -0.0951 -0.5064
 8183SOL    HW136008   1.416   4.619   4.990  1.6489  0.3724  0.6899
 8183SOL    HW236009   1.300   4.663   5.083  2.8299  2.3813 -0.0140
 8184SOL     OW36010   0.483   0.447   3.953 -0.0832  0.7110 -0.0345
 8184SOL    HW136011   0.509   0.450   4.045  2.0867  2.0004 -0.6895
 8184SOL    HW236012   0.483   0.353   3.932  1.0039  0.6899  0.0350
 8185SOL     OW36013   2.132   3.846  15.995  0.3720  0.0097  0.0925
 8185SOL    HW136014   2.157   3.850  15.903  0.7669 -1.1260  0.1516
 8185SOL    HW236015   2.157   3.934  16.024 -1.5099  0.4363  0.4430
 8186SOL     OW36016   0.203   2.313   3.791 -0.3183 -0.2074 -0.1456
 8186SOL    HW136017   0.153   2.329   3.871 -0.1044  0.5459 -0.1620
 8186SOL    HW236018   0.153   2.354   3.720  0.0758  0.7793  0.1617
 8187SOL     OW36019   1.876   4.063   5.982  0.6553  0.6015 -0.2841
 8187SOL    HW136020   1.905   4.087   6.070 -2.4050  0.2330  0.8536
 8187SOL    HW236021   1.956   4.018   5.957  0.4287 -0.6733  1.2378
 8188SOL     OW36022   3.041   2.301   7.171  0.1479  0.6224 -0.1805
 8188SOL    HW136023   3.080   2.216   7.192 -0.2875  0.4619 -0.0249
 8188SOL    HW236024   3.116   2.358   7.188 -1.6678  2.8269  0.2912
 8189SOL     OW36025   0.603   0.677   7.020  0.5333  0.2404  0.2654
 8189SOL    HW136026   0.637   0.656   7.107  0.1812  0.6418  0.5060
 8189SOL    HW236027   0.682   0.681   6.967 -0.1160  0.4914 -0.6724
 8190SOL     OW36028   0.491   4.011   5.817 -0.1958  0.2110  0.2425
 8190SOL    HW136029   0.412   4.032   5.867 -0.3021 -1.9665  1.0094
 8190SOL    HW236030   0.491   3.915   5.817 -2.6053  0.1938  0.6286
 8191SOL     OW36031   0.776   0.495   2.763  0.0062 -0.2242 -0.2327
 8191SOL    HW136032   0.757   0.461   2.676 -1.6615  2.3590 -0.8732
 8191SOL    HW236033   0.738   0.583   2.762  0.2980 -0.0807  0.9506
 8192SOL     OW36034   0.052   1.989   7.966  0.3743 -0.5251  0.2586
 8192SOL    HW136035   0.021   2.001   7.876  0.3085 -3.2274 -0.0744
 8192SOL    HW236036   0.036   1.895   7.963 -1.5003 -0.1466 -2.3983
 8193SOL     OW36037   1.185   3.100   0.044  0.3425  0.5003  0.0728
 8193SOL    HW136038   1.231   3.111   0.127  2.5112  1.2992 -1.2438
 8193SOL    HW236039   1.172   3.192   0.018  0.2810  0.2310 -0.8412
 8194SOL     OW36040   1.449   3.348   1.576 -0.2371 -0.0594 -0.2876
 8194SOL    HW136041   1.514   3.286   1.541  0.0706  0.5162 -0.7247
 8194SOL    HW236042   1.492   3.433   1.576 -1.0829  0.3642  1.6109
 8195SOL     OW36043   2.832   2.080  14.975  0.2826  0.1785  0.2428
 8195SOL    HW136044   2.867   2.102  15.061  0.3749  1.3798 -0.1083
 8195SOL    HW236045   2.879   2.000  14.948  1.1996  0.0090  2.3684
 8196SOL     OW36046   2.049   0.959   8.285 -0.5214  0.1131  0.5125
 8196SOL    HW136047   2.066   0.986   8.375 -1.0240 -1.7063  1.1714
 8196SOL    HW236048   2.066   1.039   8.237 -0.7584 -0.7410 -1.0083
 8197SOL     OW36049   1.596   2.036   7.922 -0.2445 -0.5320 -0.0747
 8197SOL    HW136050   1.658   2.102   7.892  0.8420 -2.1005 -1.2765
 8197SOL    HW236051   1.556   2.003   7.842 -2.6121 -2.2299  1.8094
 8198SOL     OW36052   4.254   2.053   5.618 -0.0778  0.1443 -0.6869
 8198SOL    HW136053   4.194   2.072   5.546 -2.1870 -1.0675  0.7257
 8198SOL    HW236054   4.317   1.993   5.578 -1.0866 -0.3980 -1.4599
 8199SOL     OW36055   4.441   2.631   3.065  0.6790 -0.7921 -0.3080
 8199SOL    HW136056   4.448   2.537   3.049  0.6476 -1.2054  2.1299
 8199SOL    HW236057   4.401   2.662   2.984  0.5645 -0.8061 -0.2571
 8200SOL     OW36058   2.467   4.320   9.194 -0.6774  0.1270  0.3730
 8200SOL    HW136059   2.394   4.372   9.228 -0.1512 -0.6455  2.6962
 8200SOL    HW236060   2.534   4.387   9.178 -0.8764 -0.3316 -2.3142
 8201SOL     OW36061   4.132   3.039   3.595 -0.4343  0.0626  0.3131
 8201SOL    HW136062   4.203   2.994   3.550 -1.1187 -2.7638  2.1023
 8201SOL    HW236063   4.186   3.099   3.646 -0.3345  0.6651 -0.5006
 8202SOL     OW36064   2.760   1.737   7.354 -0.1331 -0.0097 -0.0881
 8202SOL    HW136065   2.752   1.762   7.262 -2.4640  1.5467  0.5218
 8202SOL    HW236066   2.673   1.764   7.384 -0.4909  0.8155 -1.8377
 8203SOL     OW36067   1.182   4.699  10.083  0.3063  0.6250  0.0617
 8203SOL    HW136068   1.087   4.700  10.080  0.2210 -2.0605  2.4365
 8203SOL    HW236069   1.200   0.065  10.068  1.6969 -0.2170 -3.4313
 8204SOL     OW36070   4.314   4.344   2.938  0.2564 -0.0777  0.1518
 8204SOL    HW136071   4.389   4.377   2.988  1.2361 -0.0477 -1.3311
 8204SOL    HW236072   4.358   4.295   2.869  1.0786  1.1016 -0.1580
 8205SOL     OW36073   4.523   4.687   4.849 -0.0356  0.2047  0.1833
 8205SOL    HW136074   4.536   4.667   4.941 -2.7672  0.5367  0.6476
 8205SOL    HW236075   4.429   4.704   4.843 -0.1723 -0.6225  0.0393
 8206SOL     OW36076   0.623   4.582   8.890 -0.7769  0.2026  0.0908
 8206SOL    HW136077   0.612   4.596   8.796  1.7254  1.6070  0.0054
 8206SOL    HW236078   0.540   4.540   8.911 -0.8028  0.3910  0.3721
 8207SOL     OW36079   0.364   0.768  13.463  0.0008  0.4315  0.3609
 8207SOL    HW136080   0.362   0.821  13.384  1.8934  1.6459  1.1214
 8207SOL    HW236081   0.295   0.703  13.450 -0.3563  0.5100  1.9097
 8208SOL     OW36082   3.280   0.944   9.249 -0.5061 -0.2589 -0.2143
 8208SOL    HW136083   3.262   0.854   9.276  0.0623  0.1133  1.4367
 8208SOL    HW236084   3.249   1.002   9.320 -0.8507  0.5432 -1.0175
 8209SOL     OW36085   3.664   0.421  16.117  0.0385  0.2676  0.2428
 8209SOL    HW136086   3.605   0.469  16.059  0.4680 -1.1267 -1.3574
 8209SOL    HW236087   3.700   0.493  16.168  2.4131 -0.8751  0.1480
 8210SOL     OW36088   0.067   2.829   2.330  0.2233  0.2423 -0.0517
 8210SOL    HW136089   0.105   2.896   2.388 -0.2946 -0.0414  0.6192
 8210SOL    HW236090   0.072   2.867   2.242  0.8667 -0.1921 -0.1983
 8211SOL     OW36091   0.917   3.479   0.789 -0.3181  0.0528  0.1753
 8211SOL    HW136092   0.996   3.498   0.839 -0.9035  0.0873  1.0719
 8211SOL    HW236093   0.952   3.456   0.703  0.8200 -1.6369  1.1108
 8212SOL     OW36094   0.025   4.068   4.178 -0.5183  0.6245  0.0427
 8212SOL    HW136095   4.713   4.138   4.230  0.5836  0.7660  0.6634
 8212SOL    HW236096   0.050   4.124   4.104 -1.0257  1.7615  0.7381
 8213SOL     OW36097   3.798   2.342   8.306 -0.0718  0.0033 -0.2494
 8213SOL    HW136098   3.882   2.334   8.261 -0.1734  0.4156 -0.5105
 8213SOL    HW236099   3.746   2.325   8.228 -1.4003 -2.2957  1.1494
 8214SOL     OW36100   3.385   4.410   2.882 -0.2783 -0.0763 -0.5778
 8214SOL    HW136101   3.355   4.449   2.800 -1.0096  0.4943 -0.0393
 8214SOL    HW236102   3.365   4.489   2.933 -3.2917 -2.4573  1.9155
 8215SOL     OW36103   0.626   1.893   0.090  0.2031 -0.4193  0.2037
 8215SOL    HW136104   0.613   1.981   0.125  2.4374 -0.5615  1.3998
 8215SOL    HW236105   0.550   1.891   0.032  0.9552  2.0146 -0.8646
 8216SOL     OW36106   4.170   3.540   0.663  0.2432 -0.4322  0.1123
 8216SOL    HW136107   4.092   3.485   0.658  0.3494 -0.7615  2.3769
 8216SOL    HW236108   4.134   3.629   0.661  2.0367  0.3121  1.3382
 8217SOL     OW36109   1.252   3.857   1.593  0.3172 -0.7740 -0.0808
 8217SOL    HW136110   1.176   3.810   1.628 -0.3530  1.8911  1.9957
 8217SOL    HW236111   1.217   3.904   1.518  1.4271  0.3120  0.0821
 8218SOL     OW36112   3.395   3.815   0.074 -0.4693 -0.2686  0.6951
 8218SOL    HW136113   3.353   3.901   0.083  0.0849  0.0958 -0.2187
 8218SOL    HW236114   3.320   3.757   0.079  0.3967 -1.4066  0.5200
 8219SOL     OW36115   1.733   1.424  16.750 -0.3357  0.1128  0.5595
 8219SOL    HW136116   1.730   1.330  16.765  2.3650  0.2087  1.7047
 8219SOL    HW236117   1.818   1.437  16.708  0.0409  2.6023  2.0780
 8220SOL     OW36118   1.414   0.965   3.341 -0.4615  0.5425 -0.3785
 8220SOL    HW136119   1.333   0.981   3.292 -0.7107 -0.2467 -0.2230
 8220SOL    HW236120   1.477   1.024   3.300  2.0344  0.1658  2.8786
 8221SOL     OW36121   0.899   4.710  16.251  0.4666  0.8038 -0.0106
 8221SOL    HW136122   0.817   4.661  16.260  1.0409 -0.2869 -0.6593
 8221SOL    HW236123   0.941   4.674  16.173  1.7149 -2.5070  2.1768
 8222SOL     OW36124   1.743   0.674   9.363  0.4485 -0.3885  0.1280
 8222SOL    HW136125   1.673   0.733   9.332 -0.4925 -1.3411  0.4408
 8222SOL    HW236126   1.820   0.731   9.370  1.5807 -1.6617 -1.9673
 8223SOL     OW36127   1.002   1.525   9.010  0.5207  0.3888  0.5563
 8223SOL    HW136128   1.095   1.546   9.018  0.6658 -0.2915  0.6902
 8223SOL    HW236129   0.973   1.612   8.984 -1.1288 -0.0086  1.0182
 8224SOL     OW36130   2.377   0.582   0.387 -0.4253  0.1512 -0.5021
 8224SOL    HW136131   2.426   0.606   0.466  0.4070 -0.3900 -0.8593
 8224SOL    HW236132   2.349   0.490   0.390 -0.0825  0.0442 -0.6881
 8225SOL     OW36133   0.933   0.105   4.706  0.2949  0.0679  0.2596
 8225SOL    HW136134   1.012   0.097   4.652  0.3254 -0.4300  0.3811
 8225SOL    HW236135   0.888   0.021   4.695  1.4113 -0.7021  1.6691
 8226SOL     OW36136   1.197   3.797   1.315 -0.1766  0.8895  0.1669
 8226SOL    HW136137   1.147   3.729   1.269 -0.3679  0.1127  1.5212
 8226SOL    HW236138   1.280   3.795   1.267 -1.2683 -0.9347 -1.6626
 8227SOL     OW36139   1.496   2.273   8.890  0.1373 -0.0969  0.7616
 8227SOL    HW136140   1.566   2.242   8.833 -1.5658 -0.6891 -1.0468
 8227SOL    HW236141   1.532   2.272   8.978 -2.5668  2.8782  1.9064
 8228SOL     OW36142   3.823   4.449  12.745 -0.2103  0.0852 -0.0754
 8228SOL    HW136143   3.820   4.449  12.841  0.1506  0.0900 -0.0649
 8228SOL    HW236144   3.835   4.544  12.733 -1.8285  0.0999 -1.5652
 8229SOL     OW36145   1.470   3.933  15.896  0.6204  0.0363  0.6185
 8229SOL    HW136146   1.493   4.026  15.898  1.4129 -0.1826  1.8691
 8229SOL    HW236147   1.384   3.943  15.938 -0.3435 -2.0092 -0.9178
 8230SOL     OW36148   0.181   1.460  10.718 -0.1918 -0.1158  0.1001
 8230SOL    HW136149   0.274   1.470  10.696  0.0331 -2.1499  0.1367
 8230SOL    HW236150   0.164   1.369  10.693  1.4807 -0.0677 -1.2269
 8231SOL     OW36151   1.437   1.717   8.063 -0.0690 -0.0258 -0.4326
 8231SOL    HW136152   1.398   1.718   7.975  1.1547  4.0902 -0.9035
 8231SOL    HW236153   1.531   1.708   8.050  0.1723  1.6166  0.2630
 8232SOL     OW36154   1.075   1.726   7.816  1.2412 -0.2074 -0.3310
 8232SOL    HW136155   1.072   1.665   7.742  0.1821 -0.4966 -0.0647
 8232SOL    HW236156   1.062   1.670   7.892 -0.0794 -0.1837 -0.5217
 8233SOL     OW36157   2.893   0.991   4.793  0.5819  0.2445  0.0476
 8233SOL    HW136158   2.866   1.067   4.844 -0.7507  0.8314 -1.5196
 8233SOL    HW236159   2.815   0.938   4.808  0.1338  0.8217 -0.2465
 8234SOL     OW36160   1.270   1.249   0.856  0.3263 -0.0589  0.3290
 8234SOL    HW136161   1.262   1.158   0.885  2.2048  0.4330  2.4478
 8234SOL    HW236162   1.342   1.283   0.909  1.0261 -1.3461  0.1958
 8235SOL     OW36163   1.046   0.550   4.958  0.2190  0.3165  0.5925
 8235SOL    HW136164   0.985   0.613   4.920 -0.6703  0.0745  1.6225
 8235SOL    HW236165   1.023   0.462   4.928  0.5983  0.5176 -0.2915
 8236SOL     OW36166   0.786   3.520   3.244  0.3915 -0.0316  0.1101
 8236SOL    HW136167   0.709   3.485   3.198 -0.5970  0.7235  1.1824
 8236SOL    HW236168   0.776   3.491   3.334 -0.8923  0.1780  0.0436
 8237SOL     OW36169   0.194   2.474   8.787  0.1913 -0.1574  0.4828
 8237SOL    HW136170   0.120   2.486   8.727 -0.9082  0.5425  2.0061
 8237SOL    HW236171   0.154   2.504   8.868 -1.7541  0.2429 -0.6400
 8238SOL     OW36172   1.655   4.016   1.583 -0.0248  0.2105  0.3241
 8238SOL    HW136173   1.705   4.015   1.501 -0.9135  0.4134 -0.2168
 8238SOL    HW236174   1.609   4.099   1.582  1.3184  1.0048  2.6112
 8239SOL     OW36175   0.027   1.887   9.358  0.0016  0.6963 -0.0220
 8239SOL    HW136176   0.031   1.838   9.276  0.0949  0.2076  0.2742
 8239SOL    HW236177   4.668   1.929   9.350  0.5730  1.6734 -1.2285
 8240SOL     OW36178   3.249   3.227   8.384  0.0336  0.3962 -0.2130
 8240SOL    HW136179   3.300   3.194   8.458 -0.2457 -0.1949 -0.2808
 8240SOL    HW236180   3.302   3.302   8.361  2.3413 -1.1120  0.1986
 8241SOL     OW36181   1.025   2.597   6.564  0.2394  0.2666  0.3380
 8241SOL    HW136182   1.094   2.603   6.630 -1.6890  0.6223  2.3441
 8241SOL    HW236183   0.962   2.664   6.591 -2.4870 -2.5176  0.9143
 8242SOL     OW36184   2.345   3.732   1.610 -0.6291  0.5491 -0.0529
 8242SOL    HW136185   2.278   3.778   1.560  0.6487  1.5133 -0.8746
 8242SOL    HW236186   2.308   3.644   1.605 -1.9278  1.0649  0.5197
 8243SOL     OW36187   3.307   2.595   0.154 -1.0005 -0.1944 -0.0212
 8243SOL    HW136188   3.245   2.537   0.198 -1.0043 -0.5152 -0.4513
 8243SOL    HW236189   3.303   2.666   0.219 -1.0393  0.1174 -0.3640
 8244SOL     OW36190   1.892   3.476  16.954 -0.4272 -0.0072  0.2166
 8244SOL    HW136191   1.810   3.496  16.999  0.1073 -1.6741  1.9152
 8244SOL    HW236192   1.910   3.556  16.903  1.6266 -0.4070  0.3339
 8245SOL     OW36193   4.287   3.180  15.704 -0.0444 -0.0185 -0.2705
 8245SOL    HW136194   4.311   3.102  15.754  0.9111  0.5609  0.1465
 8245SOL    HW236195   4.275   3.247  15.770  0.5522 -1.4378  1.2653
 8246SOL     OW36196   4.624   2.449  16.514 -0.5274 -0.2818 -0.3853
 8246SOL    HW136197   4.612   2.510  16.441  3.0417  0.6932 -0.1908
 8246SOL    HW236198   4.557   2.383  16.496  0.9505 -1.5243 -1.2961
 8247SOL     OW36199   4.600   3.177   0.698  0.1445 -0.2578 -0.1104
 8247SOL    HW136200   4.505   3.179   0.686  0.2595  0.1943 -0.8894
 8247SOL    HW236201   4.615   3.232   0.622  1.2899 -0.4926 -0.0543
 8248SOL     OW36202   3.424   3.951   0.860  0.0737 -0.1117  0.7682
 8248SOL    HW136203   3.447   4.044   0.858 -0.5006 -0.0450 -2.3228
 8248SOL    HW236204   3.393   3.937   0.950 -1.8465  3.9648  0.7475
 8249SOL     OW36205   0.826   1.371  13.976 -0.3104 -0.1426 -0.3799
 8249SOL    HW136206   0.885   1.349  13.904 -0.8581 -1.3471 -0.4690
 8249SOL    HW236207   0.741   1.377  13.932  0.2584 -1.1763 -1.6389
 8250SOL     OW36208   0.399   1.188  13.775 -0.0987  0.4397  0.6977
 8250SOL    HW136209   0.372   1.102  13.743 -0.8464 -0.0461  2.6209
 8250SOL    HW236210   0.318   1.232  13.801 -0.5979  0.5622 -1.0679
 8251SOL     OW36211   0.174   4.219   3.027 -0.2602 -0.1405 -0.1897
 8251SOL    HW136212   0.179   4.284   3.097  1.5833  0.7902 -1.1873
 8251SOL    HW236213   0.150   4.278   2.956  0.8114  1.7173  0.9862
 8252SOL     OW36214   1.319   1.237   9.419  0.0628 -0.2668  0.1837
 8252SOL    HW136215   1.291   1.325   9.444 -1.4215 -0.4454 -0.8599
 8252SOL    HW236216   1.392   1.225   9.480  2.3734  1.3010 -2.2623
 8253SOL     OW36217   1.549   4.053   6.691 -0.2241  0.1430 -0.3503
 8253SOL    HW136218   1.481   4.005   6.739  0.3535  1.7605  2.0909
 8253SOL    HW236219   1.632   4.036   6.735 -0.9120  2.8653  2.0092
 8254SOL     OW36220   0.692   2.285   4.415 -0.1111 -0.2945 -0.2384
 8254SOL    HW136221   0.686   2.266   4.321  0.5229  1.2911 -0.5977
 8254SOL    HW236222   0.755   2.218   4.442 -0.1314 -0.8674 -1.6244
 8255SOL     OW36223   2.612   3.159   3.771 -0.8925 -0.0006 -0.6080
 8255SOL    HW136224   2.665   3.085   3.742 -3.1624 -1.9652  0.2892
 8255SOL    HW236225   2.525   3.126   3.751 -1.5306  0.4156  1.4132
 8256SOL     OW36226   2.975   3.797   1.210 -0.1554 -0.2679  0.2417
 8256SOL    HW136227   3.000   3.707   1.231 -1.5404 -0.7503 -0.1800
 8256SOL    HW236228   3.050   3.846   1.242 -1.4596  2.7355 -1.2847
 8257SOL     OW36229   0.750   0.802   5.261  0.6197 -0.3997  0.2431
 8257SOL    HW136230   0.800   0.724   5.286  0.2465  0.5708  4.0965
 8257SOL    HW236231   0.670   0.760   5.231 -0.8025  3.2143 -1.1335
 8258SOL     OW36232   2.015   3.456   5.997  0.0153  0.4080  0.6624
 8258SOL    HW136233   2.109   3.453   6.009  0.0532 -0.0135  0.2278
 8258SOL    HW236234   2.005   3.471   5.903 -0.3900  1.6662  0.8927
 8259SOL     OW36235   2.948   1.483   5.931  0.2480  0.4271 -0.2447
 8259SOL    HW136236   2.959   1.438   6.014 -0.5792 -0.6752 -0.7394
 8259SOL    HW236237   2.984   1.424   5.865  1.4465  1.9965 -0.9965
 8260SOL     OW36238   4.239   1.301  12.150  0.1506 -0.5445 -0.0157
 8260SOL    HW136239   4.244   1.302  12.246 -1.7556 -0.0352  0.0700
 8260SOL    HW236240   4.199   1.216  12.132  0.3808 -1.0047  1.5837
 8261SOL     OW36241   4.210   0.307  12.436 -0.5684 -0.3793  0.4956
 8261SOL    HW136242   4.154   0.378  12.405  0.3920  0.5536  0.8557
 8261SOL    HW236243   4.295   0.351  12.423 -0.7917 -0.3425 -0.8184
 8262SOL     OW36244   1.324   3.228   3.257 -0.0945 -0.4156 -0.4147
 8262SOL    HW136245   1.367   3.217   3.172  0.5535  1.1039 -0.2825
 8262SOL    HW236246   1.237   3.255   3.226 -0.0083 -0.3575 -0.6086
 8263SOL     OW36247   1.638   1.443   3.046  0.6143  0.1338  0.2340
 8263SOL    HW136248   1.712   1.486   3.089  0.3212  1.7068 -0.8431
 8263SOL    HW236249   1.615   1.503   2.976  0.9365 -0.7330 -0.6265
 8264SOL     OW36250   2.089   3.940   6.509  0.3846  0.5533  0.2990
 8264SOL    HW136251   2.027   3.942   6.436  0.5977 -0.6322  0.0935
 8264SOL    HW236252   2.117   3.849   6.503 -1.0956  0.0316  1.2072
 8265SOL     OW36253   1.324   1.570   7.750  0.0376  0.5749  0.1888
 8265SOL    HW136254   1.241   1.530   7.723  2.3422 -2.3788 -2.5380
 8265SOL    HW236255   1.372   1.498   7.791  0.6260  0.5814 -0.4858
 8266SOL     OW36256   4.720   0.355  13.386  0.7732 -0.5402 -0.0984
 8266SOL    HW136257   4.701   0.449  13.394 -0.8603 -1.0652  2.2438
 8266SOL    HW236258   0.056   0.336  13.455 -1.1264  0.3905  1.8848
 8267SOL     OW36259   1.832   3.589  11.879  0.1648  0.5675 -0.6024
 8267SOL    HW136260   1.809   3.523  11.815 -2.5239  1.2647 -0.3711
 8267SOL    HW236261   1.917   3.613  11.841  0.3543  1.9079  0.6539
 8268SOL     OW36262   1.946   1.798  17.210 -0.3437 -0.1887 -0.4487
 8268SOL    HW136263   2.006   1.734  17.247 -1.4538 -0.9762 -0.0384
 8268SOL    HW236264   1.870   1.799  17.268 -0.6674  2.4304 -0.8864
 8269SOL     OW36265   2.824   0.576   6.441  0.1331  0.2645 -0.0306
 8269SOL    HW136266   2.871   0.563   6.359 -1.1553 -2.0221 -0.4040
 8269SOL    HW236267   2.850   0.509   6.504 -0.2862  0.1810  0.0503
 8270SOL     OW36268   0.450   2.767   4.446 -0.4440 -0.6521 -0.6653
 8270SOL    HW136269   0.507   2.691   4.433  0.4140  0.0399 -1.0350
 8270SOL    HW236270   0.392   2.722   4.506  1.6630 -0.3619  1.6009
 8271SOL     OW36271   2.668   2.321   4.446 -0.6022 -0.5465 -0.0994
 8271SOL    HW136272   2.633   2.303   4.359 -2.1551 -1.0165  0.6153
 8271SOL    HW236273   2.665   2.234   4.487 -1.2285  0.4438  1.9424
 8272SOL     OW36274   1.154   0.913   9.382 -0.7052  0.5032 -0.2633
 8272SOL    HW136275   1.118   0.986   9.331  2.0095  0.6365 -2.0143
 8272SOL    HW236276   1.241   0.935   9.415 -1.9839  2.0072  2.1200
 8273SOL     OW36277   3.482   3.383   8.263 -0.0487  0.0262  0.7246
 8273SOL    HW136278   3.531   3.385   8.345 -0.8627  0.1707  1.2074
 8273SOL    HW236279   3.548   3.402   8.197  0.6888 -1.1134  1.1457
 8274SOL     OW36280   4.138   2.445   1.537 -0.2926  0.1877 -0.4577
 8274SOL    HW136281   4.135   2.513   1.470 -1.8367  0.7941  0.2140
 8274SOL    HW236282   4.044   2.435   1.553 -0.2895  1.3619  0.3336
 8275SOL     OW36283   4.053   4.664  15.959  0.1416 -0.7392  0.4370
 8275SOL    HW136284   3.976   4.628  15.915  0.6080 -0.0019 -0.9939
 8275SOL    HW236285   4.114   4.686  15.889 -1.8908  0.9732 -0.7739
 8276SOL     OW36286   3.453   0.887   0.020  0.1992  0.4002 -0.1462
 8276SOL    HW136287   3.369   0.863  17.688 -1.1613  2.6589  1.4156
 8276SOL    HW236288   3.430   0.963   0.073  1.5363  1.0642 -0.5438
 8277SOL     OW36289   1.061   3.728   2.444  0.3658  0.0413  0.6606
 8277SOL    HW136290   1.058   3.642   2.402  1.9171  1.0724 -1.6149
 8277SOL    HW236291   1.048   3.785   2.367  1.2357 -0.9230 -0.2070
 8278SOL     OW36292   2.364   4.131   9.412  0.1086 -0.0625  0.7010
 8278SOL    HW136293   2.405   4.197   9.356 -1.7020  0.6890  0.2834
 8278SOL    HW236294   2.291   4.178   9.451  0.6894  3.2370 -2.2454
 8279SOL     OW36295   1.088   3.797   4.958 -0.5141 -0.3163 -0.1624
 8279SOL    HW136296   1.102   3.849   5.038  2.1101 -0.4659 -0.5420
 8279SOL    HW236297   1.124   3.860   4.895  0.7029 -2.6123 -1.7406
 8280SOL     OW36298   1.254   2.599   0.242 -0.0218 -0.0805  0.4203
 8280SOL    HW136299   1.192   2.667   0.266  1.2602  0.8188  1.1912
 8280SOL    HW236300   1.199   2.535   0.197  0.6942  0.7267 -1.5860
 8281SOL     OW36301   4.179   0.266   5.178  0.6417  0.0377 -0.0366
 8281SOL    HW136302   4.117   0.217   5.123  0.1155  2.0695 -1.2794
 8281SOL    HW236303   4.126   0.283   5.256  1.3532  3.7927 -0.3275
 8282SOL     OW36304   0.203   1.035  11.300 -0.4386  0.3327  1.1437
 8282SOL    HW136305   0.265   0.965  11.279 -0.8179  0.3203  0.0373
 8282SOL    HW236306   0.226   1.060  11.389  0.7724 -0.1714  0.9727
 8283SOL     OW36307   1.911   0.648   9.763  0.1276  0.3654  0.3989
 8283SOL    HW136308   1.916   0.636   9.858  1.9722 -0.3967  0.1943
 8283SOL    HW236309   1.816   0.645   9.746 -0.3199 -2.0701  3.2855
 8284SOL     OW36310   0.887   1.377   7.488  0.4369  0.4369 -0.5094
 8284SOL    HW136311   0.816   1.366   7.551  1.8694 -0.9057  0.8609
 8284SOL    HW236312   0.891   1.296   7.437  2.0216 -0.6125  1.2945
 8285SOL     OW36313   0.434   0.121   6.688 -0.2006 -0.2140 -0.2150
 8285SOL    HW136314   0.345   0.100   6.714 -0.2112 -1.8195 -1.6162
 8285SOL    HW236315   0.474   0.149   6.771  1.3037  1.4516 -1.4946
 8286SOL     OW36316   1.178   2.229  17.318  0.0999 -0.4341 -0.9000
 8286SOL    HW136317   1.184   2.145  17.363  1.8713  1.9601  3.3961
 8286SOL    HW236318   1.155   2.281  17.395  0.7814  1.2152 -1.8055
 8287SOL     OW36319   2.268   3.046   7.252  0.6789  0.7587 -0.7326
 8287SOL    HW136320   2.347   3.017   7.299  0.7517 -1.0412 -1.9590
 8287SOL    HW236321   2.244   2.966   7.206  0.3130 -0.5366  1.7053
 8288SOL     OW36322   1.018   3.833   6.590 -0.3827 -0.2187 -0.3300
 8288SOL    HW136323   0.945   3.895   6.596  1.2105  1.3559  2.3313
 8288SOL    HW236324   1.037   3.804   6.679  1.6718  2.7373  0.1673
 8289SOL     OW36325   1.557   0.254   3.309 -0.5639  0.3756  0.0937
 8289SOL    HW136326   1.484   0.289   3.359 -1.8211  1.6569 -2.6393
 8289SOL    HW236327   1.603   0.336   3.289  1.3546 -0.6349  0.3111
 8290SOL     OW36328   3.284   3.848   0.502  0.1495  1.3052 -0.7297
 8290SOL    HW136329   3.241   3.922   0.459  1.4521  1.9230 -0.9743
 8290SOL    HW236330   3.368   3.889   0.522 -0.2378  0.3204  3.0813
 8291SOL     OW36331   1.701   0.294   9.332 -0.8816 -0.2185 -0.6933
 8291SOL    HW136332   1.705   0.363   9.399  1.2887 -0.2240 -0.7988
 8291SOL    HW236333   1.758   0.230   9.375 -1.9025  0.7357  2.1254
 8292SOL     OW36334   1.899   2.361  15.230 -0.2135  0.0818 -0.9230
 8292SOL    HW136335   1.956   2.357  15.154  1.0349  0.5600 -0.0176
 8292SOL    HW236336   1.866   2.273  15.248  2.6295 -0.9974 -0.9190
 8293SOL     OW36337   3.052   0.073   3.449 -0.5039  0.6747  0.1159
 8293SOL    HW136338   3.020   0.097   3.535 -0.4073  0.7972  0.1168
 8293SOL    HW236339   2.991   0.003   3.426  0.3644  0.4828 -1.6430
 8294SOL     OW36340   0.069   2.939   4.616  0.3485  0.1947  0.3265
 8294SOL    HW136341   0.039   3.009   4.558 -0.3542  0.3715  0.9171
 8294SOL    HW236342   0.130   2.892   4.558  0.2930 -1.0175  1.2599
 8295SOL     OW36343   2.561   1.681   7.640  0.2599 -0.1576  0.0505
 8295SOL    HW136344   2.543   1.732   7.560  1.6344  0.0855 -0.0989
 8295SOL    HW236345   2.474   1.699   7.677  0.8708  0.6960  1.0517
 8296SOL     OW36346   3.299   1.436   3.765 -0.1723  0.1628  0.0772
 8296SOL    HW136347   3.381   1.403   3.801 -0.3229  0.3351  0.5732
 8296SOL    HW236348   3.315   1.529   3.752 -3.8255  0.3802 -3.0061
 8297SOL     OW36349   1.942   3.919  15.762  0.0583 -0.4136 -0.0185
 8297SOL    HW136350   2.018   3.891  15.711  0.3069 -1.3041  0.8594
 8297SOL    HW236351   1.888   3.840  15.770  0.4057 -0.3651  2.8009
 8298SOL     OW36352   4.402   0.330   3.271  0.3220  0.3172  0.5426
 8298SOL    HW136353   4.419   0.424   3.262  0.6539  0.0216 -1.8380
 8298SOL    HW236354   4.461   0.301   3.341  0.5829 -0.8103 -0.1509
 8299SOL     OW36355   3.747   3.184   5.532 -0.0944  0.2675 -0.4176
 8299SOL    HW136356   3.832   3.223   5.513  0.8262 -1.3859  0.2764
 8299SOL    HW236357   3.756   3.158   5.623 -0.4433 -0.5376 -0.6101
 8300SOL     OW36358   1.107   0.520   1.879 -0.0171 -0.2799 -0.2510
 8300SOL    HW136359   1.178   0.583   1.887 -0.7690  0.5448 -0.0376
 8300SOL    HW236360   1.091   0.510   1.785 -1.2940  0.9252 -0.1528
 8301SOL     OW36361   3.242   1.001  14.980  0.4703 -0.4129  0.4324
 8301SOL    HW136362   3.308   1.071  14.984  1.1892 -0.9501 -1.6157
 8301SOL    HW236363   3.293   0.929  14.941  1.9613  0.6504  0.3977
 8302SOL     OW36364   1.695   1.478   5.866  0.3112 -0.1641 -0.2241
 8302SOL    HW136365   1.654   1.501   5.783 -1.4741 -1.1856  0.3748
 8302SOL    HW236366   1.645   1.402   5.895 -0.0874 -0.1279 -0.8191
 8303SOL     OW36367   4.277   2.043   8.881  0.2446  0.4584  0.2285
 8303SOL    HW136368   4.338   2.081   8.944 -1.8059 -0.6690  2.8983
 8303SOL    HW236369   4.306   1.952   8.875  0.7001  0.8357 -2.9129
 8304SOL     OW36370   1.780   3.549   6.635  0.1855 -0.4337  0.0549
 8304SOL    HW136371   1.705   3.503   6.674 -0.4162  0.2282 -0.3072
 8304SOL    HW236372   1.822   3.611   6.695 -2.0633  0.0111  1.1926
 8305SOL     OW36373   0.517   1.217   2.039 -0.1603  0.0340 -0.0957
 8305SOL    HW136374   0.496   1.177   2.123 -1.0801  2.9638  1.0719
 8305SOL    HW236375   0.472   1.301   2.053 -1.9598 -1.1186  1.0127
 8306SOL     OW36376   1.201   1.922   5.169  0.1634 -0.1195 -0.2934
 8306SOL    HW136377   1.296   1.916   5.155  0.3334  1.9011 -0.0293
 8306SOL    HW236378   1.179   1.838   5.128  0.7491 -1.3839  1.9694
 8307SOL     OW36379   2.853   0.780  17.672  0.1850  0.1007  0.1473
 8307SOL    HW136380   2.894   0.865  17.660  1.0851 -0.4440 -0.6292
 8307SOL    HW236381   2.882   0.758   0.053  1.7687  2.0082  0.0938
 8308SOL     OW36382   0.495   4.268   2.908  0.2849  0.6155 -0.2908
 8308SOL    HW136383   0.517   4.358   2.885  2.4031  0.4437  1.0660
 8308SOL    HW236384   0.412   4.275   2.955  0.4262 -0.9187  0.1961
 8309SOL     OW36385   4.412   1.034  12.312  0.2842 -0.2481  0.2668
 8309SOL    HW136386   4.496   1.067  12.344  0.9678 -0.1002 -1.7159
 8309SOL    HW236387   4.354   1.110  12.314  3.0127  1.8351 -0.8031
 8310SOL     OW36388   4.224   2.791   6.017  0.0252 -0.2737  0.2393
 8310SOL    HW136389   4.185   2.802   6.104  0.3139 -0.1755  0.3552
 8310SOL    HW236390   4.300   2.844   6.038 -0.0752  0.0562 -0.2383
 8311SOL     OW36391   2.949   3.851   1.670 -0.0892 -0.3604  0.3638
 8311SOL    HW136392   2.970   3.850   1.763  0.4788  0.1766  0.2420
 8311SOL    HW236393   3.026   3.804   1.637  0.1329  1.0675 -1.1928
 8312SOL     OW36394   0.774   1.266   0.494 -0.1128  0.5782  0.3495
 8312SOL    HW136395   0.844   1.203   0.510 -0.9608 -0.3571  0.3851
 8312SOL    HW236396   0.731   1.220   0.422 -0.3078  0.1255  0.7538
 8313SOL     OW36397   2.263   4.051   0.460  0.2569  0.7204 -0.4546
 8313SOL    HW136398   2.223   4.002   0.388  1.1412 -2.8218  1.4866
 8313SOL    HW236399   2.191   4.053   0.522  0.8525 -0.0569  0.2545
 8314SOL     OW36400   3.890   0.555   6.454  0.3795 -0.1031  0.4406
 8314SOL    HW136401   3.903   0.465   6.423  0.7494  0.3020 -0.5819
 8314SOL    HW236402   3.947   0.557   6.531 -2.0739 -2.0763  2.2873
 8315SOL     OW36403   3.846   2.852   5.570 -0.0011 -0.9121  0.0778
 8315SOL    HW136404   3.917   2.906   5.534 -0.8298  0.8578  1.1434
 8315SOL    HW236405   3.892   2.776   5.607 -0.9109 -0.7303  1.5660
 8316SOL     OW36406   1.022   1.494   4.890 -0.1978 -0.1715  0.2846
 8316SOL    HW136407   1.085   1.424   4.904  0.1254 -0.4149 -2.4030
 8316SOL    HW236408   0.942   1.442   4.889  0.7085 -1.5568  0.1484
 8317SOL     OW36409   4.092   2.674   6.513 -0.3644 -0.1039 -0.3841
 8317SOL    HW136410   4.057   2.718   6.590 -0.9281 -2.2119  0.5613
 8317SOL    HW236411   4.087   2.583   6.542  1.5639 -0.7282 -2.0030
 8318SOL     OW36412   0.291   1.257   8.237  0.1161  0.0234 -0.5292
 8318SOL    HW136413   0.201   1.223   8.236  0.4886 -0.9982  2.8496
 8318SOL    HW236414   0.289   1.348   8.205  2.7052  0.6608  1.1568
 8319SOL     OW36415   1.877   4.304   7.427 -0.1618 -0.2537  0.2096
 8319SOL    HW136416   1.912   4.329   7.513  0.9521  1.1882 -0.6637
 8319SOL    HW236417   1.782   4.299   7.440 -0.3707 -0.3176 -1.3743
 8320SOL     OW36418   1.131   3.199   2.828  0.2735  0.3022  0.6675
 8320SOL    HW136419   1.131   3.113   2.871 -0.9212 -0.6944 -1.2710
 8320SOL    HW236420   1.205   3.245   2.867  2.4348 -0.0833 -2.9454
 8321SOL     OW36421   3.285   1.622   7.248  1.0882 -0.5406  0.0301
 8321SOL    HW136422   3.267   1.530   7.271 -0.3201 -0.2262  0.1689
 8321SOL    HW236423   3.204   1.670   7.229  2.3154  1.5538  0.1054
 8322SOL     OW36424   2.746   1.517   5.450 -0.0303  0.6980 -0.4443
 8322SOL    HW136425   2.836   1.547   5.466  0.2898 -1.0150  0.9538
 8322SOL    HW236426   2.702   1.602   5.452 -2.8033 -0.7563  0.2721
 8323SOL     OW36427   3.205   1.239   6.135  0.3134 -0.0189 -0.1460
 8323SOL    HW136428   3.244   1.172   6.191 -0.2924 -2.1294 -2.2244
 8323SOL    HW236429   3.261   1.244   6.057  0.0537 -2.3150 -0.4961
 8324SOL     OW36430   2.119   1.465   4.922  0.3581 -0.6949 -0.1378
 8324SOL    HW136431   2.140   1.463   4.828 -1.5380  0.2290 -0.5741
 8324SOL    HW236432   2.101   1.557   4.938 -0.5304 -0.7516 -0.8022
 8325SOL     OW36433   1.934   2.139   4.270  0.0325 -0.0426  0.0965
 8325SOL    HW136434   1.909   2.190   4.192  0.4561  1.9878  1.2853
 8325SOL    HW236435   1.850   2.136   4.317 -0.1760  0.0239 -0.2661
 8326SOL     OW36436   1.293   1.536   0.663 -0.4908  0.5224 -0.2412
 8326SOL    HW136437   1.386   1.549   0.681 -0.7490  0.6202  1.0734
 8326SOL    HW236438   1.295   1.548   0.568  0.2071 -0.7514 -0.3866
 8327SOL     OW36439   2.638   2.795   0.617  0.5002 -0.6169 -0.0309
 8327SOL    HW136440   2.694   2.873   0.621 -2.8538  1.7424  0.4127
 8327SOL    HW236441   2.571   2.811   0.684 -0.3985 -0.9844 -0.8515
 8328SOL     OW36442   3.334   4.430  12.392  0.1723 -0.2012  0.1523
 8328SOL    HW136443   3.427   4.448  12.409  0.4258 -0.0055 -1.4261
 8328SOL    HW236444   3.315   4.486  12.317 -0.4078 -1.0961 -0.3677
 8329SOL     OW36445   2.968   2.858   5.371  0.1516 -0.2202 -0.0263
 8329SOL    HW136446   2.983   2.873   5.277 -1.0832 -3.3778 -0.7142
 8329SOL    HW236447   2.911   2.935   5.380  0.6408  0.2424 -0.8494
 8330SOL     OW36448   1.961   0.394  13.615 -0.3040 -0.2452  0.3569
 8330SOL    HW136449   1.888   0.452  13.638 -0.1069  0.6792 -1.3112
 8330SOL    HW236450   2.009   0.390  13.697 -1.6098 -0.0782  1.1367
 8331SOL     OW36451   2.200   4.032   7.401 -0.2177 -0.3250 -0.2915
 8331SOL    HW136452   2.251   4.079   7.466 -0.6968  0.7783 -0.7170
 8331SOL    HW236453   2.232   3.944   7.420  0.5910  0.0715  0.1359
 8332SOL     OW36454   0.979   4.482   3.133  0.3750 -0.6352 -0.3551
 8332SOL    HW136455   1.040   4.450   3.066  0.1190 -0.7742 -0.5217
 8332SOL    HW236456   1.021   4.444   3.210 -1.1328 -0.9150  0.3278
 8333SOL     OW36457   0.938   0.037   2.906 -0.2572 -0.5594 -0.1362
 8333SOL    HW136458   0.851   0.001   2.890 -0.6366  0.6517 -0.7656
 8333SOL    HW236459   0.995   4.710   2.850  0.1951 -0.7542  0.5162
 8334SOL     OW36460   1.296   4.463   2.219 -0.4649 -0.0077  0.2148
 8334SOL    HW136461   1.286   4.467   2.315 -0.9195 -0.6888  0.1924
 8334SOL    HW236462   1.321   4.552   2.196 -1.6855  0.6459  1.4093
 8335SOL     OW36463   3.276   3.145  13.938  0.2682  0.2256 -0.0959
 8335SOL    HW136464   3.336   3.217  13.919  1.5507 -0.3651  1.6707
 8335SOL    HW236465   3.331   3.073  13.906 -0.6218 -0.7161  0.4942
 8336SOL     OW36466   3.640   4.652   6.294 -0.0897 -0.2705  0.0400
 8336SOL    HW136467   3.723   4.609   6.313  0.1380  0.2799  0.2909
 8336SOL    HW236468   3.600   4.689   6.373 -0.7309  1.9476 -1.3151
 8337SOL     OW36469   1.876   0.570  15.509  0.4294 -0.0346  0.2491
 8337SOL    HW136470   1.846   0.630  15.442  1.8261 -0.0403 -0.3946
 8337SOL    HW236471   1.820   0.589  15.585  0.0471 -0.4419  0.0708
 8338SOL     OW36472   3.126   2.451   3.953 -0.7415  0.7969  0.2656
 8338SOL    HW136473   3.095   2.482   3.868 -0.0630 -0.1688 -0.3321
 8338SOL    HW236474   3.161   2.535   3.982 -0.2435  0.4983  0.5356
 8339SOL     OW36475   3.846   0.908   2.602  0.4125  0.3606 -0.0792
 8339SOL    HW136476   3.829   0.891   2.694 -0.6856  0.2757 -0.3011
 8339SOL    HW236477   3.815   0.829   2.558  1.0210  0.8467 -1.3881
 8340SOL     OW36478   1.907   0.244   1.945 -0.7051 -0.2484  0.5151
 8340SOL    HW136479   1.903   0.324   1.996  3.3608 -0.5643  1.3640
 8340SOL    HW236480   1.853   0.269   1.871  2.2297 -0.0183 -1.5608
 8341SOL     OW36481   1.624   4.260   5.022 -0.0469  0.2604  0.4277
 8341SOL    HW136482   1.696   4.223   5.074 -1.1984 -2.4124  0.1470
 8341SOL    HW236483   1.631   4.355   5.027  0.0843  0.3005 -0.6715
 8342SOL     OW36484   1.713   2.072   3.107 -0.0112 -0.6905  0.0374
 8342SOL    HW136485   1.665   2.040   3.031  0.4980 -0.6780 -0.2894
 8342SOL    HW236486   1.670   2.158   3.110 -0.4289 -0.9258  0.5705
 8343SOL     OW36487   3.780   1.571   3.446  0.4146 -0.2441  1.0709
 8343SOL    HW136488   3.691   1.566   3.412  0.1538 -1.4097  1.9073
 8343SOL    HW236489   3.831   1.518   3.385 -0.0464 -0.2405  0.6858
 8344SOL     OW36490   2.413   4.090   4.664  0.1326  0.1960  0.0904
 8344SOL    HW136491   2.483   4.133   4.616  1.2786  1.1564  2.6219
 8344SOL    HW236492   2.443   3.999   4.668  3.0808  1.2347  1.5674
 8345SOL     OW36493   2.091   0.922   5.230 -0.4636 -0.0870  0.4768
 8345SOL    HW136494   2.115   0.929   5.138  1.3551 -0.0236  0.9570
 8345SOL    HW236495   2.157   0.857   5.253 -2.5041 -1.8333  1.3727
 8346SOL     OW36496   3.595   0.275  13.012 -0.2291  0.5139 -0.0540
 8346SOL    HW136497   3.646   0.355  13.026 -0.0268  0.3962 -0.1104
 8346SOL    HW236498   3.518   0.315  12.972 -0.5056 -0.5604 -0.5952
 8347SOL     OW36499   1.973   3.208  11.597  0.4546  0.6637  0.2863
 8347SOL    HW136500   1.927   3.146  11.540  1.0731  0.2977  0.1915
 8347SOL    HW236501   2.002   3.148  11.665 -1.5254 -0.0172  0.5388
 8348SOL     OW36502   2.171   3.101   8.783  0.5072  0.3746  0.0902
 8348SOL    HW136503   2.200   3.190   8.804  2.0305 -0.3477  1.0172
 8348SOL    HW236504   2.197   3.052   8.861  2.3601  1.0446 -0.1020
 8349SOL     OW36505   0.174   2.405   1.982 -0.1210 -0.0416  0.7666
 8349SOL    HW136506   0.085   2.383   1.953  0.4493 -1.5093  0.1471
 8349SOL    HW236507   0.227   2.335   1.945 -2.5390 -0.8471 -1.1966
 8350SOL     OW36508   0.012   4.185   4.709  0.2040  0.4717  0.2986
 8350SOL    HW136509   0.093   4.150   4.747 -0.0323 -2.0330 -1.4565
 8350SOL    HW236510   0.009   4.125   4.634 -0.4994  1.3826 -0.3876
 8351SOL     OW36511   2.600   0.196   2.062 -0.0497 -0.3221 -0.1252
 8351SOL    HW136512   2.625   0.263   2.126 -0.8965  0.5198 -0.6644
 8351SOL    HW236513   2.553   0.125   2.105  1.3679 -1.4979 -0.5189
 8352SOL     OW36514   4.099   3.046  17.274  0.1448 -0.1733 -0.4784
 8352SOL    HW136515   4.182   3.068  17.314  0.9574  0.6639 -2.6003
 8352SOL    HW236516   4.125   2.956  17.258 -0.7129 -0.5109 -0.0064
 8353SOL     OW36517   2.862   2.337  15.662  0.0103 -0.1601 -0.0825
 8353SOL    HW136518   2.910   2.396  15.719  0.3247 -0.2255 -0.2831
 8353SOL    HW236519   2.770   2.355  15.684  0.3447  0.2326  0.9797
 8354SOL     OW36520   3.098   1.816   0.113  0.2900 -0.3633 -0.0969
 8354SOL    HW136521   3.003   1.826   0.100  0.6297  1.0036 -1.5216
 8354SOL    HW236522   3.123   1.908   0.124  0.0338 -0.0748 -1.8631
 8355SOL     OW36523   2.210   0.748  12.410 -0.3344  0.0778  0.1780
 8355SOL    HW136524   2.215   0.657  12.440 -1.0712 -0.0240 -0.0055
 8355SOL    HW236525   2.300   0.759  12.381  0.2286 -1.8173  1.1684
 8356SOL     OW36526   0.122   2.446   5.569 -0.1850 -0.8911  0.2718
 8356SOL    HW136527   0.046   2.495   5.602  0.9883  0.1059  1.4992
 8356SOL    HW236528   0.095   2.355   5.559 -0.3073 -0.8885  0.5800
 8357SOL     OW36529   4.246   1.307   7.033 -0.1207 -0.0811  0.1683
 8357SOL    HW136530   4.175   1.340   6.978  2.5510  0.6696 -2.8363
 8357SOL    HW236531   4.216   1.333   7.120 -2.1447  0.3263 -0.6562
 8358SOL     OW36532   4.632   2.900   4.835 -0.5589  0.0905 -0.5504
 8358SOL    HW136533   4.687   2.936   4.905 -1.5462 -1.7042  1.1557
 8358SOL    HW236534   4.691   2.912   4.761  0.3584  0.0966  0.1818
 8359SOL     OW36535   0.137   1.629   9.194 -0.3509 -0.1794  0.0577
 8359SOL    HW136536   0.130   1.673   9.109  0.7381 -2.0741 -1.0125
 8359SOL    HW236537   0.185   1.549   9.170 -0.6321  0.0459 -1.2751
 8360SOL     OW36538   2.262   4.622   8.601 -0.3545 -0.3635 -0.4859
 8360SOL    HW136539   2.354   4.620   8.628 -0.0954 -1.7389 -1.4667
 8360SOL    HW236540   2.246   4.528   8.594  0.9170 -0.5835 -0.4578
 8361SOL     OW36541   3.123   3.823  12.979  0.1667 -0.2570 -0.0644
 8361SOL    HW136542   3.031   3.831  12.955 -0.2584 -1.9543  1.0303
 8361SOL    HW236543   3.135   3.732  13.006 -0.7130 -0.6523 -1.0128
 8362SOL     OW36544   4.410   1.595   7.285 -0.6300  0.2480  0.0670
 8362SOL    HW136545   4.402   1.626   7.375 -2.1168 -0.5965  0.2363
 8362SOL    HW236546   4.320   1.617   7.258 -0.2999  0.3902 -0.9162
 8363SOL     OW36547   2.985   3.357   4.119  0.1084 -0.3149 -0.0301
 8363SOL    HW136548   2.966   3.325   4.030 -1.0732 -1.4532  0.6298
 8363SOL    HW236549   3.047   3.427   4.098 -1.1369  0.6928 -0.3410
 8364SOL     OW36550   2.931   4.050   9.070 -0.6221 -0.3849  0.4039
 8364SOL    HW136551   2.874   4.092   9.135  0.6604  1.1884  0.5139
 8364SOL    HW236552   3.001   4.116   9.069 -0.8358 -0.1774 -0.5647
 8365SOL     OW36553   4.713   0.579   2.632  0.2641 -0.2033 -0.3623
 8365SOL    HW136554   4.662   0.661   2.634  0.3064 -0.2004  0.7345
 8365SOL    HW236555   0.071   0.608   2.599 -0.2359  0.3149 -1.2015
 8366SOL     OW36556   4.055   1.376   6.837  0.1363 -0.4488  0.2093
 8366SOL    HW136557   4.035   1.306   6.775  1.0411  0.0983 -0.7074
 8366SOL    HW236558   3.972   1.388   6.883 -0.7812 -0.3231 -1.4515
 8367SOL     OW36559   3.889   0.115   6.044  0.2544 -0.0086  0.0138
 8367SOL    HW136560   3.962   0.139   6.100 -0.4489  1.8944  0.1161
 8367SOL    HW236561   3.925   0.040   5.996 -2.5519  0.2986 -2.5700
 8368SOL     OW36562   4.723   0.940   7.377 -0.5021 -0.1674 -0.1048
 8368SOL    HW136563   4.644   0.885   7.375 -2.0813  2.1957 -2.1429
 8368SOL    HW236564   0.050   0.898   7.310  0.3912 -0.4535  0.7878
 8369SOL     OW36565   0.755   0.673   3.563 -0.4320 -0.4749  0.1701
 8369SOL    HW136566   0.680   0.711   3.515 -0.1960  2.2192  1.9330
 8369SOL    HW236567   0.721   0.614   3.630 -2.4732 -1.2302 -1.5369
 8370SOL     OW36568   2.482   3.379  15.793 -0.2244  0.0752 -0.1362
 8370SOL    HW136569   2.550   3.393  15.727  0.5660  1.0746  0.8900
 8370SOL    HW236570   2.411   3.332  15.750  0.3610 -1.3262  0.4349
 8371SOL     OW36571   1.840   3.670   2.705 -0.8787  0.7215 -0.1009
 8371SOL    HW136572   1.847   3.598   2.767  0.1339 -0.9058 -2.1022
 8371SOL    HW236573   1.756   3.662   2.660 -0.4813  1.5498 -0.9850
 8372SOL     OW36574   2.319   4.658   5.109  0.1128  0.0645 -0.0748
 8372SOL    HW136575   2.327   4.582   5.166  1.1436 -0.4766 -0.9369
 8372SOL    HW236576   2.353   4.633   5.023  0.2295 -1.7212  0.4981
 8373SOL     OW36577   2.973   4.364   0.053  0.0962 -0.6386 -0.0941
 8373SOL    HW136578   2.939   4.441   0.100  3.8996  1.4086 -0.7035
 8373SOL    HW236579   3.062   4.399   0.044 -0.4347  0.6719 -0.3762
 8374SOL     OW36580   0.718   3.380   2.522 -0.2931  0.6075 -0.0201
 8374SOL    HW136581   0.795   3.379   2.578 -0.3335  1.4543  0.0623
 8374SOL    HW236582   0.645   3.359   2.580  0.4208 -0.4661  0.4738
 8375SOL     OW36583   4.560   2.077   9.683  0.1493  0.1552  0.5524
 8375SOL    HW136584   4.618   2.022   9.736  2.1553 -1.9977 -3.9079
 8375SOL    HW236585   4.497   2.006   9.675  0.2187  0.1281  0.2516
 8376SOL     OW36586   2.814   0.834   4.445 -0.2220 -0.1345 -0.5874
 8376SOL    HW136587   2.745   0.877   4.495 -0.7376  0.4923 -1.8573
 8376SOL    HW236588   2.830   0.891   4.370 -1.2324  0.4821 -0.3236
 8377SOL     OW36589   0.456   4.094   4.533 -0.3139  0.1545  0.2693
 8377SOL    HW136590   0.501   4.015   4.504 -2.0507 -0.8895  0.4293
 8377SOL    HW236591   0.377   4.057   4.573 -0.6622 -0.9110 -1.3826
 8378SOL     OW36592   1.155   0.616   5.646  0.3290 -0.7014  0.4909
 8378SOL    HW136593   1.243   0.608   5.610 -0.3288  0.3235 -1.3340
 8378SOL    HW236594   1.136   0.703   5.610 -2.7916 -1.1205  1.1175
 8379SOL     OW36595   1.485   3.390   4.682  0.4137 -0.6262 -0.5806
 8379SOL    HW136596   1.516   3.389   4.773  1.4892  1.2433 -0.9354
 8379SOL    HW236597   1.555   3.373   4.619  1.4146  1.2064  0.0473
 8380SOL     OW36598   0.022   2.564  12.968 -0.6523  0.3294  0.1300
 8380SOL    HW136599   4.704   2.601  12.891  0.1477  1.5124  0.2391
 8380SOL    HW236600   0.112   2.591  12.949 -0.9685  0.7353 -0.7933
 8381SOL     OW36601   0.206   4.409  14.767  0.2765 -0.0970  0.2922
 8381SOL    HW136602   0.128   4.460  14.789  0.5293 -0.3930  1.9267
 8381SOL    HW236603   0.173   4.320  14.753 -1.2610  0.7153 -1.1919
 8382SOL     OW36604   2.341   4.698   9.200 -0.7010  0.0756  0.1281
 8382SOL    HW136605   2.298   0.033   9.259 -0.1722  1.1573 -0.6234
 8382SOL    HW236606   2.421   0.020   9.182 -1.5015  1.2300 -0.2910
 8383SOL     OW36607   3.272   2.251  14.693  0.2780 -0.2446  0.0307
 8383SOL    HW136608   3.327   2.216  14.623 -0.8938  1.1450 -1.5713
 8383SOL    HW236609   3.348   2.271  14.749 -0.0323 -1.7093  0.9719
 8384SOL     OW36610   2.650   0.987   4.605  0.8598 -0.1444  0.4213
 8384SOL    HW136611   2.602   0.973   4.686  2.4078 -0.1962  1.3227
 8384SOL    HW236612   2.653   1.082   4.597  1.3306 -0.3470 -1.8422
 8385SOL     OW36613   1.450   0.707   9.010  0.5168 -0.3221  0.5745
 8385SOL    HW136614   1.414   0.751   8.933 -1.2217  0.9804  2.1444
 8385SOL    HW236615   1.504   0.637   8.973  1.4034 -0.2512  1.7486
 8386SOL     OW36616   0.767   0.955   4.998 -0.6988  0.3117 -0.7182
 8386SOL    HW136617   0.860   0.941   4.978 -0.6675  0.2202 -0.5063
 8386SOL    HW236618   0.771   0.956   5.094 -0.0710  0.4786 -0.7450
 8387SOL     OW36619   0.254   0.919   5.188 -0.0726  0.2810 -0.9546
 8387SOL    HW136620   0.245   0.945   5.096 -0.0208  1.1867 -0.7092
 8387SOL    HW236621   0.306   0.990   5.226  1.6622 -0.7417 -1.4264
 8388SOL     OW36622   1.143   3.309   8.278 -0.0422 -0.3060 -0.0775
 8388SOL    HW136623   1.225   3.311   8.327 -0.2087  0.0498  0.1844
 8388SOL    HW236624   1.137   3.222   8.238 -1.6703  0.0054 -0.5133
 8389SOL     OW36625   3.209   2.577   9.727 -0.0708  0.2009 -0.1609
 8389SOL    HW136626   3.249   2.507   9.676 -2.7489 -2.0018  0.7773
 8389SOL    HW236627   3.136   2.603   9.670  0.3797 -0.9759 -1.2831
 8390SOL     OW36628   2.762   1.574  12.972 -0.0230 -0.6210  0.3225
 8390SOL    HW136629   2.839   1.519  12.985  1.9572  1.6881 -1.6860
 8390SOL    HW236630   2.744   1.559  12.879  1.4219 -0.0317 -0.0400
 8391SOL     OW36631   2.094   2.533  15.707  0.0172  0.0821  0.0203
 8391SOL    HW136632   2.041   2.612  15.710 -0.2505 -0.0483 -1.3633
 8391SOL    HW236633   2.174   2.572  15.743 -0.0196  0.4427 -0.2866
 8392SOL     OW36634   2.298   1.762   6.855  0.0080 -0.0655 -0.3801
 8392SOL    HW136635   2.240   1.693   6.887 -0.2363 -0.2126 -1.1385
 8392SOL    HW236636   2.359   1.758   6.928 -0.1375  3.0150 -0.0815
 8393SOL     OW36637   1.973   3.990   1.964  0.2822 -0.6810  0.1091
 8393SOL    HW136638   1.951   4.075   1.926  0.8079 -1.0398 -0.9893
 8393SOL    HW236639   2.066   3.985   1.943  0.1855  0.9164 -0.7609
 8394SOL     OW36640   0.068   0.543   1.566  0.0226  0.2652 -0.5731
 8394SOL    HW136641   4.702   0.560   1.547 -0.6221 -2.8164 -0.2205
 8394SOL    HW236642   0.086   0.451   1.546  2.3033  0.0954  2.2649
 8395SOL     OW36643   2.568   0.907   4.927  0.0603 -0.0981  0.0538
 8395SOL    HW136644   2.550   0.953   5.009  1.6696  0.3281  0.1764
 8395SOL    HW236645   2.535   0.819   4.944 -0.0851 -0.4088 -1.7967
 8396SOL     OW36646   4.001   1.742   1.229  0.8758  0.3778 -0.0510
 8396SOL    HW136647   4.095   1.745   1.211  0.8760  1.3109  0.1205
 8396SOL    HW236648   3.994   1.708   1.318 -1.4154 -1.3472 -0.8807
 8397SOL     OW36649   1.491   2.902   5.996  0.1454  0.1104  0.1908
 8397SOL    HW136650   1.549   2.841   5.951 -1.0175 -1.3190  0.6565
 8397SOL    HW236651   1.553   2.960   6.041 -0.9327  0.3720  1.3356
 8398SOL     OW36652   4.234   4.210   1.513 -0.6182 -0.2411 -0.0437
 8398SOL    HW136653   4.301   4.248   1.456 -1.8742 -1.0611 -2.0358
 8398SOL    HW236654   4.160   4.261   1.482 -0.4105  0.2816  0.3129
 8399SOL     OW36655   1.457   1.610  12.827  0.0861 -0.2231 -0.1029
 8399SOL    HW136656   1.519   1.639  12.761  1.9614 -1.5356  1.0813
 8399SOL    HW236657   1.504   1.535  12.861 -0.4688  0.0222  1.2476
 8400SOL     OW36658   1.405   3.376   3.493 -0.6855  0.3541 -0.4911
 8400SOL    HW136659   1.409   3.334   3.406  1.8638 -1.7631  0.6265
 8400SOL    HW236660   1.338   3.320   3.531 -0.9372  0.0729 -1.3348
 8401SOL     OW36661   3.521   0.768   4.740  0.1207 -0.5730  0.1195
 8401SOL    HW136662   3.584   0.823   4.787  0.1394  0.2085 -0.8282
 8401SOL    HW236663   3.447   0.828   4.744  0.6765  0.2593 -2.2045
 8402SOL     OW36664   0.974   2.943   5.987  0.3128  0.3568  0.2970
 8402SOL    HW136665   0.889   2.959   5.946  0.6066  1.6622  0.1950
 8402SOL    HW236666   1.026   2.927   5.908  1.7805 -1.0745  1.5396
 8403SOL     OW36667   3.540   0.911   5.703 -0.2301 -0.1017  0.4420
 8403SOL    HW136668   3.554   0.838   5.642  0.1097 -2.2757  3.1325
 8403SOL    HW236669   3.473   0.879   5.764 -1.7950  1.9875 -0.1571
 8404SOL     OW36670   2.544   1.746  13.038 -0.1948 -0.6374  0.6636
 8404SOL    HW136671   2.612   1.681  13.019  1.5039  1.0259  1.0345
 8404SOL    HW236672   2.546   1.802  12.960  1.1936 -0.1492  1.0514
 8405SOL     OW36673   0.680   3.216  14.305  0.1324 -0.2474 -0.1214
 8405SOL    HW136674   0.765   3.175  14.326  0.3008  1.4853  2.5899
 8405SOL    HW236675   0.625   3.176  14.373 -0.9010 -0.0319 -0.8392
 8406SOL     OW36676   3.189   0.129  10.188  0.0232 -0.3283  0.5116
 8406SOL    HW136677   3.264   0.190  10.186 -1.8421  1.9900  1.9210
 8406SOL    HW236678   3.154   0.158  10.103 -1.7005 -0.2865  1.2473
 8407SOL     OW36679   4.207   4.337   3.314  0.3289  0.5138 -0.3624
 8407SOL    HW136680   4.183   4.402   3.248  0.6406  0.3218 -0.6593
 8407SOL    HW236681   4.264   4.279   3.265 -0.9412 -2.5833  1.7986
 8408SOL     OW36682   4.091   1.643   4.222  0.9657  0.2328  0.3444
 8408SOL    HW136683   4.152   1.716   4.213  0.3057  0.7005 -0.2841
 8408SOL    HW236684   4.024   1.670   4.159 -0.2713 -0.5504  1.3300
 8409SOL     OW36685   1.417   4.034  10.374  0.0522  0.6540 -0.6682
 8409SOL    HW136686   1.329   4.033  10.410  0.6449  1.3538  0.8151
 8409SOL    HW236687   1.423   3.945  10.340  1.0161  0.7881 -0.8769
 8410SOL     OW36688   2.226   3.868   3.922  0.1672 -0.7233 -0.0183
 8410SOL    HW136689   2.274   3.850   4.003  1.2356  0.8354 -0.2960
 8410SOL    HW236690   2.135   3.847   3.942  0.6179 -1.2761  1.4796
 8411SOL     OW36691   3.648   2.361   6.603 -0.4110 -0.8893  0.2060
 8411SOL    HW136692   3.684   2.415   6.673 -0.5451 -0.4142 -0.0943
 8411SOL    HW236693   3.586   2.418   6.558  1.0319 -0.0083 -0.6509
 8412SOL     OW36694   2.261   4.669  12.549  0.2696 -0.4752  0.1529
 8412SOL    HW136695   2.192   0.008  12.539 -1.4904 -2.2317  0.9576
 8412SOL    HW236696   2.220   4.611  12.612  0.5304 -1.0002 -0.1638
 8413SOL     OW36697   0.192   4.005  14.511  0.5256  0.2906 -0.1228
 8413SOL    HW136698   0.251   4.046  14.448  1.2093  0.8897  0.9209
 8413SOL    HW236699   0.188   3.916  14.475 -0.7474  1.1582 -2.1728
 8414SOL     OW36700   1.116   3.476   6.319 -0.2765  0.6270  0.2433
 8414SOL    HW136701   1.100   3.471   6.225 -0.4264  0.0186  0.3034
 8414SOL    HW236702   1.035   3.523   6.338 -0.0077  1.2723 -0.1924
 8415SOL     OW36703   1.264   0.004   2.119  0.2240  0.2880  0.1627
 8415SOL    HW136704   1.179   4.726   2.075  1.1722 -1.4182 -1.4881
 8415SOL    HW236705   1.303   0.068   2.060 -2.7615  1.6053 -0.4129
 8416SOL     OW36706   1.944   1.982   0.290  0.4593  0.2349  0.5212
 8416SOL    HW136707   1.973   1.896   0.260 -2.2146 -0.7614  0.7789
 8416SOL    HW236708   1.894   2.006   0.212 -0.9500 -1.4513  0.9256
 8417SOL     OW36709   1.110   1.941   2.609 -0.0733  0.8384 -0.5952
 8417SOL    HW136710   1.075   1.930   2.520 -1.3487 -0.0115  0.0119
 8417SOL    HW236711   1.133   2.034   2.611  0.1601  0.7829 -0.7069
 8418SOL     OW36712   0.915   3.285   4.285 -0.3882  0.2883 -0.4831
 8418SOL    HW136713   0.964   3.344   4.341 -0.3945 -0.4843  0.3430
 8418SOL    HW236714   0.961   3.297   4.202  1.1596 -0.6657  0.2439
 8419SOL     OW36715   1.217   2.571   2.462 -0.0813 -0.2464 -0.1546
 8419SOL    HW136716   1.263   2.611   2.536 -1.9973 -1.9699  1.9476
 8419SOL    HW236717   1.238   2.639   2.398 -1.7666 -1.5876 -2.1478
 8420SOL     OW36718   4.569   1.121   6.642 -0.1020  0.2098  0.8133
 8420SOL    HW136719   4.477   1.144   6.629 -0.1825  0.4816  1.8486
 8420SOL    HW236720   4.593   1.208   6.610 -0.1021 -0.5841 -1.3470
 8421SOL     OW36721   0.643   1.981   0.399 -0.7031 -0.2010  0.1065
 8421SOL    HW136722   0.611   2.043   0.333  0.1495 -1.1359 -1.2005
 8421SOL    HW236723   0.706   2.039   0.442 -0.9097  0.1583 -0.0749
 8422SOL     OW36724   0.332   0.845   4.369  0.0653 -0.3175  0.8808
 8422SOL    HW136725   0.413   0.849   4.319 -0.8553 -0.2894 -0.6175
 8422SOL    HW236726   0.268   0.880   4.307  1.4392  2.2238  0.9072
 8423SOL     OW36727   3.572   2.769  15.362 -0.2293 -0.8746 -0.1869
 8423SOL    HW136728   3.542   2.795  15.274  0.1008  3.3880  0.9819
 8423SOL    HW236729   3.649   2.720  15.334 -0.3801 -0.7667 -0.8046
 8424SOL     OW36730   4.614   4.113   8.522 -0.1530  0.0597 -0.4158
 8424SOL    HW136731   4.547   4.103   8.589 -0.5453 -0.2239 -0.8453
 8424SOL    HW236732   4.687   4.084   8.578 -0.4224  0.3261  0.0692
 8425SOL     OW36733   1.739   1.757   9.085 -0.1615 -0.4072 -0.4144
 8425SOL    HW136734   1.728   1.662   9.086 -0.7731 -0.3318  0.1249
 8425SOL    HW236735   1.806   1.763   9.153  1.0278 -0.2050 -1.6225
 8426SOL     OW36736   1.671   0.135   3.044 -0.1788 -0.0757 -0.0377
 8426SOL    HW136737   1.631   0.222   3.045  1.5827  0.7422 -0.5339
 8426SOL    HW236738   1.685   0.125   3.138  0.1752  0.1921 -0.0611
 8427SOL     OW36739   2.012   1.343   4.494  0.0870 -0.4731 -0.7019
 8427SOL    HW136740   2.102   1.354   4.526  0.0925 -0.5231 -0.7014
 8427SOL    HW236741   2.008   1.248   4.482  1.6801 -0.4763 -1.2032
 8428SOL     OW36742   1.234   3.522  12.891  0.7207 -0.5184 -0.1795
 8428SOL    HW136743   1.304   3.554  12.948 -0.0714  1.2034 -0.1854
 8428SOL    HW236744   1.174   3.483  12.954 -1.6286  0.6687 -1.6992
 8429SOL     OW36745   0.591   0.893   1.714  0.0588  0.5109  0.4804
 8429SOL    HW136746   0.623   0.943   1.789 -2.8914  0.0295  2.0631
 8429SOL    HW236747   0.666   0.909   1.657 -0.6336 -1.3195 -0.9634
 8430SOL     OW36748   4.234   2.748  16.199  0.4216  0.1973 -0.4421
 8430SOL    HW136749   4.188   2.688  16.258  1.1359  0.8398  0.7785
 8430SOL    HW236750   4.314   2.759  16.251 -0.1966  0.1141  0.5355
 8431SOL     OW36751   0.319   2.382   8.353  0.0470  0.0326 -0.4773
 8431SOL    HW136752   0.287   2.460   8.398 -0.5004  0.0671 -0.9179
 8431SOL    HW236753   0.379   2.414   8.285  1.6930  0.1416  1.0445
 8432SOL     OW36754   3.108   4.048   9.650 -0.0182  0.1026 -0.2328
 8432SOL    HW136755   3.106   4.100   9.569 -0.7882 -0.5177 -0.6125
 8432SOL    HW236756   3.129   3.959   9.622  3.3435  0.8880 -0.2508
 8433SOL     OW36757   0.409   2.989   6.948  0.1507 -0.0820 -0.5334
 8433SOL    HW136758   0.379   3.007   7.037  0.7087 -0.1667 -0.3245
 8433SOL    HW236759   0.448   2.902   6.946  1.3833  0.4919 -1.4328
 8434SOL     OW36760   3.913   1.339   1.921  0.3458  0.7142  0.1546
 8434SOL    HW136761   3.986   1.399   1.905  3.2510 -3.9626 -4.0942
 8434SOL    HW236762   3.843   1.402   1.939 -0.1261  0.5608 -1.1711
 8435SOL     OW36763   4.311   1.392   1.024  0.1434 -0.6883 -0.4281
 8435SOL    HW136764   4.248   1.356   1.087  1.0592 -0.2191  0.7611
 8435SOL    HW236765   4.379   1.325   1.025 -0.0515 -0.8761  0.5028
 8436SOL     OW36766   3.463   4.570   4.926 -0.3007 -0.6686 -0.5610
 8436SOL    HW136767   3.487   4.631   4.996  0.4238 -1.8754  0.2377
 8436SOL    HW236768   3.511   4.494   4.959  0.3645 -1.3600 -3.1635
 8437SOL     OW36769   0.789   1.325   8.387  0.1941 -0.2422 -0.3696
 8437SOL    HW136770   0.833   1.366   8.312  1.6850  0.5321  0.9013
 8437SOL    HW236771   0.861   1.286   8.437  0.0698  0.2728  0.2200
 8438SOL     OW36772   4.319   1.230   1.693 -0.0575 -0.2053 -0.0348
 8438SOL    HW136773   4.235   1.210   1.734 -0.2201  1.7016  0.5414
 8438SOL    HW236774   4.341   1.140   1.670  0.1266 -0.1144 -0.2124
 8439SOL     OW36775   3.462   3.671   6.773 -0.1837  0.7361  0.7843
 8439SOL    HW136776   3.501   3.663   6.686  0.9129  1.1551  1.2505
 8439SOL    HW236777   3.368   3.653   6.766 -0.1318  0.8155 -0.1715
 8440SOL     OW36778   2.879   0.008   5.326  0.1883 -0.3683  0.2122
 8440SOL    HW136779   2.912   4.668   5.266 -0.7155  0.7480 -1.4950
 8440SOL    HW236780   2.802   0.027   5.273 -1.7649 -1.9670  2.4838
 8441SOL     OW36781   3.673   2.042   2.686 -0.1277  0.1411  0.0844
 8441SOL    HW136782   3.668   1.955   2.649 -1.9941  0.0363  0.5948
 8441SOL    HW236783   3.667   2.022   2.779  1.5427 -2.7541 -0.4134
 8442SOL     OW36784   4.311   3.467   4.339  0.1260 -0.0673 -0.6891
 8442SOL    HW136785   4.251   3.495   4.270  1.0393  0.7149 -1.1700
 8442SOL    HW236786   4.248   3.423   4.396 -0.2354  1.5505  0.1610
 8443SOL     OW36787   0.709   1.203  14.161 -0.4076  0.1579  0.1491
 8443SOL    HW136788   0.746   1.268  14.101 -1.3391 -1.7929 -2.4977
 8443SOL    HW236789   0.618   1.219  14.135 -0.3085 -1.8819 -1.4011
 8444SOL     OW36790   4.267   4.725   4.817 -0.0010 -0.2401 -0.3585
 8444SOL    HW136791   4.203   4.669   4.773 -0.4799 -0.3571  0.4794
 8444SOL    HW236792   4.210   0.022   4.891 -2.9366 -0.2658 -2.5914
 8445SOL     OW36793   2.994   3.634   7.629 -0.4152  0.7602 -0.0220
 8445SOL    HW136794   3.042   3.666   7.552  1.1077 -2.5248 -0.4050
 8445SOL    HW236795   2.941   3.560   7.599  0.5532  0.8475 -1.9440
 8446SOL     OW36796   2.724   1.568   4.732  0.6517 -0.4772 -0.0800
 8446SOL    HW136797   2.797   1.525   4.776 -0.2028 -1.5450  0.2820
 8446SOL    HW236798   2.656   1.502   4.742 -0.0611  0.5579  2.0979
 8447SOL     OW36799   2.449   3.657  15.731  0.5403 -0.0129 -0.3488
 8447SOL    HW136800   2.443   3.563  15.744  1.1724  0.1841  1.4211
 8447SOL    HW236801   2.469   3.675  15.640  0.7134 -1.2766 -0.5502
 8448SOL     OW36802   2.246   3.828   3.530  0.0686  0.1783  0.4002
 8448SOL    HW136803   2.224   3.795   3.443 -0.5567  0.1614  0.5649
 8448SOL    HW236804   2.175   3.796   3.586 -0.5844  0.5734 -0.2049
 8449SOL     OW36805   3.494   4.337   8.021  0.4020 -0.9324 -0.2474
 8449SOL    HW136806   3.557   4.317   7.951  0.5874  0.8430 -0.5994
 8449SOL    HW236807   3.526   4.280   8.090 -2.4292 -2.7741 -0.4670
 8450SOL     OW36808   2.630   1.890  13.442  0.4784  0.0500 -0.4893
 8450SOL    HW136809   2.652   1.834  13.516 -1.1940  0.7933  0.5873
 8450SOL    HW236810   2.535   1.894  13.449  0.5369 -0.9623  0.7717
 8451SOL     OW36811   4.512   3.648  17.253 -0.2619  0.4311 -0.2581
 8451SOL    HW136812   4.457   3.726  17.254 -0.2144  0.4625 -0.0842
 8451SOL    HW236813   4.456   3.571  17.264  0.5067 -0.0729  0.1457
 8452SOL     OW36814   0.095   2.740   2.615 -0.0792 -0.2197 -0.4403
 8452SOL    HW136815   0.057   2.804   2.676 -1.0705 -1.1419 -0.0895
 8452SOL    HW236816   0.133   2.795   2.547  0.6502 -0.1779  0.0003
 8453SOL     OW36817   2.274   3.474   1.419 -0.8878 -0.3120 -0.1371
 8453SOL    HW136818   2.361   3.437   1.406  0.0874  1.8540  0.2255
 8453SOL    HW236819   2.262   3.529   1.342  0.9513 -0.0527 -0.2458
 8454SOL     OW36820   2.033   2.064  16.534  0.1701 -0.1290  0.5053
 8454SOL    HW136821   2.107   2.125  16.531  1.5213 -1.7642  0.1134
 8454SOL    HW236822   1.999   2.069  16.444  1.2411  0.8870  0.1612
 8455SOL     OW36823   0.846   1.843   7.393  0.1050  0.3740  0.1935
 8455SOL    HW136824   0.853   1.910   7.461 -1.3802  2.1074 -1.3698
 8455SOL    HW236825   0.832   1.904   7.320  1.7468 -0.0610 -0.4895
 8456SOL     OW36826   1.130   1.702   5.043 -0.4258  0.0729 -0.5503
 8456SOL    HW136827   1.088   1.639   4.986  0.9879  0.2152 -1.7494
 8456SOL    HW236828   1.204   1.717   4.984 -1.1539 -2.9434 -2.1955
 8457SOL     OW36829   2.657   2.259  14.831 -0.4106 -0.5624  0.5359
 8457SOL    HW136830   2.596   2.300  14.893 -0.0824  1.8375 -0.6928
 8457SOL    HW236831   2.670   2.174  14.872  3.5616 -0.6096 -0.8334
 8458SOL     OW36832   4.274   1.604   7.909  0.1263 -0.7915 -0.4913
 8458SOL    HW136833   4.218   1.531   7.935 -0.0131 -1.0765 -1.6049
 8458SOL    HW236834   4.250   1.615   7.817  0.4234 -0.8029 -0.5694
 8459SOL     OW36835   2.367   0.040   7.015 -0.6037 -0.6443 -0.1385
 8459SOL    HW136836   2.338   0.131   7.006 -1.8498 -1.0531 -0.1570
 8459SOL    HW236837   2.339   0.018   7.104 -1.1963  0.3706 -0.0717
 8460SOL     OW36838   4.091   2.231   8.570 -0.1311  0.1091 -0.2362
 8460SOL    HW136839   4.132   2.149   8.541 -1.5606 -1.0835  1.0648
 8460SOL    HW236840   4.063   2.199   8.656  0.1345  0.6829  0.0602
 8461SOL     OW36841   2.453   0.602   7.202 -0.2483 -0.1192 -0.3335
 8461SOL    HW136842   2.447   0.683   7.150  1.7651  0.6174  0.5729
 8461SOL    HW236843   2.392   0.621   7.274 -1.3891 -0.1252 -1.2850
 8462SOL     OW36844   1.628   2.945   1.073 -0.0439 -0.5787  0.0869
 8462SOL    HW136845   1.644   2.944   0.978  0.1997  0.8819  0.1148
 8462SOL    HW236846   1.713   2.909   1.099  0.0297 -0.0525  0.5610
 8463SOL     OW36847   2.547   3.549   5.435 -0.5605 -0.2621 -0.0714
 8463SOL    HW136848   2.480   3.610   5.406 -0.4804 -0.6096 -0.9956
 8463SOL    HW236849   2.534   3.542   5.529 -0.1527 -1.2231 -0.0799
 8464SOL     OW36850   1.620   3.178  15.501  0.2450  0.0619  0.1661
 8464SOL    HW136851   1.615   3.092  15.459  1.4101 -0.5041  1.1887
 8464SOL    HW236852   1.695   3.167  15.558  0.6914  0.5563 -0.3221
 8465SOL     OW36853   4.059   3.508   1.760  0.7926  0.1927  0.0630
 8465SOL    HW136854   3.993   3.547   1.819 -0.0721 -1.3842  0.1280
 8465SOL    HW236855   4.000   3.450   1.712 -0.2668  0.4770  1.0242
 8466SOL     OW36856   1.277   3.760   6.844 -0.0179  0.0894  0.5077
 8466SOL    HW136857   1.242   3.730   6.927 -0.0067 -0.4845  0.3001
 8466SOL    HW236858   1.339   3.690   6.824  0.5013  1.0425 -1.2577
 8467SOL     OW36859   2.939   3.068   8.430  0.3019  0.0714  0.8548
 8467SOL    HW136860   2.975   3.058   8.518  1.2682 -2.5488  0.1561
 8467SOL    HW236861   2.931   2.978   8.401  0.6370  1.4630 -3.5801
 8468SOL     OW36862   2.601   2.849   5.444  0.0939  0.4566 -0.4772
 8468SOL    HW136863   2.539   2.918   5.422  1.3085  2.2934  1.8757
 8468SOL    HW236864   2.587   2.786   5.373  2.5289  0.4178 -0.9047
 8469SOL     OW36865   1.149   1.352   1.764  0.4277 -0.1637  0.0673
 8469SOL    HW136866   1.121   1.434   1.805 -3.3373 -0.5320 -1.7660
 8469SOL    HW236867   1.074   1.293   1.770 -0.9002  1.7392  2.0826
 8470SOL     OW36868   2.372   2.183   4.973 -0.5157  0.1254  0.0791
 8470SOL    HW136869   2.364   2.226   5.058 -2.4058 -1.6507  0.7982
 8470SOL    HW236870   2.347   2.252   4.911  1.0972  0.3241 -0.3514
 8471SOL     OW36871   4.684   2.506   7.375  0.3983  0.5984 -0.2471
 8471SOL    HW136872   4.608   2.447   7.377  1.2531 -0.4721  0.9039
 8471SOL    HW236873   0.014   2.456   7.434 -2.4739  0.8221  2.7449
 8472SOL     OW36874   1.484   3.838  16.704 -0.1087  0.2433  0.1747
 8472SOL    HW136875   1.476   3.933  16.712 -0.3122  0.1836  0.6842
 8472SOL    HW236876   1.523   3.819  16.619 -1.4841  0.8029 -0.5907
 8473SOL     OW36877   4.305   3.648   5.741 -0.3150 -0.4210  0.0465
 8473SOL    HW136878   4.367   3.626   5.811 -2.3664 -0.2485  1.9319
 8473SOL    HW236879   4.226   3.669   5.792  0.0364 -0.3089  0.5517
 8474SOL     OW36880   2.522   3.673   9.888 -0.4998 -0.0912  0.2342
 8474SOL    HW136881   2.476   3.738   9.941 -0.0716 -0.0024  0.5005
 8474SOL    HW236882   2.566   3.623   9.957  1.1966 -0.4262 -1.0927
 8475SOL     OW36883   0.192   2.913   8.502  0.2090 -0.0670 -0.0368
 8475SOL    HW136884   0.288   2.908   8.503  0.3146  2.0154  0.6812
 8475SOL    HW236885   0.181   2.937   8.594 -1.6980  0.9913 -0.5592
 8476SOL     OW36886   0.701   1.038   8.391 -1.1602 -0.6628  0.2975
 8476SOL    HW136887   0.779   1.092   8.382 -1.8360 -0.1043 -2.0910
 8476SOL    HW236888   0.641   1.112   8.393  0.7337  0.8567  0.9416
 8477SOL     OW36889   1.509   2.005   3.562  0.3788  0.4982 -0.1965
 8477SOL    HW136890   1.429   2.040   3.520  0.4242 -0.8656 -1.4153
 8477SOL    HW236891   1.483   1.983   3.651  2.4810 -1.2213 -0.0380
 8478SOL     OW36892   1.053   4.362   6.501  0.2871  0.3761  0.0283
 8478SOL    HW136893   1.052   4.377   6.595  0.3760 -0.4988  0.1736
 8478SOL    HW236894   0.966   4.395   6.481  0.1668  1.9683  3.1728
 8479SOL     OW36895   2.837   3.899   7.477 -0.6710 -0.1912 -0.3411
 8479SOL    HW136896   2.885   3.886   7.395  1.4978  0.3371  0.8569
 8479SOL    HW236897   2.754   3.914   7.432  1.1028  1.4389 -3.1067
 8480SOL     OW36898   4.051   1.100   4.206 -0.2644 -0.0686 -0.5126
 8480SOL    HW136899   3.968   1.147   4.199 -0.4749 -0.1605  1.3738
 8480SOL    HW236900   4.112   1.167   4.238  0.8719 -0.3985 -1.9929
 8481SOL     OW36901   1.433   4.703   4.277  0.0958  1.0864  0.5765
 8481SOL    HW136902   1.514   0.013   4.244  1.8421 -2.6142  0.8364
 8481SOL    HW236903   1.410   4.649   4.201  0.8237  0.4371  0.8183
 8482SOL     OW36904   0.552   2.571   8.245 -0.0580 -0.2463  0.7739
 8482SOL    HW136905   0.637   2.590   8.284  0.1561 -1.3096  0.8391
 8482SOL    HW236906   0.514   2.657   8.231  1.0495  0.2127  0.5913
 8483SOL     OW36907   3.021   2.555   1.578 -0.5853  0.2549 -0.1904
 8483SOL    HW136908   2.948   2.523   1.630 -0.4678 -0.3798 -0.4237
 8483SOL    HW236909   3.025   2.649   1.600 -1.3267  0.5673 -1.3630
 8484SOL     OW36910   2.758   1.769   8.714  0.0435  0.0168 -0.7762
 8484SOL    HW136911   2.810   1.746   8.636 -1.6232  0.3452 -1.9964
 8484SOL    HW236912   2.668   1.771   8.680  0.1716  2.1347 -0.9451
 8485SOL     OW36913   1.198   4.105  16.109  0.1949  0.0069  0.3090
 8485SOL    HW136914   1.250   4.185  16.106  0.2566 -0.2306 -3.7868
 8485SOL    HW236915   1.112   4.116  16.070  0.9194 -0.2526 -1.3747
 8486SOL     OW36916   0.592   0.733   4.967  0.2418  0.0479  0.4996
 8486SOL    HW136917   0.656   0.679   4.921  0.3378  2.0083 -1.6349
 8486SOL    HW236918   0.641   0.811   4.994 -0.5337  0.8335 -0.3698
 8487SOL     OW36919   1.883   2.772   5.424  0.1548 -0.1767  0.1762
 8487SOL    HW136920   1.819   2.719   5.376 -0.3500  0.3384  0.2731
 8487SOL    HW236921   1.839   2.857   5.430 -0.7373 -0.5948 -0.3525
 8488SOL     OW36922   1.012   1.738   1.612 -0.5108 -0.4951 -0.4647
 8488SOL    HW136923   0.992   1.655   1.569 -0.4106 -0.5519 -0.4048
 8488SOL    HW236924   0.993   1.810   1.552 -0.1279 -0.9385 -1.1118
 8489SOL     OW36925   4.035   3.960  12.264  0.3795  0.0604 -0.3319
 8489SOL    HW136926   3.957   3.913  12.235  0.3306  0.6009 -1.0710
 8489SOL    HW236927   4.006   4.012  12.340  2.1247 -0.1439  0.4927
 8490SOL     OW36928   1.678   1.683   5.159  0.1269  0.0270 -0.1314
 8490SOL    HW136929   1.738   1.756   5.175  0.5103 -0.0537 -1.2155
 8490SOL    HW236930   1.658   1.691   5.065  1.5578  0.1358 -0.4210
 8491SOL     OW36931   2.284   0.667  16.833 -0.3964 -0.2228  0.2294
 8491SOL    HW136932   2.244   0.750  16.810 -0.8136  0.1516  2.3108
 8491SOL    HW236933   2.330   0.646  16.752  0.8489 -2.0707  1.3870
 8492SOL     OW36934   1.971   0.439   8.893  0.2590 -0.0673  0.5004
 8492SOL    HW136935   1.951   0.404   8.807  2.2498 -0.6302  0.2567
 8492SOL    HW236936   1.918   0.384   8.951  0.8829  1.7024  2.7461
 8493SOL     OW36937   2.132   2.155   0.615 -0.0405  0.1054 -0.0722
 8493SOL    HW136938   2.143   2.245   0.644  1.2925 -0.4982  1.2786
 8493SOL    HW236939   2.065   2.160   0.546 -1.0909 -0.5322  0.9173
 8494SOL     OW36940   1.899   2.410   3.131 -0.4202 -0.0397  0.2431
 8494SOL    HW136941   1.979   2.390   3.082  0.4597  0.5989  1.4116
 8494SOL    HW236942   1.932   2.491   3.169  0.1214 -0.4355  0.6180
 8495SOL     OW36943   2.492   1.853   1.215  0.0587  0.8446  0.0473
 8495SOL    HW136944   2.479   1.928   1.273 -0.5308  0.5226  0.3405
 8495SOL    HW236945   2.414   1.799   1.232 -0.8655  1.9824 -0.5668
 8496SOL     OW36946   1.099   2.967   8.248  0.2145 -0.0470 -0.1762
 8496SOL    HW136947   1.072   2.915   8.324 -1.4909 -0.3004 -0.9364
 8496SOL    HW236948   1.184   2.995   8.280  0.3556 -0.9117  0.1926
 8497SOL     OW36949   4.010   0.189   1.863  0.5031  0.9576  1.0593
 8497SOL    HW136950   4.092   0.236   1.879 -0.0682  1.6525  1.9716
 8497SOL    HW236951   4.023   0.170   1.770  3.4344  0.3494  1.5876
 8498SOL     OW36952   2.318   2.850   9.118 -0.3883  0.3743  0.3127
 8498SOL    HW136953   2.372   2.802   9.056  0.0859  0.3648  0.7421
 8498SOL    HW236954   2.330   2.940   9.087  1.4820  0.4225  1.2573
 8499SOL     OW36955   3.132   2.619   5.925 -0.3859  0.0241  0.1121
 8499SOL    HW136956   3.099   2.709   5.916 -0.1798  0.0655 -0.2465
 8499SOL    HW236957   3.132   2.597   5.831 -1.0161  0.7169 -0.0547
 8500SOL     OW36958   0.140   1.248  14.834 -0.3446 -0.3221  0.6298
 8500SOL    HW136959   0.224   1.293  14.832 -0.0516 -0.9619 -2.1872
 8500SOL    HW236960   0.096   1.299  14.766  0.6514  0.1263  0.3299
 8501SOL     OW36961   1.616   2.520   5.666  0.0879  0.1883  0.3815
 8501SOL    HW136962   1.619   2.604   5.710  0.9498  0.8446 -0.9263
 8501SOL    HW236963   1.607   2.456   5.737 -0.4943 -1.0870 -0.8326
 8502SOL     OW36964   1.792   4.525  10.119  0.2862 -0.0343 -0.5333
 8502SOL    HW136965   1.707   4.520  10.076 -0.1059 -0.2161  0.2697
 8502SOL    HW236966   1.827   4.602  10.073 -1.1101  0.5889 -0.5455
 8503SOL     OW36967   4.031   0.911   4.642  0.1542  0.1321  0.5085
 8503SOL    HW136968   4.121   0.932   4.619 -0.4445  0.8456 -1.2350
 8503SOL    HW236969   3.992   0.905   4.554  0.1073  1.5847  0.4241
 8504SOL     OW36970   1.206   1.440   6.652 -0.2386 -0.1267 -0.0422
 8504SOL    HW136971   1.113   1.419   6.658  0.1705 -1.3790  2.0202
 8504SOL    HW236972   1.226   1.423   6.744  2.3555 -2.4018 -1.0388
 8505SOL     OW36973   4.410   4.130   3.183  0.1609 -0.1087 -0.3407
 8505SOL    HW136974   4.377   4.054   3.231  2.2576 -0.3655  0.7037
 8505SOL    HW236975   4.470   4.087   3.122 -0.0186  0.6806 -1.0692
 8506SOL     OW36976   1.204   3.501   4.960 -0.1361 -0.0875  0.1018
 8506SOL    HW136977   1.163   3.575   5.004  0.7078  0.8597 -0.6957
 8506SOL    HW236978   1.255   3.462   5.030 -0.5931 -0.2083  0.3658
 8507SOL     OW36979   3.015   1.612   7.785  0.6126 -0.3090 -0.5138
 8507SOL    HW136980   3.090   1.663   7.815 -1.4243  1.4851  1.5015
 8507SOL    HW236981   3.020   1.618   7.689  3.1086 -1.3599 -0.4418
 8508SOL     OW36982   1.414   1.704   6.088  0.4898  0.0051 -0.2214
 8508SOL    HW136983   1.476   1.657   6.144 -0.4430 -3.0533 -1.7138
 8508SOL    HW236984   1.413   1.793   6.122  0.0501  0.0441 -0.3321
 8509SOL     OW36985   2.973   0.022   0.461  0.0432  0.5094  0.2127
 8509SOL    HW136986   2.893   4.698   0.446 -0.1131  0.8369 -0.0515
 8509SOL    HW236987   3.016   4.675   0.504  0.8080 -0.5605 -2.3351
 8510SOL     OW36988   1.043   4.653   8.928 -0.5525  0.0308  0.3210
 8510SOL    HW136989   1.101   4.580   8.911 -1.4178 -0.3528 -1.0123
 8510SOL    HW236990   0.961   4.606   8.943 -1.0452  1.4270  2.0185
 8511SOL     OW36991   1.395   0.559   6.500  0.9762  0.0637  0.1700
 8511SOL    HW136992   1.397   0.534   6.592  1.0841  0.6832  0.3402
 8511SOL    HW236993   1.442   0.489   6.455  0.9251 -0.7085  1.3447
 8512SOL     OW36994   1.392   1.200   2.954 -0.2990  0.0589  0.1409
 8512SOL    HW136995   1.464   1.255   2.983  0.8218 -1.1692 -0.3168
 8512SOL    HW236996   1.316   1.256   2.971 -0.1755 -0.2978  1.7974
 8513SOL     OW36997   4.439   2.579   1.710  0.1623  1.0604  0.5827
 8513SOL    HW136998   4.391   2.637   1.649 -0.1672 -2.2966 -2.3389
 8513SOL    HW236999   4.526   2.619   1.701 -0.1009  1.6507  0.6210
 8514SOL     OW37000   3.758   2.019  10.940  0.2476 -0.2106 -0.3742
 8514SOL    HW137001   3.765   2.061  10.854 -1.0181 -1.7149 -1.2206
 8514SOL    HW237002   3.772   1.931  10.905 -2.0180 -0.2168 -1.2312
 8515SOL     OW37003   3.172   0.886   2.483  0.3911  0.0573  0.1073
 8515SOL    HW137004   3.222   0.825   2.428  0.4446  0.2264 -0.0325
 8515SOL    HW237005   3.205   0.868   2.571 -2.1754  1.1784  1.3068
 8516SOL     OW37006   2.205   2.116   4.220 -0.3694  0.3896  0.5588
 8516SOL    HW137007   2.228   2.184   4.283  0.9009  0.6034 -0.1411
 8516SOL    HW237008   2.113   2.106   4.244 -0.0882 -0.1689  1.4080
 8517SOL     OW37009   4.389   0.698   2.749 -0.4650  0.1717  0.3242
 8517SOL    HW137010   4.303   0.722   2.714 -0.6164  2.1971  2.1449
 8517SOL    HW237011   4.433   0.707   2.664 -1.2094 -1.1964 -0.2111
 8518SOL     OW37012   4.654   3.303   0.258 -0.2671 -0.0483 -0.4993
 8518SOL    HW137013   4.682   3.213   0.241  0.1818  0.0560 -0.3032
 8518SOL    HW237014   4.693   3.332   0.340 -1.6335 -2.7148  1.1098
 8519SOL     OW37015   1.352   4.005  16.293  0.5539  0.6927  0.0773
 8519SOL    HW137016   1.306   4.030  16.213 -0.6258 -1.3413  0.1059
 8519SOL    HW237017   1.440   4.039  16.282  0.1188  0.3844 -4.1590
 8520SOL     OW37018   3.541   0.340   7.897  0.5663  0.2648  0.0563
 8520SOL    HW137019   3.496   0.385   7.968 -0.7890  1.1411 -1.3573
 8520SOL    HW237020   3.577   0.264   7.943  0.9681  0.1675 -0.4112
 8521SOL     OW37021   0.902   3.985  11.090  0.1248 -0.4580 -0.3891
 8521SOL    HW137022   0.861   3.970  11.005  0.8589  1.8620 -1.1363
 8521SOL    HW237023   0.955   4.059  11.061 -0.4933  0.3952  0.6776
 8522SOL     OW37024   0.896   3.216   0.902 -0.1016 -0.0852 -0.7372
 8522SOL    HW137025   0.880   3.301   0.861  0.5915 -0.2698 -1.4058
 8522SOL    HW237026   0.958   3.240   0.971  1.3481 -0.6565 -1.8293
 8523SOL     OW37027   3.635   0.326   4.125 -0.0575 -0.1945 -0.3855
 8523SOL    HW137028   3.558   0.275   4.153 -0.7828 -0.0775 -2.1806
 8523SOL    HW237029   3.677   0.254   4.079 -0.3228  0.1669 -1.2017
 8524SOL     OW37030   0.992   3.242   6.469 -0.0275  0.0786 -0.3674
 8524SOL    HW137031   0.960   3.251   6.558  1.0615  0.7496 -0.0528
 8524SOL    HW237032   1.060   3.309   6.473  0.5004 -0.3598 -1.7413
 8525SOL     OW37033   3.296   4.538   3.757 -0.5260 -0.1148 -0.5238
 8525SOL    HW137034   3.250   4.620   3.774  1.9325  1.2661 -0.5359
 8525SOL    HW237035   3.378   4.577   3.726  0.4170 -1.5641  0.1238
 8526SOL     OW37036   1.768   0.907   8.197 -0.1598  0.3450 -0.0523
 8526SOL    HW137037   1.846   0.909   8.252 -1.1601 -1.5194  1.4347
 8526SOL    HW237038   1.704   0.884   8.264 -0.2121 -0.0674 -0.2487
 8527SOL     OW37039   0.866   4.449   5.983  0.3611 -0.4518 -0.2759
 8527SOL    HW137040   0.804   4.398   5.930  0.4860 -2.1832  1.2650
 8527SOL    HW237041   0.899   4.508   5.915 -0.1602 -0.9369 -0.9621
 8528SOL     OW37042   1.880   0.037  14.365 -0.0162  0.1393  0.2060
 8528SOL    HW137043   1.968   0.073  14.372  0.1889 -0.5807  1.4878
 8528SOL    HW237044   1.827   0.116  14.351 -0.5629 -1.1753 -4.8931
 8529SOL     OW37045   0.968   2.941   0.060 -0.2935  0.6228 -0.1032
 8529SOL    HW137046   1.027   3.014   0.047 -0.3542  0.7876  0.5346
 8529SOL    HW237047   1.003   2.861   0.020  0.7573  0.5261  0.9909
 8530SOL     OW37048   3.844   1.770   3.933 -0.1995 -0.2520 -0.0321
 8530SOL    HW137049   3.789   1.771   4.011  0.1247 -0.4122  0.1967
 8530SOL    HW237050   3.867   1.677   3.933  0.7998 -0.0152 -1.9577
 8531SOL     OW37051   4.053   4.657   5.916  0.8248 -0.3865 -0.0054
 8531SOL    HW137052   4.145   4.683   5.904  0.8181  0.6866  2.2671
 8531SOL    HW237053   4.064   4.631   6.008 -0.3227  1.2401  0.5999
 8532SOL     OW37054   0.023   3.701   8.638  0.2005  0.7927 -0.2731
 8532SOL    HW137055   0.083   3.630   8.661 -2.6238 -1.9069 -1.2140
 8532SOL    HW237056   4.674   3.677   8.692  0.4499  1.9622  0.5911
 8533SOL     OW37057   4.654   2.414   5.264  0.0203 -0.7021 -0.0015
 8533SOL    HW137058   4.714   2.351   5.305 -0.3384 -1.0889 -0.0701
 8533SOL    HW237059   4.701   2.421   5.181  0.4318  1.6505  0.4417
 8534SOL     OW37060   2.168   2.055   0.017  0.0632  0.2927 -0.4398
 8534SOL    HW137061   2.142   2.128   0.073 -2.9074 -2.3701  1.6250
 8534SOL    HW237062   2.207   2.099  17.649  1.9154  0.4154  0.5955
 8535SOL     OW37063   0.143   2.813   5.596  0.1329  0.3771  0.4383
 8535SOL    HW137064   0.092   2.888   5.565 -1.4019 -0.9045 -0.0570
 8535SOL    HW237065   0.201   2.799   5.521  1.9503  1.1112  1.6872
 8536SOL     OW37066   0.360   4.703   1.743  0.6674 -0.2609  0.7324
 8536SOL    HW137067   0.348   4.681   1.650  0.5887 -3.9129  1.5885
 8536SOL    HW237068   0.338   0.069   1.734  1.8143  0.2961  3.5920
 8537SOL     OW37069   3.450   0.242  17.644 -0.3873  0.1928  0.5008
 8537SOL    HW137070   3.458   0.270  17.552 -0.9981 -0.9141  0.1113
 8537SOL    HW237071   3.470   0.324  17.690  1.4976 -0.5434  0.9669
 8538SOL     OW37072   0.896   1.774   5.769 -0.1739  0.5273  0.2355
 8538SOL    HW137073   0.867   1.712   5.837  0.8016  1.5619  1.5865
 8538SOL    HW237074   0.980   1.736   5.743  0.2401  0.8108  1.1480
 8539SOL     OW37075   0.668   4.637   7.654  0.1328 -0.2241  0.0305
 8539SOL    HW137076   0.621   4.576   7.596  2.1150 -0.4485 -1.3415
 8539SOL    HW237077   0.755   4.625   7.616  0.1961 -1.1410  0.4662
 8540SOL     OW37078   3.584   0.306   5.742  0.0424 -0.1763  0.2509
 8540SOL    HW137079   3.553   0.370   5.807  0.7096  0.4831 -0.0856
 8540SOL    HW237080   3.665   0.285   5.789  1.0319 -0.1176 -1.4251
 8541SOL     OW37081   1.979   2.593  14.295  0.3959 -0.1424 -0.0996
 8541SOL    HW137082   2.073   2.584  14.278  0.4613 -0.2573  0.3355
 8541SOL    HW237083   1.957   2.599  14.202 -2.1219 -1.6535  0.4153
 8542SOL     OW37084   1.844   4.345   9.385 -0.2122  0.3873 -0.0972
 8542SOL    HW137085   1.929   4.380   9.360  0.4709 -0.8570  0.4774
 8542SOL    HW237086   1.808   4.333   9.297 -4.0048  0.2935  1.4584
 8543SOL     OW37087   3.826   2.275   4.047  0.9416  0.2180 -0.0215
 8543SOL    HW137088   3.861   2.360   4.022  1.8546  0.3615  1.7920
 8543SOL    HW237089   3.752   2.311   4.095  0.7610 -0.3968  0.1690
 8544SOL     OW37090   4.059   1.478   5.694 -0.2073 -0.1682 -0.6802
 8544SOL    HW137091   3.995   1.526   5.641 -0.2447  0.3030 -0.2044
 8544SOL    HW237092   4.107   1.431   5.626  1.6837  1.3028 -0.3538
 8545SOL     OW37093   2.380   1.869   9.102  0.4120  0.0597  0.3468
 8545SOL    HW137094   2.473   1.866   9.079 -0.4103 -1.1063 -2.7695
 8545SOL    HW237095   2.367   1.789   9.154 -3.5039  1.4216  1.4339
 8546SOL     OW37096   2.110   1.466  13.727 -0.5661 -0.6640  0.4794
 8546SOL    HW137097   2.073   1.380  13.708  0.5109 -0.8521 -0.8111
 8546SOL    HW237098   2.071   1.480  13.813  2.0925 -0.3539  1.6323
 8547SOL     OW37099   2.584   3.053   6.575  0.1759  0.5442  0.0657
 8547SOL    HW137100   2.559   3.056   6.668 -0.2443  0.8600 -0.0562
 8547SOL    HW237101   2.665   3.104   6.584  1.2575 -1.2585  0.5061
 8548SOL     OW37102   0.541   2.460  15.049  0.8298  0.0199  0.1239
 8548SOL    HW137103   0.603   2.498  14.987  0.7008 -2.3656 -1.4578
 8548SOL    HW237104   0.492   2.539  15.071  0.0265 -1.0034  1.9617
 8549SOL     OW37105   0.427   2.775   6.262 -0.4058  0.4563  0.7203
 8549SOL    HW137106   0.513   2.787   6.221 -0.6038  3.3620  1.0935
 8549SOL    HW237107   0.391   2.699   6.218 -3.2879  1.1300  1.9086
 8550SOL     OW37108   1.903   0.059  16.484 -0.8337  0.1233 -0.0733
 8550SOL    HW137109   1.903   4.720  16.553 -2.3065  0.2114  0.0131
 8550SOL    HW237110   1.810   0.082  16.478 -0.6810  0.7822  0.0864
 8551SOL     OW37111   3.953   0.559   2.031 -0.0650  0.2302  0.0451
 8551SOL    HW137112   4.018   0.511   1.979  1.4078  0.6629  1.5186
 8551SOL    HW237113   3.927   0.635   1.980  1.3349  1.3380  0.9949
 8552SOL     OW37114   0.839   4.497   3.594  0.0610 -0.2802  0.5607
 8552SOL    HW137115   0.744   4.494   3.603  0.1583 -2.6806  0.6962
 8552SOL    HW237116   0.857   4.460   3.508  0.1997  1.6534 -0.2518
 8553SOL     OW37117   2.859   2.564   6.157  0.4538  0.0153 -1.0230
 8553SOL    HW137118   2.806   2.614   6.220  0.7092 -0.5590 -0.3615
 8553SOL    HW237119   2.847   2.477   6.195 -0.7633  1.3389  1.6265
 8554SOL     OW37120   1.996   2.507   2.845  0.1443 -0.6368  0.0413
 8554SOL    HW137121   1.976   2.418   2.816  0.9094 -0.6357 -0.5128
 8554SOL    HW237122   2.058   2.481   2.913  1.3714 -1.0798 -1.2436
 8555SOL     OW37123   1.992   3.268  14.974 -0.5157  0.4482 -0.6198
 8555SOL    HW137124   2.001   3.173  14.975  1.3819  0.6057 -2.4765
 8555SOL    HW237125   2.006   3.287  14.881 -3.3634 -1.2689 -1.4172
 8556SOL     OW37126   1.294   1.287   4.187 -0.2434  0.0699  0.4232
 8556SOL    HW137127   1.208   1.310   4.153 -0.7441 -2.2108  0.1828
 8556SOL    HW237128   1.326   1.224   4.122 -1.2274 -0.0837  0.0951
 8557SOL     OW37129   0.655   4.461   8.550 -0.3391  0.3368 -0.1647
 8557SOL    HW137130   0.725   4.423   8.497 -0.2711 -1.2936  1.0943
 8557SOL    HW237131   0.589   4.392   8.560  1.4738 -1.1567  1.5422
 8558SOL     OW37132   0.740   2.018   5.796  0.5474 -0.2733 -0.4035
 8558SOL    HW137133   0.789   1.936   5.795  0.8925 -0.0804  0.6830
 8558SOL    HW237134   0.774   2.060   5.718 -0.0982 -0.1222 -0.6055
 8559SOL     OW37135   2.453   2.065   9.587 -0.3105 -0.6424  0.8837
 8559SOL    HW137136   2.545   2.063   9.559 -0.9534  0.0216 -1.2987
 8559SOL    HW237137   2.463   2.044   9.679 -1.1248  1.8156  1.5191
 8560SOL     OW37138   4.106   2.901   2.581 -0.6514 -0.0036 -0.3349
 8560SOL    HW137139   4.132   2.978   2.530 -0.5249  0.2712  0.1388
 8560SOL    HW237140   4.173   2.838   2.554 -1.2436 -0.0921 -1.5632
 8561SOL     OW37141   0.919   4.326   2.417  0.7327  0.5675 -0.0385
 8561SOL    HW137142   0.941   4.241   2.379 -0.1540  0.0118  0.6870
 8561SOL    HW237143   0.956   4.377   2.345 -0.1007  1.5173  0.1968
 8562SOL     OW37144   0.770   4.511   5.650  0.0391  0.0894 -0.1369
 8562SOL    HW137145   0.759   4.604   5.631 -1.4049 -0.6776 -3.0568
 8562SOL    HW237146   0.859   4.514   5.687  0.5082 -0.2980 -1.2239
 8563SOL     OW37147   0.737   0.555   3.804 -0.0642 -0.0255  0.4795
 8563SOL    HW137148   0.803   0.489   3.827  2.2050  2.4700  1.2009
 8563SOL    HW237149   0.657   0.529   3.848 -0.9147  1.3963 -0.2230
 8564SOL     OW37150   0.504   2.085   3.398  0.3797 -0.4206 -0.1862
 8564SOL    HW137151   0.590   2.049   3.378  1.6574  0.3228  3.9354
 8564SOL    HW237152   0.538   2.116   3.482  2.0161  2.5624 -1.9417
 8565SOL     OW37153   2.747   1.941  13.206 -0.1422  0.1651 -0.4052
 8565SOL    HW137154   2.699   1.878  13.154 -1.1643  0.1606  0.5364
 8565SOL    HW237155   2.689   1.936  13.282 -1.8796 -0.5282 -1.7956
 8566SOL     OW37156   1.282   3.589   5.214 -0.2281 -0.1411  0.4179
 8566SOL    HW137157   1.258   3.670   5.169 -0.9175 -0.2010  0.6802
 8566SOL    HW237158   1.195   3.549   5.216 -1.5392  2.7594  0.8481
 8567SOL     OW37159   4.368   3.308   8.732 -0.0381 -0.1647  0.1333
 8567SOL    HW137160   4.326   3.234   8.777  2.2596  0.7733  3.8308
 8567SOL    HW237161   4.384   3.277   8.643  2.0371  0.8722  0.1416
 8568SOL     OW37162   2.416   1.798   8.278 -0.5306  0.1501 -0.0825
 8568SOL    HW137163   2.453   1.845   8.203 -0.7847 -0.6071 -0.6772
 8568SOL    HW237164   2.348   1.859   8.307 -1.4722 -0.4336 -1.0546
 8569SOL     OW37165   2.263   1.136   3.309 -0.9224 -0.0486  0.3968
 8569SOL    HW137166   2.168   1.137   3.314 -0.9154  0.2154  0.4618
 8569SOL    HW237167   2.287   1.174   3.225 -0.6268 -2.6013 -0.6595
 8570SOL     OW37168   3.605   4.538   7.449  0.2222 -1.0163  0.5968
 8570SOL    HW137169   3.648   4.592   7.382 -2.0812 -0.4860 -0.4305
 8570SOL    HW237170   3.605   4.457   7.396  0.1630  0.4409 -1.6395
 8571SOL     OW37171   2.965   2.803   5.850 -0.1112  0.1263  0.5734
 8571SOL    HW137172   2.888   2.860   5.845  0.1783  0.6245  1.9599
 8571SOL    HW237173   2.983   2.809   5.756 -1.4598  1.6218  0.3902
 8572SOL     OW37174   2.745   4.622   9.388  0.2035  0.0193 -0.0049
 8572SOL    HW137175   2.784   4.537   9.367  1.8854  1.1143 -1.3152
 8572SOL    HW237176   2.815   4.655   9.445 -1.8872  0.7801  2.1245
 8573SOL     OW37177   1.874   1.541   0.333 -0.5376 -0.2634  0.0027
 8573SOL    HW137178   1.962   1.530   0.298 -0.7833  0.5889 -0.8693
 8573SOL    HW237179   1.880   1.620   0.385  1.2148  1.7391 -3.2607
 8574SOL     OW37180   1.079   0.579  10.463  0.2123  0.1967 -0.5319
 8574SOL    HW137181   1.142   0.582  10.391 -0.3287  0.6755 -0.9896
 8574SOL    HW237182   1.141   0.571  10.536  0.3400  1.7124 -0.4565
 8575SOL     OW37183   3.264   3.801   3.026  0.2902 -0.3470  0.2932
 8575SOL    HW137184   3.353   3.776   3.051  0.3083  0.0433  0.6330
 8575SOL    HW237185   3.229   3.826   3.112 -0.8553 -0.4452 -0.1543
 8576SOL     OW37186   2.230   2.992   0.941  0.1902  0.2857  0.2024
 8576SOL    HW137187   2.151   3.029   0.980 -0.2268 -1.2872  0.8369
 8576SOL    HW237188   2.290   3.067   0.939 -0.1214  0.5282 -0.0841
 8577SOL     OW37189   1.962   3.515   3.498 -0.1952  0.0709  0.0106
 8577SOL    HW137190   1.915   3.441   3.538  2.6606 -0.9479  1.4826
 8577SOL    HW237191   1.936   3.502   3.407 -1.6509 -0.5196  0.5155
 8578SOL     OW37192   1.088   2.391   9.813 -0.1527 -0.1492  0.0774
 8578SOL    HW137193   1.012   2.337   9.834  0.7096 -1.4601 -0.1882
 8578SOL    HW237194   1.050   2.451   9.749  0.2558  2.2598  2.0976
 8579SOL     OW37195   2.122   1.690   8.182  0.3369 -0.0950  0.0796
 8579SOL    HW137196   2.134   1.779   8.149 -1.1367  0.5247  1.1897
 8579SOL    HW237197   2.068   1.706   8.260 -0.6280 -1.3332 -0.3266
 8580SOL     OW37198   2.492   2.042   4.339 -0.4910  0.2110 -0.2956
 8580SOL    HW137199   2.483   2.125   4.293  3.3519  0.9808  0.3477
 8580SOL    HW237200   2.571   2.007   4.297 -0.1648  1.8670 -1.0784
 8581SOL     OW37201   4.613   2.272   8.175 -0.0915  0.6920 -0.6087
 8581SOL    HW137202   4.639   2.364   8.184 -0.8587  1.1145 -2.7121
 8581SOL    HW237203   4.518   2.278   8.185 -0.1311  0.4819 -0.8709
 8582SOL     OW37204   3.895   1.544   4.385  0.7303  0.1307 -0.6534
 8582SOL    HW137205   3.847   1.606   4.330  1.5110  0.3665 -1.0732
 8582SOL    HW237206   3.982   1.544   4.345  0.0646 -0.0814 -2.0817
 8583SOL     OW37207   2.265   0.648   7.525 -0.7063 -0.0378  0.6646
 8583SOL    HW137208   2.174   0.645   7.554 -0.3199 -1.7650  1.6887
 8583SOL    HW237209   2.283   0.742   7.536  0.6376 -0.0366 -1.5401
 8584SOL     OW37210   4.624   4.503  14.571 -0.3061 -0.0507  0.2813
 8584SOL    HW137211   4.656   4.450  14.499  0.5604 -1.3151  1.5972
 8584SOL    HW237212   4.530   4.495  14.556 -0.0153 -0.8652 -1.1255
 8585SOL     OW37213   1.416   0.610   4.089 -0.4579 -0.2596  0.0600
 8585SOL    HW137214   1.421   0.532   4.144 -0.4265 -0.3759 -0.1059
 8585SOL    HW237215   1.440   0.572   4.004  0.0757  1.0902 -0.3863
 8586SOL     OW37216   3.262   1.543   4.822 -0.1726 -0.2747 -0.2381
 8586SOL    HW137217   3.201   1.523   4.751 -1.3198 -2.5035  1.3856
 8586SOL    HW237218   3.245   1.474   4.887 -0.8270  0.3004  0.2031
 8587SOL     OW37219   3.033   4.008  11.053 -0.1028  0.4764 -0.4470
 8587SOL    HW137220   2.954   4.025  11.105  0.4727  1.7949  0.0148
 8587SOL    HW237221   3.071   3.940  11.109 -0.3232  0.2707 -0.5540
 8588SOL     OW37222   4.246   1.822   4.652  0.5307  0.0459  0.0091
 8588SOL    HW137223   4.315   1.857   4.709 -0.4129 -0.5606  1.5147
 8588SOL    HW237224   4.186   1.894   4.671 -0.4843 -0.3745 -1.6679
 8589SOL     OW37225   1.771   3.513   4.236  0.1117 -0.2010  0.4833
 8589SOL    HW137226   1.856   3.511   4.279 -1.1614 -2.0135  2.9162
 8589SOL    HW237227   1.708   3.475   4.297 -0.3016  0.2274  0.3230
 8590SOL     OW37228   1.686   3.415   7.547  0.0849 -0.5332 -0.2788
 8590SOL    HW137229   1.591   3.423   7.539  0.0775  1.0683  1.2594
 8590SOL    HW237230   1.715   3.354   7.479 -0.1277  0.9635 -1.7199
 8591SOL     OW37231   0.231   3.305   7.505 -0.1298  0.1314 -0.1108
 8591SOL    HW137232   0.237   3.346   7.591  1.8001 -0.7036  0.1552
 8591SOL    HW237233   0.137   3.291   7.507 -0.2683  1.2282  0.7698
 8592SOL     OW37234   2.675   3.557  13.636 -0.1170 -0.3489  0.6379
 8592SOL    HW137235   2.590   3.529  13.670 -0.2610  0.3829  0.8957
 8592SOL    HW237236   2.716   3.472  13.652  2.2871  0.4568 -1.3347
 8593SOL     OW37237   3.693   4.693   8.600 -0.0024 -0.5673  0.1644
 8593SOL    HW137238   3.612   4.683   8.649  0.1051  0.8404  0.6558
 8593SOL    HW237239   3.747   0.012   8.665 -2.5218  0.4595  1.5519
 8594SOL     OW37240   2.612   1.679   0.815  0.1878  0.4681  0.3575
 8594SOL    HW137241   2.663   1.755   0.787 -1.2640  1.7611  1.1979
 8594SOL    HW237242   2.522   1.706   0.797  0.4189  0.2812 -1.0267
 8595SOL     OW37243   0.392   2.975   9.055 -0.0812 -0.5469  0.2952
 8595SOL    HW137244   0.485   2.964   9.035  0.2398 -0.0551  1.5609
 8595SOL    HW237245   0.354   2.926   8.982 -0.7792 -2.3635  1.9047
 8596SOL     OW37246   1.328   2.125   5.890  0.2381  0.4895  0.3770
 8596SOL    HW137247   1.236   2.105   5.872 -0.4051  2.4782  1.5043
 8596SOL    HW237248   1.345   2.102   5.981  0.4643 -0.3459  0.1227
 8597SOL     OW37249   2.324   3.053   3.838 -0.2818  0.6856  0.1850
 8597SOL    HW137250   2.283   2.971   3.866 -1.8604  1.2994 -0.2973
 8597SOL    HW237251   2.290   3.112   3.906 -1.1924 -1.1383  1.3147
 8598SOL     OW37252   2.934   0.770   2.078 -0.3409 -0.0810 -0.3501
 8598SOL    HW137253   2.925   0.684   2.119  0.0574 -0.2837 -0.6869
 8598SOL    HW237254   2.848   0.811   2.085 -0.3502 -0.0983 -0.3615
 8599SOL     OW37255   0.516   3.084   8.026 -0.2513 -0.4645 -0.0054
 8599SOL    HW137256   0.595   3.116   7.981  1.5491 -2.6136  1.6090
 8599SOL    HW237257   0.472   3.167   8.044  0.2386  0.4355 -2.9012
 8600SOL     OW37258   4.256   0.668   5.624 -0.1312 -0.2150  0.3234
 8600SOL    HW137259   4.220   0.711   5.702 -1.0871  0.2385 -0.3718
 8600SOL    HW237260   4.197   0.700   5.556 -0.0619 -0.6687  0.0517
 8601SOL     OW37261   3.047   4.500   2.909  0.0215 -0.2171 -0.0547
 8601SOL    HW137262   2.991   4.575   2.930 -1.0826 -1.1025  0.1947
 8601SOL    HW237263   2.997   4.473   2.832  0.5736  0.2078 -0.5566
 8602SOL     OW37264   0.107   1.914  10.951  0.8335 -0.0484 -0.2327
 8602SOL    HW137265   0.090   1.853  11.023  1.6233 -0.2108 -0.1810
 8602SOL    HW237266   0.151   1.858  10.888 -0.5911  0.5308 -1.7291
 8603SOL     OW37267   2.699   2.337   5.106  0.0160 -0.4487  0.1257
 8603SOL    HW137268   2.757   2.392   5.054 -0.8670  0.2857 -0.0969
 8603SOL    HW237269   2.686   2.400   5.177  1.2097 -0.3542  0.2469
 8604SOL     OW37270   3.884   1.507  15.435 -0.0389 -0.4308 -0.9543
 8604SOL    HW137271   3.963   1.456  15.416 -0.2021 -0.8533 -0.4862
 8604SOL    HW237272   3.895   1.502  15.530  0.7853  2.1148 -0.8961
 8605SOL     OW37273   1.333   0.698   8.269 -0.7995 -0.1913 -0.2585
 8605SOL    HW137274   1.340   0.637   8.343  0.0437 -1.3978 -1.3369
 8605SOL    HW237275   1.332   0.776   8.324  1.2624 -0.9283  0.8193
 8606SOL     OW37276   3.893   1.589   6.192  0.0546  0.8879  1.1245
 8606SOL    HW137277   3.914   1.578   6.099 -0.7696 -0.3134  1.0854
 8606SOL    HW237278   3.881   1.684   6.196  1.2942  1.0800  0.4923
 8607SOL     OW37279   4.291   0.406   8.154  0.1217 -0.3348 -0.0079
 8607SOL    HW137280   4.279   0.496   8.123 -0.0982 -0.7470 -1.1261
 8607SOL    HW237281   4.271   0.415   8.247  4.7412  1.1816  0.8519
 8608SOL     OW37282   4.249   1.779  11.484  0.1788 -0.1411  0.2313
 8608SOL    HW137283   4.187   1.842  11.448 -1.0921 -0.9794  0.9184
 8608SOL    HW237284   4.223   1.692  11.452  0.7151 -0.2080 -0.0071
 8609SOL     OW37285   3.823   2.232   2.464 -0.3645  0.2152  0.4707
 8609SOL    HW137286   3.910   2.250   2.498  0.3970 -1.1690 -0.7620
 8609SOL    HW237287   3.806   2.307   2.407  0.2174 -0.3941 -0.5050
 8610SOL     OW37288   0.725   1.894  16.393 -0.1354  0.2469  0.5510
 8610SOL    HW137289   0.771   1.826  16.344  1.9050  1.3051  0.9750
 8610SOL    HW237290   0.633   1.868  16.400  0.0000 -0.2549  0.4487
 8611SOL     OW37291   3.639   3.749   8.423  0.5597 -0.8523 -0.3040
 8611SOL    HW137292   3.713   3.727   8.481  0.2486  0.8236  0.7095
 8611SOL    HW237293   3.569   3.753   8.488  2.3691  0.3932  1.5682
 8612SOL     OW37294   2.844   2.601  12.260 -0.3419 -0.2456 -0.2681
 8612SOL    HW137295   2.919   2.586  12.319  0.6818  2.8792 -0.7641
 8612SOL    HW237296   2.767   2.595  12.316  0.7517 -0.7062  1.2150
 8613SOL     OW37297   1.056   4.195  11.876 -0.5869 -0.2505 -0.7974
 8613SOL    HW137298   1.113   4.247  11.931 -0.7507  0.3480 -1.1977
 8613SOL    HW237299   1.130   4.167  11.822 -1.2620 -1.3248 -1.1613
 8614SOL     OW37300   4.219   2.740   8.167 -0.1881  0.4499  0.7870
 8614SOL    HW137301   4.286   2.737   8.235 -0.8151  0.4361  1.4045
 8614SOL    HW237302   4.245   2.658   8.125  0.4884 -0.1221  2.3331
 8615SOL     OW37303   1.780   4.392   4.642 -0.0739  0.1436  0.1253
 8615SOL    HW137304   1.747   4.432   4.562  1.2063  1.0454  0.0496
 8615SOL    HW237305   1.782   4.301   4.611  0.8229 -0.7441  2.7823
 8616SOL     OW37306   1.188   3.930   5.491 -0.2866 -0.4575 -0.4059
 8616SOL    HW137307   1.244   4.001   5.523 -2.3152  1.9704 -2.3914
 8616SOL    HW237308   1.100   3.965   5.500 -0.3205 -1.0713  1.7813
 8617SOL     OW37309   4.572   0.438  12.194  0.7062  0.2819  0.1516
 8617SOL    HW137310   4.597   0.420  12.285 -0.7622 -1.5962  0.1762
 8617SOL    HW237311   4.533   0.525  12.200 -0.7621 -0.3268 -0.6962
 8618SOL     OW37312   0.440   2.513   9.035 -0.0667  0.2435  0.5514
 8618SOL    HW137313   0.349   2.537   9.048 -0.7315 -2.7733  1.5545
 8618SOL    HW237314   0.463   2.454   9.107 -1.9281 -1.5346 -0.3135
 8619SOL     OW37315   1.411   3.392   3.765  0.3148 -0.0856  0.1549
 8619SOL    HW137316   1.473   3.328   3.799 -0.5080 -1.7552 -1.4147
 8619SOL    HW237317   1.429   3.385   3.671 -1.9023 -0.6472 -0.2444
 8620SOL     OW37318   0.745   3.099   1.873  0.2811 -0.0126 -0.1246
 8620SOL    HW137319   0.746   3.066   1.783  0.1950  0.5654 -0.3409
 8620SOL    HW237320   0.830   3.071   1.905 -0.2975 -0.5215  0.9283
 8621SOL     OW37321   4.172   2.462   3.795  0.1230 -0.2274  0.5130
 8621SOL    HW137322   4.222   2.405   3.854  0.2791  0.2564  0.8450
 8621SOL    HW237323   4.234   2.534   3.803 -0.3632  0.1850  0.5519
 8622SOL     OW37324   2.163   4.713   4.801  0.1636  0.2675  0.5424
 8622SOL    HW137325   2.237   4.652   4.793 -1.3610 -2.1067  4.3694
 8622SOL    HW237326   2.098   4.656   4.843 -0.8674  0.9225 -0.1792
 8623SOL     OW37327   0.578   0.291   5.442 -0.0530 -0.7165 -0.1496
 8623SOL    HW137328   0.514   0.293   5.370 -0.0554  1.6626 -0.0795
 8623SOL    HW237329   0.570   0.382   5.470 -2.4031 -1.4573  1.6004
 8624SOL     OW37330   1.698   2.322   1.621  0.4826 -0.2059  0.0483
 8624SOL    HW137331   1.713   2.375   1.543 -0.9647  0.3569  0.1691
 8624SOL    HW237332   1.618   2.366   1.648  1.1052 -0.4921  2.3311
 8625SOL     OW37333   0.434   0.725   4.620  0.3483 -0.2347 -0.1343
 8625SOL    HW137334   0.364   0.732   4.685 -0.1198 -1.9188 -0.4550
 8625SOL    HW237335   0.407   0.782   4.548 -3.1412  0.1612  1.4799
 8626SOL     OW37336   3.869   3.781  14.204  0.3526  0.0704  0.2196
 8626SOL    HW137337   3.816   3.854  14.236 -0.2506 -0.6904  0.9780
 8626SOL    HW237338   3.794   3.725  14.182  0.9230  0.0551 -1.6487
 8627SOL     OW37339   4.333   1.130   8.921 -0.0713 -0.3759 -0.2103
 8627SOL    HW137340   4.422   1.124   8.955 -0.1504 -0.3970 -0.0075
 8627SOL    HW237341   4.323   1.218   8.886 -1.0948 -0.7608 -0.8796
 8628SOL     OW37342   4.665   3.451   6.449  0.0190 -0.1537  0.3371
 8628SOL    HW137343   0.003   3.408   6.505  0.6897 -1.5913 -1.5479
 8628SOL    HW237344   0.003   3.474   6.383  0.3684 -0.5543  0.5349
 8629SOL     OW37345   0.379   0.352   2.153 -0.0789  0.1364  0.7155
 8629SOL    HW137346   0.350   0.404   2.078 -2.2875 -0.3508  1.2241
 8629SOL    HW237347   0.311   0.389   2.210 -1.1446 -2.0418  0.8360
 8630SOL     OW37348   2.805   0.239   5.821 -0.5671 -0.2673  0.2639
 8630SOL    HW137349   2.840   0.155   5.851 -0.0869  0.1611  0.9111
 8630SOL    HW237350   2.878   0.248   5.759  0.5635  1.3509  1.8107
 8631SOL     OW37351   3.122   2.824   1.100  0.5988 -0.2038  0.0348
 8631SOL    HW137352   3.066   2.773   1.042  1.8850  0.2373 -1.5848
 8631SOL    HW237353   3.059   2.857   1.164 -1.3395 -0.7605 -1.5893
 8632SOL     OW37354   2.723   1.600   8.106  0.4656 -0.3401  0.0077
 8632SOL    HW137355   2.688   1.634   8.188  3.3481 -0.0981  1.1400
 8632SOL    HW237356   2.641   1.578   8.061  0.0321 -0.2714  0.7693
 8633SOL     OW37357   2.358   0.643   1.787 -0.1460  0.3707 -0.0521
 8633SOL    HW137358   2.266   0.670   1.783 -0.4650 -0.7388 -0.0533
 8633SOL    HW237359   2.379   0.705   1.856  0.4290 -0.0309  0.1324
 8634SOL     OW37360   1.720   0.964   0.426 -0.3098 -0.1036 -0.3433
 8634SOL    HW137361   1.790   0.965   0.491 -0.2529  0.7996 -0.4069
 8634SOL    HW237362   1.746   1.032   0.363  3.3609 -1.4732 -0.2591
 8635SOL     OW37363   2.273   0.264  12.027 -0.1953 -0.1080  0.1997
 8635SOL    HW137364   2.267   0.220  12.113 -2.8445 -0.8567 -0.3527
 8635SOL    HW237365   2.336   0.332  12.049  0.5550 -1.0816  1.1129
 8636SOL     OW37366   3.769   4.185  14.283 -0.0025 -0.1744 -0.3702
 8636SOL    HW137367   3.796   4.261  14.335  1.4936  0.0709 -1.5038
 8636SOL    HW237368   3.818   4.190  14.201 -1.0303 -2.1681 -1.1077
 8637SOL     OW37369   1.644   1.117   6.340  0.3436 -0.2462 -0.0517
 8637SOL    HW137370   1.570   1.072   6.383  2.6636 -2.1438  1.9614
 8637SOL    HW237371   1.695   1.043   6.307  0.9596 -0.9152  2.4233
 8638SOL     OW37372   1.497   4.505   3.020  0.1380 -0.1437  0.2437
 8638SOL    HW137373   1.472   4.414   3.000  2.2845 -1.0414  1.6361
 8638SOL    HW237374   1.411   4.546   3.027 -0.6106 -1.8630  1.4052
 8639SOL     OW37375   1.674   1.706   4.874 -0.0061 -0.1045 -0.5786
 8639SOL    HW137376   1.754   1.699   4.821  0.0124 -0.2614 -0.5294
 8639SOL    HW237377   1.599   1.687   4.819 -0.5710 -1.0027  0.5106
 8640SOL     OW37378   1.244   4.006   6.753  0.1401 -0.3613 -0.2091
 8640SOL    HW137379   1.242   3.915   6.782  1.2059  0.2685  1.7675
 8640SOL    HW237380   1.155   4.037   6.769  0.3462  0.6805 -1.0975
 8641SOL     OW37381   0.674   1.927   9.606  0.2299 -0.5532  0.2700
 8641SOL    HW137382   0.660   1.918   9.701 -1.3091 -0.6164  0.0320
 8641SOL    HW237383   0.763   1.962   9.601 -0.4514  1.0634 -0.5076
 8642SOL     OW37384   4.288   1.146   5.527  0.3469  0.0178 -0.0334
 8642SOL    HW137385   4.282   1.220   5.467  1.2493  0.2678  0.1884
 8642SOL    HW237386   4.315   1.077   5.466  1.7304 -1.4489  2.2249
 8643SOL     OW37387   1.600   2.757   5.801 -0.7843  0.0388 -0.0611
 8643SOL    HW137388   1.691   2.745   5.773 -0.3915  1.8557  0.4670
 8643SOL    HW237389   1.573   2.818   5.732 -2.6953  0.6505  1.2636
 8644SOL     OW37390   0.861   1.311   4.600  0.1820 -0.2362  0.0676
 8644SOL    HW137391   0.806   1.242   4.636 -0.0252  0.6323  1.4081
 8644SOL    HW237392   0.786   1.349   4.553 -0.6766 -1.8587  0.1319
 8645SOL     OW37393   1.695   2.448  12.972  0.3844 -0.5892  0.9493
 8645SOL    HW137394   1.713   2.530  12.926 -1.8929 -0.5323  0.1627
 8645SOL    HW237395   1.640   2.394  12.915  1.3459 -0.3516 -0.1884
 8646SOL     OW37396   3.858   2.383   5.870 -0.2519  0.2846  0.6769
 8646SOL    HW137397   3.780   2.371   5.924 -0.4018 -1.1156  0.1360
 8646SOL    HW237398   3.881   2.293   5.849  0.0058  0.5794 -0.3291
 8647SOL     OW37399   3.667   2.968   5.753  0.4671 -0.2931 -0.0059
 8647SOL    HW137400   3.664   2.893   5.812 -0.1217 -1.2128 -1.2168
 8647SOL    HW237401   3.716   2.930   5.680  0.1189  0.4754 -0.6489
 8648SOL     OW37402   4.412   0.397  13.355 -0.6406  0.3691 -0.0940
 8648SOL    HW137403   4.422   0.303  13.373 -1.4782 -0.0580 -1.8702
 8648SOL    HW237404   4.425   0.404  13.260  1.2040 -0.9835  0.0658
 8649SOL     OW37405   2.312   3.397  10.434 -0.6673  0.3163  0.6834
 8649SOL    HW137406   2.337   3.312  10.397  2.0173  2.1062 -1.6843
 8649SOL    HW237407   2.325   3.452  10.357 -0.7105  0.4001  0.7364
 8650SOL     OW37408   3.390   0.419  15.408 -0.4980 -0.4556  0.0598
 8650SOL    HW137409   3.383   0.461  15.494 -0.3901  0.0489 -0.1737
 8650SOL    HW237410   3.486   0.420  15.408 -0.5031 -0.3168  3.4380
 8651SOL     OW37411   2.011   3.649   4.936  0.3677 -0.5678 -0.2977
 8651SOL    HW137412   2.045   3.724   4.985 -1.3706  0.4741 -0.6483
 8651SOL    HW237413   2.019   3.677   4.845 -2.2971  1.0909 -0.0400
 8652SOL     OW37414   3.662   3.234  12.123  0.2492  0.1429  0.0849
 8652SOL    HW137415   3.745   3.238  12.169  1.1550 -1.2466 -1.4517
 8652SOL    HW237416   3.666   3.303  12.056 -1.1930  1.5335  1.4064
 8653SOL     OW37417   4.534   0.614  14.766  0.4850  0.0664 -0.4145
 8653SOL    HW137418   4.511   0.696  14.810 -1.4518 -0.3980 -0.5416
 8653SOL    HW237419   4.478   0.617  14.687 -0.8770 -2.2759  0.4542
 8654SOL     OW37420   0.514   3.842   1.631  0.3924 -0.1756 -0.2096
 8654SOL    HW137421   0.589   3.840   1.691  1.2820 -2.7874 -1.4534
 8654SOL    HW237422   0.534   3.771   1.570 -1.7362 -1.2221  0.3387
 8655SOL     OW37423   0.433   0.433  10.768 -0.5129 -0.3356  0.2649
 8655SOL    HW137424   0.528   0.427  10.759 -0.1725  2.2748  1.9707
 8655SOL    HW237425   0.421   0.435  10.863 -1.3695 -1.6568  0.1798
 8656SOL     OW37426   1.253   3.250   8.928  0.4780 -0.1775 -0.4356
 8656SOL    HW137427   1.200   3.210   8.996  1.6317 -0.9004  0.0268
 8656SOL    HW237428   1.329   3.192   8.925 -1.1058 -2.1834 -2.1219
 8657SOL     OW37429   0.275   3.712  15.162  0.2913  0.4006  0.3010
 8657SOL    HW137430   0.364   3.712  15.198  1.3253 -1.5737 -2.2723
 8657SOL    HW237431   0.272   3.778  15.093 -1.2021  0.5753  0.5360
 8658SOL     OW37432   2.757   3.946   4.310  0.8065 -0.6708 -0.3644
 8658SOL    HW137433   2.795   3.858   4.311 -0.0737 -1.0309  1.3885
 8658SOL    HW237434   2.701   3.937   4.387  0.1687  0.9331 -0.6259
 8659SOL     OW37435   0.800   2.778   0.586  0.1803  0.1162  0.3574
 8659SOL    HW137436   0.835   2.838   0.652  0.7737 -1.3879  1.4109
 8659SOL    HW237437   0.743   2.839   0.538  1.5330  1.9332  1.0450
 8660SOL     OW37438   3.238   1.411   8.655 -0.0628 -0.4835  0.1432
 8660SOL    HW137439   3.330   1.425   8.633 -0.7217  1.9641 -1.0791
 8660SOL    HW237440   3.235   1.490   8.709  0.7902 -0.6639  0.4602
 8661SOL     OW37441   3.149   4.286   2.763  0.1765  0.5356 -0.1917
 8661SOL    HW137442   3.125   4.193   2.761  2.3314 -0.0626  1.4129
 8661SOL    HW237443   3.124   4.308   2.853  0.4597  0.9648 -0.2175
 8662SOL     OW37444   3.064   1.978   2.945  0.4085 -0.7239  0.1344
 8662SOL    HW137445   3.063   2.069   2.917  2.8544 -0.5934  0.4650
 8662SOL    HW237446   3.131   1.980   3.013  1.0455 -0.2993 -0.5193
 8663SOL     OW37447   0.007   4.246   1.772 -0.1614  0.4263  0.0989
 8663SOL    HW137448   4.720   4.152   1.780  1.1836  0.3032  0.9754
 8663SOL    HW237449   4.681   4.265   1.695 -0.2514 -1.4970 -0.2861
 8664SOL     OW37450   3.741   1.241   4.735 -0.5368 -0.5386  0.8007
 8664SOL    HW137451   3.708   1.319   4.689 -0.1328 -0.6845  0.2634
 8664SOL    HW237452   3.737   1.178   4.662 -0.7214  1.1827 -0.6719
 8665SOL     OW37453   3.539   1.907  14.906  0.2602 -0.1024  0.0585
 8665SOL    HW137454   3.513   1.814  14.906 -0.6812  0.1622 -0.7777
 8665SOL    HW237455   3.480   1.940  14.973  0.1577  0.5876 -0.3746
 8666SOL     OW37456   4.498   0.380   7.514  0.2716 -0.0614  0.1266
 8666SOL    HW137457   4.465   0.341   7.433  0.0032 -3.8202  2.0464
 8666SOL    HW237458   4.524   0.469   7.488 -2.5780  0.3744 -1.2383
 8667SOL     OW37459   4.297   3.377   2.021 -0.3814 -0.4380  0.0752
 8667SOL    HW137460   4.333   3.450   1.971 -2.7298  1.3075  0.9396
 8667SOL    HW237461   4.223   3.417   2.067 -1.7363 -0.1399 -2.3277
 8668SOL     OW37462   0.842   4.135   3.774 -0.0381 -0.2451  0.1923
 8668SOL    HW137463   0.757   4.141   3.731  0.0675 -0.6748 -0.0823
 8668SOL    HW237464   0.828   4.077   3.849 -0.6837  0.6663  0.7676
 8669SOL     OW37465   0.429   3.336   8.068  0.0538 -0.1260  0.1922
 8669SOL    HW137466   0.482   3.347   8.147 -0.1528  1.0895  0.1597
 8669SOL    HW237467   0.368   3.409   8.068 -1.5527 -1.4880  2.1649
 8670SOL     OW37468   3.980   3.836   1.269  0.1380 -0.3744 -0.2713
 8670SOL    HW137469   3.933   3.768   1.318 -0.6361  1.7424  1.9574
 8670SOL    HW237470   4.004   3.784   1.192  2.9386  0.6579 -0.0887
 8671SOL     OW37471   4.105   0.899   2.085  0.5266 -0.0028 -0.0045
 8671SOL    HW137472   4.149   0.972   2.127  2.2943 -1.5542  0.8299
 8671SOL    HW237473   4.167   0.829   2.106 -0.9864 -2.0549 -2.3822
 8672SOL     OW37474   1.804   2.615  15.327 -0.0501 -0.8204  0.3427
 8672SOL    HW137475   1.862   2.544  15.299  0.5251 -0.1057 -0.2526
 8672SOL    HW237476   1.834   2.697  15.288 -2.5529  0.0337  0.1991
 8673SOL     OW37477   0.440   3.549   9.299 -0.2092  0.5771  0.2049
 8673SOL    HW137478   0.349   3.556   9.272 -0.8318 -2.3975  1.5888
 8673SOL    HW237479   0.473   3.636   9.323  0.4071  0.4471 -0.1517
 8674SOL     OW37480   0.728   4.064   8.778 -0.2377  0.3824 -0.2259
 8674SOL    HW137481   0.678   4.094   8.702  0.5571 -1.1493 -1.3617
 8674SOL    HW237482   0.659   4.008   8.815 -0.7861  2.4573  1.9169
 8675SOL     OW37483   2.048   1.688   1.741  0.1229 -0.0293  0.3110
 8675SOL    HW137484   1.952   1.689   1.748 -0.0433  1.7067 -2.3927
 8675SOL    HW237485   2.074   1.750   1.809 -2.4117  0.9140  0.4407
 8676SOL     OW37486   2.541   4.028  14.198 -0.0078 -0.3166  0.9475
 8676SOL    HW137487   2.600   3.991  14.264 -1.8898 -1.3145  2.0638
 8676SOL    HW237488   2.490   4.088  14.252  2.7923  2.4154  0.5656
 8677SOL     OW37489   3.594   2.685   4.601 -0.0565 -0.3833  1.0232
 8677SOL    HW137490   3.560   2.773   4.587  0.1001 -1.1950 -4.2532
 8677SOL    HW237491   3.659   2.670   4.532 -1.2156  0.8630 -0.3282
 8678SOL     OW37492   3.056   0.693   3.721  0.4830  0.1622  0.1417
 8678SOL    HW137493   3.057   0.767   3.781 -1.7371 -1.6655  2.4529
 8678SOL    HW237494   3.099   0.626   3.775 -1.4438 -0.5418  0.8161
 8679SOL     OW37495   1.523   4.447   9.075  0.8006  0.5278 -0.4912
 8679SOL    HW137496   1.477   4.365   9.096  1.3937  0.6667  1.3387
 8679SOL    HW237497   1.467   4.517   9.109 -1.2578 -0.9377 -0.8219
 8680SOL     OW37498   0.457   2.059  13.792  0.3641 -0.2379  0.2355
 8680SOL    HW137499   0.533   2.106  13.827 -0.1193  1.9136 -1.5836
 8680SOL    HW237500   0.431   2.009  13.869  0.4539 -0.1271  0.3380
 8681SOL     OW37501   4.567   2.935   0.549  0.4763 -0.8745  0.5376
 8681SOL    HW137502   4.562   3.013   0.605  0.1772 -0.8654  0.4985
 8681SOL    HW237503   4.661   2.928   0.536  0.3410 -1.5853 -0.0228
 8682SOL     OW37504   4.018   4.635  17.092  0.0050  0.0884 -0.0271
 8682SOL    HW137505   4.094   4.604  17.042 -0.9308 -2.8889  0.3532
 8682SOL    HW237506   3.965   4.557  17.106  0.4123 -0.6023 -2.2539
 8683SOL     OW37507   2.726   4.166   7.780  0.1619  0.3779  0.2182
 8683SOL    HW137508   2.768   4.113   7.848 -0.3562 -0.7097 -0.3054
 8683SOL    HW237509   2.715   4.248   7.828  0.2638  0.6690 -0.2639
 8684SOL     OW37510   2.961   2.841   6.600  0.0385 -0.7075  0.4590
 8684SOL    HW137511   3.047   2.848   6.642  0.9034  0.6340 -1.5411
 8684SOL    HW237512   2.911   2.842   6.682 -1.1884 -0.1739 -0.3044
 8685SOL     OW37513   2.674   2.608  12.479  0.2559 -0.3000 -0.3384
 8685SOL    HW137514   2.713   2.685  12.520 -0.1310  1.4268 -3.2091
 8685SOL    HW237515   2.584   2.613  12.511 -0.4925 -2.9922 -1.9759
 8686SOL     OW37516   3.897   0.916   6.739  0.2891 -0.4111 -0.1400
 8686SOL    HW137517   3.918   0.938   6.830 -1.8837 -2.8956  0.9552
 8686SOL    HW237518   3.887   0.821   6.748  1.1877 -0.3555  1.6230
 8687SOL     OW37519   0.614   3.863   3.045  0.9109  0.0780  0.1032
 8687SOL    HW137520   0.598   3.840   2.953 -0.1102 -0.3604  0.3964
 8687SOL    HW237521   0.536   3.912   3.068  0.2586 -0.5476 -0.7910
 8688SOL     OW37522   1.246   1.250   8.319 -0.5346 -0.4320 -0.1589
 8688SOL    HW137523   1.315   1.316   8.331 -0.7450 -0.2376 -0.0343
 8688SOL    HW237524   1.227   1.224   8.409 -1.3505  1.1459  0.1273
 8689SOL     OW37525   1.090   3.514  17.626 -0.1577 -0.3396  0.2918
 8689SOL    HW137526   1.027   3.540  17.694  1.1177 -0.5938  1.5697
 8689SOL    HW237527   1.164   3.482  17.678 -0.0522  0.2118  0.4876
 8690SOL     OW37528   3.079   3.425   6.609  0.0816  0.0570  0.4145
 8690SOL    HW137529   3.141   3.407   6.680  2.9463 -0.4739 -2.2449
 8690SOL    HW237530   3.071   3.337   6.572  0.9153 -0.3152  1.1152
 8691SOL     OW37531   4.493   2.700  14.545 -0.3977  0.0977 -0.5444
 8691SOL    HW137532   4.412   2.749  14.556 -0.7559 -0.6416  0.0971
 8691SOL    HW237533   4.550   2.737  14.612 -0.7608 -0.3145 -0.0145
 8692SOL     OW37534   3.611   3.079  10.834  0.2719  0.5778 -0.3389
 8692SOL    HW137535   3.521   3.110  10.830 -0.4800 -1.4962  0.4886
 8692SOL    HW237536   3.591   2.985  10.826  0.0177  0.7549 -1.7696
 8693SOL     OW37537   1.666   4.452   5.636 -0.2492  0.0184 -0.3125
 8693SOL    HW137538   1.617   4.474   5.715 -0.3843  1.3058 -0.7604
 8693SOL    HW237539   1.704   4.537   5.616  1.2072 -0.6797 -0.4972
 8694SOL     OW37540   2.113   2.336  15.036 -0.2800  0.2555  0.0751
 8694SOL    HW137541   2.184   2.281  15.001 -0.2069 -0.1900  0.9274
 8694SOL    HW237542   2.148   2.422  15.014 -1.8946  1.3080  1.6697
 8695SOL     OW37543   3.275   1.240   2.069 -0.0873  0.0879 -0.1301
 8695SOL    HW137544   3.240   1.172   2.126 -0.4097  1.5181  1.3852
 8695SOL    HW237545   3.368   1.215   2.069 -0.1387 -0.0848 -1.5441
 8696SOL     OW37546   3.600   0.699   6.168  0.6713  0.3184 -0.2104
 8696SOL    HW137547   3.692   0.701   6.196  0.2570 -1.4758  1.2744
 8696SOL    HW237548   3.554   0.739   6.242  0.9834  0.7817 -0.2659
 8697SOL     OW37549   1.460   2.306   7.374  0.6121 -0.4791  0.6941
 8697SOL    HW137550   1.553   2.289   7.359  0.7852  0.6919  0.4730
 8697SOL    HW237551   1.458   2.400   7.355  2.0645  0.0324  3.1582
 8698SOL     OW37552   3.979   0.312  13.602 -0.8158  0.0886  0.3404
 8698SOL    HW137553   3.889   0.306  13.570 -1.1238  0.7648  1.1012
 8698SOL    HW237554   3.976   0.236  13.659 -0.8423  1.4313  2.1103
 8699SOL     OW37555   3.635   3.223   7.133 -0.0161  0.2614 -0.0416
 8699SOL    HW137556   3.629   3.272   7.215 -1.2764  0.0298  0.0069
 8699SOL    HW237557   3.728   3.208   7.116  0.0552 -1.0194  1.4408
 8700SOL     OW37558   2.682   4.673   8.051  0.0278 -0.4809 -0.4591
 8700SOL    HW137559   2.753   4.673   8.115 -0.1365  1.4302 -0.2789
 8700SOL    HW237560   2.634   0.017   8.093  0.2000  0.3999 -1.7681
 8701SOL     OW37561   3.962   3.187   5.834 -0.4525  0.1960 -0.1417
 8701SOL    HW137562   4.050   3.148   5.826 -0.9966 -1.1652  0.3976
 8701SOL    HW237563   3.928   3.113   5.885 -1.1186 -0.1564 -1.1000
 8702SOL     OW37564   2.866   1.093   7.226 -1.0598 -0.1124  0.2615
 8702SOL    HW137565   2.797   1.156   7.248 -0.8028  0.9133 -1.8921
 8702SOL    HW237566   2.836   1.019   7.279 -0.4674  0.1306  0.9395
 8703SOL     OW37567   0.515   1.275   1.002 -0.1068  0.1400 -0.0364
 8703SOL    HW137568   0.541   1.226   0.924  1.9736 -1.3567  1.6117
 8703SOL    HW237569   0.555   1.360   0.986  0.3972 -0.1179 -0.1376
 8704SOL     OW37570   1.491   0.944   6.136 -0.6726  0.2832 -0.1359
 8704SOL    HW137571   1.503   0.895   6.217  0.7008 -1.7056 -1.5393
 8704SOL    HW237572   1.432   1.017   6.157 -0.5798 -0.1058  1.4661
 8705SOL     OW37573   4.157   2.343   2.027  0.4938 -0.6419 -0.0972
 8705SOL    HW137574   4.170   2.292   1.948  2.9121 -0.9182  0.4818
 8705SOL    HW237575   4.081   2.294   2.060  1.0130 -2.7291 -2.0629
 8706SOL     OW37576   2.341   2.785  11.807 -0.2205  0.0481  0.2219
 8706SOL    HW137577   2.429   2.810  11.837 -0.1059 -0.3283  0.2002
 8706SOL    HW237578   2.286   2.819  11.877  1.5591 -0.6460  1.9644
 8707SOL     OW37579   1.593   0.863   8.389 -0.8145  0.1108  0.5176
 8707SOL    HW137580   1.535   0.908   8.451 -0.9240 -0.0894  0.5617
 8707SOL    HW237581   1.586   0.771   8.414 -3.8002 -0.3529 -2.0098
 8708SOL     OW37582   3.009   0.954   2.943 -0.2942 -0.2526  0.7665
 8708SOL    HW137583   3.098   0.954   2.980  0.8837 -0.7311 -2.0877
 8708SOL    HW237584   2.986   1.046   2.936  0.1366 -0.1979  0.1008
 8709SOL     OW37585   4.385   3.166   4.764 -0.3453 -0.2245 -0.6664
 8709SOL    HW137586   4.378   3.138   4.855 -1.2814 -1.5787 -1.1491
 8709SOL    HW237587   4.473   3.204   4.761 -0.5317  0.3068  0.3634
 8710SOL     OW37588   4.052   4.390  12.671  0.1096 -0.1370  0.1899
 8710SOL    HW137589   4.117   4.449  12.707  1.7819 -0.3447 -2.4495
 8710SOL    HW237590   3.969   4.426  12.702  0.3516  1.5937 -1.1429
 8711SOL     OW37591   3.431   1.729   4.947  0.0136 -0.1600  0.0907
 8711SOL    HW137592   3.381   1.809   4.965 -0.6396 -0.7147  0.7201
 8711SOL    HW237593   3.362   1.673   4.912  0.3606 -0.3337 -0.3212
 8712SOL     OW37594   3.912   0.799   7.246  0.2801 -0.3253  0.0919
 8712SOL    HW137595   3.887   0.827   7.334  0.1018  0.0044 -0.0669
 8712SOL    HW237596   3.897   0.881   7.199 -3.9061 -0.4562  1.1758
 8713SOL     OW37597   1.476   4.465   6.787  0.0623  0.8224 -0.4900
 8713SOL    HW137598   1.553   4.506   6.749 -0.3037  0.9308 -1.1104
 8713SOL    HW237599   1.491   4.376   6.755  1.7285  0.1502  2.1585
 8714SOL     OW37600   0.120   0.193  16.572 -0.2224  0.0245  0.4654
 8714SOL    HW137601   0.103   0.103  16.599 -0.7940 -0.0269 -0.0543
 8714SOL    HW237602   0.027   0.210  16.558 -0.1127  0.3364  0.0921
 8715SOL     OW37603   1.294   2.965   8.669  0.0117  0.2288 -0.0848
 8715SOL    HW137604   1.246   2.907   8.609  1.8903 -0.4979 -0.8794
 8715SOL    HW237605   1.303   2.915   8.749 -2.0767  1.1257  0.7046
 8716SOL     OW37606   4.390   0.254   6.846  0.0009  0.1436  0.0089
 8716SOL    HW137607   4.365   0.252   6.938  0.9474 -1.7837  0.2200
 8716SOL    HW237608   4.299   0.254   6.816  0.1933 -2.0445 -0.5635
 8717SOL     OW37609   2.567   3.147   4.857  0.9347 -0.0234  0.5225
 8717SOL    HW137610   2.636   3.081   4.859 -0.4241 -1.5464 -2.8084
 8717SOL    HW237611   2.564   3.180   4.767  0.6522  0.3012  0.6521
 8718SOL     OW37612   2.274   4.380   6.156 -0.1909  0.1618 -0.4383
 8718SOL    HW137613   2.314   4.341   6.234  2.0882 -0.4859 -1.9096
 8718SOL    HW237614   2.352   4.426   6.123  0.2233  0.0461  0.3819
 8719SOL     OW37615   1.505   1.592   4.709  0.0251 -0.1920 -0.1597
 8719SOL    HW137616   1.531   1.501   4.723 -0.3122 -0.6347 -2.3451
 8719SOL    HW237617   1.439   1.580   4.640 -0.2594  0.6459 -0.0342
 8720SOL     OW37618   0.613   2.286   8.373  0.1172 -0.3665  0.2378
 8720SOL    HW137619   0.637   2.347   8.443 -0.2847  0.7307 -0.6026
 8720SOL    HW237620   0.656   2.315   8.293 -1.0494 -0.7004 -0.5107
 8721SOL     OW37621   3.918   1.454   2.590 -0.0075  0.3677  0.2263
 8721SOL    HW137622   4.001   1.502   2.592 -1.3933  2.6937  2.3621
 8721SOL    HW237623   3.855   1.520   2.561 -0.6391  0.8680  2.7187
 8722SOL     OW37624   1.564   0.844   0.966 -0.3621 -0.3351 -0.3423
 8722SOL    HW137625   1.542   0.843   0.873 -0.2622 -2.5760 -0.3430
 8722SOL    HW237626   1.589   0.936   0.974 -0.7614 -0.1795 -0.9099
 8723SOL     OW37627   0.875   1.564  10.281  0.6260 -0.0123 -0.0072
 8723SOL    HW137628   0.887   1.475  10.315  0.2061  0.3026  0.9731
 8723SOL    HW237629   0.909   1.564  10.192  2.0419  2.4049  0.5384
 8724SOL     OW37630   3.344   2.865   7.390 -0.2442  0.0764  0.4981
 8724SOL    HW137631   3.330   2.946   7.439  3.2175 -0.2654  2.0164
 8724SOL    HW237632   3.422   2.901   7.350 -0.6158  1.4913  1.0332
 8725SOL     OW37633   3.378   2.968   3.885 -0.2412 -0.3859  0.1316
 8725SOL    HW137634   3.394   3.055   3.923 -2.5973 -0.3527  1.0867
 8725SOL    HW237635   3.358   2.996   3.796 -1.0000  0.3276  0.5166
 8726SOL     OW37636   0.237   1.737   7.111 -0.4473  0.6560  0.1521
 8726SOL    HW137637   0.223   1.676   7.184  0.3612 -0.0779 -0.3048
 8726SOL    HW237638   0.296   1.684   7.057  1.1107 -0.2251  2.7259
 8727SOL     OW37639   2.599   3.113   8.330  0.3306  0.5821 -0.6980
 8727SOL    HW137640   2.674   3.063   8.364 -0.3083  0.0872 -0.0242
 8727SOL    HW237641   2.530   3.082   8.389  0.3422  0.2229 -0.8714
 8728SOL     OW37642   2.171   3.666   4.593 -0.3038 -0.1449  0.5379
 8728SOL    HW137643   2.205   3.590   4.639 -0.0903  0.0193  0.6467
 8728SOL    HW237644   2.250   3.711   4.564 -0.7167 -0.7988 -1.6343
 8729SOL     OW37645   3.086   4.148  13.636  0.3562 -0.6188 -0.1518
 8729SOL    HW137646   3.043   4.117  13.556 -0.9744  1.4944 -0.2637
 8729SOL    HW237647   3.007   4.184  13.677  0.0981 -1.4472  0.0703
 8730SOL     OW37648   0.271   3.047   6.105  0.3127 -0.4142  0.5399
 8730SOL    HW137649   0.227   2.969   6.140 -1.4558  1.3319  2.1540
 8730SOL    HW237650   0.330   3.068   6.178 -1.9048  1.2742  1.8660
 8731SOL     OW37651   2.232   2.559  14.253 -0.9870 -0.0748  0.0632
 8731SOL    HW137652   2.301   2.502  14.219  0.4456  1.7774 -0.1203
 8731SOL    HW237653   2.279   2.627  14.300  1.1247 -0.0159 -2.1418
 8732SOL     OW37654   2.606   3.078   3.397  0.5264 -0.2906  0.1242
 8732SOL    HW137655   2.575   3.160   3.359  2.0635  0.8340  1.3612
 8732SOL    HW237656   2.544   3.019   3.353 -0.0501  1.6132 -1.6196
 8733SOL     OW37657   3.349   0.428   1.650 -0.0172 -0.1042  0.3881
 8733SOL    HW137658   3.295   0.415   1.572 -0.1758  1.7719  0.1814
 8733SOL    HW237659   3.330   0.347   1.698  0.1807 -0.7078 -0.5448
 8734SOL     OW37660   1.035   0.641   2.842  0.4496  0.1187  0.4679
 8734SOL    HW137661   1.075   0.577   2.783  2.7949  2.6156 -0.6246
 8734SOL    HW237662   0.946   0.631   2.807  0.2662 -2.0403  1.5872
 8735SOL     OW37663   0.718   2.060   7.242  0.3240  0.1801  0.0247
 8735SOL    HW137664   0.664   2.069   7.163 -1.4940 -0.0750  1.2480
 8735SOL    HW237665   0.655   2.099   7.302  0.8752  1.5466 -0.2580
 8736SOL     OW37666   4.305   2.760   6.877  0.0844 -0.0383 -0.7469
 8736SOL    HW137667   4.359   2.830   6.912  1.3179 -1.7006  0.6391
 8736SOL    HW237668   4.226   2.804   6.844 -0.0949  0.7810  0.7623
 8737SOL     OW37669   0.314   1.021   4.922 -0.3768 -0.2441 -0.2996
 8737SOL    HW137670   0.320   0.936   4.878  1.2437  1.5424 -3.5455
 8737SOL    HW237671   0.351   1.074   4.852  1.5673  0.5732  1.3514
 8738SOL     OW37672   2.752   0.814   5.292 -0.0420 -0.4820  0.0780
 8738SOL    HW137673   2.688   0.879   5.263 -0.5977 -1.0711 -0.0244
 8738SOL    HW237674   2.707   0.747   5.344  0.1336  0.0500  0.9110
 8739SOL     OW37675   3.711   2.361   8.589 -0.1637  0.0282 -0.5049
 8739SOL    HW137676   3.635   2.419   8.581  0.3756  0.4815 -2.2752
 8739SOL    HW237677   3.752   2.360   8.502  1.8607 -0.1031  0.4694
 8740SOL     OW37678   1.613   1.399   7.452  0.3576 -0.1933  0.0669
 8740SOL    HW137679   1.685   1.377   7.393  0.5182  1.0007 -0.1820
 8740SOL    HW237680   1.569   1.461   7.394 -0.5817  1.3948  2.4725
 8741SOL     OW37681   0.024   0.768   0.838 -0.0095  0.2157  0.5797
 8741SOL    HW137682   0.032   0.772   0.934 -0.6572 -0.7559  0.6808
 8741SOL    HW237683   0.116   0.756   0.819  0.1608  1.1263  0.8244
 8742SOL     OW37684   2.006   2.166   7.233 -0.3793  0.0013 -0.2889
 8742SOL    HW137685   1.966   2.155   7.147 -3.2227  2.2368  0.7670
 8742SOL    HW237686   2.029   2.259   7.229 -2.8759  0.6467  0.4451
 8743SOL     OW37687   0.861   1.541   5.373  0.5694  0.6763 -0.5873
 8743SOL    HW137688   0.944   1.587   5.380  0.8115  0.0710  0.5463
 8743SOL    HW237689   0.842   1.528   5.280 -0.2621 -0.9909 -0.1883
 8744SOL     OW37690   1.918   2.105   8.148 -0.5957 -0.2612  0.5385
 8744SOL    HW137691   1.913   2.199   8.167 -2.8530 -0.5716  1.4702
 8744SOL    HW237692   1.995   2.115   8.092 -0.7326 -0.4868  0.3122
 8745SOL     OW37693   0.219   1.604   8.419  0.1917 -0.0415  0.5669
 8745SOL    HW137694   0.138   1.562   8.447  0.0154  0.2045  0.4197
 8745SOL    HW237695   0.185   1.662   8.351 -0.6362 -0.5031  0.5852
 8746SOL     OW37696   2.406   1.121  10.961 -0.8072  0.4305  0.0088
 8746SOL    HW137697   2.402   1.118  11.057 -1.3023  0.6341 -0.0011
 8746SOL    HW237698   2.459   1.200  10.953  0.1030 -0.0691  1.0638
 8747SOL     OW37699   4.143   0.271   3.214 -0.3605 -0.2366 -0.3425
 8747SOL    HW137700   4.216   0.307   3.265  0.9698 -1.6851 -1.2499
 8747SOL    HW237701   4.112   0.352   3.172 -1.7384 -1.6333 -2.0141
 8748SOL     OW37702   4.174   1.751   1.499  0.3639  0.1341 -0.0996
 8748SOL    HW137703   4.206   1.695   1.427  2.4478  0.2604  0.7518
 8748SOL    HW237704   4.188   1.839   1.464 -0.5944 -0.6810 -2.5387
 8749SOL     OW37705   0.680   1.814   6.234 -0.6738 -0.0217 -0.1873
 8749SOL    HW137706   0.753   1.862   6.195 -0.4358 -0.0718  0.1954
 8749SOL    HW237707   0.653   1.749   6.169 -1.1289  1.7344 -1.7705
 8750SOL     OW37708   1.321   0.527  10.623 -0.1572  0.1264  0.0704
 8750SOL    HW137709   1.400   0.491  10.585 -1.4027 -1.5636 -0.9132
 8750SOL    HW237710   1.304   0.474  10.702 -1.0453  1.1416  0.5685
 8751SOL     OW37711   0.830   4.132   4.804  0.0610 -0.2139 -0.3832
 8751SOL    HW137712   0.790   4.138   4.891 -0.2729  1.6593 -0.6595
 8751SOL    HW237713   0.761   4.178   4.756  0.3012  1.2176  0.6420
 8752SOL     OW37714   2.470   0.184   0.688 -0.4172 -0.0425 -0.1037
 8752SOL    HW137715   2.381   0.153   0.669  0.6107 -1.7041 -2.1450
 8752SOL    HW237716   2.457   0.274   0.718  0.5202 -0.0077  0.1767
 8753SOL     OW37717   2.163   0.085   3.729  0.1320 -0.0814 -0.1471
 8753SOL    HW137718   2.220   0.053   3.799  0.0900  0.6355  0.2108
 8753SOL    HW237719   2.076   0.102   3.763  0.0665 -2.6432  1.0086
 8754SOL     OW37720   2.960   3.160   7.534  0.0507  0.6177 -0.4177
 8754SOL    HW137721   2.960   3.074   7.575 -0.3787 -0.2793 -2.3150
 8754SOL    HW237722   3.027   3.157   7.466  0.6995  1.6571  0.1700
 8755SOL     OW37723   3.695   3.925   0.331  0.1824 -0.6289  0.1461
 8755SOL    HW137724   3.679   3.972   0.412  3.0143 -1.7103  1.3252
 8755SOL    HW237725   3.624   3.861   0.341  0.1670 -0.9064 -1.7097
 8756SOL     OW37726   3.441   3.348  13.831  0.3178  0.0151 -0.1746
 8756SOL    HW137727   3.535   3.340  13.816  0.3418 -0.3267  0.1359
 8756SOL    HW237728   3.427   3.440  13.850 -0.8692  0.2273 -1.9980
 8757SOL     OW37729   0.675   2.366   3.076  0.0076  0.5974  0.2773
 8757SOL    HW137730   0.621   2.429   3.028 -1.9354 -1.3865 -0.1514
 8757SOL    HW237731   0.667   2.292   3.015 -0.6780 -0.3512  1.5176
 8758SOL     OW37732   2.479   2.486   8.541  0.0647 -0.2352  0.1799
 8758SOL    HW137733   2.398   2.499   8.589 -0.8806  2.5538 -2.1888
 8758SOL    HW237734   2.538   2.502   8.615 -1.7925  1.9927  1.1583
 8759SOL     OW37735   3.779   3.233   2.876 -0.4028 -0.0680  0.1638
 8759SOL    HW137736   3.823   3.308   2.835 -1.1074 -0.9468 -2.2211
 8759SOL    HW237737   3.702   3.282   2.904  0.9673  0.8046  2.4348
 8760SOL     OW37738   0.777   3.204  12.084 -0.5649  0.6902 -0.1770
 8760SOL    HW137739   0.806   3.198  12.175  0.0571  1.0479 -0.3498
 8760SOL    HW237740   0.740   3.292  12.078 -1.7632  0.2359  0.6630
 8761SOL     OW37741   3.464   0.210   2.543 -0.0611  0.0249  0.1059
 8761SOL    HW137742   3.465   0.271   2.469  0.0727 -0.6026 -0.4027
 8761SOL    HW237743   3.410   0.142   2.505  0.1504  0.3607 -0.8045
 8762SOL     OW37744   0.181   1.010  14.343 -0.0108  0.3064  0.6245
 8762SOL    HW137745   0.100   1.055  14.319  1.1737  1.0122 -2.0044
 8762SOL    HW237746   0.191   0.954  14.266 -0.6663  0.5691  0.3436
 8763SOL     OW37747   4.380   0.362  17.694  0.6233  0.1688  0.1320
 8763SOL    HW137748   4.327   0.325   0.057  0.7280  3.9928  2.2819
 8763SOL    HW237749   4.349   0.307  17.622 -0.3800  0.1504  0.5746
 8764SOL     OW37750   0.762   3.888  16.096 -0.2142 -0.3869  0.4566
 8764SOL    HW137751   0.678   3.843  16.100 -0.0590 -0.5804  1.5190
 8764SOL    HW237752   0.813   3.808  16.110 -1.4068 -1.0318  1.0721
 8765SOL     OW37753   1.921   0.322   3.448  0.5161  0.8187 -0.1136
 8765SOL    HW137754   1.984   0.393   3.459  2.3566 -1.1848  2.0856
 8765SOL    HW237755   1.960   0.249   3.401  3.7344  1.5528  1.4447
 8766SOL     OW37756   1.665   1.023  12.663 -0.1970  0.3326 -0.3863
 8766SOL    HW137757   1.748   1.042  12.620  0.1150  0.1845  0.1508
 8766SOL    HW237758   1.647   0.939  12.623 -0.9240 -0.1571  0.9581
 8767SOL     OW37759   2.745   0.586   5.120  0.0786  0.8445  0.4470
 8767SOL    HW137760   2.840   0.583   5.108 -0.3471 -0.9010 -2.4412
 8767SOL    HW237761   2.736   0.676   5.151 -0.6180  1.0354 -0.3075
 8768SOL     OW37762   1.797   2.896   7.522  0.1891  0.0602  0.1469
 8768SOL    HW137763   1.747   2.973   7.549 -0.5641 -0.5082  0.3827
 8768SOL    HW237764   1.864   2.891   7.590  0.9352 -1.0684 -0.6687
 8769SOL     OW37765   4.576   0.283  11.976 -0.4387 -0.4922 -0.3537
 8769SOL    HW137766   4.575   0.336  12.055 -3.8730  0.4500 -1.0395
 8769SOL    HW237767   4.628   0.342  11.920  0.5222 -0.7900  0.2299
 8770SOL     OW37768   1.053   3.920  11.505  0.4873 -0.3540 -0.2358
 8770SOL    HW137769   0.989   3.986  11.530 -0.1350 -0.5952 -1.1999
 8770SOL    HW237770   1.031   3.916  11.412 -0.0723  2.0772 -0.2011
 8771SOL     OW37771   2.940   2.241   9.577  0.3131  0.0025 -0.0321
 8771SOL    HW137772   2.915   2.332   9.559  1.8507  0.2645 -0.7846
 8771SOL    HW237773   2.947   2.244   9.672  0.8363 -2.5064  0.0126
 8772SOL     OW37774   2.851   2.879   7.345 -0.0513 -0.2310  0.3179
 8772SOL    HW137775   2.904   2.958   7.335  1.7441 -1.6361 -1.2582
 8772SOL    HW237776   2.829   2.857   7.255 -1.7238  0.0303  0.6669
 8773SOL     OW37777   0.990   4.717   3.661  0.0911  0.1616 -0.3445
 8773SOL    HW137778   0.941   4.634   3.657  1.2972 -0.5930  0.5049
 8773SOL    HW237779   0.946   0.026   3.738  0.3088 -0.6895  0.1689
 8774SOL     OW37780   2.107   1.585   7.310  0.4955 -0.3414 -0.1567
 8774SOL    HW137781   2.034   1.632   7.352  1.3494  1.1727 -0.3941
 8774SOL    HW237782   2.065   1.528   7.246 -2.1494  1.9158 -0.4205
 8775SOL     OW37783   1.316   3.240   1.267 -0.3276 -0.1589  0.0525
 8775SOL    HW137784   1.263   3.200   1.336 -0.1369  0.4579  0.5527
 8775SOL    HW237785   1.367   3.305   1.315 -1.1040  0.2854  0.2631
 8776SOL     OW37786   1.491   0.994  13.826 -0.3782 -0.1561  1.2745
 8776SOL    HW137787   1.477   1.064  13.763  1.3985 -0.5121  0.5039
 8776SOL    HW237788   1.433   1.016  13.899  0.1687  0.2391  1.5847
 8777SOL     OW37789   0.924   1.249   0.839 -0.1456 -0.3054 -0.0435
 8777SOL    HW137790   0.910   1.157   0.817  0.5206 -0.0718 -1.4697
 8777SOL    HW237791   0.849   1.295   0.803  0.1585  0.1279 -0.1270
 8778SOL     OW37792   2.761   2.483   7.364  0.9327  0.2773 -0.3762
 8778SOL    HW137793   2.745   2.406   7.419  1.0438  0.3919 -0.1858
 8778SOL    HW237794   2.822   2.530   7.421  0.6114 -1.3027  1.2645
 8779SOL     OW37795   4.026   2.671   5.671 -0.3810  0.3240 -0.0628
 8779SOL    HW137796   4.003   2.646   5.760  2.1963  2.9903  1.3379
 8779SOL    HW237797   4.017   2.590   5.620  2.7381 -0.2776  0.3622
 8780SOL     OW37798   2.260   0.379   6.944 -0.7641 -0.0647 -0.0388
 8780SOL    HW137799   2.221   0.466   6.938 -0.3493  0.0106 -1.5662
 8780SOL    HW237800   2.351   0.404   6.930 -0.7011 -2.0859 -3.2991
 8781SOL     OW37801   2.926   4.087  13.958 -0.3115 -0.3283 -0.1886
 8781SOL    HW137802   3.022   4.079  13.963 -0.4984 -0.9106  2.0607
 8781SOL    HW237803   2.897   4.030  14.028 -1.2076 -1.5507 -1.5728
 8782SOL     OW37804   1.483   1.679   2.495  0.0890 -0.1758  0.3601
 8782SOL    HW137805   1.435   1.657   2.415  0.8683 -1.4015  0.2286
 8782SOL    HW237806   1.574   1.663   2.470  0.1238  3.3311 -1.8053
 8783SOL     OW37807   1.523   1.736   0.666  0.2403 -0.2841  0.1218
 8783SOL    HW137808   1.573   1.777   0.595  0.9346 -0.4903  0.4883
 8783SOL    HW237809   1.490   1.821   0.695  0.9484  0.1019 -0.1989
 8784SOL     OW37810   2.798   3.450   8.679 -0.4094 -0.0186 -0.3675
 8784SOL    HW137811   2.882   3.449   8.725  0.2540  1.8563 -1.5456
 8784SOL    HW237812   2.752   3.510   8.737 -2.3279  1.6683 -3.6119
 8785SOL     OW37813   0.110   0.710   7.533 -0.1121 -0.4146  0.2826
 8785SOL    HW137814   0.115   0.804   7.515 -0.1958 -1.0983 -3.2998
 8785SOL    HW237815   0.029   0.688   7.487  0.7010 -0.1014 -1.2767
 8786SOL     OW37816   3.471   2.566  10.021  0.5832 -0.0179  0.5111
 8786SOL    HW137817   3.541   2.601   9.967 -0.6185 -2.2814 -2.4919
 8786SOL    HW237818   3.450   2.649  10.065 -0.4726 -0.1765  0.3000
 8787SOL     OW37819   4.365   2.544   7.778 -0.0252  0.0832  0.0047
 8787SOL    HW137820   4.430   2.475   7.789 -0.4635 -0.4332 -0.6314
 8787SOL    HW237821   4.408   2.619   7.819  0.2957 -0.1980  0.1864
 8788SOL     OW37822   3.700   1.786   8.509 -0.0764  0.2337 -0.1678
 8788SOL    HW137823   3.683   1.748   8.596 -1.2468  0.1497 -0.4265
 8788SOL    HW237824   3.774   1.734   8.479  1.0219  0.8956  1.3853
 8789SOL     OW37825   2.947   2.104  16.204 -0.0635  0.2291  0.4063
 8789SOL    HW137826   3.002   2.132  16.131 -1.7383  1.3868 -0.3987
 8789SOL    HW237827   2.997   2.025  16.225 -0.3391  0.0859  0.5143
 8790SOL     OW37828   4.299   1.047  14.244 -0.3387  0.2325 -0.5406
 8790SOL    HW137829   4.286   1.065  14.151 -0.3583 -1.5496 -0.8929
 8790SOL    HW237830   4.313   0.956  14.218 -0.7052 -0.7833  2.8593
 8791SOL     OW37831   1.610   0.537   8.890  0.2877 -0.5268  0.2469
 8791SOL    HW137832   1.671   0.521   8.963 -0.3752 -1.7923  0.5256
 8791SOL    HW237833   1.618   0.454   8.844  1.9518 -0.4617  0.4018
 8792SOL     OW37834   2.048   2.869   6.609  0.0799  0.1116 -0.4831
 8792SOL    HW137835   2.059   2.844   6.701 -2.5213  0.4329 -0.0834
 8792SOL    HW237836   2.130   2.918   6.602  0.3684 -0.3783 -0.5876
 8793SOL     OW37837   0.010   1.159   6.301 -0.4120  0.4374 -0.1000
 8793SOL    HW137838   0.078   1.124   6.358 -2.7687 -2.6255  0.7966
 8793SOL    HW237839   0.061   1.165   6.220  1.7661 -0.5154  1.2206
 8794SOL     OW37840   1.382   2.830   2.203 -0.0863  0.2493  0.1551
 8794SOL    HW137841   1.318   2.785   2.147  0.4218 -0.6096  0.2662
 8794SOL    HW237842   1.408   2.888   2.131 -1.4831 -0.3954 -0.8746
 8795SOL     OW37843   0.406   0.147  11.820  0.3208  0.2714  0.4460
 8795SOL    HW137844   0.402   0.105  11.734 -1.5980 -1.6106  1.4719
 8795SOL    HW237845   0.395   0.241  11.807 -2.1598 -0.6109 -3.8994
 8796SOL     OW37846   0.754   1.117   6.838 -0.2838 -0.0034 -0.0141
 8796SOL    HW137847   0.688   1.111   6.907 -2.0027  0.8216 -1.6244
 8796SOL    HW237848   0.844   1.121   6.870 -0.6284 -0.4515  1.0189
 8797SOL     OW37849   0.644   0.481   4.212  0.3613  0.1724 -0.2726
 8797SOL    HW137850   0.645   0.403   4.267 -1.4801 -2.3381 -3.7910
 8797SOL    HW237851   0.737   0.478   4.190  0.1336 -1.5009 -1.0234
 8798SOL     OW37852   2.364   0.541   8.144 -0.1609  0.2058  0.2222
 8798SOL    HW137853   2.391   0.603   8.212 -1.6193  0.1468  0.8622
 8798SOL    HW237854   2.405   0.465   8.185  1.5036  0.8537 -0.2431
 8799SOL     OW37855   4.646   1.666  13.919  0.1813 -0.3340 -0.0345
 8799SOL    HW137856   4.575   1.640  13.860  2.1969 -0.9767 -2.1662
 8799SOL    HW237857   4.673   1.586  13.965  0.4704 -0.4320 -0.3800
 8800SOL     OW37858   2.294   4.228   5.457 -0.6189  0.3188  0.1963
 8800SOL    HW137859   2.205   4.220   5.424 -0.2796  1.8331 -1.1343
 8800SOL    HW237860   2.306   4.148   5.507  2.6232  1.7572  1.7768
 8801SOL     OW37861   1.071   2.355   8.428  0.2150 -0.5708  0.3437
 8801SOL    HW137862   1.159   2.374   8.460 -0.5756 -0.8546  2.6807
 8801SOL    HW237863   1.056   2.281   8.487 -1.6135 -1.4514 -1.2112
 8802SOL     OW37864   4.166   2.465   8.502  0.3204 -0.1831 -0.1143
 8802SOL    HW137865   4.139   2.380   8.537 -0.0117  1.1399  2.7896
 8802SOL    HW237866   4.187   2.440   8.412 -1.8871 -1.7778 -0.1822
 8803SOL     OW37867   4.216   3.939   2.773 -0.5333 -0.6602  0.4725
 8803SOL    HW137868   4.273   3.912   2.701 -0.0416 -2.7498  1.6561
 8803SOL    HW237869   4.196   4.029   2.747  0.4485 -0.4391  0.4607
 8804SOL     OW37870   4.066   3.509   6.015 -0.2444 -0.1894  0.2152
 8804SOL    HW137871   4.052   3.490   5.922 -1.4112 -0.0285  0.3532
 8804SOL    HW237872   4.118   3.432   6.036  0.0920 -0.0020  0.0667
 8805SOL     OW37873   0.887   4.356   2.685  1.0141 -0.1585  0.3082
 8805SOL    HW137874   0.913   4.270   2.718  1.2695 -0.1801  0.0500
 8805SOL    HW237875   0.890   4.338   2.591  0.0051  0.0724  0.2272
 8806SOL     OW37876   2.378   4.636  12.046  0.5068  0.7198 -0.0288
 8806SOL    HW137877   2.406   4.612  11.957 -1.5044  2.3738 -1.1094
 8806SOL    HW237878   2.389   4.552  12.091  1.5270  1.2468  0.6996
 8807SOL     OW37879   2.689   3.535   1.823 -0.8468 -0.1861  0.2587
 8807SOL    HW137880   2.745   3.557   1.898  0.1932 -1.6538 -0.0785
 8807SOL    HW237881   2.657   3.451   1.857 -2.2629  0.1546 -0.2551
 8808SOL     OW37882   1.677   0.334   1.747  0.2043 -0.1142 -0.5270
 8808SOL    HW137883   1.705   0.327   1.655 -1.7343 -1.1830 -1.0426
 8808SOL    HW237884   1.644   0.424   1.745  0.5383  0.0275  0.4432
 8809SOL     OW37885   3.200   2.121   6.611  0.2222 -0.5293  0.5433
 8809SOL    HW137886   3.155   2.088   6.689 -1.0279  0.3774  0.2039
 8809SOL    HW237887   3.282   2.152   6.648 -0.5393  1.4547  0.6027
 8810SOL     OW37888   2.233   2.795   2.482  0.2213 -0.4904  0.5451
 8810SOL    HW137889   2.191   2.878   2.459  1.0525 -0.4799 -0.9075
 8810SOL    HW237890   2.164   2.744   2.524 -2.2594  1.0450 -1.6643
 8811SOL     OW37891   2.960   1.617  17.203  0.4595 -0.0993 -0.0114
 8811SOL    HW137892   3.012   1.666  17.267 -0.0273  1.6289 -0.9193
 8811SOL    HW237893   2.955   1.535  17.251 -1.0019 -0.4826 -0.8294
 8812SOL     OW37894   2.086   2.292   0.146  0.4564 -0.3073  0.4229
 8812SOL    HW137895   2.027   2.254   0.212  0.8393 -1.0843  0.3199
 8812SOL    HW237896   2.129   2.361   0.197  0.4441 -0.0673  0.1046
 8813SOL     OW37897   3.576   1.744   7.519  0.5638  0.3243  0.3327
 8813SOL    HW137898   3.494   1.793   7.520 -0.3656 -1.2451  0.8808
 8813SOL    HW237899   3.552   1.690   7.594 -1.1475  0.5200 -0.0772
 8814SOL     OW37900   3.755   0.489  16.610 -0.0451 -0.4842 -0.1252
 8814SOL    HW137901   3.660   0.480  16.618 -0.1187 -0.5517 -1.0646
 8814SOL    HW237902   3.758   0.431  16.534 -0.0884 -0.8946  0.1875
 8815SOL     OW37903   2.842   1.801   4.815 -0.5874  0.4836 -0.0470
 8815SOL    HW137904   2.759   1.850   4.811 -1.6308 -1.1400  1.9292
 8815SOL    HW237905   2.802   1.724   4.774  0.8745  0.4859 -1.4592
 8816SOL     OW37906   4.207   4.298  12.465  0.2912  0.0408  0.4853
 8816SOL    HW137907   4.219   4.224  12.524  1.2979  0.3224  0.6440
 8816SOL    HW237908   4.156   4.359  12.519 -1.1303  0.1097 -0.9528
 8817SOL     OW37909   2.172   3.422   5.080  0.1456 -0.1477  0.2211
 8817SOL    HW137910   2.247   3.383   5.035 -1.2793 -0.6074 -1.7880
 8817SOL    HW237911   2.161   3.508   5.039 -1.6089 -0.6519 -0.3711
 8818SOL     OW37912   3.031   1.093   2.565  0.4708 -0.7089  0.1560
 8818SOL    HW137913   3.047   1.007   2.526 -4.8019 -1.5061 -0.2732
 8818SOL    HW237914   3.060   1.167   2.511  2.6083 -2.8762 -1.6478
 8819SOL     OW37915   4.409   4.273   6.224 -0.0253 -0.4912 -0.3678
 8819SOL    HW137916   4.436   4.347   6.169  1.0274 -0.8284 -0.2996
 8819SOL    HW237917   4.430   4.308   6.310  0.7169  1.3867 -1.3173
 8820SOL     OW37918   2.764   2.550   2.908 -0.0566  0.1081  0.1741
 8820SOL    HW137919   2.727   2.633   2.877 -0.6755 -0.5127 -0.7068
 8820SOL    HW237920   2.786   2.577   2.997  1.6767 -0.8937  0.0370
 8821SOL     OW37921   3.423   3.466   5.112 -0.1144  0.3755 -0.0998
 8821SOL    HW137922   3.410   3.506   5.026  0.3464 -0.4128 -0.5322
 8821SOL    HW237923   3.474   3.530   5.162  1.7225 -0.8693 -0.3862
 8822SOL     OW37924   4.615   4.148   1.178  0.5109 -0.0563 -0.0402
 8822SOL    HW137925   4.641   4.104   1.097  0.1392 -0.7796  0.2334
 8822SOL    HW237926   4.655   4.094   1.246 -1.6753 -2.7248 -0.8590
 8823SOL     OW37927   2.557   1.203   2.845 -0.7448 -0.2530  0.7542
 8823SOL    HW137928   2.635   1.198   2.789 -2.1494 -2.2005 -1.0566
 8823SOL    HW237929   2.531   1.294   2.834  0.6172 -0.1026 -1.3479
 8824SOL     OW37930   4.458   4.017   4.727  0.7360  0.0445 -0.3355
 8824SOL    HW137931   4.392   3.948   4.729  1.0186 -0.1719  1.5851
 8824SOL    HW237932   4.527   3.981   4.671 -0.2447 -0.6434 -1.1132
 8825SOL     OW37933   1.950   4.524   1.946 -0.0240 -0.3653  0.6260
 8825SOL    HW137934   2.018   4.583   1.978 -1.6256  1.6356  0.3051
 8825SOL    HW237935   1.892   4.508   2.020  1.1102 -0.6293  1.4655
 8826SOL     OW37936   0.113   1.899   5.932  0.2924 -0.3129 -0.0502
 8826SOL    HW137937   0.088   1.813   5.964 -1.0482  0.7195  1.7110
 8826SOL    HW237938   0.198   1.917   5.972  1.7454  0.0567 -3.3560
 8827SOL     OW37939   1.377   1.375   2.561 -0.0190  0.6676 -0.1865
 8827SOL    HW137940   1.336   1.310   2.619  0.2741 -0.0526 -0.7802
 8827SOL    HW237941   1.431   1.315   2.509 -1.4664  0.0849 -1.0098
 8828SOL     OW37942   0.537   4.219   3.458  0.4323  0.3592  0.2023
 8828SOL    HW137943   0.472   4.160   3.498  1.1437 -0.3615  0.2954
 8828SOL    HW237944   0.595   4.147   3.432  3.0799  2.7562 -0.4575
 8829SOL     OW37945   0.368   2.596   1.976 -0.4347  0.6015  0.0538
 8829SOL    HW137946   0.290   2.544   1.999  0.2295 -0.1252  0.6627
 8829SOL    HW237947   0.331   2.667   1.923 -1.8955 -1.6227 -1.9288
 8830SOL     OW37948   0.568   4.488  15.670 -0.2548  0.5878  0.1593
 8830SOL    HW137949   0.656   4.523  15.663 -0.0755  0.1385  0.1698
 8830SOL    HW237950   0.549   4.471  15.578 -1.0658  0.0306  0.4217
 8831SOL     OW37951   0.792   1.691   6.439  0.4199 -0.1610 -0.2721
 8831SOL    HW137952   0.742   1.733   6.369  2.7369  1.4199 -0.9880
 8831SOL    HW237953   0.873   1.688   6.387  0.7570 -0.6701  0.2857
 8832SOL     OW37954   4.047   2.820   6.767  0.1197 -0.5098  0.2651
 8832SOL    HW137955   3.978   2.761   6.794 -1.1019  0.8824  0.2079
 8832SOL    HW237956   4.003   2.900   6.796 -3.3603 -2.0327 -0.7692
 8833SOL     OW37957   4.024   1.913   6.432 -0.1392 -0.2452  0.2995
 8833SOL    HW137958   3.947   1.875   6.389 -0.0205  1.1338 -1.1085
 8833SOL    HW237959   4.085   1.839   6.425  1.9147  1.5469 -0.4407
 8834SOL     OW37960   3.285   3.812   9.548 -0.1557 -0.8156  0.2930
 8834SOL    HW137961   3.272   3.747   9.479 -1.1302 -0.7714  0.4392
 8834SOL    HW237962   3.379   3.797   9.554 -0.2168 -0.9829  0.8348
 8835SOL     OW37963   1.151   4.106   4.130 -0.2476  0.0507 -0.0709
 8835SOL    HW137964   1.151   4.074   4.220  0.8159 -1.5266 -0.6301
 8835SOL    HW237965   1.060   4.128   4.111 -0.8109 -1.0608  1.3120
 8836SOL     OW37966   1.960   2.400  16.286 -0.5473  0.2372 -0.0694
 8836SOL    HW137967   1.978   2.405  16.379  0.6418 -2.5956 -0.1524
 8836SOL    HW237968   1.927   2.311  16.268 -3.4402  0.8235  2.3206
 8837SOL     OW37969   1.325   1.532  13.827 -0.1639 -0.1160 -0.2470
 8837SOL    HW137970   1.267   1.561  13.755 -0.8369  0.9958  0.7429
 8837SOL    HW237971   1.258   1.501  13.888  0.8789 -1.3353  0.2549
 8838SOL     OW37972   2.747   1.465  13.344  0.8128 -0.2820  0.2282
 8838SOL    HW137973   2.664   1.513  13.340  0.1111 -1.5829 -0.6746
 8838SOL    HW237974   2.772   1.443  13.254 -1.0548 -0.9633 -0.1288
 8839SOL     OW37975   3.689   1.997   3.331  0.0835 -0.5545 -0.0523
 8839SOL    HW137976   3.742   1.978   3.408 -0.7771 -3.5380 -0.2082
 8839SOL    HW237977   3.740   1.954   3.263 -0.4126 -1.4282  0.1375
 8840SOL     OW37978   0.867   4.554  17.686 -0.2131  0.6412 -0.2488
 8840SOL    HW137979   0.955   4.591  17.693 -0.5237  1.5807 -1.2450
 8840SOL    HW237980   0.828   4.621  17.629 -2.8203  1.8652  2.9606
 8841SOL     OW37981   0.771   2.202  10.789 -0.2698 -0.0002 -0.5381
 8841SOL    HW137982   0.784   2.132  10.725 -1.0096 -0.4704 -0.1771
 8841SOL    HW237983   0.679   2.200  10.814 -0.2164 -2.2611 -0.5300
 8842SOL     OW37984   4.559   0.842   5.722  0.6345  0.1167  0.1817
 8842SOL    HW137985   4.472   0.852   5.760 -0.1689  0.0387 -1.5980
 8842SOL    HW237986   4.552   0.752   5.692 -0.2871  0.0809  0.4821
 8843SOL     OW37987   3.720   1.672   1.787  0.0648 -0.4111  0.1784
 8843SOL    HW137988   3.698   1.723   1.709  1.7495  1.6453  1.0538
 8843SOL    HW237989   3.803   1.637   1.757  1.2816  0.9599  1.9295
 8844SOL     OW37990   1.873   0.659   4.723  0.4082  0.8899 -0.4201
 8844SOL    HW137991   1.887   0.686   4.633  0.5624  1.3152 -0.2696
 8844SOL    HW237992   1.904   0.732   4.776  1.4767 -0.4556  0.8220
 8845SOL     OW37993   2.457   0.510   3.885  0.3466 -0.1696 -0.1859
 8845SOL    HW137994   2.502   0.593   3.869 -0.9541  0.5899  0.0014
 8845SOL    HW237995   2.532   0.452   3.888  0.4707  0.0995  1.7406
 8846SOL     OW37996   3.878   0.182   2.453 -0.3631  0.1054 -0.7619
 8846SOL    HW137997   3.868   0.245   2.524  0.6211  0.3992 -0.8818
 8846SOL    HW237998   3.800   0.199   2.400 -0.7516 -1.7420 -0.7747
 8847SOL     OW37999   3.045   3.328   0.419  0.1320 -0.7754  0.1057
 8847SOL    HW138000   3.062   3.398   0.483  0.2699  0.1305 -0.9217
 8847SOL    HW238001   2.979   3.375   0.368  1.2888 -0.9064 -1.4975
 8848SOL     OW38002   3.291   1.407  13.712  0.4298 -0.4995 -0.4354
 8848SOL    HW138003   3.205   1.404  13.671 -0.1749 -0.2701  0.8247
 8848SOL    HW238004   3.298   1.498  13.740  0.8703 -0.1796 -1.5701
 8849SOL     OW38005   3.180   1.273  14.757 -0.7899  0.4922 -0.5431
 8849SOL    HW138006   3.154   1.325  14.834 -2.5714 -0.0806 -0.7437
 8849SOL    HW238007   3.098   1.228  14.738  0.7208 -2.0802 -0.9063
 8850SOL     OW38008   3.901   4.500  14.118  0.6956  0.2427 -0.0350
 8850SOL    HW138009   3.884   4.475  14.208  2.8527 -0.2962  0.2139
 8850SOL    HW238010   3.825   4.555  14.096 -0.8290 -1.0566  2.0380
 8851SOL     OW38011   4.657   0.853  12.988  0.2844 -0.2314 -0.7379
 8851SOL    HW138012   4.690   0.777  13.035 -1.0834 -1.3078 -1.4875
 8851SOL    HW238013   0.014   0.881  12.951 -0.1653  0.5138 -1.1914
 8852SOL     OW38014   3.958   4.387  15.706  0.2781 -0.5802 -0.0919
 8852SOL    HW138015   3.912   4.425  15.781 -0.9331  0.3444 -1.2997
 8852SOL    HW238016   4.047   4.405  15.735 -0.4594 -0.7955  2.3091
 8853SOL     OW38017   0.820   0.462   5.888 -0.7656  0.3872  0.4288
 8853SOL    HW138018   0.746   0.503   5.932 -0.1344  0.6027  1.2816
 8853SOL    HW238019   0.893   0.515   5.919 -1.2114 -0.4964  3.0076
 8854SOL     OW38020   2.819   0.194   6.426  0.7110  0.1804 -0.3970
 8854SOL    HW138021   2.872   0.193   6.346 -0.6460  1.3056 -1.3138
 8854SOL    HW238022   2.855   0.274   6.466  0.4862 -1.3064  2.7519
 8855SOL     OW38023   0.093   1.312   9.451 -0.1877  0.2982  0.2221
 8855SOL    HW138024   0.082   1.249   9.522  2.0435  0.8144  1.0423
 8855SOL    HW238025   0.039   1.262   9.390  0.1291 -0.6407  0.7049
 8856SOL     OW38026   0.338   3.062   7.464  0.8462 -0.9129 -0.3069
 8856SOL    HW138027   0.428   3.075   7.496  0.7521  3.0474 -1.6745
 8856SOL    HW238028   0.310   3.150   7.490  0.0585 -0.3452 -3.0339
 8857SOL     OW38029   0.046   1.662   6.439  0.3896  0.6920  0.0563
 8857SOL    HW138030   0.014   1.724   6.374 -1.3351 -1.1066 -0.8302
 8857SOL    HW238031   4.719   1.585   6.419  0.7251  0.2145  0.9885
 8858SOL     OW38032   4.179   1.271   7.630  0.0689  0.0248 -0.1880
 8858SOL    HW138033   4.149   1.216   7.702  1.4876  1.8871  1.8369
 8858SOL    HW238034   4.155   1.219   7.553 -0.8189 -1.3210  0.9909
 8859SOL     OW38035   1.670   4.450   1.179  0.0559  0.0799 -0.0672
 8859SOL    HW138036   1.648   4.536   1.143 -1.2675 -0.6534 -1.0100
 8859SOL    HW238037   1.584   4.416   1.154 -0.4656  1.2891  0.0894
 8860SOL     OW38038   1.286   3.340   2.982 -0.1894 -0.4803 -0.2340
 8860SOL    HW138039   1.365   3.391   3.001 -1.4331  1.4363 -0.2087
 8860SOL    HW238040   1.218   3.389   3.029 -0.2409 -0.6375 -0.1430
 8861SOL     OW38041   0.767   0.696   6.777  0.4741  0.2182 -0.8755
 8861SOL    HW138042   0.825   0.713   6.703  2.3008 -0.8995  0.3016
 8861SOL    HW238043   0.705   0.632   6.741 -0.7372 -0.2646  2.0678
 8862SOL     OW38044   0.724   3.784  10.455  0.0443  0.0535 -0.3411
 8862SOL    HW138045   0.727   3.864  10.403 -0.5332 -0.2211 -0.8026
 8862SOL    HW238046   0.659   3.741  10.399  0.3023  1.7601 -1.9045
 8863SOL     OW38047   1.439   3.532   9.808 -0.1358  0.4462 -0.3040
 8863SOL    HW138048   1.486   3.529   9.891 -0.1319 -0.6610 -0.3467
 8863SOL    HW238049   1.491   3.460   9.771 -0.5599 -1.0563  2.0207
 8864SOL     OW38050   0.954   3.545   1.444  0.1785 -0.2209  0.3086
 8864SOL    HW138051   0.969   3.595   1.364  1.4912 -1.6385 -0.3472
 8864SOL    HW238052   0.875   3.589   1.473 -0.8055 -0.5595 -1.8642
 8865SOL     OW38053   2.581   1.641   3.697 -0.0271  0.3202  0.7579
 8865SOL    HW138054   2.514   1.585   3.658 -0.2327 -0.1385  1.7793
 8865SOL    HW238055   2.565   1.731   3.670  0.3624  0.6648  1.6850
 8866SOL     OW38056   3.364   4.277   0.967 -0.6293  0.5013  0.4389
 8866SOL    HW138057   3.315   4.327   1.032 -1.0336 -0.1263  0.6224
 8866SOL    HW238058   3.443   4.330   0.980 -0.4241  0.0439  1.0887
 8867SOL     OW38059   1.195   2.404  10.079 -0.2917  0.7143 -0.5112
 8867SOL    HW138060   1.161   2.375   9.994  1.1176 -0.2843 -0.7311
 8867SOL    HW238061   1.288   2.397  10.059 -0.0565  1.6872  0.2726
 8868SOL     OW38062   2.475   2.821   1.440  0.4847  0.1462 -0.4308
 8868SOL    HW138063   2.505   2.730   1.449  1.8403  0.4874 -1.5006
 8868SOL    HW238064   2.555   2.862   1.407  0.5376 -0.3792 -0.9369
 8869SOL     OW38065   3.125   2.498  14.307 -0.2096  0.5337  0.2738
 8869SOL    HW138066   3.216   2.471  14.296 -0.7817 -1.4152  0.1873
 8869SOL    HW238067   3.103   2.548  14.229  0.1935  0.5879  0.1999
 8870SOL     OW38068   0.310   2.915  12.882 -0.5106 -0.1218  0.0852
 8870SOL    HW138069   0.311   2.963  12.799 -0.0593 -1.1367 -0.4907
 8870SOL    HW238070   0.245   2.956  12.939 -1.0011 -0.1657 -0.4448
 8871SOL     OW38071   4.304   1.010   6.774 -0.8243  0.2240 -0.2362
 8871SOL    HW138072   4.294   1.052   6.689  1.5302  1.1746 -0.0526
 8871SOL    HW238073   4.297   0.921   6.738  0.6634  0.5083 -1.2183
 8872SOL     OW38074   1.252   4.550   1.197  0.4699 -0.6859 -0.1652
 8872SOL    HW138075   1.329   4.508   1.158  1.7072  0.9023  0.5124
 8872SOL    HW238076   1.182   4.532   1.135 -0.0246  3.1110 -0.7070
 8873SOL     OW38077   0.623   3.811  13.530  0.3912  0.6297 -0.3653
 8873SOL    HW138078   0.577   3.885  13.491 -2.9996  0.0581  2.5905
 8873SOL    HW238079   0.558   3.762  13.580 -1.8892  2.5567 -1.4072
 8874SOL     OW38080   4.273   4.558  14.665  0.4023 -0.2466 -0.3880
 8874SOL    HW138081   4.202   4.552  14.601  0.7409 -1.0758 -0.6800
 8874SOL    HW238082   4.306   4.469  14.656 -1.6449 -1.1766  1.3370
 8875SOL     OW38083   3.174   1.773  10.299 -0.0747 -0.3317 -0.0081
 8875SOL    HW138084   3.080   1.767  10.314 -0.0417 -0.7537  0.0322
 8875SOL    HW238085   3.164   1.765  10.205 -1.5322  1.9930 -0.0659
 8876SOL     OW38086   0.263   3.994  13.598  0.1858  0.2153 -0.2736
 8876SOL    HW138087   0.211   4.074  13.604  3.9740  2.6727 -0.0671
 8876SOL    HW238088   0.228   3.935  13.665  1.2444 -0.1203 -0.0122
 8877SOL     OW38089   2.840   0.648  15.774  0.0484  0.4309 -0.3848
 8877SOL    HW138090   2.799   0.608  15.697 -2.3279 -0.3561  1.2845
 8877SOL    HW238091   2.875   0.569  15.815 -1.3936  0.3528  0.6890
 8878SOL     OW38092   1.014   1.966   4.925  0.2799 -0.1252  0.3961
 8878SOL    HW138093   0.974   1.909   4.991  1.4274 -0.3080  0.9450
 8878SOL    HW238094   1.081   1.910   4.885  1.1973  0.4665  1.0868
 8879SOL     OW38095   0.333   2.671   3.219 -0.5467  0.3264 -0.0884
 8879SOL    HW138096   0.278   2.745   3.196  2.8672  2.9392  0.0655
 8879SOL    HW238097   0.379   2.653   3.136 -0.0405 -0.4666  0.3592
 8880SOL     OW38098   0.850   2.163   0.480  0.3663 -0.1526 -0.2099
 8880SOL    HW138099   0.852   2.192   0.571 -0.4647 -0.0331 -0.2247
 8880SOL    HW238100   0.845   2.244   0.429  1.7930 -0.2314 -0.4707
 8881SOL     OW38101   1.536   3.349   4.309  0.5072 -0.6826  0.3461
 8881SOL    HW138102   1.529   3.339   4.214 -0.9556  0.8002  0.2980
 8881SOL    HW238103   1.561   3.260   4.333 -1.1434 -0.9684  0.9767
 8882SOL     OW38104   3.116   3.266   7.071  0.1473  0.2323  0.5089
 8882SOL    HW138105   3.062   3.250   6.993 -0.2679 -1.4329  1.1378
 8882SOL    HW238106   3.093   3.357   7.087 -0.0474  0.5958 -1.8373
 8883SOL     OW38107   2.298   3.197   3.501  0.7940  0.1924  0.3343
 8883SOL    HW138108   2.313   3.103   3.500 -0.7427 -0.0411 -0.1304
 8883SOL    HW238109   2.325   3.232   3.587  1.0027  0.2076  0.2641
 8884SOL     OW38110   1.512   1.661   1.775  0.4285 -0.5506  0.3820
 8884SOL    HW138111   1.443   1.678   1.838  1.2475 -2.9632  1.9312
 8884SOL    HW238112   1.462   1.611   1.711  1.3511 -0.5106 -0.3700
 8885SOL     OW38113   0.733   3.040   2.546  0.3485 -0.3713 -0.3925
 8885SOL    HW138114   0.811   3.040   2.602 -0.4918  2.7162  0.7838
 8885SOL    HW238115   0.685   2.968   2.588  2.8103  0.4279  3.8744
 8886SOL     OW38116   4.127   2.440   4.896  0.3478 -0.6999  0.2094
 8886SOL    HW138117   4.131   2.485   4.980  0.3756 -0.6142  0.1622
 8886SOL    HW238118   4.208   2.480   4.862 -0.6529  1.7046  0.6606
 8887SOL     OW38119   0.564   4.515  11.914  0.5375 -0.0899 -0.3022
 8887SOL    HW138120   0.607   4.600  11.909  0.2168  0.0539 -0.5903
 8887SOL    HW238121   0.489   4.535  11.971  0.1462 -0.3136 -0.7318
 8888SOL     OW38122   1.076   4.559   2.781  0.0750  0.4979  0.3939
 8888SOL    HW138123   1.033   4.483   2.741 -0.1434  0.8125  0.0269
 8888SOL    HW238124   1.102   4.610   2.704 -0.1422 -0.2421 -0.1794
 8889SOL     OW38125   4.662   3.331   3.885 -0.1848  0.0822  0.3601
 8889SOL    HW138126   0.013   3.361   3.933  0.6144 -1.4099 -0.0165
 8889SOL    HW238127   4.597   3.289   3.942 -0.0670 -0.8765 -0.2132
 8890SOL     OW38128   4.083   4.199  13.741  0.5607  0.2458  0.1808
 8890SOL    HW138129   4.089   4.193  13.646  1.6033 -2.1191  0.3983
 8890SOL    HW238130   4.163   4.150  13.761  0.8152  0.5237 -0.1564
 8891SOL     OW38131   3.724   0.849   4.926 -0.6650 -0.1564  0.4340
 8891SOL    HW138132   3.695   0.930   4.969 -3.0350  0.1993 -1.7976
 8891SOL    HW238133   3.718   0.784   4.995 -1.1259  1.1982  1.6660
 8892SOL     OW38134   1.731   1.769   2.970  0.2218 -0.7853 -1.0552
 8892SOL    HW138135   1.689   1.854   2.959 -1.3236 -1.4719 -0.5219
 8892SOL    HW238136   1.686   1.719   2.902 -1.4282 -1.3708  0.4673
 8893SOL     OW38137   0.133   2.178   4.347 -0.1386  0.5280  0.1994
 8893SOL    HW138138   0.057   2.135   4.308  1.8618 -2.6332 -0.2517
 8893SOL    HW238139   0.099   2.258   4.387  0.3772  0.1377  1.3913
 8894SOL     OW38140   1.835   2.213   7.835  0.4497  0.0628 -0.0901
 8894SOL    HW138141   1.885   2.287   7.869 -0.0269  0.9200 -1.2335
 8894SOL    HW238142   1.782   2.266   7.775 -0.0270 -0.6957 -0.3402
 8895SOL     OW38143   3.046   2.277   2.983 -0.6969  0.1218  0.3439
 8895SOL    HW138144   3.117   2.311   3.038 -0.4800 -0.1629  0.2395
 8895SOL    HW238145   3.098   2.282   2.903 -2.2722  0.2370 -0.6692
 8896SOL     OW38146   0.138   3.007   6.834 -0.5638 -0.1591  0.1482
 8896SOL    HW138147   0.117   2.915   6.849  1.0689 -0.8440 -1.7318
 8896SOL    HW238148   0.223   3.013   6.878 -0.0013  0.6554 -1.0550
 8897SOL     OW38149   2.776   3.769   2.542 -0.2309 -0.6395 -0.2492
 8897SOL    HW138150   2.836   3.782   2.615 -2.2544 -0.9969  1.4972
 8897SOL    HW238151   2.774   3.856   2.501 -2.4144 -1.0371 -1.0068
 8898SOL     OW38152   0.402   4.148   7.414 -0.2873 -0.1373 -0.7316
 8898SOL    HW138153   0.358   4.226   7.447 -1.0214 -0.6676 -0.4263
 8898SOL    HW238154   0.338   4.078   7.430 -0.3484 -0.0121 -0.4266
 8899SOL     OW38155   2.302   2.172  14.018 -0.1479  0.2952 -0.2095
 8899SOL    HW138156   2.235   2.120  14.063  0.8646 -1.5253 -0.8434
 8899SOL    HW238157   2.262   2.210  13.940 -1.5785  1.1155  0.9222
 8900SOL     OW38158   0.706   1.873   3.094 -0.0953  0.0864 -0.5257
 8900SOL    HW138159   0.626   1.822   3.081  1.0046 -1.4402 -1.2790
 8900SOL    HW238160   0.779   1.819   3.063  1.5613  1.3936  1.1465
 8901SOL     OW38161   4.028   0.434   0.058  0.6214  0.5497 -0.0643
 8901SOL    HW138162   4.062   0.345   0.066  1.1806  0.8393  0.7558
 8901SOL    HW238163   4.090   0.487   0.108  1.0821 -0.3423  0.3115
 8902SOL     OW38164   0.301   0.337   8.425 -0.2406  0.2069 -0.7952
 8902SOL    HW138165   0.210   0.318   8.404 -0.9493  1.5025  1.1372
 8902SOL    HW238166   0.337   0.347   8.336  1.3574 -2.8639 -0.4958
 8903SOL     OW38167   1.332   3.267   2.471 -0.5791 -0.5897 -0.1923
 8903SOL    HW138168   1.415   3.220   2.460 -0.9208 -1.2643  0.1394
 8903SOL    HW238169   1.286   3.232   2.395 -2.0528 -0.4288  0.6389
 8904SOL     OW38170   1.197   1.266   0.534 -0.3844  0.4524 -0.7319
 8904SOL    HW138171   1.218   1.184   0.490  2.7692 -0.2042  2.0018
 8904SOL    HW238172   1.260   1.327   0.496 -1.9675  3.5559  1.6336
 8905SOL     OW38173   3.118   1.649   9.228  0.2933  0.4396 -0.0105
 8905SOL    HW138174   3.124   1.659   9.323 -1.7227  0.2137  0.1497
 8905SOL    HW238175   3.067   1.728   9.211 -0.7842 -0.1068  0.7042
 8906SOL     OW38176   4.217   0.198   0.128  0.2732  0.0796 -0.2695
 8906SOL    HW138177   4.257   0.181   0.213  0.1946 -0.7939 -0.4048
 8906SOL    HW238178   4.173   0.113   0.121  1.0283 -0.4504  1.4941
 8907SOL     OW38179   2.206   3.577   8.248  0.1087  0.4453 -0.1364
 8907SOL    HW138180   2.253   3.637   8.305  1.2788  0.6121 -1.2765
 8907SOL    HW238181   2.171   3.648   8.195 -2.1304 -1.6092 -1.4296
 8908SOL     OW38182   4.031   4.136   4.721  0.2664 -0.1930 -0.3374
 8908SOL    HW138183   3.944   4.166   4.747  0.8500  0.2004  1.1659
 8908SOL    HW238184   4.072   4.222   4.723  1.5495 -0.8116 -0.0792
 8909SOL     OW38185   2.304   1.357   7.752  0.2499 -0.3083 -0.3286
 8909SOL    HW138186   2.277   1.290   7.815  0.1746 -0.1255 -0.1676
 8909SOL    HW238187   2.243   1.428   7.773  0.9867  0.7097 -1.6361
 8910SOL     OW38188   2.860   3.035  11.509 -0.2254  0.2986 -0.0962
 8910SOL    HW138189   2.921   3.107  11.525 -0.9918  0.5064  1.8784
 8910SOL    HW238190   2.901   3.009  11.426  0.4690  0.6234  0.1369
 8911SOL     OW38191   2.802   3.920   1.389  0.5315 -0.2362  0.7885
 8911SOL    HW138192   2.892   3.953   1.391  1.0289 -1.5932  1.3791
 8911SOL    HW238193   2.809   3.899   1.296 -0.3101  2.2511  0.1764
 8912SOL     OW38194   2.245   3.655  11.333 -0.6916 -0.5911 -0.3042
 8912SOL    HW138195   2.299   3.611  11.267  0.2269 -1.5468  1.0762
 8912SOL    HW238196   2.187   3.583  11.357 -0.7765 -0.6773 -0.7657
 8913SOL     OW38197   2.438   1.366   3.677 -0.3828 -0.0074  0.7367
 8913SOL    HW138198   2.413   1.342   3.588 -1.0064  0.3506  0.8138
 8913SOL    HW238199   2.520   1.319   3.688 -0.9072 -1.4617 -1.6301
 8914SOL     OW38200   3.341   4.428   8.396  0.3656 -0.1722 -0.1225
 8914SOL    HW138201   3.276   4.391   8.336 -0.6878  2.1464 -0.4219
 8914SOL    HW238202   3.332   4.367   8.469  1.1785 -0.9219 -0.6495
 8915SOL     OW38203   1.887   2.842   1.041  0.3667  0.4285 -1.2121
 8915SOL    HW138204   1.937   2.791   1.104  0.4399 -1.0608 -2.4651
 8915SOL    HW238205   1.941   2.921   1.038  0.3303  0.4375 -1.6898
 8916SOL     OW38206   2.361   1.146  11.230  0.1396 -0.6009  0.5982
 8916SOL    HW138207   2.453   1.163  11.251 -0.0062  0.7636  0.0781
 8916SOL    HW238208   2.305   1.195  11.290 -1.8569  1.7089 -3.2253
 8917SOL     OW38209   1.955   3.165  15.927  0.2066  0.0182  0.4160
 8917SOL    HW138210   2.000   3.239  15.887 -2.6074  1.4124 -0.2024
 8917SOL    HW238211   2.028   3.117  15.966 -0.7012 -0.3988  1.6389
 8918SOL     OW38212   4.717   3.137   1.835 -0.5013  0.1234 -0.2594
 8918SOL    HW138213   0.044   3.159   1.911 -1.3411  0.1726  0.3317
 8918SOL    HW238214   0.055   3.095   1.779  0.1682 -1.9962  2.0625
 8919SOL     OW38215   3.462   1.905   6.783 -0.1304 -0.4077  0.0861
 8919SOL    HW138216   3.380   1.933   6.825 -0.8745 -0.9424 -1.0385
 8919SOL    HW238217   3.533   1.925   6.845 -1.2184 -2.7385  2.0811
 8920SOL     OW38218   0.666   4.238  11.361 -0.1470  0.0506  0.0059
 8920SOL    HW138219   0.604   4.189  11.307  0.8844  0.7855 -1.8398
 8920SOL    HW238220   0.678   4.317  11.309  0.4966 -0.4606 -0.6236
 8921SOL     OW38221   0.120   1.727  10.755  0.2536  0.3200 -0.1724
 8921SOL    HW138222   0.025   1.726  10.763  0.2048  4.1708 -0.5568
 8921SOL    HW238223   0.139   1.635  10.777  0.3322  0.7400  1.5740
 8922SOL     OW38224   3.766   0.553   2.755 -0.0256 -0.8611 -0.2534
 8922SOL    HW138225   3.699   0.614   2.723  0.1961 -0.3229  0.3208
 8922SOL    HW238226   3.830   0.563   2.685  1.4472 -0.5341  1.1453
 8923SOL     OW38227   0.916   1.777   2.147  0.4426  0.2675  0.1016
 8923SOL    HW138228   0.991   1.718   2.154  2.9711  3.4509 -0.1243
 8923SOL    HW238229   0.924   1.810   2.058 -1.2136 -0.6491 -0.3949
 8924SOL     OW38230   4.521   2.637   0.642 -0.2830  0.0465  0.3246
 8924SOL    HW138231   4.457   2.595   0.585  2.1312 -2.9804 -0.1742
 8924SOL    HW238232   4.549   2.709   0.586 -0.1849 -2.0699 -2.3755
 8925SOL     OW38233   2.979   4.715  12.274  0.0940  0.4432  0.6424
 8925SOL    HW138234   2.930   0.024  12.349 -1.8040  0.2984 -0.5188
 8925SOL    HW238235   2.967   0.062  12.214 -1.8592  0.6475  1.2686
 8926SOL     OW38236   2.059   1.697  12.153 -0.1897 -0.5586 -0.2462
 8926SOL    HW138237   2.079   1.766  12.090  1.7882 -0.7491  0.1679
 8926SOL    HW238238   2.024   1.748  12.225  1.2280  0.5527 -0.3496
 8927SOL     OW38239   0.484   4.584  11.640 -0.0270  0.8369  0.0136
 8927SOL    HW138240   0.520   4.563  11.726 -1.9084 -0.5279  0.4609
 8927SOL    HW238241   0.509   4.508  11.588  0.9923 -0.0612  1.8100
 8928SOL     OW38242   1.679   2.258   3.441 -0.0994 -0.1913  0.6949
 8928SOL    HW138243   1.659   2.227   3.353  1.6395 -1.7062  0.8363
 8928SOL    HW238244   1.678   2.353   3.430 -0.1320 -0.1189  1.3294
 8929SOL     OW38245   3.913   3.237   0.333  1.0819 -0.0558  0.1993
 8929SOL    HW138246   3.885   3.224   0.243 -2.2199 -1.1932  1.4004
 8929SOL    HW238247   3.934   3.331   0.332  0.6616  0.1066  4.8954
 8930SOL     OW38248   2.969   1.627   5.530 -0.4999 -0.7263 -0.5072
 8930SOL    HW138249   2.970   1.722   5.536  0.7154 -0.7481 -0.3630
 8930SOL    HW238250   3.034   1.597   5.593  1.8941  1.4750 -1.9196
 8931SOL     OW38251   1.618   0.842  14.385 -0.1679 -0.2007 -0.5939
 8931SOL    HW138252   1.626   0.888  14.302 -0.4494  0.9735  0.0218
 8931SOL    HW238253   1.637   0.753  14.357 -2.1996 -0.5785 -0.8244
 8932SOL     OW38254   4.247   2.346  13.433 -0.2993  0.1442  0.3518
 8932SOL    HW138255   4.331   2.384  13.458  0.0413  0.3247 -1.0670
 8932SOL    HW238256   4.242   2.278  13.500 -1.4521  0.6853  0.8160
 8933SOL     OW38257   1.519   4.277   1.499 -0.1479  0.4725  0.2626
 8933SOL    HW138258   1.521   4.369   1.525 -1.3568  0.5098  0.1897
 8933SOL    HW238259   1.437   4.245   1.538  1.9165 -2.5812  2.1669
 8934SOL     OW38260   2.204   2.195   9.870  0.1320 -0.2845  0.3022
 8934SOL    HW138261   2.218   2.171   9.962  0.1639  2.3874  0.9731
 8934SOL    HW238262   2.245   2.120   9.826 -0.4445 -1.2765  1.4238
 8935SOL     OW38263   0.505   0.642   2.587  0.0157  0.2991  0.5250
 8935SOL    HW138264   0.591   0.682   2.600 -0.1963  0.6791  0.7574
 8935SOL    HW238265   0.535   0.582   2.519 -1.0916 -0.3483  0.5927
 8936SOL     OW38266   1.226   1.404  16.033  0.1267 -0.6606  0.6926
 8936SOL    HW138267   1.208   1.312  16.053 -0.6627 -0.9278 -1.2497
 8936SOL    HW238268   1.209   1.442  16.119 -1.2903 -0.4560  0.3122
 8937SOL     OW38269   3.192   3.456   7.747 -0.2109  0.1566  0.1862
 8937SOL    HW138270   3.258   3.438   7.680 -1.5252 -2.5024 -0.3826
 8937SOL    HW238271   3.137   3.512   7.692 -0.5266  0.9916  1.3409
 8938SOL     OW38272   4.036   4.621   4.691 -0.2971 -0.1344  0.6382
 8938SOL    HW138273   3.946   4.640   4.666  0.5934  2.4198 -0.5579
 8938SOL    HW238274   4.022   4.553   4.757  0.8815 -1.2862 -0.2772
 8939SOL     OW38275   0.752   2.043   8.148 -1.0253 -0.6942  0.1409
 8939SOL    HW138276   0.784   2.045   8.238  0.4354  0.3484 -0.4075
 8939SOL    HW238277   0.753   2.136   8.127 -0.7979 -0.5201  0.8961
 8940SOL     OW38278   1.521   1.164   4.820  0.0997 -0.1370  0.3010
 8940SOL    HW138279   1.493   1.088   4.770 -0.0111  0.3275 -0.3382
 8940SOL    HW238280   1.556   1.123   4.900  0.0672 -1.0316 -0.1422
 8941SOL     OW38281   1.407   3.706  17.363  0.3900  0.6024 -0.1722
 8941SOL    HW138282   1.370   3.768  17.426 -0.3718  0.5999 -0.6113
 8941SOL    HW238283   1.379   3.734  17.276 -1.1336  0.1798  0.1875
 8942SOL     OW38284   2.799   2.811  11.159 -0.7583  0.0269  0.4324
 8942SOL    HW138285   2.792   2.772  11.072  2.5549  4.5517 -1.8468
 8942SOL    HW238286   2.893   2.820  11.174 -0.5419  2.7362 -2.5821
 8943SOL     OW38287   2.004   2.828   7.735  0.4429 -0.1786  0.2633
 8943SOL    HW138288   2.092   2.853   7.707 -0.4210  0.4932 -1.8345
 8943SOL    HW238289   1.981   2.884   7.809  1.7033 -2.0476  2.0980
 8944SOL     OW38290   4.598   4.428   0.926  0.2042  0.1922 -0.4322
 8944SOL    HW138291   4.688   4.402   0.947 -0.2784 -1.7080 -0.8011
 8944SOL    HW238292   4.614   4.520   0.903  1.1993 -0.1028 -0.9373
 8945SOL     OW38293   2.803   3.378   4.482 -0.2307  0.2856 -0.4089
 8945SOL    HW138294   2.798   3.431   4.402  2.9150 -1.6353 -1.8518
 8945SOL    HW238295   2.860   3.305   4.458  0.1787  0.1664  0.9314
 8946SOL     OW38296   3.239   1.950   6.190 -0.4043  0.0927  0.3106
 8946SOL    HW138297   3.239   2.013   6.262  3.1279  0.3160  0.1406
 8946SOL    HW238298   3.325   1.966   6.150 -0.3920 -0.1449  0.2400
 8947SOL     OW38299   2.650   4.028   3.906  0.6189 -0.0188  0.2090
 8947SOL    HW138300   2.598   4.028   3.986 -1.1845  2.1687 -0.9656
 8947SOL    HW238301   2.603   4.092   3.852 -2.0038 -1.3161  0.9542
 8948SOL     OW38302   3.858   1.886   1.547  0.1185  0.6803  0.2057
 8948SOL    HW138303   3.916   1.810   1.543 -0.7342  0.0311  0.2803
 8948SOL    HW238304   3.813   1.882   1.463  1.4130  2.7696 -0.5829
 8949SOL     OW38305   1.111   3.789   4.618 -0.1249 -0.1605 -0.3100
 8949SOL    HW138306   1.153   3.752   4.541 -0.7164 -0.0952 -0.6670
 8949SOL    HW238307   1.117   3.713   4.677  0.1768  0.8809  0.9920
 8950SOL     OW38308   4.330   1.495   1.545  0.1177 -0.0529  0.0990
 8950SOL    HW138309   4.264   1.426   1.559  1.5640 -1.1588  1.4248
 8950SOL    HW238310   4.304   1.527   1.459 -1.3164  0.1789  0.6122
 8951SOL     OW38311   2.473   1.878   2.926  0.5930 -0.1406 -0.4121
 8951SOL    HW138312   2.422   1.959   2.929 -0.4787 -0.7797 -1.4693
 8951SOL    HW238313   2.510   1.881   2.838 -1.1229 -1.9253 -1.1918
 8952SOL     OW38314   1.375   1.620   5.854 -0.0394 -0.8896 -0.4237
 8952SOL    HW138315   1.399   1.662   5.937  2.1919  0.3954 -1.7215
 8952SOL    HW238316   1.357   1.534   5.893  0.3569 -0.7398  0.0917
 8953SOL     OW38317   4.515   0.044   5.133 -0.1370 -0.1687  0.2812
 8953SOL    HW138318   4.545   0.133   5.118 -1.8202 -0.1672 -3.0864
 8953SOL    HW238319   4.511   0.042   5.229 -2.6811 -0.7218  0.1778
 8954SOL     OW38320   0.946   3.308   9.361 -0.0423  0.1744 -0.0229
 8954SOL    HW138321   1.001   3.372   9.405 -0.7071  1.1221 -0.5710
 8954SOL    HW238322   0.868   3.362   9.343 -0.2510 -0.3438 -0.6701
 8955SOL     OW38323   2.360   3.391  15.429  0.7562  0.5822  0.1239
 8955SOL    HW138324   2.454   3.402  15.418  0.8756  1.0031  1.5811
 8955SOL    HW238325   2.335   3.449  15.357  0.6801 -0.7253 -0.9157
 8956SOL     OW38326   1.732   4.038   7.240 -0.0819 -0.4683  0.1187
 8956SOL    HW138327   1.728   4.099   7.314  0.9204 -0.9842  0.5991
 8956SOL    HW238328   1.825   4.046   7.217 -0.7592  3.5510 -1.1839
 8957SOL     OW38329   0.789   0.284  12.605 -0.4298  0.2468 -0.4610
 8957SOL    HW138330   0.871   0.325  12.633 -0.7989  0.2289  0.6315
 8957SOL    HW238331   0.749   0.347  12.545 -1.5897 -0.7241 -0.7030
 8958SOL     OW38332   3.029   0.837  11.808 -0.0713 -0.5499 -0.0401
 8958SOL    HW138333   3.001   0.906  11.868  2.1146  1.0076 -0.7888
 8958SOL    HW238334   3.036   0.763  11.867  0.3022  0.3720  1.0740
 8959SOL     OW38335   3.158   1.280   4.932 -0.1496 -0.2284  0.5317
 8959SOL    HW138336   3.114   1.213   4.881  1.0783  0.7922 -1.8892
 8959SOL    HW238337   3.111   1.261   5.012 -1.5199  0.9885  0.0085
 8960SOL     OW38338   1.090   0.358   3.740 -0.2319  1.1278 -0.2646
 8960SOL    HW138339   1.035   0.402   3.805  0.8905  2.5402 -0.2731
 8960SOL    HW238340   1.029   0.346   3.667 -1.6434 -0.6447  1.2342
 8961SOL     OW38341   3.274   1.942   4.871  0.2169  0.2913  0.7110
 8961SOL    HW138342   3.186   1.926   4.837  0.4362 -0.7417  0.6357
 8961SOL    HW238343   3.272   2.037   4.862 -1.3278  0.2966  1.1102
 8962SOL     OW38344   2.528   4.717   8.852  0.5460 -0.2345  0.2055
 8962SOL    HW138345   2.546   0.015   8.943 -2.6448  1.6524  0.3322
 8962SOL    HW238346   2.615   4.700   8.814  1.1071  0.5416  1.1410
 8963SOL     OW38347   3.261   0.628  15.964 -0.1949  0.0553 -0.1318
 8963SOL    HW138348   3.226   0.670  16.042  0.5594  0.7991 -0.1884
 8963SOL    HW238349   3.184   0.614  15.909  1.0755  0.6525 -2.0690
 8964SOL     OW38350   4.703   3.398   0.506  0.0274  0.1090  0.0996
 8964SOL    HW138351   4.622   3.437   0.539  0.4089 -0.2651  1.4741
 8964SOL    HW238352   0.033   3.429   0.577  0.5358  1.3175 -0.8249
 8965SOL     OW38353   4.210   4.353   4.727  0.1386  0.1638 -0.5048
 8965SOL    HW138354   4.286   4.402   4.696 -0.0571  1.6751  1.3851
 8965SOL    HW238355   4.200   4.393   4.813 -1.6374 -0.5742 -0.3596
 8966SOL     OW38356   1.511   2.668  11.258 -0.1512 -0.5000  0.4273
 8966SOL    HW138357   1.488   2.630  11.342  0.7076 -1.1172  0.3722
 8966SOL    HW238358   1.585   2.614  11.232 -0.5433 -1.3159  1.0134
 8967SOL     OW38359   2.995   0.222   3.689  0.2372 -0.0863  0.2853
 8967SOL    HW138360   3.020   0.290   3.625 -0.0516 -0.2981 -0.0533
 8967SOL    HW238361   2.912   0.257   3.722 -1.4130 -1.4279 -2.3850
 8968SOL     OW38362   0.340   0.290   7.801 -0.2063  0.2141  0.1133
 8968SOL    HW138363   0.369   0.381   7.802  1.0794 -0.2076  0.4236
 8968SOL    HW238364   0.293   0.284   7.885 -1.0254  0.2289 -0.3393
 8969SOL     OW38365   1.658   0.528   5.791 -0.5976  0.0226  0.0194
 8969SOL    HW138366   1.721   0.534   5.719 -0.4157  0.7968  0.2411
 8969SOL    HW238367   1.650   0.434   5.781 -0.2500  0.0257 -0.2884
 8970SOL     OW38368   2.785   0.497   8.365 -0.5342 -0.1244  0.3069
 8970SOL    HW138369   2.740   0.527   8.444 -0.1113 -1.4113  1.0351
 8970SOL    HW238370   2.876   0.503   8.397 -1.2205  2.2439  1.8472
 8971SOL     OW38371   3.611   3.010   2.787  0.8862  0.0760  0.6482
 8971SOL    HW138372   3.679   3.076   2.794  0.4628  0.5976 -0.1550
 8971SOL    HW238373   3.586   3.022   2.695 -2.1301  0.5425  1.5211
 8972SOL     OW38374   1.554   3.229   7.959 -1.0656 -0.6614 -0.3920
 8972SOL    HW138375   1.544   3.135   7.967  1.6315 -0.6909  3.0054
 8972SOL    HW238376   1.650   3.230   7.955 -1.0214  2.2131  1.1190
 8973SOL     OW38377   4.169   4.409   4.075  0.8061 -0.0365 -0.2029
 8973SOL    HW138378   4.083   4.450   4.068  0.2177 -1.2987 -0.4430
 8973SOL    HW238379   4.197   4.407   3.984 -0.1063  1.9964 -0.5147
 8974SOL     OW38380   4.363   4.494   7.217  0.0214  0.2435  0.5797
 8974SOL    HW138381   4.376   4.460   7.305  1.6028 -1.2986 -0.2420
 8974SOL    HW238382   4.420   4.571   7.220 -0.8647  0.9024  0.3064
 8975SOL     OW38383   0.170   3.916  12.501  0.0700  0.3495  0.3626
 8975SOL    HW138384   0.091   3.921  12.555  1.2162  2.2762  1.8703
 8975SOL    HW238385   0.236   3.921  12.571 -0.9874  1.3860  1.2927
 8976SOL     OW38386   0.388   3.525  16.034 -0.6257 -0.4187  0.8983
 8976SOL    HW138387   0.386   3.459  16.103 -2.0575 -0.6146  0.6614
 8976SOL    HW238388   0.422   3.472  15.962 -0.1456 -0.0245  0.8291
 8977SOL     OW38389   0.977   2.216   4.957 -0.4274  0.3029  0.0637
 8977SOL    HW138390   0.945   2.245   4.871 -1.3768  0.2213  0.3846
 8977SOL    HW238391   0.977   2.121   4.944  1.1924  0.3111  0.0759
 8978SOL     OW38392   3.450   3.633   2.811  1.0043 -0.0628  0.3435
 8978SOL    HW138393   3.474   3.573   2.741  0.2821 -0.5802  0.5406
 8978SOL    HW238394   3.361   3.662   2.789  1.0388  0.1930  0.5387
 8979SOL     OW38395   2.016   1.425  16.777 -0.7417  0.3454 -0.7259
 8979SOL    HW138396   2.039   1.516  16.792  0.0800  0.3450 -2.0363
 8979SOL    HW238397   2.043   1.417  16.686 -0.3406 -2.2543 -0.3873
 8980SOL     OW38398   2.170   2.397   3.019 -0.1849 -0.5306  0.0795
 8980SOL    HW138399   2.229   2.362   3.086 -0.7509  0.7409  1.2421
 8980SOL    HW238400   2.233   2.414   2.950 -0.7088 -2.9224 -1.0178
 8981SOL     OW38401   3.668   2.436  10.586 -0.7834  0.0269 -0.2901
 8981SOL    HW138402   3.708   2.503  10.532 -1.0242  0.2128 -0.2361
 8981SOL    HW238403   3.576   2.460  10.599 -0.4239  1.1211  0.1835
 8982SOL     OW38404   2.043   2.853  15.475  0.2597 -0.2182  0.3657
 8982SOL    HW138405   2.003   2.797  15.542 -2.3503 -1.5813 -2.3211
 8982SOL    HW238406   2.137   2.848  15.488  0.7912  1.4313 -2.7851
 8983SOL     OW38407   4.662   0.282   5.100 -0.0784 -0.0935 -0.3919
 8983SOL    HW138408   4.718   0.258   5.175 -0.9284  1.1218  0.6204
 8983SOL    HW238409   4.634   0.371   5.119 -1.4975 -0.2975 -1.5422
 8984SOL     OW38410   2.333   3.704   6.876 -0.5762 -0.0457 -0.0201
 8984SOL    HW138411   2.295   3.616   6.872 -1.5780  0.4322 -0.8719
 8984SOL    HW238412   2.346   3.715   6.970 -0.2302  1.5035 -0.2449
 8985SOL     OW38413   4.268   1.688  11.144  0.9803  0.8278  0.1002
 8985SOL    HW138414   4.202   1.651  11.202  2.7061 -1.5832  0.5450
 8985SOL    HW238415   4.351   1.641  11.149 -0.2160 -0.9589  3.5707
 8986SOL     OW38416   2.094   1.327   5.301 -0.2757 -0.0678  0.1104
 8986SOL    HW138417   2.021   1.370   5.257 -0.2943 -1.1657 -0.9136
 8986SOL    HW238418   2.116   1.382   5.376 -0.0936  0.8593 -0.6300
 8987SOL     OW38419   3.639   0.981   3.659 -0.1870 -0.0050 -0.7140
 8987SOL    HW138420   3.676   0.943   3.738  0.4948 -1.0982 -1.5516
 8987SOL    HW238421   3.626   0.906   3.601 -2.1280 -1.7585  1.9994
 8988SOL     OW38422   3.283   0.916  11.323  0.3339 -0.0136 -0.2740
 8988SOL    HW138423   3.235   0.864  11.388  0.7428 -1.3448 -1.0353
 8988SOL    HW238424   3.214   0.951  11.268 -1.7358  1.5995  3.3340
 8989SOL     OW38425   2.526   3.761   2.664  0.3003  0.9278 -0.0361
 8989SOL    HW138426   2.534   3.728   2.753  0.2389 -0.0490 -0.3982
 8989SOL    HW238427   2.615   3.747   2.631  0.2761  0.8486 -0.0676
 8990SOL     OW38428   4.695   3.428  17.702 -0.1197  0.3656  0.1358
 8990SOL    HW138429   4.610   3.472  17.700  0.4297  1.4175 -0.4306
 8990SOL    HW238430   4.687   3.381   0.077  2.2944 -1.8318 -0.8771
 8991SOL     OW38431   2.199   2.846   1.511  0.3404 -0.0225 -0.6415
 8991SOL    HW138432   2.213   2.925   1.564  0.3108 -0.7855  0.5216
 8991SOL    HW238433   2.286   2.807   1.515  1.0001  1.3771 -1.6606
 8992SOL     OW38434   2.631   3.189   0.553 -0.9338 -0.0032 -0.3562
 8992SOL    HW138435   2.545   3.150   0.538  0.5317 -2.8155 -1.5038
 8992SOL    HW238436   2.683   3.117   0.590 -0.3671  0.8866  0.5830
 8993SOL     OW38437   4.321   3.906   0.162 -0.1559 -0.3847 -0.1791
 8993SOL    HW138438   4.283   3.980   0.116 -1.0200 -1.4414 -1.1437
 8993SOL    HW238439   4.358   3.852   0.092  2.3393 -1.7381  2.1321
 8994SOL     OW38440   3.301   0.681   8.590  0.0285 -0.2026 -0.0706
 8994SOL    HW138441   3.276   0.765   8.630 -1.2169 -0.6251  0.0418
 8994SOL    HW238442   3.220   0.657   8.544 -1.2047  2.4235  0.7138
 8995SOL     OW38443   4.512   3.043  14.504 -0.1106  0.0894 -0.3367
 8995SOL    HW138444   4.525   3.046  14.409 -1.1811  0.2764 -0.4856
 8995SOL    HW238445   4.511   3.137  14.522 -2.7102 -0.5058  2.7593
 8996SOL     OW38446   2.954   3.314   8.329  0.0749 -0.1644  0.3047
 8996SOL    HW138447   2.920   3.229   8.356 -0.1000 -1.2303 -3.1929
 8996SOL    HW238448   3.040   3.306   8.371 -0.2608  3.3531  1.6295
 8997SOL     OW38449   0.581   0.237   4.321  0.4843 -0.2186  0.0622
 8997SOL    HW138450   0.608   0.214   4.410  2.0611 -0.6063 -0.5009
 8997SOL    HW238451   0.486   0.243   4.320  0.4410 -0.6779  1.7362
 8998SOL     OW38452   0.157   4.328   3.307 -0.8532  0.2287  0.2581
 8998SOL    HW138453   0.157   4.401   3.369  2.5223 -0.7828  1.4516
 8998SOL    HW238454   0.252   4.321   3.301 -0.8244 -1.3352  2.4626
 8999SOL     OW38455   4.335   3.323   5.109  0.4229 -0.0430 -0.5668
 8999SOL    HW138456   4.324   3.237   5.068  1.7756 -0.7786  0.5969
 8999SOL    HW238457   4.394   3.378   5.057  0.7901  0.4133  0.3222
 9000SOL     OW38458   1.593   2.613   3.975  0.1972  0.1665 -0.7465
 9000SOL    HW138459   1.605   2.531   3.927 -0.8375 -0.9777  0.9512
 9000SOL    HW238460   1.557   2.664   3.903 -1.5252  3.0062  2.1450
 9001SOL     OW38461   2.080   3.907   5.145 -0.3817  0.6476  0.4316
 9001SOL    HW138462   2.159   3.873   5.104 -0.0390 -0.7934  2.2980
 9001SOL    HW238463   2.092   3.996   5.112  3.4762  0.1759  0.6383
 9002SOL     OW38464   2.845   0.124   4.286 -0.1070  0.3836 -0.2457
 9002SOL    HW138465   2.876   0.034   4.299 -1.6399 -0.3396 -1.6760
 9002SOL    HW238466   2.784   0.124   4.360  0.4316 -2.8911  0.2130
 9003SOL     OW38467   4.262   0.959  17.400 -0.3534 -0.4215  0.2810
 9003SOL    HW138468   4.208   0.988  17.474  2.5968  1.7019  1.5948
 9003SOL    HW238469   4.200   0.980  17.330  0.3434  1.1467  0.1516
 9004SOL     OW38470   0.170   3.908   6.993 -0.5190  1.3767  0.1394
 9004SOL    HW138471   0.222   3.969   7.045  0.8713 -1.0561  1.6349
 9004SOL    HW238472   0.082   3.939   7.011 -1.1592  1.0046 -2.4528
 9005SOL     OW38473   2.994   2.750   0.693  0.2705 -0.2286  0.8486
 9005SOL    HW138474   3.016   2.758   0.600 -1.6920  1.4108  0.5199
 9005SOL    HW238475   3.016   2.841   0.715 -1.3679  0.5434 -0.7224
 9006SOL     OW38476   2.506   4.308   4.278 -0.0914 -0.1415  0.2468
 9006SOL    HW138477   2.558   4.312   4.358 -0.0274  0.0992  0.1911
 9006SOL    HW238478   2.441   4.377   4.290 -1.9051 -1.6204 -1.0280
 9007SOL     OW38479   3.405   4.646   8.710 -0.3976 -0.2143  0.5746
 9007SOL    HW138480   3.374   4.556   8.702 -1.9946  0.2943  1.0008
 9007SOL    HW238481   3.407   4.670   8.803 -1.0480  0.2023  0.4834
 9008SOL     OW38482   1.761   3.810   3.291  0.1547 -0.3187  0.0315
 9008SOL    HW138483   1.793   3.722   3.268  0.1512 -0.9007  2.2392
 9008SOL    HW238484   1.838   3.867   3.287 -0.1337  0.2579  2.7775
 9009SOL     OW38485   0.180   4.697   1.986  0.3072  0.6425 -0.3585
 9009SOL    HW138486   0.088   4.724   1.983  0.4382  0.7677 -3.1258
 9009SOL    HW238487   0.186   4.666   1.896 -0.7983 -1.2905  0.2179
 9010SOL     OW38488   2.044   2.464   5.612  0.6644  0.2639  0.2970
 9010SOL    HW138489   2.080   2.420   5.690 -0.8614 -0.6690  0.4617
 9010SOL    HW238490   1.999   2.534   5.659  0.4348 -0.0196  0.4979
 9011SOL     OW38491   4.170   3.885   3.923 -0.5604  0.0271 -0.1599
 9011SOL    HW138492   4.160   3.935   3.841 -2.5984 -1.0389 -0.5654
 9011SOL    HW238493   4.262   3.865   3.906 -1.2001 -1.5185 -1.8715
 9012SOL     OW38494   0.489   1.540   5.275 -0.1161 -0.0784  0.4945
 9012SOL    HW138495   0.403   1.510   5.306  0.0228  2.1179  3.0367
 9012SOL    HW238496   0.515   1.590   5.353 -1.3871  0.0516  0.8453
 9013SOL     OW38497   0.596   1.298   9.583  0.6990 -0.1970 -0.4461
 9013SOL    HW138498   0.524   1.236   9.571  1.0924 -0.7592  0.0577
 9013SOL    HW238499   0.665   1.237   9.608  1.9805  1.1477 -0.7010
 9014SOL     OW38500   1.963   3.271   5.550  0.5452 -0.7864 -0.3471
 9014SOL    HW138501   1.871   3.279   5.577  1.3884 -1.1539  2.5568
 9014SOL    HW238502   1.964   3.329   5.474  0.4764 -0.3481 -0.0154
 9015SOL     OW38503   4.116   0.346   3.625 -0.1496  0.7249  0.5305
 9015SOL    HW138504   4.158   0.417   3.576 -3.4454  0.6042 -2.4998
 9015SOL    HW238505   4.074   0.396   3.695 -0.9285 -0.0006  0.5754
 9016SOL     OW38506   0.435   0.131   9.930 -0.1202 -0.5844  0.2789
 9016SOL    HW138507   0.495   0.204   9.941 -2.0656  1.1039 -0.3205
 9016SOL    HW238508   0.379   0.150  10.006  0.4719  0.5563  0.4241
 9017SOL     OW38509   1.746   3.905  14.018  0.1510  0.1175  0.4675
 9017SOL    HW138510   1.778   3.994  14.004  0.1591 -0.1172 -0.9930
 9017SOL    HW238511   1.823   3.859  14.050 -0.1463 -1.2099 -0.7414
 9018SOL     OW38512   1.648   0.753   4.163  0.4713 -0.6912 -0.1079
 9018SOL    HW138513   1.560   0.725   4.138 -0.5284 -0.0083  2.6234
 9018SOL    HW238514   1.656   0.789   4.075 -1.7790 -3.1959 -1.3406
 9019SOL     OW38515   2.362   1.504  12.982 -0.2350 -0.0910 -0.1161
 9019SOL    HW138516   2.398   1.555  12.909  1.6579  0.2496  1.0753
 9019SOL    HW238517   2.334   1.563  13.052 -2.9171 -1.2015 -0.2493
 9020SOL     OW38518   4.671   1.879   9.837 -0.0883 -0.7271  0.1503
 9020SOL    HW138519   4.724   1.877   9.758 -1.5390 -1.5178 -0.7998
 9020SOL    HW238520   0.017   1.883   9.900  0.3072  2.6793 -0.5394
 9021SOL     OW38521   2.467   2.080   7.794 -0.2528  0.3318  0.5680
 9021SOL    HW138522   2.398   2.052   7.733 -1.1989 -1.8772  2.6440
 9021SOL    HW238523   2.450   2.173   7.812  0.9263  0.5272  0.6895
 9022SOL     OW38524   4.236   2.570  15.974 -0.6176 -0.5367 -0.1618
 9022SOL    HW138525   4.193   2.490  16.005 -1.9381 -0.0612 -0.7650
 9022SOL    HW238526   4.226   2.629  16.049  0.4882  2.4352 -2.3537
 9023SOL     OW38527   1.451   2.165   5.228 -0.0920 -0.5239 -0.3983
 9023SOL    HW138528   1.407   2.228   5.285 -0.4767 -0.0400 -1.2191
 9023SOL    HW238529   1.386   2.154   5.159  1.2403  0.4627 -1.8200
 9024SOL     OW38530   3.405   0.298   3.186 -0.1231  0.3193 -0.0340
 9024SOL    HW138531   3.479   0.240   3.173 -0.2654  0.2100 -0.3670
 9024SOL    HW238532   3.369   0.259   3.265 -0.7006 -0.5471 -0.7349
 9025SOL     OW38533   2.578   4.622   7.386  0.4045  0.4331 -0.1017
 9025SOL    HW138534   2.564   4.693   7.448 -0.1441 -1.4351  1.9319
 9025SOL    HW238535   2.655   4.571   7.411 -1.6495 -2.3915  0.4252
 9026SOL     OW38536   1.719   0.019   3.321  0.3332 -0.5043 -0.3611
 9026SOL    HW138537   1.679   0.106   3.319  0.2895 -0.5430 -1.0706
 9026SOL    HW238538   1.717   0.004   3.415  0.4224 -0.0060 -0.2756
 9027SOL     OW38539   0.254   1.876   1.896  0.2784  0.0506  0.1798
 9027SOL    HW138540   0.293   1.865   1.982  1.4081  2.7063 -0.0083
 9027SOL    HW238541   0.203   1.796   1.882 -1.6530  1.4829 -1.0095
 9028SOL     OW38542   1.098   0.398   2.475 -0.5241  0.1511 -0.2842
 9028SOL    HW138543   1.112   0.407   2.569 -1.1131 -0.8681 -0.0944
 9028SOL    HW238544   1.188   0.375   2.453 -0.4494  1.0033 -0.8567
 9029SOL     OW38545   2.453   1.262   3.436  0.0134  0.4651  0.4641
 9029SOL    HW138546   2.370   1.218   3.418 -0.8252  2.5272 -0.7104
 9029SOL    HW238547   2.492   1.285   3.352  0.7063  0.5154  0.8003
 9030SOL     OW38548   2.405   0.720   1.249 -0.3811  0.2392  0.7577
 9030SOL    HW138549   2.354   0.747   1.326 -1.2013  0.3907  0.1600
 9030SOL    HW238550   2.490   0.745   1.286  0.0065  2.7987 -1.8652
 9031SOL     OW38551   1.056   2.059   3.611  0.2407  0.0400 -0.4815
 9031SOL    HW138552   0.981   2.095   3.658 -0.0837  1.0058 -1.7381
 9031SOL    HW238553   1.016   1.981   3.573 -1.1101  1.5386 -2.1482
 9032SOL     OW38554   2.555   2.250  10.233 -0.3694 -0.1883 -0.0173
 9032SOL    HW138555   2.649   2.263  10.248  0.0781 -2.1065 -0.9890
 9032SOL    HW238556   2.526   2.219  10.319  0.9785  1.6132  1.0769
 9033SOL     OW38557   0.299   4.336   5.668  0.3582 -0.0754 -0.4557
 9033SOL    HW138558   0.252   4.289   5.600 -2.0984  0.4073  0.9170
 9033SOL    HW238559   0.370   4.352   5.605 -0.6096  1.3645 -1.1823
 9034SOL     OW38560   1.576   4.460   9.462 -0.5354  0.1729  0.4844
 9034SOL    HW138561   1.637   4.514   9.413  0.4786 -1.8747 -0.5172
 9034SOL    HW238562   1.634   4.422   9.528  1.5936  0.5168 -1.1960
 9035SOL     OW38563   3.733   2.427  14.525 -0.1909  0.1279  0.2379
 9035SOL    HW138564   3.693   2.503  14.482  1.5974  0.8644 -0.1523
 9035SOL    HW238565   3.765   2.376  14.450 -4.6455 -2.1071 -0.1450
 9036SOL     OW38566   3.361   2.720   6.314  0.3317 -0.4733 -0.2464
 9036SOL    HW138567   3.332   2.780   6.383  0.7560 -0.3479 -0.1777
 9036SOL    HW238568   3.294   2.684   6.256  0.2253 -0.8641  0.1176
 9037SOL     OW38569   1.189   1.777   8.194 -0.0595 -0.5491 -0.0025
 9037SOL    HW138570   1.266   1.766   8.139 -0.3633  1.9276 -0.9054
 9037SOL    HW238571   1.226   1.776   8.283 -1.2403  0.0600  0.4988
 9038SOL     OW38572   0.291   1.069   7.516  0.5391 -0.0513  0.2747
 9038SOL    HW138573   0.283   1.102   7.426  1.7549  1.3460  0.6838
 9038SOL    HW238574   0.286   1.158   7.551 -0.8793  0.4103 -1.0639
 9039SOL     OW38575   1.640   2.631  16.502 -0.0352  0.1268 -0.6881
 9039SOL    HW138576   1.587   2.613  16.425 -1.6396  1.6690  0.0752
 9039SOL    HW238577   1.666   2.544  16.533 -0.1033 -0.5001 -2.3789
 9040SOL     OW38578   0.911   2.183   0.977  0.0129 -0.1785 -0.1845
 9040SOL    HW138579   0.929   2.208   0.886  2.2667 -4.5123 -0.9194
 9040SOL    HW238580   0.831   2.132   0.964  0.8548 -1.3365 -0.8432
 9041SOL     OW38581   1.798   0.743  14.807  0.3571 -0.0637 -0.0321
 9041SOL    HW138582   1.802   0.831  14.770 -2.1602 -0.3697 -1.0771
 9041SOL    HW238583   1.723   0.711  14.756  1.6444 -0.1902 -1.8535
 9042SOL     OW38584   2.369   3.539   4.357 -0.0026 -0.3775 -0.2901
 9042SOL    HW138585   2.307   3.467   4.348 -0.9399  0.0104  3.2087
 9042SOL    HW238586   2.379   3.566   4.265 -1.0510  0.3504 -0.1917
 9043SOL     OW38587   3.141   3.106   5.087 -0.1161  0.3022 -0.8231
 9043SOL    HW138588   3.166   3.108   5.180  1.3082 -0.2384 -1.2061
 9043SOL    HW238589   3.229   3.128   5.056  0.3626  0.8962  0.9215
 9044SOL     OW38590   0.210   1.971   4.502 -0.1299 -0.1963 -0.4203
 9044SOL    HW138591   0.294   1.979   4.456  0.3632 -2.5841  0.0777
 9044SOL    HW238592   0.162   2.034   4.448 -0.1828  0.1823  0.0716
 9045SOL     OW38593   3.378   0.852  15.757  0.3547  0.0892 -0.1615
 9045SOL    HW138594   3.455   0.799  15.776  0.8430  0.6158 -0.6543
 9045SOL    HW238595   3.410   0.899  15.680  1.8695 -1.6777 -0.6149
 9046SOL     OW38596   2.536   1.043   5.157 -0.1001 -0.3865  0.1261
 9046SOL    HW138597   2.466   1.067   5.218  0.5860 -0.4744  0.9467
 9046SOL    HW238598   2.607   1.099   5.187  0.7159 -1.9308  1.0896
 9047SOL     OW38599   1.067   3.789   5.834 -0.2374 -0.0614 -0.1651
 9047SOL    HW138600   1.153   3.804   5.873 -1.7733  1.9140  2.4733
 9047SOL    HW238601   1.018   3.859   5.878  0.7177  0.1380  0.5768
 9048SOL     OW38602   0.184   3.108   9.473  0.1684  0.4024  0.3956
 9048SOL    HW138603   0.276   3.115   9.501  0.4557  1.5737 -0.8654
 9048SOL    HW238604   0.144   3.084   9.556 -0.5626  2.1275  0.5404
 9049SOL     OW38605   0.144   3.851   9.900  0.3924  0.2931  0.4594
 9049SOL    HW138606   0.179   3.918   9.841  0.5322  0.8587  1.1850
 9049SOL    HW238607   0.124   3.789   9.830 -0.0734  0.7438  0.1855
 9050SOL     OW38608   1.792   4.131  16.540 -0.0435 -0.1959 -0.0256
 9050SOL    HW138609   1.848   4.195  16.583  1.3277 -0.4355 -1.4328
 9050SOL    HW238610   1.788   4.169  16.452 -0.6264  0.5116  0.3070
 9051SOL     OW38611   0.002   1.970  10.335 -0.1549  0.4420 -0.5250
 9051SOL    HW138612   4.641   1.973  10.297 -1.3357 -0.8630  2.0445
 9051SOL    HW238613   4.711   1.973  10.429 -0.2045  1.2693 -0.5641
 9052SOL     OW38614   3.530   1.707   5.189 -0.7916 -0.2526  0.4195
 9052SOL    HW138615   3.512   1.709   5.095  0.0533  0.7962  0.2811
 9052SOL    HW238616   3.490   1.788   5.219 -0.8370  0.3161 -1.1708
 9053SOL     OW38617   4.514   1.113  17.220 -0.0483  0.4406 -0.5870
 9053SOL    HW138618   4.522   1.084  17.311 -1.7284  1.9760  0.0418
 9053SOL    HW238619   4.420   1.121  17.203 -0.0443 -0.8451 -1.1862
 9054SOL     OW38620   3.178   4.052   8.087  0.1190  0.3755  0.2601
 9054SOL    HW138621   3.191   3.975   8.031  3.2079 -0.6645  2.3828
 9054SOL    HW238622   3.203   4.013   8.170  0.5106  0.6116  0.2530
 9055SOL     OW38623   4.072   3.907   4.187 -0.0896 -0.3868  0.2056
 9055SOL    HW138624   4.094   3.938   4.099  1.3881  0.3858  0.8541
 9055SOL    HW238625   4.139   3.956   4.234  1.7206  0.1177 -2.8899
 9056SOL     OW38626   2.382   1.607   9.201 -0.4675 -0.1831  0.1066
 9056SOL    HW138627   2.446   1.562   9.146 -0.9367 -0.4730 -0.2008
 9056SOL    HW238628   2.392   1.532   9.260 -1.2447 -0.8237 -0.5717
 9057SOL     OW38629   0.216   2.186   9.913 -0.0616 -0.3464  0.4819
 9057SOL    HW138630   0.151   2.255   9.924  2.5221  2.0248  0.8126
 9057SOL    HW238631   0.245   2.214   9.826 -2.5606  0.1952 -0.1726
 9058SOL     OW38632   4.663   0.087   9.337  0.1192  0.1538  0.4706
 9058SOL    HW138633   0.019   0.103   9.293 -0.3794 -0.0412 -0.5258
 9058SOL    HW238634   4.632   0.001   9.311  1.3548  0.7207 -2.7807
 9059SOL     OW38635   4.631   0.781  14.330  0.2096  0.0219  0.9619
 9059SOL    HW138636   4.665   0.828  14.254  0.1309 -0.3565  0.6887
 9059SOL    HW238637   4.683   0.701  14.324  0.6158  0.3037  0.6838
 9060SOL     OW38638   3.190   3.676   6.996  0.1989 -0.0974  0.1871
 9060SOL    HW138639   3.266   3.720   7.035  0.0587 -1.4850  2.0224
 9060SOL    HW238640   3.167   3.736   6.926  2.1832  0.7728  0.2877
 9061SOL     OW38641   0.445   4.368   5.260  0.0351 -0.2750 -0.6981
 9061SOL    HW138642   0.407   4.398   5.178 -0.9090 -1.2203 -0.5935
 9061SOL    HW238643   0.532   4.410   5.261  0.6498 -1.6046  1.8884
 9062SOL     OW38644   1.758   2.483   6.390 -0.5113 -0.0614 -0.5092
 9062SOL    HW138645   1.818   2.531   6.446  0.5968 -1.2534 -0.6631
 9062SOL    HW238646   1.794   2.487   6.302  1.0145 -0.0147  0.1252
 9063SOL     OW38647   1.696   3.415   2.338 -0.6402 -0.1096 -0.8058
 9063SOL    HW138648   1.625   3.439   2.279 -0.5848  0.6352 -0.5688
 9063SOL    HW238649   1.736   3.341   2.292 -2.1621 -1.5704  0.2211
 9064SOL     OW38650   0.358   1.928   8.698  0.1568  0.0349 -0.4848
 9064SOL    HW138651   0.387   1.973   8.619 -0.0849 -0.0170 -0.6043
 9064SOL    HW238652   0.415   1.954   8.771  2.7709 -0.0938 -2.5009
 9065SOL     OW38653   1.639   4.282   5.438 -0.3783  0.0823  0.0090
 9065SOL    HW138654   1.670   4.317   5.522  1.7509 -1.2727 -0.2010
 9065SOL    HW238655   1.548   4.255   5.450 -0.6244  0.3827 -1.2374
 9066SOL     OW38656   0.817   0.435  15.566  0.2971  0.2383 -0.0837
 9066SOL    HW138657   0.886   0.448  15.501  0.2769 -3.0131 -0.7417
 9066SOL    HW238658   0.827   0.522  15.605  1.5385  0.5249 -1.0535
 9067SOL     OW38659   3.936   4.118   9.392  0.3460 -0.3817 -0.3517
 9067SOL    HW138660   4.021   4.078   9.372  0.3360 -1.0798  1.0117
 9067SOL    HW238661   3.944   4.213   9.383 -1.9325 -0.1279  0.2646
 9068SOL     OW38662   2.869   0.137   3.195 -0.5585  0.2859 -0.0190
 9068SOL    HW138663   2.787   0.149   3.146  0.0159  0.5939 -0.9035
 9068SOL    HW238664   2.840   0.153   3.285  0.5592 -1.3100  0.6152
 9069SOL     OW38665   0.951   2.430  14.568 -0.1781 -0.3326 -0.1007
 9069SOL    HW138666   0.885   2.491  14.533 -0.2375 -0.2835  0.0984
 9069SOL    HW238667   0.900   2.349  14.562  2.1377 -2.0272  3.1444
 9070SOL     OW38668   3.353   3.885   3.587 -0.1551  0.1253 -0.0167
 9070SOL    HW138669   3.331   3.884   3.680 -0.2999 -2.1853 -0.0745
 9070SOL    HW238670   3.437   3.931   3.587 -1.2178  2.0945  0.2163
 9071SOL     OW38671   2.550   3.544   8.259 -0.4687  0.0197  0.8346
 9071SOL    HW138672   2.614   3.518   8.325  0.7835  0.3505 -0.2667
 9071SOL    HW238673   2.606   3.578   8.190 -2.1540 -1.5882 -1.3181
 9072SOL     OW38674   0.973   1.270   2.616 -0.0201 -0.5668 -0.0773
 9072SOL    HW138675   1.012   1.260   2.703  2.0161  2.4433 -0.6347
 9072SOL    HW238676   1.005   1.358   2.595 -0.3662 -0.2801  0.5983
 9073SOL     OW38677   4.373   2.835   2.792 -0.6708 -0.0878  0.0725
 9073SOL    HW138678   4.283   2.869   2.800 -0.0975  1.0890  1.5502
 9073SOL    HW238679   4.377   2.806   2.701  0.7755 -3.7702  1.3151
 9074SOL     OW38680   0.174   2.806   7.470  0.0305 -0.2969  0.5332
 9074SOL    HW138681   0.122   2.802   7.550 -0.7450  0.7290  0.0809
 9074SOL    HW238682   0.238   2.877   7.480 -2.6684  2.3979 -1.1305
 9075SOL     OW38683   3.083   3.107  12.087  0.7666  0.5181  0.3653
 9075SOL    HW138684   3.046   3.100  11.999 -0.0629 -0.2388  0.7712
 9075SOL    HW238685   3.008   3.091  12.145 -0.0721 -1.3290 -1.2282
 9076SOL     OW38686   0.534   1.966   9.863 -0.5942  0.3520 -0.1902
 9076SOL    HW138687   0.522   2.038   9.926  0.8045  1.3158 -1.0319
 9076SOL    HW238688   0.501   1.899   9.922  0.7908 -0.8727 -0.8259
 9077SOL     OW38689   0.117   3.944  17.064  0.7592  0.1743 -0.0951
 9077SOL    HW138690   0.143   3.926  17.154  1.8928  0.3919 -0.3838
 9077SOL    HW238691   0.203   3.937  17.022  0.8363  1.1384 -0.0840
 9078SOL     OW38692   1.355   0.120   6.452 -0.0716 -0.6953 -0.0085
 9078SOL    HW138693   1.344   0.081   6.539  0.0061 -2.7540 -0.9181
 9078SOL    HW238694   1.447   0.101   6.438  0.3869  2.0831 -0.7323
 9079SOL     OW38695   3.113   4.135   4.862  0.5644 -0.0563  0.5550
 9079SOL    HW138696   3.162   4.064   4.822 -0.0336 -1.3085  2.0152
 9079SOL    HW238697   3.183   4.197   4.883  0.7636 -0.1923  0.2879
 9080SOL     OW38698   1.843   4.138   2.171  0.0127 -0.0897 -0.1693
 9080SOL    HW138699   1.841   4.053   2.216 -3.4393  1.0747  1.9057
 9080SOL    HW238700   1.909   4.113   2.106 -0.5289 -1.2770 -0.2600
 9081SOL     OW38701   0.709   3.396   7.644 -0.2553 -0.3435  0.2454
 9081SOL    HW138702   0.644   3.407   7.713  0.7056  1.2182  0.9134
 9081SOL    HW238703   0.718   3.489   7.622 -1.1836  0.0979  1.7837
 9082SOL     OW38704   3.073   3.526   0.629  0.2677  0.4455  0.1912
 9082SOL    HW138705   3.057   3.597   0.567 -1.5372  1.5132  1.8604
 9082SOL    HW238706   2.995   3.525   0.686  0.1380  0.4413  0.0123
 9083SOL     OW38707   2.817   3.068  10.890 -0.4197  0.2423  0.2647
 9083SOL    HW138708   2.869   3.058  10.969 -2.3452 -0.2471  1.4744
 9083SOL    HW238709   2.777   3.154  10.904 -0.3572  0.2825  0.1980
 9084SOL     OW38710   2.023   2.410   0.903  0.1057  0.1020 -0.0580
 9084SOL    HW138711   2.067   2.487   0.938 -0.4534 -0.4011  1.7422
 9084SOL    HW238712   2.077   2.395   0.825  0.5061 -1.1300  0.4571
 9085SOL     OW38713   3.950   0.131  17.649 -0.0683  0.5469  0.2535
 9085SOL    HW138714   4.042   0.107  17.660 -0.1586 -0.5183 -1.1917
 9085SOL    HW238715   3.906   0.056  17.610  1.8963 -0.6429  0.3258
 9086SOL     OW38716   2.589   0.459   3.110  0.1667 -0.4756 -0.1406
 9086SOL    HW138717   2.566   0.527   3.046 -1.6862 -0.1091  0.9283
 9086SOL    HW238718   2.516   0.398   3.111  0.3405 -0.7030 -1.2073
 9087SOL     OW38719   2.901   4.601   4.393  0.0750 -0.4683  0.0963
 9087SOL    HW138720   2.944   4.559   4.467 -1.3495 -0.6042  0.8414
 9087SOL    HW238721   2.969   4.591   4.326 -1.7166 -0.8668 -1.6466
 9088SOL     OW38722   1.738   1.620  13.997  0.0026 -0.1958 -0.1320
 9088SOL    HW138723   1.687   1.679  13.942  0.4672 -0.0790 -0.4406
 9088SOL    HW238724   1.698   1.535  13.980  0.9733 -1.0117  1.6439
 9089SOL     OW38725   1.960   2.535  12.263  1.3723 -0.4962 -0.3612
 9089SOL    HW138726   2.031   2.511  12.323  0.8776  1.1613  0.8935
 9089SOL    HW238727   2.013   2.603  12.220  0.9010 -1.6602 -2.7627
 9090SOL     OW38728   1.322   1.856   9.519 -0.6622 -0.4026  0.5942
 9090SOL    HW138729   1.324   1.889   9.429 -2.3611  0.4865  0.8758
 9090SOL    HW238730   1.390   1.789   9.517  0.5542  0.7974  1.2568
 9091SOL     OW38731   2.361   3.503   3.082  0.5183 -0.3648  0.1678
 9091SOL    HW138732   2.317   3.435   3.133 -0.2600 -0.1279 -0.1945
 9091SOL    HW238733   2.412   3.453   3.017 -0.3624  0.2616 -1.0093
 9092SOL     OW38734   2.400   4.084   3.779  0.1832  0.4033  0.3448
 9092SOL    HW138735   2.428   4.016   3.718 -0.6860  0.0991  0.2838
 9092SOL    HW238736   2.357   4.026   3.841  1.3093 -0.4547  0.3140
 9093SOL     OW38737   3.134   4.253  10.416 -0.3344  0.2098  0.0835
 9093SOL    HW138738   3.105   4.284  10.502 -0.9395 -0.9520  0.2996
 9093SOL    HW238739   3.212   4.305  10.396 -0.0554  0.1387  0.9774
 9094SOL     OW38740   3.382   3.997   7.338 -0.3006  0.5788  0.0770
 9094SOL    HW138741   3.351   4.076   7.381 -0.9509 -0.8338  2.2051
 9094SOL    HW238742   3.384   3.939   7.414  0.1394 -2.1831 -2.0415
 9095SOL     OW38743   4.085   0.864   4.363 -0.3750  0.5990  0.2576
 9095SOL    HW138744   4.036   0.921   4.304  0.9749 -0.2093 -1.6627
 9095SOL    HW238745   4.038   0.782   4.357 -0.9115  1.0963 -2.1539
 9096SOL     OW38746   3.487   0.182   4.478  0.3079 -0.1323  0.2258
 9096SOL    HW138747   3.462   0.261   4.526  1.0351  0.2922 -0.0896
 9096SOL    HW238748   3.481   0.109   4.539 -1.7140 -1.1634 -1.2086
 9097SOL     OW38749   4.495   3.985  13.657 -0.2305  0.4916 -0.1223
 9097SOL    HW138750   4.428   4.049  13.632 -0.2274  0.9789  1.1230
 9097SOL    HW238751   4.555   3.987  13.582 -1.4054 -1.7200 -1.1021
 9098SOL     OW38752   4.435   1.008   3.608 -0.0937 -0.0279  0.0540
 9098SOL    HW138753   4.482   1.034   3.688 -3.1425  1.5355  1.3624
 9098SOL    HW238754   4.457   0.916   3.621  1.2794  0.1998 -0.7038
 9099SOL     OW38755   3.119   0.901   6.294  0.5703 -0.0370 -0.4735
 9099SOL    HW138756   3.132   0.941   6.380  1.4089 -1.7190  0.1813
 9099SOL    HW238757   3.114   0.806   6.307 -1.7895 -0.1677 -2.3692
 9100SOL     OW38758   3.769   0.179   3.935 -0.4451 -0.3865  0.2555
 9100SOL    HW138759   3.845   0.136   3.896 -1.2050 -0.2131 -1.4089
 9100SOL    HW238760   3.714   0.106   3.964  0.4582 -1.8476 -1.7417
 9101SOL     OW38761   2.119   3.396  16.123 -0.3099  0.6455  0.1811
 9101SOL    HW138762   2.149   3.346  16.047  2.0735  1.6830  0.4401
 9101SOL    HW238763   2.075   3.465  16.074  0.0299  0.6729 -0.0804
 9102SOL     OW38764   2.949   0.825   3.192 -0.1266 -0.0753  0.0957
 9102SOL    HW138765   2.888   0.839   3.119 -1.1397 -0.0138  0.9511
 9102SOL    HW238766   2.983   0.914   3.197  1.1481 -0.6634  2.0547
 9103SOL     OW38767   2.943   4.137   3.636  0.4252  0.5567 -0.1282
 9103SOL    HW138768   2.898   4.094   3.564  3.1077  0.4918 -1.7549
 9103SOL    HW238769   2.934   4.075   3.709  0.1153  2.5027  1.5048
 9104SOL     OW38770   1.322   2.569   5.843 -0.1868  0.0741 -0.1627
 9104SOL    HW138771   1.372   2.576   5.924 -1.8703 -1.2330  0.9800
 9104SOL    HW238772   1.368   2.635   5.792  0.2456 -0.5969 -0.6500
 9105SOL     OW38773   3.555   3.159   6.864 -0.1134 -0.0044  0.1805
 9105SOL    HW138774   3.545   3.253   6.881  0.2858  0.1705 -0.5707
 9105SOL    HW238775   3.591   3.141   6.951  1.7417 -2.7486 -1.1660
 9106SOL     OW38776   0.110   2.719   5.836 -0.3507  0.0719 -0.0558
 9106SOL    HW138777   0.111   2.766   5.753 -1.4305  0.7560  0.3238
 9106SOL    HW238778   0.023   2.684   5.817 -0.3301  0.7460 -1.4024
 9107SOL     OW38779   2.321   4.476  17.408 -0.0150  1.0968 -0.1088
 9107SOL    HW138780   2.375   4.526  17.469  2.3437  1.7432 -2.7203
 9107SOL    HW238781   2.301   4.532  17.333 -1.3469  0.3164 -0.3425
 9108SOL     OW38782   4.631   4.477  15.828 -0.1738 -0.4622  0.1117
 9108SOL    HW138783   4.653   4.567  15.850 -0.5488 -0.1581 -0.7692
 9108SOL    HW238784   4.694   4.450  15.762  2.0051 -0.7339  2.2849
 9109SOL     OW38785   1.570   4.123   1.288 -0.3584  0.1345  0.3662
 9109SOL    HW138786   1.660   4.154   1.281 -0.4967 -0.0844 -2.1478
 9109SOL    HW238787   1.546   4.158   1.374 -2.3261 -1.2655  0.3897
 9110SOL     OW38788   0.942   1.791  15.759 -0.2566  0.1550  0.1604
 9110SOL    HW138789   0.969   1.708  15.800 -1.9832  0.7672  2.4938
 9110SOL    HW238790   1.012   1.790  15.693 -0.4147 -1.1059 -0.0013
 9111SOL     OW38791   3.040   1.803   7.324 -0.2279  0.2881 -0.0370
 9111SOL    HW138792   3.001   1.832   7.242 -0.1745  0.4994  0.0128
 9111SOL    HW238793   2.964   1.779   7.377 -0.0900 -0.9706 -0.3980
 9112SOL     OW38794   2.782   1.430  13.859 -0.0911  0.1088 -0.1958
 9112SOL    HW138795   2.756   1.341  13.885 -2.8759  0.2711 -2.4734
 9112SOL    HW238796   2.766   1.432  13.765  1.3376 -0.1456 -0.4469
 9113SOL     OW38797   4.021   2.955   8.931  0.9080  0.9809  0.2651
 9113SOL    HW138798   3.940   2.992   8.898  0.0790  0.4860  1.7503
 9113SOL    HW238799   3.989   2.913   9.010  0.3031 -0.5717 -0.8055
 9114SOL     OW38800   2.861   2.439  13.938 -0.5860 -0.6122 -0.0651
 9114SOL    HW138801   2.879   2.442  14.032  0.1610  0.8102 -0.2462
 9114SOL    HW238802   2.870   2.348  13.913 -0.5571  0.0213 -2.3271
 9115SOL     OW38803   2.598   4.713  14.504 -0.6158  0.5876 -0.3796
 9115SOL    HW138804   2.663   0.014  14.569 -1.1191 -0.5604  0.5960
 9115SOL    HW238805   2.629   0.039  14.430 -2.0571  0.2292 -1.2346
 9116SOL     OW38806   4.201   0.742   6.372 -0.0299  0.0092  0.0759
 9116SOL    HW138807   4.203   0.725   6.277  0.4998  2.0669 -0.2848
 9116SOL    HW238808   4.137   0.813   6.373  0.1947  0.1729  3.0441
 9117SOL     OW38809   1.374   2.620  12.482  0.4968  0.2337  0.1862
 9117SOL    HW138810   1.459   2.590  12.515 -0.4661 -3.8214 -0.9771
 9117SOL    HW238811   1.384   2.711  12.457  1.0320 -0.5013 -2.2193
 9118SOL     OW38812   2.796   4.555   4.980  0.3156  0.0046 -0.3520
 9118SOL    HW138813   2.723   4.547   5.041 -1.2250  1.6562 -1.9921
 9118SOL    HW238814   2.874   4.541   5.034  1.2502  1.5916 -1.3032
 9119SOL     OW38815   4.040   2.856   2.205  0.8580 -0.0217  0.0799
 9119SOL    HW138816   4.083   2.868   2.121  0.3405 -0.6291 -0.2730
 9119SOL    HW238817   4.057   2.761   2.206 -1.1473 -0.3905 -1.2242
 9120SOL     OW38818   0.440   3.364   1.856 -0.1150  0.1808  0.3072
 9120SOL    HW138819   0.509   3.331   1.798  1.5624  0.3519  2.2069
 9120SOL    HW238820   0.487   3.354   1.939  0.9762  2.7764  0.0126
 9121SOL     OW38821   1.626   1.243  14.544  0.3042  0.9536 -0.1425
 9121SOL    HW138822   1.562   1.310  14.566 -2.0489 -1.5119  0.5556
 9121SOL    HW238823   1.668   1.227  14.628 -0.6117 -0.8053 -0.0232
 9122SOL     OW38824   0.407   1.106   5.370  0.3392  0.3217  0.3532
 9122SOL    HW138825   0.405   1.167   5.297 -0.6656 -0.9048 -0.6397
 9122SOL    HW238826   0.489   1.059   5.352 -0.0781 -0.2295 -0.1013
 9123SOL     OW38827   3.257   2.803   1.676  0.1517  0.0998 -0.0567
 9123SOL    HW138828   3.245   2.856   1.596 -1.0437  0.2587  0.2312
 9123SOL    HW238829   3.288   2.863   1.744  3.9865  0.1426 -1.8299
 9124SOL     OW38830   4.613   2.695   7.137  0.4860  0.1392 -0.2074
 9124SOL    HW138831   4.679   2.631   7.163  0.2989  0.2679  0.5738
 9124SOL    HW238832   4.537   2.642   7.114  0.2737  0.2772  0.1891
 9125SOL     OW38833   2.314   2.146  17.060  0.0773  0.5817  0.0154
 9125SOL    HW138834   2.243   2.092  17.094  0.3541  0.7092  0.7870
 9125SOL    HW238835   2.263   2.203  17.002 -1.8183 -1.0297  0.1238
 9126SOL     OW38836   0.721   0.777  16.077  0.4483  0.4074 -0.1068
 9126SOL    HW138837   0.750   0.727  16.153  0.8013  1.5515  0.5111
 9126SOL    HW238838   0.785   0.847  16.087 -0.7224  1.5754 -0.7536
 9127SOL     OW38839   3.314   3.819   4.247  0.1976  0.1634 -0.3441
 9127SOL    HW138840   3.306   3.889   4.181  1.5957  0.3188 -0.3586
 9127SOL    HW238841   3.402   3.783   4.236  0.0876  0.3567 -1.9145
 9128SOL     OW38842   1.762   1.066  12.910 -0.5559 -0.1593 -0.3398
 9128SOL    HW138843   1.748   1.046  12.818  0.1519  2.2652 -0.9560
 9128SOL    HW238844   1.672   1.062  12.942 -0.0795  1.6904  1.2099
 9129SOL     OW38845   1.876   0.699   5.934  0.0089  0.9351  0.3822
 9129SOL    HW138846   1.895   0.621   5.986  2.4947 -0.3325 -2.4214
 9129SOL    HW238847   1.822   0.664   5.863  0.6977  0.5786  0.0263
 9130SOL     OW38848   1.522   3.657  15.784 -0.3842 -0.0627  0.5775
 9130SOL    HW138849   1.482   3.693  15.704  3.2555  2.2461 -0.1970
 9130SOL    HW238850   1.454   3.655  15.851 -0.1120 -2.5744  0.7803
 9131SOL     OW38851   4.493   2.051  10.149  0.4437 -0.1037 -0.2956
 9131SOL    HW138852   4.413   2.050  10.202  1.6321  1.5639  1.4997
 9131SOL    HW238853   4.477   1.978  10.089  4.7878  1.3380 -3.2036
 9132SOL     OW38854   4.615   2.420  13.778  0.0474 -0.6598  0.9271
 9132SOL    HW138855   4.524   2.427  13.809 -0.5624  0.6896 -1.1350
 9132SOL    HW238856   4.628   2.328  13.799 -1.3455 -0.4529  2.7728
 9133SOL     OW38857   4.018   3.265   5.067  0.4481 -0.1418  0.4635
 9133SOL    HW138858   4.008   3.216   5.149  3.6167 -0.6579  0.5598
 9133SOL    HW238859   4.012   3.197   5.000  2.4409  1.0838 -0.9738
 9134SOL     OW38860   3.557   3.491  16.946 -0.0060 -0.0331 -0.2521
 9134SOL    HW138861   3.631   3.484  17.005 -0.2300 -1.3840 -0.1303
 9134SOL    HW238862   3.485   3.541  16.986 -0.0817 -2.4135  2.4966
 9135SOL     OW38863   0.042   0.876   3.867 -1.0864  0.3253  0.1614
 9135SOL    HW138864   0.036   0.782   3.885 -1.1459 -0.1096 -2.2147
 9135SOL    HW238865   4.677   0.904   3.869 -1.0708  0.3691  0.2590
 9136SOL     OW38866   3.075   1.614  17.475 -0.0398  0.4189  0.1749
 9136SOL    HW138867   3.146   1.675  17.456  0.4674 -0.0032  0.6855
 9136SOL    HW238868   3.100   1.604  17.567 -0.5078 -1.5196  0.0884
 9137SOL     OW38869   3.382   3.778   3.315 -0.1590 -0.0790  0.1812
 9137SOL    HW138870   3.376   3.813   3.404  1.2546 -0.0027  0.2569
 9137SOL    HW238871   3.446   3.840   3.281 -0.9745 -0.9262 -2.8731
 9138SOL     OW38872   2.292   0.328   8.567 -0.1170  0.1066  0.0547
 9138SOL    HW138873   2.373   0.309   8.616  0.3368 -0.8023 -1.0537
 9138SOL    HW238874   2.237   0.260   8.607 -0.9112 -0.3135 -1.7321
 9139SOL     OW38875   1.647   1.826   3.984 -0.2429 -0.2816 -0.4931
 9139SOL    HW138876   1.616   1.760   3.921  3.2318 -0.0080 -2.5076
 9139SOL    HW238877   1.728   1.781   4.006  0.7162  0.2545 -2.9043
 9140SOL     OW38878   0.159   1.728   3.649 -0.5912 -0.1231 -0.0844
 9140SOL    HW138879   0.210   1.805   3.672 -1.9714  0.9847 -0.7811
 9140SOL    HW238880   0.157   1.735   3.554 -0.5873 -0.4877 -0.1135
 9141SOL     OW38881   1.538   1.644   6.606 -0.1796  0.4739  0.0819
 9141SOL    HW138882   1.600   1.577   6.577  1.1975  1.7509  0.0484
 9141SOL    HW238883   1.594   1.716   6.637 -0.9181  0.2065  2.0579
 9142SOL     OW38884   3.375   0.604  15.199 -0.1551 -0.0121 -0.5085
 9142SOL    HW138885   3.374   0.542  15.272 -0.7115 -0.1327 -0.6109
 9142SOL    HW238886   3.281   0.600  15.177 -0.0799 -0.3134 -0.7867
 9143SOL     OW38887   2.145   2.583   6.064 -0.0439 -0.1429  0.1228
 9143SOL    HW138888   2.150   2.675   6.040 -1.1702 -0.2210 -0.3883
 9143SOL    HW238889   2.152   2.596   6.159  0.0890 -0.0455  0.0989
 9144SOL     OW38890   1.988   3.534   4.417 -0.0218  0.4502 -0.3616
 9144SOL    HW138891   2.026   3.592   4.483 -4.0224  3.2183 -0.4482
 9144SOL    HW238892   2.056   3.469   4.401  0.2660 -0.0593  2.9488
 9145SOL     OW38893   3.511   3.723   6.500  0.3398 -0.2029 -0.4170
 9145SOL    HW138894   3.488   3.739   6.409 -0.8881  1.4709  0.1872
 9145SOL    HW238895   3.520   3.628   6.491  3.6130 -0.1201  1.8115
 9146SOL     OW38896   0.594   4.398   3.688 -0.2974  0.0316  0.1617
 9146SOL    HW138897   0.604   4.340   3.612 -0.6164 -0.1258  0.2412
 9146SOL    HW238898   0.558   4.339   3.755  2.3313  0.0908  1.6320
 9147SOL     OW38899   0.222   1.342   8.820  0.1394 -0.0086 -0.2927
 9147SOL    HW138900   0.259   1.258   8.793 -0.8897 -0.8312  0.8947
 9147SOL    HW238901   0.277   1.368   8.894 -0.8554  1.2096  0.0205
 9148SOL     OW38902   2.628   1.287   8.436  0.3849 -0.3384 -0.0083
 9148SOL    HW138903   2.713   1.311   8.472 -0.7291  3.2331  0.3017
 9148SOL    HW238904   2.622   1.194   8.459 -0.0187 -0.7435 -1.7710
 9149SOL     OW38905   1.516   0.149   1.889 -0.4249 -0.2345  0.3437
 9149SOL    HW138906   1.561   0.212   1.832 -0.7995  0.6896  1.0551
 9149SOL    HW238907   1.586   0.094   1.923 -2.0237 -1.3767  1.8157
 9150SOL     OW38908   2.026   0.018   2.348 -0.1013  0.0152 -0.3611
 9150SOL    HW138909   2.016   0.111   2.329  0.8463  0.8559  3.2598
 9150SOL    HW238910   2.014   4.705   2.262 -0.9728  0.1954 -0.3168
 9151SOL     OW38911   1.735   2.336  16.835 -0.2075 -0.3742  0.3395
 9151SOL    HW138912   1.797   2.263  16.822  0.5760  0.6515 -1.7304
 9151SOL    HW238913   1.665   2.292  16.883  0.6135 -0.4527  1.4871
 9152SOL     OW38914   0.910   1.926  12.876  0.6311  0.3159  0.1254
 9152SOL    HW138915   0.942   1.846  12.834  0.6282  0.8267 -0.8526
 9152SOL    HW238916   0.839   1.884  12.926  0.9316  0.4376  0.6503
 9153SOL     OW38917   1.386   3.662   3.933 -0.1242  0.0149 -0.3003
 9153SOL    HW138918   1.347   3.735   3.980  1.0075  0.2015  0.3518
 9153SOL    HW238919   1.355   3.678   3.844 -0.6504 -0.4752 -0.2013
 9154SOL     OW38920   0.944   1.125  13.049 -0.7695 -0.2253  0.3782
 9154SOL    HW138921   0.972   1.063  12.982 -0.8644 -1.3817  1.4031
 9154SOL    HW238922   0.908   1.062  13.112  1.3000 -0.5875  1.1886
 9155SOL     OW38923   2.711   1.721   4.443 -0.3607 -0.4001  0.7514
 9155SOL    HW138924   2.798   1.700   4.479 -0.3868 -0.6384  0.6795
 9155SOL    HW238925   2.711   1.673   4.360 -2.2055  0.7799  0.0901
 9156SOL     OW38926   1.626   1.297   6.098 -0.1234 -0.4471 -0.5785
 9156SOL    HW138927   1.623   1.242   6.176  0.0485  0.7169  0.2437
 9156SOL    HW238928   1.721   1.309   6.100 -0.3769  1.4934  0.1828
 9157SOL     OW38929   2.323   4.558   4.298  0.6815 -0.3424  0.1216
 9157SOL    HW138930   2.250   4.516   4.344 -1.0084  1.8104 -0.5603
 9157SOL    HW238931   2.387   4.561   4.368  0.3628  1.2588  0.3602
 9158SOL     OW38932   1.455   1.869   2.673  0.4772  0.1624 -0.2372
 9158SOL    HW138933   1.472   1.795   2.615  0.2447  0.6782 -0.9618
 9158SOL    HW238934   1.438   1.933   2.604 -0.0193  1.8807  1.4883
 9159SOL     OW38935   1.924   1.857   9.284 -0.0730  0.7578 -0.2298
 9159SOL    HW138936   1.991   1.789   9.277  0.6524  1.2637  1.6510
 9159SOL    HW238937   1.893   1.828   9.370  1.9528  1.2483  0.6784
 9160SOL     OW38938   0.324   4.002   7.985  0.1949  0.7050 -0.0656
 9160SOL    HW138939   0.407   4.021   8.029  1.3858 -4.5094 -0.1233
 9160SOL    HW238940   0.322   3.910   8.010  0.7670  0.6059 -0.3899
 9161SOL     OW38941   4.406   1.488   0.790 -0.3453 -0.2125 -0.1529
 9161SOL    HW138942   4.414   1.580   0.816 -0.8484 -0.2769  0.2288
 9161SOL    HW238943   4.369   1.462   0.875 -0.3620  3.5430  1.0299
 9162SOL     OW38944   2.490   1.135   9.227  0.3192  0.3836  0.4620
 9162SOL    HW138945   2.467   1.091   9.308  0.1121 -0.9510 -0.3317
 9162SOL    HW238946   2.558   1.083   9.185  0.1138 -0.6675  1.4330
 9163SOL     OW38947   1.801   0.367   7.656 -0.0784  0.2597  1.1565
 9163SOL    HW138948   1.831   0.393   7.569 -0.4540  2.3790  1.6561
 9163SOL    HW238949   1.788   0.452   7.699 -3.3202  1.3515 -1.9995
 9164SOL     OW38950   3.592   0.768  14.463 -0.1162 -0.1950 -0.5235
 9164SOL    HW138951   3.560   0.851  14.497  0.5551  0.7455 -2.2198
 9164SOL    HW238952   3.681   0.787  14.435 -0.0073  0.3600  0.1984
 9165SOL     OW38953   1.527   3.990   2.610 -0.2954  0.5226  0.4373
 9165SOL    HW138954   1.452   3.949   2.568  0.4433  0.0834 -0.4627
 9165SOL    HW238955   1.494   4.006   2.699  2.4661  0.9876  1.3835
 9166SOL     OW38956   2.761   0.496   0.099  0.1292  0.2452 -0.0776
 9166SOL    HW138957   2.801   0.474   0.016  0.3043 -1.8158  0.5552
 9166SOL    HW238958   2.804   0.577   0.126 -0.3372  1.0013 -1.6099
 9167SOL     OW38959   4.459   1.772   2.287 -0.2700 -0.1835  0.5298
 9167SOL    HW138960   4.548   1.745   2.310 -1.0230 -1.6133  1.7505
 9167SOL    HW238961   4.455   1.766   2.192  0.3120 -1.2154  0.5752
 9168SOL     OW38962   0.758   1.378   4.919  0.4899  0.3760 -0.1660
 9168SOL    HW138963   0.750   1.323   4.841  0.5533  1.0078 -0.6121
 9168SOL    HW238964   0.757   1.307   4.984 -2.0433  0.1016 -0.5228
 9169SOL     OW38965   4.461   2.981   7.489 -0.0718  0.3475 -0.3849
 9169SOL    HW138966   4.526   2.935   7.542 -1.9153 -3.1913 -1.2142
 9169SOL    HW238967   4.398   2.996   7.560 -0.8857  0.8650 -1.2095
 9170SOL     OW38968   1.413   3.451  14.206  0.2146 -0.9346  0.0579
 9170SOL    HW138969   1.346   3.514  14.179  1.3629 -0.1071 -0.8671
 9170SOL    HW238970   1.383   3.428  14.293  1.7876 -2.4942  0.2123
 9171SOL     OW38971   2.215   0.380   7.794  0.2568 -0.1051 -0.1896
 9171SOL    HW138972   2.132   0.415   7.826 -0.1332  0.3214 -1.6719
 9171SOL    HW238973   2.205   0.364   7.700 -2.0616  0.2616 -0.0170
 9172SOL     OW38974   3.043   1.664  11.531  0.4017  0.6261  0.0043
 9172SOL    HW138975   2.949   1.661  11.548 -0.1172 -0.3888 -2.9439
 9172SOL    HW238976   3.059   1.758  11.518 -0.7367  0.9001  0.5215
 9173SOL     OW38977   3.320   4.200   2.349 -0.4662  0.0979 -0.4374
 9173SOL    HW138978   3.341   4.180   2.440  0.0468  1.4618 -0.2622
 9173SOL    HW238979   3.366   4.125   2.310  0.3994 -0.2430  1.2359
 9174SOL     OW38980   4.256   3.260   0.012 -0.0166  0.0509 -0.0292
 9174SOL    HW138981   4.307   3.312  17.658  1.6440 -0.6936  0.7215
 9174SOL    HW238982   4.208   3.337   0.044  0.5168  0.1705  0.5086
 9175SOL     OW38983   0.802   2.869   2.241  0.1375  0.0077 -0.2831
 9175SOL    HW138984   0.790   2.964   2.232 -2.5615 -0.1755  1.4714
 9175SOL    HW238985   0.764   2.836   2.160 -0.0367  2.5076 -1.2084
 9176SOL     OW38986   0.700   0.322  11.156  0.0362  0.0400 -0.6494
 9176SOL    HW138987   0.733   0.279  11.077 -2.0311 -0.0815 -1.4479
 9176SOL    HW238988   0.778   0.315  11.211 -0.6480  3.2015  0.7088
 9177SOL     OW38989   2.598   2.796   7.446 -0.1245  0.2989 -0.4484
 9177SOL    HW138990   2.606   2.879   7.397  0.8187  1.2167  1.2946
 9177SOL    HW238991   2.692   2.783   7.450 -0.0571  0.4550 -1.4070
 9178SOL     OW38992   3.357   4.699   4.016  0.5343 -0.3681 -0.4782
 9178SOL    HW138993   3.304   0.012   3.947  0.3736  0.6837  0.2461
 9178SOL    HW238994   3.368   0.044   4.079 -1.5403  0.6130 -1.2301
 9179SOL     OW38995   1.603   3.164   2.491 -0.1094  0.2911  0.3873
 9179SOL    HW138996   1.671   3.097   2.486  0.8196  1.1751  1.3406
 9179SOL    HW238997   1.626   3.227   2.423  1.1700  0.2233  0.7648
 9180SOL     OW38998   3.857   2.614   5.424  0.0963 -0.2995  0.4828
 9180SOL    HW138999   3.947   2.601   5.454 -0.1651 -1.4503  0.7559
 9180SOL    HW239000   3.872   2.588   5.333  1.8788  2.7969 -0.1253
 9181SOL     OW39001   4.385   4.391   5.267  0.0004  0.2509 -0.1917
 9181SOL    HW139002   4.350   4.355   5.349 -1.8171  3.1295  0.3089
 9181SOL    HW239003   4.334   4.472   5.273 -3.9762 -2.2322 -0.6347
 9182SOL     OW39004   1.425   2.642   3.271 -0.0292  0.3820  0.3349
 9182SOL    HW139005   1.495   2.628   3.207 -0.6257 -0.5076 -0.1232
 9182SOL    HW239006   1.469   2.684   3.344  1.0100 -0.7014  0.3361
 9183SOL     OW39007   3.435   4.039  16.754  0.1829 -0.0252  0.5183
 9183SOL    HW139008   3.412   3.947  16.748  1.6647 -0.3077 -0.8673
 9183SOL    HW239009   3.417   4.071  16.842 -0.0903  2.0902 -0.3030
 9184SOL     OW39010   2.539   1.744   6.334  0.4259 -0.1519 -0.5913
 9184SOL    HW139011   2.626   1.731   6.296  2.0054 -1.0017  3.3462
 9184SOL    HW239012   2.525   1.838   6.333  0.7635 -0.0875  1.3173
 9185SOL     OW39013   3.364   1.353   9.170 -0.4302  0.4990  0.1882
 9185SOL    HW139014   3.349   1.440   9.206  1.6978  0.8318  0.2702
 9185SOL    HW239015   3.401   1.365   9.082 -1.3249 -0.0750 -0.2637
 9186SOL     OW39016   2.938   1.416   9.777  0.2606 -0.1978 -0.3763
 9186SOL    HW139017   3.004   1.427   9.709 -0.1304  1.7185 -0.4605
 9186SOL    HW239018   2.861   1.451   9.731  0.2089 -2.5780 -2.0992
 9187SOL     OW39019   1.092   2.071   9.005  0.1614  0.5960 -0.0236
 9187SOL    HW139020   1.128   2.124   8.934  1.4404  1.3275  1.1685
 9187SOL    HW239021   1.079   2.143   9.067  0.2005  1.3167 -0.8572
 9188SOL     OW39022   0.993   4.038   5.974 -0.0780  0.5844  0.3969
 9188SOL    HW139023   0.898   4.045   5.965  0.0230 -0.4984 -1.5219
 9188SOL    HW239024   0.998   4.052   6.068 -0.2805 -1.6026  0.7406
 9189SOL     OW39025   2.066   0.641  11.921  0.2290 -0.2272 -0.3106
 9189SOL    HW139026   2.081   0.643  12.016  0.1448 -0.5575 -0.2887
 9189SOL    HW239027   1.983   0.593  11.918  0.3262 -0.3797 -0.5403
 9190SOL     OW39028   0.013   3.400  17.116  0.3496  0.2096 -0.0024
 9190SOL    HW139029   0.085   3.463  17.108  1.1798 -0.6280  0.9098
 9190SOL    HW239030   4.682   3.431  17.046  0.4265  1.0810  0.3117
 9191SOL     OW39031   4.182   0.185  12.681  0.4648 -0.0869 -0.2007
 9191SOL    HW139032   4.187   0.215  12.591 -0.2036 -2.6406 -1.0968
 9191SOL    HW239033   4.236   0.106  12.680  0.9419  0.2704 -2.0835
 9192SOL     OW39034   4.559   4.640   1.349  0.2000 -0.5460  0.2025
 9192SOL    HW139035   4.498   4.649   1.421  1.0950 -1.6540  1.0995
 9192SOL    HW239036   4.503   4.600   1.283 -1.8621 -0.4225  1.9001
 9193SOL     OW39037   4.639   1.061   4.292 -0.3380  0.4482 -0.0330
 9193SOL    HW139038   4.622   1.064   4.198 -1.6801 -1.3126  0.1408
 9193SOL    HW239039   4.566   1.015   4.335 -0.9883  1.6362  0.1344
 9194SOL     OW39040   2.553   3.392   3.882 -0.7436  0.0119  0.2618
 9194SOL    HW139041   2.606   3.464   3.846  1.7971 -1.0737  1.8666
 9194SOL    HW239042   2.586   3.307   3.853  2.9147  1.0114  1.4494
 9195SOL     OW39043   1.075   0.514   8.906 -0.0490  0.1464 -0.4728
 9195SOL    HW139044   0.996   0.462   8.917 -0.2154  0.4010 -0.4697
 9195SOL    HW239045   1.143   0.449   8.926 -1.4684 -1.1237  0.1967
 9196SOL     OW39046   0.015   2.366   9.825  0.0750 -0.2310 -0.2267
 9196SOL    HW139047   0.042   2.345   9.736  1.1515 -0.5940  0.1857
 9196SOL    HW239048   0.025   2.461   9.815 -2.1160 -0.2150 -2.2747
 9197SOL     OW39049   3.522   1.326   3.915 -0.1926 -0.6061  0.4351
 9197SOL    HW139050   3.572   1.386   3.970  1.4172 -0.0364 -1.6114
 9197SOL    HW239051   3.590   1.260   3.899 -0.8456 -1.4430  1.1219
 9198SOL     OW39052   0.071   0.991  14.847  0.1020  0.2127 -0.1317
 9198SOL    HW139053   0.096   1.083  14.860 -0.6073  0.5716 -1.2360
 9198SOL    HW239054   0.035   0.992  14.758  1.5726  0.5504 -0.7218
 9199SOL     OW39055   0.858   0.867   3.230 -0.2944  0.1714  0.3276
 9199SOL    HW139056   0.775   0.913   3.238 -0.6431 -0.2846 -0.6023
 9199SOL    HW239057   0.892   0.889   3.143 -0.9568 -0.4127 -0.0696
 9200SOL     OW39058   1.869   4.085   7.991  0.5846  0.3542 -0.2457
 9200SOL    HW139059   1.817   4.132   8.057  0.5012  0.0777 -0.1161
 9200SOL    HW239060   1.953   4.094   8.037  0.5996 -1.1114 -0.0063
 9201SOL     OW39061   0.131   2.589  15.846  0.1075  0.2614 -0.3141
 9201SOL    HW139062   0.101   2.499  15.861  2.2572 -0.6807 -1.5593
 9201SOL    HW239063   0.116   2.605  15.753  0.4648 -1.1058 -0.6142
 9202SOL     OW39064   3.943   2.921   5.929 -0.5859 -0.1786 -0.1323
 9202SOL    HW139065   3.906   2.833   5.922 -0.3111 -0.1671 -1.5794
 9202SOL    HW239066   4.023   2.925   5.877  0.2497  1.7516  1.2858
 9203SOL     OW39067   0.869   3.410  16.194 -0.4024  0.3012 -0.3026
 9203SOL    HW139068   0.877   3.357  16.114 -1.2678  0.4551 -0.4892
 9203SOL    HW239069   0.924   3.366  16.259  0.9368  2.0303 -0.2741
 9204SOL     OW39070   2.269   1.243  14.020  0.0387 -0.0798 -0.3122
 9204SOL    HW139071   2.245   1.177  14.085 -2.3242 -0.5749 -1.6970
 9204SOL    HW239072   2.211   1.209  13.952  0.3586  1.0354 -1.1515
 9205SOL     OW39073   1.163   1.125  17.689  0.3473  0.3154 -0.1446
 9205SOL    HW139074   1.096   1.064  17.657  0.1843  0.6688 -0.4856
 9205SOL    HW239075   1.191   1.068   0.052  0.3903  2.4409  1.5195
 9206SOL     OW39076   4.591   0.079   3.129  0.8126  0.3855 -0.0493
 9206SOL    HW139077   4.540   0.118   3.058  0.0414 -1.4999 -0.5290
 9206SOL    HW239078   4.629   0.163   3.156  0.2592  1.1882 -1.8075
 9207SOL     OW39079   3.467   1.987   4.409 -0.3529 -0.9421  0.1735
 9207SOL    HW139080   3.405   1.934   4.459 -0.7714  0.8251  1.5402
 9207SOL    HW239081   3.466   1.934   4.330  1.4027  1.5257 -1.5243
 9208SOL     OW39082   3.154   4.670   9.875  0.0905  0.4064  0.4181
 9208SOL    HW139083   3.151   4.612   9.950 -2.8602 -1.4343 -1.1486
 9208SOL    HW239084   3.109   0.018   9.914 -0.7094  0.6260 -0.8926
 9209SOL     OW39085   3.968   1.177   6.404 -0.3956  0.0779 -0.1889
 9209SOL    HW139086   3.876   1.156   6.421 -0.1714 -1.4034 -0.8019
 9209SOL    HW239087   3.952   1.235   6.330  0.1881  1.6380  0.9230
 9210SOL     OW39088   3.926   3.193   2.379 -0.1126  0.3957 -0.6202
 9210SOL    HW139089   4.000   3.139   2.406 -1.9113 -1.2249  1.0349
 9210SOL    HW239090   3.877   3.134   2.322  0.0337  0.5299 -0.8855
 9211SOL     OW39091   2.037   0.890  13.755 -0.0940  0.2743 -0.1778
 9211SOL    HW139092   2.017   0.842  13.675  2.3672 -0.1746 -0.5336
 9211SOL    HW239093   2.050   0.819  13.818 -0.6820  1.5824  1.4425
 9212SOL     OW39094   3.821   1.656   4.641 -0.0440 -0.6132 -0.3076
 9212SOL    HW139095   3.813   1.614   4.556 -0.7544  2.1532 -1.6144
 9212SOL    HW239096   3.728   1.676   4.653  0.7832  3.3067 -0.2682
 9213SOL     OW39097   2.040   0.179   4.941 -0.4119 -0.0168  0.3791
 9213SOL    HW139098   2.104   0.125   4.896  3.7071  3.1488  2.4930
 9213SOL    HW239099   2.004   0.248   4.884  0.5251  0.3875  0.2714
 9214SOL     OW39100   3.045   0.760   7.300 -0.0122 -0.0210  0.2184
 9214SOL    HW139101   3.131   0.716   7.302  0.7084  1.4462  1.2555
 9214SOL    HW239102   3.056   0.820   7.373  0.5222  0.3580 -0.1683
 9215SOL     OW39103   4.595   4.518  11.921 -0.1449  0.3435  0.4706
 9215SOL    HW139104   4.611   4.471  12.003 -1.0523  0.2029  0.5621
 9215SOL    HW239105   4.655   4.591  11.933  0.5024 -0.2517  0.8903
 9216SOL     OW39106   1.668   0.141   7.713 -0.0230 -0.5135 -0.0237
 9216SOL    HW139107   1.719   0.219   7.693  1.4311 -1.2897  0.6410
 9216SOL    HW239108   1.630   0.159   7.799  1.9752 -2.7035  1.2977
 9217SOL     OW39109   1.753   3.675   5.913  0.0123  0.2120 -0.5380
 9217SOL    HW139110   1.823   3.696   5.975  1.9119 -2.6868 -1.6708
 9217SOL    HW239111   1.679   3.729   5.941  0.0788  0.1843 -0.3023
 9218SOL     OW39112   0.561   2.178  15.047  0.4010 -0.0707  0.0877
 9218SOL    HW139113   0.639   2.152  14.998  0.6046  0.5734  0.0696
 9218SOL    HW239114   0.561   2.273  15.044  1.8500 -0.0339  1.8876
 9219SOL     OW39115   3.766   4.004   8.396 -0.4781 -0.4572 -0.3379
 9219SOL    HW139116   3.721   3.928   8.430  0.4788 -1.4025 -1.1862
 9219SOL    HW239117   3.793   4.046   8.478  0.3453 -1.3825 -0.1262
 9220SOL     OW39118   4.365   2.682   3.354  0.3612 -0.2091 -0.0850
 9220SOL    HW139119   4.275   2.652   3.361 -0.0230  1.3410  1.5805
 9220SOL    HW239120   4.377   2.684   3.259  0.6303  0.7806 -0.0339
 9221SOL     OW39121   1.725   4.074   8.662  0.0113 -0.2924  0.2295
 9221SOL    HW139122   1.775   4.117   8.730 -0.6895  0.3860  0.3171
 9221SOL    HW239123   1.774   3.994   8.643  1.3557  0.5084  0.3593
 9222SOL     OW39124   2.201   4.111   4.286 -0.0145  0.0620 -0.0844
 9222SOL    HW139125   2.168   4.200   4.283 -1.1372 -0.2421  2.5443
 9222SOL    HW239126   2.198   4.098   4.381 -0.8407  4.3748  0.4684
 9223SOL     OW39127   3.881   1.854   3.493 -0.2728  0.2013 -1.2768
 9223SOL    HW139128   3.863   1.773   3.445 -2.5147 -0.9660  1.5462
 9223SOL    HW239129   3.971   1.872   3.463  0.0828 -0.0513 -0.3710
 9224SOL     OW39130   3.053   1.609   3.614 -0.6981  0.3562  0.0248
 9224SOL    HW139131   3.000   1.654   3.680 -0.9069 -0.1351  0.1916
 9224SOL    HW239132   3.139   1.646   3.634 -0.6513  0.3626 -0.1848
 9225SOL     OW39133   3.477   1.117   7.666  0.3367  0.1313 -0.3824
 9225SOL    HW139134   3.570   1.138   7.658  1.5069 -4.1417  2.3218
 9225SOL    HW239135   3.484   1.022   7.668  1.1948  0.2138  0.1658
 9226SOL     OW39136   2.104   2.858   6.076  0.1127  0.9680 -0.3271
 9226SOL    HW139137   2.145   2.832   6.158 -0.9043 -1.5927 -0.6167
 9226SOL    HW239138   2.149   2.938   6.050  0.8216  0.6192 -0.1523
 9227SOL     OW39139   3.864   2.038   3.834 -0.1004 -0.5956 -0.0185
 9227SOL    HW139140   3.812   1.964   3.867  2.3544 -1.0014  3.0295
 9227SOL    HW239141   3.847   2.105   3.900  0.9317 -1.5482  1.2303
 9228SOL     OW39142   2.120   2.423   5.040 -0.3100  0.2423 -0.3159
 9228SOL    HW139143   2.065   2.387   4.970 -2.5453  1.8025  0.6344
 9228SOL    HW239144   2.109   2.517   5.029 -1.1628  0.0430 -1.1007
 9229SOL     OW39145   0.396   4.619   3.243  0.3289  0.2120 -0.1993
 9229SOL    HW139146   0.483   4.638   3.278  0.0954  0.1222  0.4456
 9229SOL    HW239147   0.389   4.666   3.160 -0.4757 -1.8254 -1.2871
 9230SOL     OW39148   1.966   1.425   3.054 -0.4601 -0.1263  0.4206
 9230SOL    HW139149   1.923   1.388   2.977 -1.8328 -0.5576  1.3860
 9230SOL    HW239150   2.055   1.403   3.029 -0.5192 -0.0914  0.1723
 9231SOL     OW39151   1.235   3.149   1.997  0.3652  0.7618 -0.1502
 9231SOL    HW139152   1.295   3.075   1.983  1.9041  1.7691  1.1787
 9231SOL    HW239153   1.166   3.128   1.933  0.3886 -1.8073  0.6559
 9232SOL     OW39154   3.901   1.008  12.833  0.0724  0.3899 -0.6851
 9232SOL    HW139155   3.967   1.076  12.844 -0.0081  0.1281  1.4237
 9232SOL    HW239156   3.826   1.041  12.883 -0.0749  0.1508 -0.7458
 9233SOL     OW39157   2.012   1.769  15.913  0.5469  0.0681  0.0997
 9233SOL    HW139158   1.932   1.805  15.951  1.1464 -1.3676  2.6599
 9233SOL    HW239159   1.992   1.759  15.820  0.2915  0.5616  0.0967
 9234SOL     OW39160   1.985   3.629  16.029  0.7456  0.6402  0.3641
 9234SOL    HW139161   1.891   3.644  16.045  0.3296 -1.4615 -0.1715
 9234SOL    HW239162   2.030   3.712  16.015  1.6748  0.2686  1.1952
 9235SOL     OW39163   0.360   0.794   3.556 -0.2175  0.1436 -0.0395
 9235SOL    HW139164   0.359   0.888   3.577 -2.5850  0.5117 -1.7065
 9235SOL    HW239165   0.383   0.757   3.641  0.9186 -0.3149 -0.5517
 9236SOL     OW39166   1.001   0.701   9.450 -0.2366 -0.2032 -0.2079
 9236SOL    HW139167   0.995   0.705   9.545 -0.8067 -1.6694 -0.1971
 9236SOL    HW239168   1.043   0.783   9.421  1.2604 -0.3576  1.5709
 9237SOL     OW39169   2.946   4.697  16.866  0.0006  0.1710 -0.0855
 9237SOL    HW139170   2.908   4.621  16.821 -0.8435  0.6396 -0.1715
 9237SOL    HW239171   2.899   4.689  16.950  3.4705  0.7811  1.8940
 9238SOL     OW39172   0.527   0.403  13.610  0.0034  0.3557 -0.8347
 9238SOL    HW139173   0.537   0.309  13.627  0.1644  0.4460 -0.4333
 9238SOL    HW239174   0.556   0.442  13.692 -0.1232  1.1489 -1.1643
 9239SOL     OW39175   3.615   0.677   6.468 -0.4018 -0.2550  0.4173
 9239SOL    HW139176   3.695   0.647   6.512  1.7799  1.1810 -2.6253
 9239SOL    HW239177   3.562   0.597   6.468  0.9198 -1.1239  1.4615
 9240SOL     OW39178   1.683   3.797  14.363 -0.3488 -0.3734  0.4387
 9240SOL    HW139179   1.778   3.800  14.357 -0.4507  0.3430 -0.7737
 9240SOL    HW239180   1.669   3.882  14.321 -0.5004 -0.5368  0.1557
 9241SOL     OW39181   0.719   0.488   7.232  0.1736 -0.4750  0.3556
 9241SOL    HW139182   0.809   0.515   7.213  1.0058 -1.6746  2.6269
 9241SOL    HW239183   0.678   0.572   7.253  0.3001 -0.0061 -1.2793
 9242SOL     OW39184   1.961   1.442   3.954  0.5187  0.8708 -0.9612
 9242SOL    HW139185   2.051   1.431   3.922 -0.4161  0.1578 -3.3309
 9242SOL    HW239186   1.916   1.420   3.872  0.7803  0.5851 -1.0301
 9243SOL     OW39187   0.252   4.399   7.024 -0.5767  0.0956  0.1483
 9243SOL    HW139188   0.280   4.311   7.048 -0.6555  0.0034 -0.0965
 9243SOL    HW239189   0.279   4.444   7.104 -0.1074 -0.8073  0.4941
 9244SOL     OW39190   2.176   1.989  15.240 -0.0245  0.6942  0.2880
 9244SOL    HW139191   2.156   2.072  15.197  4.9272  1.0985 -1.2542
 9244SOL    HW239192   2.109   2.003  15.307 -1.8122 -2.1377 -0.8805
 9245SOL     OW39193   4.299   4.364  14.205 -0.2240 -0.0001  0.1282
 9245SOL    HW139194   4.382   4.381  14.161 -0.2892 -1.1176 -0.4199
 9245SOL    HW239195   4.253   4.306  14.144  1.1733 -0.1989 -0.7175
 9246SOL     OW39196   2.634   2.208   3.877  0.5463 -0.0108 -0.1913
 9246SOL    HW139197   2.677   2.288   3.906 -2.7948  1.6208  0.2482
 9246SOL    HW239198   2.552   2.204   3.926 -0.7115  0.7812 -2.2186
 9247SOL     OW39199   2.917   1.868   7.982 -0.1031  0.0091 -0.3275
 9247SOL    HW139200   3.004   1.876   7.942  0.1785  1.3816  0.5736
 9247SOL    HW239201   2.935   1.846   8.073 -0.4575  0.1127 -0.2345
 9248SOL     OW39202   2.317   1.593   7.080  0.0574  0.5064 -0.1248
 9248SOL    HW139203   2.374   1.661   7.118 -0.3096  1.1397 -0.6945
 9248SOL    HW239204   2.261   1.577   7.156 -0.6332  1.2819 -0.4630
 9249SOL     OW39205   4.153   0.961   8.556 -0.4550 -0.3622 -0.3510
 9249SOL    HW139206   4.078   1.017   8.577 -0.8748 -1.5249  1.2308
 9249SOL    HW239207   4.225   1.024   8.550 -0.7768 -0.1908 -2.4086
 9250SOL     OW39208   3.835   2.207   5.228 -0.0711  0.3469  0.3757
 9250SOL    HW139209   3.864   2.161   5.149 -1.0340 -0.8605  0.7412
 9250SOL    HW239210   3.746   2.173   5.235 -0.3170  0.9700  0.2625
 9251SOL     OW39211   4.405   3.255   5.528 -0.2702 -0.4148 -0.7635
 9251SOL    HW139212   4.463   3.317   5.573  2.0233 -1.7057 -1.9365
 9251SOL    HW239213   4.343   3.307   5.477 -0.4931  1.0426  1.0100
 9252SOL     OW39214   2.078   4.338   8.926 -0.4999 -0.6378  0.0995
 9252SOL    HW139215   2.152   4.397   8.911 -1.9017  0.5800 -1.9788
 9252SOL    HW239216   2.060   4.360   9.018 -0.1855 -1.1340  0.2776
 9253SOL     OW39217   3.170   1.483   0.984 -0.4288 -0.1471  0.7659
 9253SOL    HW139218   3.154   1.574   0.958  0.3434  0.0575  1.0091
 9253SOL    HW239219   3.165   1.485   1.080  1.2945 -0.4045  0.8638
 9254SOL     OW39220   2.612   3.532  11.218  0.3691 -0.2462  0.4488
 9254SOL    HW139221   2.630   3.619  11.182 -2.4885  0.0725 -0.1748
 9254SOL    HW239222   2.517   3.537  11.208  0.5957  2.0437 -0.7805
 9255SOL     OW39223   0.049   0.899   0.066  0.4474  0.6106  0.4319
 9255SOL    HW139224   0.109   0.953   0.117 -1.0576  0.5737  2.2415
 9255SOL    HW239225   0.095   0.921  17.692  0.1785 -1.0271 -0.1683
 9256SOL     OW39226   0.125   4.148   7.868  0.0095 -0.2144  0.2984
 9256SOL    HW139227   0.127   4.233   7.911  2.3277 -1.5696  2.8992
 9256SOL    HW239228   0.200   4.101   7.903 -0.2801 -0.9464 -0.0532
 9257SOL     OW39229   0.542   0.726   3.365  0.3393  0.6810 -0.3560
 9257SOL    HW139230   0.585   0.802   3.325  0.4075  0.6856 -0.2727
 9257SOL    HW239231   0.464   0.768   3.402  0.0459  0.1789 -0.4091
 9258SOL     OW39232   0.133   4.042   6.414  0.0298 -0.2924 -0.7585
 9258SOL    HW139233   0.187   4.118   6.438  0.1086 -0.5945  0.0145
 9258SOL    HW239234   0.085   4.075   6.339  0.9182  0.2807 -1.0748
 9259SOL     OW39235   1.876   4.633   8.256  0.0450  0.7566 -0.1138
 9259SOL    HW139236   1.963   4.647   8.218  0.0935  1.3652  0.2290
 9259SOL    HW239237   1.887   4.557   8.313 -0.7125  1.1952  0.6038
 9260SOL     OW39238   4.125   2.273   8.861  0.2336 -0.0705  0.7420
 9260SOL    HW139239   4.202   2.320   8.828  1.1019 -2.5953 -0.8880
 9260SOL    HW239240   4.161   2.184   8.854  2.2472  0.9373 -1.7470
 9261SOL     OW39241   0.936   4.307   8.444  0.8817 -0.3919 -0.4141
 9261SOL    HW139242   0.981   4.360   8.509  0.6649 -2.2629  1.2725
 9261SOL    HW239243   0.980   4.223   8.460  2.2562  0.4820  0.3172
 9262SOL     OW39244   4.247   2.751   8.936  0.2020  0.1702 -0.5572
 9262SOL    HW139245   4.165   2.783   8.899 -0.2389  0.2656  0.4812
 9262SOL    HW239246   4.290   2.836   8.948  3.4368 -1.4466 -0.8478
 9263SOL     OW39247   4.311   2.381   8.253  0.6519  0.0688  0.6945
 9263SOL    HW139248   4.373   2.438   8.207  1.0354 -2.2766 -1.7570
 9263SOL    HW239249   4.242   2.367   8.188  0.8163 -0.3063  0.5996
 9264SOL     OW39250   0.744   1.079  16.987 -0.0016 -0.0504 -0.0698
 9264SOL    HW139251   0.706   1.140  17.050  1.6645  1.0279 -0.0879
 9264SOL    HW239252   0.765   1.133  16.911  2.4768 -1.7460 -0.5950
 9265SOL     OW39253   2.043   4.370   4.676 -0.3230 -0.1011  0.0127
 9265SOL    HW139254   2.037   4.409   4.763 -1.5941 -1.8791  0.7224
 9265SOL    HW239255   1.952   4.389   4.652 -0.2613 -1.3955 -1.2278
 9266SOL     OW39256   3.380   4.508   7.007 -0.0630 -0.6189  0.3212
 9266SOL    HW139257   3.286   4.493   7.021 -0.6773  2.7142 -0.2895
 9266SOL    HW239258   3.394   4.496   6.913 -0.8442  1.0589 -0.0018
 9267SOL     OW39259   3.490   0.955   2.560 -0.5556  0.0277 -0.1474
 9267SOL    HW139260   3.554   0.954   2.489  1.8511  0.8217  1.9979
 9267SOL    HW239261   3.441   1.033   2.535  0.0174  0.3182 -0.3779
 9268SOL     OW39262   3.572   1.927   2.944 -0.2488  0.2492  0.1877
 9268SOL    HW139263   3.526   1.844   2.952 -1.1776  0.7534  0.1349
 9268SOL    HW239264   3.659   1.896   2.921  0.2557  1.7561  0.0938
 9269SOL     OW39265   1.257   2.142   6.160 -0.2709  0.2688 -0.3296
 9269SOL    HW139266   1.162   2.139   6.176 -0.0368 -0.3897  0.9766
 9269SOL    HW239267   1.272   2.230   6.193  1.6060 -0.3255  0.3845
 9270SOL     OW39268   0.014   1.808  13.673 -0.2315  0.5290 -0.5210
 9270SOL    HW139269   4.714   1.749  13.744  1.6560 -1.2564 -1.2868
 9270SOL    HW239270   0.104   1.827  13.701 -0.3838  2.4075 -1.2637
 9271SOL     OW39271   1.368   0.939   5.853  0.0025 -0.2084 -0.8183
 9271SOL    HW139272   1.422   0.923   5.931  1.1403 -0.2119 -1.5974
 9271SOL    HW239273   1.284   0.926   5.896 -0.5935 -0.3812 -2.0364
 9272SOL     OW39274   1.688   0.678   3.663 -0.4437  0.1732  0.0679
 9272SOL    HW139275   1.642   0.744   3.612 -2.1733 -1.1605 -0.1134
 9272SOL    HW239276   1.749   0.661   3.592 -0.2400 -0.8062  0.4689
 9273SOL     OW39277   2.846   4.646   6.128  0.5520 -0.1111 -0.2460
 9273SOL    HW139278   2.844   4.639   6.033 -2.3563  2.6116 -0.3890
 9273SOL    HW239279   2.753   4.638   6.148  0.4682  0.5688 -0.3665
 9274SOL     OW39280   0.676   3.207   4.069 -0.1696 -0.2667 -0.4944
 9274SOL    HW139281   0.625   3.148   4.124 -0.4784  0.4102 -0.0576
 9274SOL    HW239282   0.645   3.189   3.980 -2.5824  1.6892 -0.0475
 9275SOL     OW39283   3.072   0.492   8.419 -0.0633  0.5261 -0.2739
 9275SOL    HW139284   3.117   0.452   8.344 -0.2869  2.7572 -1.6263
 9275SOL    HW239285   3.090   0.439   8.496 -1.0367  0.0431 -0.3880
 9276SOL     OW39286   3.687   3.419   7.389 -0.0596  0.5960 -0.1288
 9276SOL    HW139287   3.777   3.394   7.410 -0.1375 -0.1434 -0.6788
 9276SOL    HW239288   3.693   3.511   7.415  1.4231  0.2141  0.8924
 9277SOL     OW39289   0.635   3.842  12.244 -0.0921  0.3984  0.1264
 9277SOL    HW139290   0.541   3.837  12.228  0.2156  0.4105 -1.7140
 9277SOL    HW239291   0.630   3.885  12.329 -1.8331 -0.5365  0.5031
 9278SOL     OW39292   3.925   0.040   0.581  0.4980  0.5488  0.0837
 9278SOL    HW139293   4.001   0.012   0.531 -0.8665 -0.3289 -1.5281
 9278SOL    HW239294   3.873   4.688   0.598  0.3577  0.1929 -1.9770
 9279SOL     OW39295   4.477   1.973   3.127  0.4099 -0.5507 -0.4551
 9279SOL    HW139296   4.526   2.046   3.166 -0.9569  1.6591 -2.8276
 9279SOL    HW239297   4.404   2.027   3.097  1.2925  0.3852 -0.9320
 9280SOL     OW39298   1.270   2.844   3.180 -0.3478  0.2777 -0.6400
 9280SOL    HW139299   1.330   2.770   3.193  0.5805  0.8944 -1.4861
 9280SOL    HW239300   1.188   2.802   3.208 -0.3428  1.1255  0.6374
 9281SOL     OW39301   2.760   4.055   6.198 -0.4119  0.1808 -0.2789
 9281SOL    HW139302   2.830   4.031   6.259 -1.4911 -1.0107  0.5017
 9281SOL    HW239303   2.693   3.994   6.231 -1.0178  0.3521 -1.1862
 9282SOL     OW39304   0.123   0.337  11.085 -0.7521  0.1187 -0.3854
 9282SOL    HW139305   0.142   0.421  11.126 -1.3537  0.5918 -1.0733
 9282SOL    HW239306   0.079   0.379  11.011 -0.2335 -0.0443 -0.7896
 9283SOL     OW39307   1.595   3.983   9.041 -0.1743 -0.3649 -0.2886
 9283SOL    HW139308   1.687   4.007   9.044 -0.1607 -0.5652  1.1318
 9283SOL    HW239309   1.595   3.887   9.039 -1.4794 -0.3963  0.9126
 9284SOL     OW39310   1.421   1.636   0.929 -0.2734  0.1726  0.6301
 9284SOL    HW139311   1.475   1.650   0.851 -0.5514 -0.1017  0.3860
 9284SOL    HW239312   1.336   1.622   0.887 -0.0350  1.0793 -0.1511
 9285SOL     OW39313   0.864   2.391   0.322  0.7125  0.4990 -0.8142
 9285SOL    HW139314   0.959   2.395   0.312  0.6415  1.3879 -1.1343
 9285SOL    HW239315   0.828   2.366   0.237 -0.7821 -4.4841  1.3036
 9286SOL     OW39316   2.259   3.582   9.748 -0.2587 -0.0382 -0.1814
 9286SOL    HW139317   2.191   3.517   9.727 -1.1503  0.1898  1.9745
 9286SOL    HW239318   2.213   3.666   9.748 -0.8720 -0.3716 -2.5280
 9287SOL     OW39319   0.477   2.244   5.807 -0.2296 -0.2430  0.2495
 9287SOL    HW139320   0.382   2.255   5.809 -0.3578 -1.3265 -0.1970
 9287SOL    HW239321   0.469   2.155   5.773 -0.0435 -0.3558  0.5013
 9288SOL     OW39322   4.004   4.501   2.664  0.8512 -0.1315 -0.2025
 9288SOL    HW139323   3.930   4.451   2.630 -1.0625  2.3517  0.2627
 9288SOL    HW239324   3.963   4.582   2.696 -0.9723 -0.0865 -2.5898
 9289SOL     OW39325   3.922   3.038   6.181  0.2864  0.0567 -0.2673
 9289SOL    HW139326   3.943   2.995   6.098  0.5274  0.0997 -0.2296
 9289SOL    HW239327   3.959   3.124   6.161 -1.5247  0.5338 -1.6075
 9290SOL     OW39328   3.960   3.875   3.603 -0.1037 -0.3673  0.5945
 9290SOL    HW139329   4.025   3.945   3.597  0.1375 -0.8730 -3.0133
 9290SOL    HW239330   4.018   3.804   3.577  1.2879  0.6506  0.9015
 9291SOL     OW39331   0.531   3.456   3.159 -0.1746  0.2233 -0.1168
 9291SOL    HW139332   0.520   3.376   3.107  0.1721 -0.0609  0.2530
 9291SOL    HW239333   0.528   3.521   3.089 -1.1405 -0.0166 -0.3049
 9292SOL     OW39334   2.983   2.104   5.744  0.1276  0.0700  0.4257
 9292SOL    HW139335   3.000   2.020   5.702  2.0875  0.6843  0.0052
 9292SOL    HW239336   2.917   2.139   5.684 -0.8270 -1.9209  0.3277
 9293SOL     OW39337   0.954   2.012  10.937 -0.3034 -0.0097  0.4743
 9293SOL    HW139338   1.049   2.012  10.927 -0.0039 -1.3818  3.1621
 9293SOL    HW239339   0.926   2.064  10.862  0.1115 -0.0638  0.2830
 9294SOL     OW39340   0.129   1.157  12.543  0.3511  0.3888  0.0792
 9294SOL    HW139341   0.112   1.250  12.559 -0.8674  0.0066  0.9319
 9294SOL    HW239342   0.054   1.149  12.484 -0.7562  0.8382  1.4472
 9295SOL     OW39343   4.663   1.416   5.418  0.1018 -0.0678 -0.0468
 9295SOL    HW139344   4.596   1.351   5.401 -1.5356  1.5809  0.1088
 9295SOL    HW239345   4.715   1.413   5.337  0.3046 -0.8591  0.1148
 9296SOL     OW39346   1.316   4.575   4.476 -0.4993 -0.0640  0.0362
 9296SOL    HW139347   1.378   4.610   4.411 -0.6196  1.1812  0.5797
 9296SOL    HW239348   1.286   4.495   4.435 -3.4449  0.1120  1.8447
 9297SOL     OW39349   1.293   3.685   5.492  0.0599 -0.0979 -0.6529
 9297SOL    HW139350   1.240   3.764   5.484 -0.1930 -0.1677  0.3008
 9297SOL    HW239351   1.307   3.663   5.400 -0.0633 -1.6500 -0.2980
 9298SOL     OW39352   1.335   2.898   5.384  0.0495 -0.4622  0.2059
 9298SOL    HW139353   1.355   2.927   5.295 -1.3514 -2.0016 -0.6080
 9298SOL    HW239354   1.266   2.960   5.403 -1.0899 -1.4610 -0.7157
 9299SOL     OW39355   0.600   2.808   5.901 -0.1408  0.0737 -0.3445
 9299SOL    HW139356   0.617   2.733   5.958 -0.1531 -1.3081 -2.1609
 9299SOL    HW239357   0.525   2.774   5.853  1.0557  0.2000 -2.2810
 9300SOL     OW39358   0.203   1.278   3.319  0.4578  0.2342  0.3941
 9300SOL    HW139359   0.257   1.357   3.308  0.1215  0.7055  2.2798
 9300SOL    HW239360   0.134   1.300   3.381  2.0448  1.5445  1.6824
 9301SOL     OW39361   2.028   1.139   0.531 -0.0953  0.5399 -0.3447
 9301SOL    HW139362   1.947   1.189   0.542  0.6924  1.9135 -0.7438
 9301SOL    HW239363   2.064   1.163   0.446 -0.9103  2.9437 -0.0016
 9302SOL     OW39364   2.092   3.348  17.658 -0.7892  0.1571 -0.0458
 9302SOL    HW139365   2.103   3.432  17.613  2.8623 -0.7136 -0.7346
 9302SOL    HW239366   2.119   3.375   0.039 -2.3971 -1.6044  0.9673
 9303SOL     OW39367   3.489   0.857   7.724 -0.1322 -0.2887 -0.5272
 9303SOL    HW139368   3.421   0.797   7.754  0.7054 -0.6128  0.7226
 9303SOL    HW239369   3.517   0.887   7.811  0.8642  1.8350 -1.5774
 9304SOL     OW39370   3.712   1.124   5.705  0.1403  0.1375  0.0886
 9304SOL    HW139371   3.663   1.043   5.718  2.2857 -1.3503 -0.9176
 9304SOL    HW239372   3.779   1.084   5.649 -1.7569  0.3930 -2.3627
 9305SOL     OW39373   4.589   0.069  12.213  0.3042 -0.2417 -0.3277
 9305SOL    HW139374   4.542   0.103  12.137 -0.0266  2.6724  1.1676
 9305SOL    HW239375   4.517   0.074  12.277 -0.6863  1.4987 -1.5579
 9306SOL     OW39376   2.660   1.575   4.201 -0.1057  0.5232  0.1258
 9306SOL    HW139377   2.635   1.552   4.112  0.6967  0.3625 -0.0549
 9306SOL    HW239378   2.680   1.489   4.238 -1.8333 -0.9115 -2.2172
 9307SOL     OW39379   0.961   2.198   8.619  0.2690 -0.1185 -0.1221
 9307SOL    HW139380   0.871   2.166   8.611  1.1587 -3.1166  1.6119
 9307SOL    HW239381   0.955   2.254   8.697 -2.3576  1.7301 -1.6631
 9308SOL     OW39382   2.685   2.445   2.316  0.5462 -0.3562 -0.0330
 9308SOL    HW139383   2.629   2.502   2.262 -1.4954 -1.6174  0.7471
 9308SOL    HW239384   2.728   2.507   2.374  0.9655 -0.7291  0.0518
 9309SOL     OW39385   3.499   1.911   8.820  0.1305  0.2646  0.2946
 9309SOL    HW139386   3.456   1.971   8.881  0.7738  0.7746  0.2475
 9309SOL    HW239387   3.501   1.964   8.740  0.6123  2.8003  1.9600
 9310SOL     OW39388   4.413   0.253  16.948 -0.0428 -0.5294  0.1857
 9310SOL    HW139389   4.465   0.221  16.874  2.1636 -1.5648  2.2157
 9310SOL    HW239390   4.446   0.204  17.023 -2.3091  0.5614  1.9189
 9311SOL     OW39391   1.172   3.249   2.239 -0.4724 -0.3745  0.2876
 9311SOL    HW139392   1.210   3.220   2.156 -1.6904 -0.1192 -0.3576
 9311SOL    HW239393   1.128   3.169   2.267  1.0123 -2.6136 -3.7620
 9312SOL     OW39394   3.831   4.657  15.059  0.1499 -0.2683 -0.7206
 9312SOL    HW139395   3.765   4.661  15.129  0.1549 -1.1360 -0.6722
 9312SOL    HW239396   3.776   4.705  14.997  0.5175  0.3160 -0.6010
 9313SOL     OW39397   0.554   2.498   4.420  0.0731  0.2458 -0.1544
 9313SOL    HW139398   0.501   2.476   4.343  1.5812 -0.6710 -0.9386
 9313SOL    HW239399   0.598   2.415   4.439  1.6999  0.8700 -1.1305
 9314SOL     OW39400   0.081   4.469   3.774  0.6885  0.3747 -0.6249
 9314SOL    HW139401   0.147   4.499   3.712  2.2378 -0.2341  0.7242
 9314SOL    HW239402   0.021   4.422   3.715  1.1062 -1.1774  0.1820
 9315SOL     OW39403   1.671   0.214  16.482  0.5200  0.1933 -0.2640
 9315SOL    HW139404   1.665   0.302  16.518  3.5841  0.4774 -0.4084
 9315SOL    HW239405   1.630   0.235  16.398 -0.2014  1.2805  0.3624
 9316SOL     OW39406   2.213   0.581   8.894  0.6147 -0.4541  0.4172
 9316SOL    HW139407   2.164   0.635   8.957  1.2152 -0.1269  0.6069
 9316SOL    HW239408   2.147   0.512   8.884  0.1721  0.0854 -0.4647
 9317SOL     OW39409   1.646   3.410   3.205  0.5380 -0.2462 -0.1491
 9317SOL    HW139410   1.702   3.354   3.260  0.8356  0.5497  0.3681
 9317SOL    HW239411   1.628   3.354   3.130 -1.6219  2.4794 -1.6450
 9318SOL     OW39412   3.502   1.886   2.249  0.5252  0.6172 -0.0144
 9318SOL    HW139413   3.524   1.963   2.302  0.2352 -0.1516  1.2447
 9318SOL    HW239414   3.504   1.917   2.159 -0.7124  1.2586  0.1879
 9319SOL     OW39415   2.224   0.143   4.189 -0.0397 -0.1794  0.1370
 9319SOL    HW139416   2.318   0.137   4.207 -0.0338  3.7042  1.3598
 9319SOL    HW239417   2.210   0.238   4.182  1.4100 -0.0393 -0.9476
 9320SOL     OW39418   1.856   2.182  17.120 -0.2027  0.0522  0.0613
 9320SOL    HW139419   1.892   2.271  17.128  1.4977 -0.7804  1.4351
 9320SOL    HW239420   1.763   2.203  17.125 -0.0698  0.4474  0.9230
 9321SOL     OW39421   1.017   0.805  15.783 -0.2556  0.1148  0.4649
 9321SOL    HW139422   0.953   0.753  15.734 -0.2831 -0.4910  1.1357
 9321SOL    HW239423   1.067   0.826  15.704 -0.2815 -1.2790  0.0815
 9322SOL     OW39424   1.568   3.278   8.714 -0.0925 -0.6548 -0.4491
 9322SOL    HW139425   1.570   3.191   8.754  2.8329 -0.4180 -0.1282
 9322SOL    HW239426   1.661   3.297   8.702 -0.3464 -0.5350 -2.2851
 9323SOL     OW39427   2.961   4.139   3.072 -0.8421 -0.2488 -0.6249
 9323SOL    HW139428   2.951   4.105   2.983 -1.8299 -0.6911 -0.3497
 9323SOL    HW239429   2.880   4.126   3.120  0.4855 -0.5756  1.5357
 9324SOL     OW39430   0.161   3.998  10.943 -0.4638 -0.1509  0.0880
 9324SOL    HW139431   0.146   3.910  10.909  1.3032 -0.5113  0.2943
 9324SOL    HW239432   0.177   4.050  10.864  2.9334 -2.2060 -0.5369
 9325SOL     OW39433   4.216   2.585   5.131  0.2643 -0.7851 -0.3864
 9325SOL    HW139434   4.268   2.661   5.103  0.2835 -0.6139  0.1187
 9325SOL    HW239435   4.247   2.564   5.219  1.4764  1.3374 -0.2780
 9326SOL     OW39436   3.706   4.479   2.841 -0.5031 -0.2929 -0.1462
 9326SOL    HW139437   3.646   4.441   2.906 -1.0944 -2.6101 -2.0779
 9326SOL    HW239438   3.777   4.506   2.900  0.7880  0.4952 -2.0820
 9327SOL     OW39439   3.807   2.555  11.519  0.2851 -0.3766 -0.0440
 9327SOL    HW139440   3.889   2.539  11.567  0.2451 -1.0530 -0.2076
 9327SOL    HW239441   3.796   2.642  11.556  3.7145  0.4659 -0.9392
 9328SOL     OW39442   3.664   2.945   6.288 -0.5634 -0.5058  0.1114
 9328SOL    HW139443   3.595   2.988   6.237 -1.5634 -1.5707  0.5784
 9328SOL    HW239444   3.745   2.974   6.246 -1.0083  0.2400 -0.2275
 9329SOL     OW39445   3.641   3.637  14.132 -0.2233  0.1864  0.2675
 9329SOL    HW139446   3.632   3.668  14.042 -0.1495  0.0355  0.2093
 9329SOL    HW239447   3.689   3.556  14.117 -1.1030 -0.0666 -1.1733
 9330SOL     OW39448   2.814   2.669   7.975  0.0260 -0.3443 -0.0497
 9330SOL    HW139449   2.741   2.608   7.971  0.6219 -0.9285 -2.0305
 9330SOL    HW239450   2.810   2.718   7.892  1.3748  0.2330  0.2171
 9331SOL     OW39451   1.349   1.140   6.654 -0.1033 -0.4928 -0.0239
 9331SOL    HW139452   1.371   1.228   6.683 -0.0359 -0.0579 -1.4038
 9331SOL    HW239453   1.263   1.121   6.690 -0.9744  1.2528 -1.2142
 9332SOL     OW39454   3.686   4.042  15.607 -0.0220 -0.0253  0.6059
 9332SOL    HW139455   3.621   3.988  15.564 -0.7043  2.1637 -1.1432
 9332SOL    HW239456   3.766   3.993  15.589  0.3048  1.6869 -2.4677
 9333SOL     OW39457   4.182   1.285   4.676 -0.2210  0.5576  0.2962
 9333SOL    HW139458   4.116   1.276   4.744  0.6289  1.1932  1.1924
 9333SOL    HW239459   4.152   1.364   4.631 -1.1030  0.0444 -0.0212
 9334SOL     OW39460   0.843   3.611   5.384  0.2363 -0.1853 -0.4981
 9334SOL    HW139461   0.841   3.661   5.466 -1.0584 -0.2988 -0.4528
 9334SOL    HW239462   0.749   3.618   5.369  0.4731  1.3299 -1.1497
 9335SOL     OW39463   4.220   4.691   5.089  0.1125  0.0073  0.3892
 9335SOL    HW139464   4.198   4.676   5.181  0.3089  0.2672  0.4783
 9335SOL    HW239465   4.313   4.713   5.094 -1.0236  5.0900  0.1544
 9336SOL     OW39466   1.634   0.931   1.904 -0.5011 -0.1351  0.0272
 9336SOL    HW139467   1.576   0.915   1.979 -0.1596 -0.1870  0.2804
 9336SOL    HW239468   1.633   1.027   1.901  0.8613 -0.1397 -0.3606
 9337SOL     OW39469   3.751   1.930   1.966  0.2077 -0.5763 -0.1957
 9337SOL    HW139470   3.768   1.840   1.937  2.4465  0.5372 -2.3108
 9337SOL    HW239471   3.837   1.970   1.957 -0.5899  1.2674  0.4852
 9338SOL     OW39472   0.707   1.978  11.706 -0.3392 -0.5532  0.2815
 9338SOL    HW139473   0.641   1.917  11.738  1.4017 -1.4794  2.1276
 9338SOL    HW239474   0.786   1.941  11.745  0.0380 -0.3709 -0.3071
 9339SOL     OW39475   2.795   1.238   8.224  0.0856  0.2117 -0.4953
 9339SOL    HW139476   2.724   1.289   8.263  0.7022  0.9364 -0.3206
 9339SOL    HW239477   2.750   1.165   8.182 -0.4237  0.0144  0.4077
 9340SOL     OW39478   0.123   1.776   8.228 -0.3948  0.7478 -0.2130
 9340SOL    HW139479   0.076   1.727   8.160 -0.6573  3.1410 -1.7252
 9340SOL    HW239480   0.201   1.805   8.182  0.0121 -1.6440 -1.0567
 9341SOL     OW39481   4.377   3.203  16.480 -0.1554  0.3571  0.5348
 9341SOL    HW139482   4.396   3.154  16.401  0.8768 -0.5214  1.3418
 9341SOL    HW239483   4.283   3.198  16.499 -0.6225 -2.8455 -2.7744
 9342SOL     OW39484   1.133   3.581   0.259  0.1174  0.1979 -0.0718
 9342SOL    HW139485   1.200   3.528   0.215 -2.0434 -0.9914 -1.9448
 9342SOL    HW239486   1.093   3.639   0.194 -1.4135  0.2495  0.9268
 9343SOL     OW39487   4.678   4.064   7.636 -0.4106 -0.1254 -0.0482
 9343SOL    HW139488   4.690   4.000   7.706 -0.3826  0.3274  0.3619
 9343SOL    HW239489   4.714   4.139   7.684 -0.2419  0.8619 -1.7236
 9344SOL     OW39490   4.512   0.576  12.975 -0.4420 -0.1612 -0.0057
 9344SOL    HW139491   4.539   0.605  13.062 -0.8504  1.0161 -0.2783
 9344SOL    HW239492   4.417   0.573  12.980 -0.5604 -0.9173 -2.6927
 9345SOL     OW39493   2.792   0.026   6.684  0.2634 -0.5657  0.2250
 9345SOL    HW139494   2.794   0.101   6.624  0.4902 -0.2567  0.6083
 9345SOL    HW239495   2.812   0.067   6.769  0.9460  0.0059 -0.2085
 9346SOL     OW39496   3.188   3.069   5.357 -0.5689  0.2592 -0.6050
 9346SOL    HW139497   3.178   2.983   5.397  1.1948  0.9865  1.4175
 9346SOL    HW239498   3.136   3.119   5.421 -1.6887 -2.9475  1.0058
 9347SOL     OW39499   1.582   1.224   8.443 -0.5512  0.8241 -0.6658
 9347SOL    HW139500   1.574   1.215   8.538  0.9727  1.4819 -0.4626
 9347SOL    HW239501   1.618   1.310   8.419  1.0644  0.1901 -0.5400
 9348SOL     OW39502   2.543   0.201   2.677 -0.3754  0.2568  0.4625
 9348SOL    HW139503   2.486   0.246   2.615  1.6934  1.1727 -0.7704
 9348SOL    HW239504   2.598   0.151   2.617 -0.8062  1.4631 -0.9267
 9349SOL     OW39505   1.488   4.622   8.856 -0.1690 -0.3891  0.1811
 9349SOL    HW139506   1.442   4.572   8.788  0.1140  1.2464 -1.2180
 9349SOL    HW239507   1.509   4.558   8.924 -3.3136 -0.6651  0.8842
 9350SOL     OW39508   2.395   0.875  11.205  0.5237  0.1182  0.1627
 9350SOL    HW139509   2.467   0.891  11.266 -0.2830  0.8962  0.9078
 9350SOL    HW239510   2.351   0.959  11.196  0.2076 -0.1098 -0.4175
 9351SOL     OW39511   3.969   4.500   0.071 -0.7087 -0.0708 -0.0044
 9351SOL    HW139512   3.876   4.522   0.078 -0.6972 -0.5135  1.4979
 9351SOL    HW239513   3.968   4.409   0.044 -0.9024  0.0111 -0.2760
 9352SOL     OW39514   4.265   3.945  11.332 -0.4776  0.0065 -0.0472
 9352SOL    HW139515   4.245   3.972  11.421  2.1236 -2.2769  1.2297
 9352SOL    HW239516   4.351   3.904  11.339 -0.3183 -0.1654 -2.7808
 9353SOL     OW39517   2.208   1.006   7.324  0.0986 -0.5406 -0.0359
 9353SOL    HW139518   2.148   0.977   7.393 -0.3085 -3.5974 -1.6670
 9353SOL    HW239519   2.272   1.054   7.376  2.3013  0.7780 -4.0164
 9354SOL     OW39520   1.266   3.808   4.357  0.0606  1.1273  0.4712
 9354SOL    HW139521   1.287   3.715   4.354  0.1572  1.1620  0.1736
 9354SOL    HW239522   1.347   3.842   4.321  0.3823  1.9209  1.9255
 9355SOL     OW39523   2.525   3.958   1.543 -0.3770 -0.6775  0.2969
 9355SOL    HW139524   2.514   3.863   1.540  1.0049 -0.7946 -1.4255
 9355SOL    HW239525   2.440   3.986   1.577 -0.2332  0.6398 -0.4241
 9356SOL     OW39526   0.855   0.802   9.038 -0.1763 -0.3419 -0.3496
 9356SOL    HW139527   0.947   0.799   9.065 -0.3391  1.9301  0.3943
 9356SOL    HW239528   0.841   0.895   9.021  0.6685 -0.3936 -1.3557
 9357SOL     OW39529   3.123   1.422  14.981  0.0197 -0.2631  0.6952
 9357SOL    HW139530   3.198   1.467  15.019 -0.1971  1.3794 -0.8177
 9357SOL    HW239531   3.107   1.350  15.041  0.0831 -0.2323  0.7488
 9358SOL     OW39532   1.985   2.971   4.683 -0.3740 -0.5183  0.0386
 9358SOL    HW139533   1.983   2.894   4.740  2.7548 -0.4608  0.1979
 9358SOL    HW239534   2.065   3.015   4.711 -0.0864 -1.1947  0.2879
 9359SOL     OW39535   4.115   1.920   2.720 -0.4642  0.7475 -0.4778
 9359SOL    HW139536   4.035   1.890   2.764  0.3120 -1.6158 -0.6374
 9359SOL    HW239537   4.096   1.888   2.631 -0.5965 -1.0379  0.1844
 9360SOL     OW39538   4.386   3.183  10.987  0.2358  0.1646 -0.2863
 9360SOL    HW139539   4.460   3.181  10.926 -0.1927 -1.0063 -0.7665
 9360SOL    HW239540   4.419   3.118  11.049 -1.6617 -0.4550  0.0547
 9361SOL     OW39541   2.646   4.680   7.062  0.2478 -0.5909 -0.1406
 9361SOL    HW139542   2.559   4.691   7.023  0.2788 -0.5487 -0.1987
 9361SOL    HW239543   2.615   4.648   7.147  1.4157  2.1363  1.3076
 9362SOL     OW39544   0.686   2.476   5.553 -0.4122 -0.1801  0.2973
 9362SOL    HW139545   0.748   2.482   5.627  0.8983  0.3179 -0.8446
 9362SOL    HW239546   0.735   2.415   5.497 -2.4192  0.3364 -1.9959
 9363SOL     OW39547   0.339   1.179   7.240  0.0579  1.1220 -0.2669
 9363SOL    HW139548   0.256   1.228   7.232 -0.7112  0.0300  1.1265
 9363SOL    HW239549   0.411   1.240   7.254 -0.1317  1.5167 -0.9772
 9364SOL     OW39550   3.471   3.291   5.542 -0.0106  0.0765 -0.0340
 9364SOL    HW139551   3.564   3.311   5.536 -0.3535  1.6504 -0.1642
 9364SOL    HW239552   3.477   3.227   5.613 -0.0074  0.6566  0.4876
 9365SOL     OW39553   0.539   1.905   1.737 -0.2717  0.5576  0.4483
 9365SOL    HW139554   0.597   1.981   1.746  1.2708 -0.7154  1.3101
 9365SOL    HW239555   0.518   1.889   1.829 -1.6216 -1.4844 -0.2184
 9366SOL     OW39556   3.368   4.556   0.356  0.1266 -0.1075 -0.5423
 9366SOL    HW139557   3.461   4.535   0.360 -0.2780 -1.5251  1.7175
 9366SOL    HW239558   3.354   4.567   0.450 -0.4964  0.6172 -0.7247
 9367SOL     OW39559   0.818   0.618   0.200 -0.4999  0.3190  0.3691
 9367SOL    HW139560   0.730   0.580   0.192 -0.9184  0.5328  3.9450
 9367SOL    HW239561   0.849   0.575   0.279 -0.1335 -0.1745 -0.0447
 9368SOL     OW39562   1.861   2.932   4.294 -0.5151  0.2357  0.1859
 9368SOL    HW139563   1.922   2.871   4.336 -0.8064 -1.2083 -1.4731
 9368SOL    HW239564   1.824   2.878   4.224  0.0652 -2.6092  2.0996
 9369SOL     OW39565   2.380   3.769   8.096  0.6391  0.1011  0.1255
 9369SOL    HW139566   2.388   3.710   8.171  2.1882 -0.3549 -0.3883
 9369SOL    HW239567   2.404   3.853   8.137  0.8034 -0.2064  0.6567
 9370SOL     OW39568   1.860   2.036  10.921 -0.0231 -0.2534  0.4834
 9370SOL    HW139569   1.953   2.012  10.930 -0.3670 -2.4343 -1.7737
 9370SOL    HW239570   1.859   2.050  10.827 -1.3138 -0.7785  0.4302
 9371SOL     OW39571   0.925   0.079   0.349  0.0974  0.3480  0.3262
 9371SOL    HW139572   1.018   0.063   0.330  0.2318 -0.1276  1.3646
 9371SOL    HW239573   0.879   0.091   0.266  0.0832  0.5920  0.3708
 9372SOL     OW39574   3.360   3.008   6.168 -0.2344 -0.1459 -0.0809
 9372SOL    HW139575   3.282   2.981   6.119 -1.8672  0.0280  2.4505
 9372SOL    HW239576   3.391   2.933   6.219 -0.9266  0.2383  0.9180
 9373SOL     OW39577   4.173   1.159   6.006 -0.2569 -0.1644 -0.3571
 9373SOL    HW139578   4.088   1.196   6.031 -0.4885 -0.3567 -0.8683
 9373SOL    HW239579   4.161   1.135   5.915 -0.9566 -0.6358 -0.1449
 9374SOL     OW39580   2.513   1.548  14.957 -0.2317 -0.2107 -0.1124
 9374SOL    HW139581   2.492   1.529  14.866  0.2059 -2.7358  0.2933
 9374SOL    HW239582   2.469   1.477  15.005  1.7234  1.4075  4.1000
 9375SOL     OW39583   3.861   2.837   5.222 -0.0356  0.0040 -0.0992
 9375SOL    HW139584   3.816   2.812   5.141  0.4482 -2.0710  0.2865
 9375SOL    HW239585   3.938   2.887   5.194  0.9441 -1.9783 -0.9126
 9376SOL     OW39586   0.644   1.736   9.225  0.4648  0.9097 -0.2453
 9376SOL    HW139587   0.739   1.734   9.216  0.1645 -2.7837 -2.1815
 9376SOL    HW239588   0.638   1.671   9.295 -0.5175  1.4505  0.1728
 9377SOL     OW39589   3.220   0.133   6.104  0.0583  0.7432 -0.1185
 9377SOL    HW139590   3.263   0.195   6.162  1.1226 -0.2970  0.2205
 9377SOL    HW239591   3.243   0.052   6.151  1.4680 -0.1566 -2.3381
 9378SOL     OW39592   4.490   1.007   7.783  0.2257 -0.1947 -0.0663
 9378SOL    HW139593   4.541   0.927   7.774 -1.6592 -1.9104  4.2430
 9378SOL    HW239594   4.408   0.975   7.745  0.6326 -0.9983 -0.2697
 9379SOL     OW39595   0.687   2.840   7.059 -0.7336  0.8525  0.4174
 9379SOL    HW139596   0.754   2.774   7.077 -1.9738 -0.4781  0.1288
 9379SOL    HW239597   0.609   2.788   7.039 -0.3615  0.3640  0.2409
 9380SOL     OW39598   3.398   3.324   9.247  0.0879 -0.0445  0.0112
 9380SOL    HW139599   3.400   3.416   9.219  2.2650 -0.0563  0.1501
 9380SOL    HW239600   3.477   3.325   9.300 -0.3603 -1.6173  0.7125
 9381SOL     OW39601   3.565   2.062   5.506  0.0037 -0.3098 -0.0614
 9381SOL    HW139602   3.616   2.038   5.429  2.4454 -0.2377  1.5198
 9381SOL    HW239603   3.477   2.028   5.489 -0.4195  0.2657  0.9646
 9382SOL     OW39604   2.290   1.875  17.338 -0.3724  0.2019 -0.0851
 9382SOL    HW139605   2.344   1.874  17.259  1.4443  1.2961  1.1392
 9382SOL    HW239606   2.240   1.955  17.320 -1.8800 -0.4164  1.3190
 9383SOL     OW39607   1.629   1.019   5.027  0.1625  0.3572  0.1328
 9383SOL    HW139608   1.723   1.036   5.028  0.3716 -0.8756  1.5151
 9383SOL    HW239609   1.625   0.946   5.089 -0.3778  1.1076  0.9681
 9384SOL     OW39610   0.124   2.167   2.177 -0.1778 -0.0007  0.2656
 9384SOL    HW139611   0.182   2.168   2.101  0.3882  1.1094  0.7108
 9384SOL    HW239612   0.135   2.256   2.212  0.5391 -0.6520  1.7308
 9385SOL     OW39613   4.088   2.794   2.907 -0.7459  0.6511 -0.0883
 9385SOL    HW139614   4.040   2.844   2.840  0.8650  2.2564 -0.0430
 9385SOL    HW239615   4.074   2.841   2.989  2.4331  1.1480  0.1723
 9386SOL     OW39616   4.322   4.054   8.025  0.1454 -0.3797  0.0382
 9386SOL    HW139617   4.283   4.060   7.937 -1.9055 -1.7600  0.8687
 9386SOL    HW239618   4.319   4.146   8.051  0.1093  0.0187 -1.3562
 9387SOL     OW39619   3.233   3.891   4.486 -0.3141 -0.1242  0.7612
 9387SOL    HW139620   3.224   3.983   4.465  0.3452 -0.1889  0.2125
 9387SOL    HW239621   3.271   3.853   4.407  1.2473  3.6789 -0.3118
 9388SOL     OW39622   1.022   0.101   9.211  0.2099 -0.1001  0.2680
 9388SOL    HW139623   1.038   0.049   9.132  0.8460 -1.3916  1.2526
 9388SOL    HW239624   1.089   0.074   9.274  1.9920  3.2059 -0.2163
 9389SOL     OW39625   3.947   4.040   3.213  0.1797 -0.0543  0.2383
 9389SOL    HW139626   3.971   4.129   3.191 -0.0451  0.3422  1.5704
 9389SOL    HW239627   4.016   3.996   3.163  1.3265  1.5334  0.4397
 9390SOL     OW39628   2.446   2.492  12.212 -0.4749  0.2617 -0.0249
 9390SOL    HW139629   2.518   2.549  12.183 -1.3461  1.7211  0.6547
 9390SOL    HW239630   2.488   2.448  12.286  0.8706 -2.5623 -2.4550
 9391SOL     OW39631   2.698   1.878  15.261 -0.7471  0.4562 -0.4523
 9391SOL    HW139632   2.708   1.807  15.325  0.6391  1.5012  0.4979
 9391SOL    HW239633   2.780   1.925  15.274  0.9938 -2.2865 -1.6149
 9392SOL     OW39634   2.731   2.809   2.305 -0.0344  0.1168  0.3618
 9392SOL    HW139635   2.644   2.820   2.341 -0.4797 -1.0108 -0.3489
 9392SOL    HW239636   2.724   2.740   2.238 -0.8909  1.7524 -1.2150
 9393SOL     OW39637   2.046   0.614   7.243  0.2423  0.2130 -0.1779
 9393SOL    HW139638   2.079   0.529   7.215  0.3956 -0.4897  2.1107
 9393SOL    HW239639   2.097   0.633   7.322 -0.3726  1.5044 -0.0797
 9394SOL     OW39640   2.231   3.342   8.879 -0.9531  0.1909 -0.3744
 9394SOL    HW139641   2.163   3.406   8.860  0.3386  1.5104 -0.5860
 9394SOL    HW239642   2.256   3.361   8.970 -0.1465  0.9317 -0.7461
 9395SOL     OW39643   2.503   0.533   6.092  0.5489  0.6769  0.2369
 9395SOL    HW139644   2.592   0.505   6.074  0.7933  2.1770 -0.9318
 9395SOL    HW239645   2.451   0.472   6.041  0.6287  0.5065  0.3607
 9396SOL     OW39646   0.581   2.660  11.503 -0.3079  0.2144 -0.0887
 9396SOL    HW139647   0.587   2.578  11.454 -0.3797 -0.5064  1.1027
 9396SOL    HW239648   0.670   2.679  11.531 -0.0455 -1.4710  0.2440
 9397SOL     OW39649   4.606   0.644   8.509  0.6831 -0.2051  0.2227
 9397SOL    HW139650   4.692   0.602   8.516  0.6647  0.0618  1.9835
 9397SOL    HW239651   4.550   0.620   8.582  0.7454 -1.7914 -0.2603
 9398SOL     OW39652   3.177   2.748  17.407  0.6582  0.3934  0.2780
 9398SOL    HW139653   3.174   2.733  17.502  2.3220 -2.7706 -0.1656
 9398SOL    HW239654   3.095   2.707  17.379 -0.2624  1.7902  0.8950
 9399SOL     OW39655   0.577   2.345  13.556 -0.3132  0.1413 -0.3033
 9399SOL    HW139656   0.535   2.368  13.473 -0.6169 -1.5149 -0.6049
 9399SOL    HW239657   0.527   2.401  13.616  2.0147  1.2755  0.6097
 9400SOL     OW39658   3.319   4.221   0.376 -0.6749 -0.2093 -0.3911
 9400SOL    HW139659   3.285   4.140   0.340  0.4972 -1.5345  1.4767
 9400SOL    HW239660   3.316   4.209   0.471  0.7526  0.0681 -0.3036
 9401SOL     OW39661   1.551   3.513  16.383 -0.1503 -0.4161  0.2670
 9401SOL    HW139662   1.521   3.600  16.409 -0.8996 -1.4367  2.7703
 9401SOL    HW239663   1.532   3.528  16.290 -0.8423  0.5420  0.5548
 9402SOL     OW39664   1.693   2.046   8.939  0.8274  0.0688  0.3385
 9402SOL    HW139665   1.675   2.026   8.847  0.6275 -0.6178  0.5286
 9402SOL    HW239666   1.734   1.964   8.963 -0.6710 -0.6307  0.4819
 9403SOL     OW39667   1.370   3.282   5.058 -0.1359  0.4115 -0.2468
 9403SOL    HW139668   1.409   3.255   5.141  1.4418  0.4942 -0.9746
 9403SOL    HW239669   1.424   3.351   5.019 -1.0395  0.4200 -1.5005
 9404SOL     OW39670   2.318   0.906   9.951 -0.6867  0.8976  0.9614
 9404SOL    HW139671   2.322   0.995   9.988  0.7889  0.3363  2.1566
 9404SOL    HW239672   2.277   0.862  10.025 -0.4244 -1.0559 -0.0726
 9405SOL     OW39673   4.662   2.606   2.162  0.8467 -0.1075  0.5173
 9405SOL    HW139674   4.665   2.677   2.098 -0.0692 -0.2396  0.3175
 9405SOL    HW239675   4.708   2.650   2.233 -0.0456  0.0237  1.0091
 9406SOL     OW39676   3.889   3.127   0.580  0.1651  0.0821 -0.6751
 9406SOL    HW139677   3.910   3.175   0.500 -0.4568 -0.4286 -1.1390
 9406SOL    HW239678   3.891   3.035   0.557 -0.0731 -0.3349  0.9747
 9407SOL     OW39679   2.624   3.300   5.110  0.6517  0.0158  0.2863
 9407SOL    HW139680   2.715   3.305   5.082  1.1773 -0.5037  1.9191
 9407SOL    HW239681   2.606   3.218   5.064 -1.5396  0.6614 -0.0142
 9408SOL     OW39682   1.965   1.376   2.511  0.3370  0.1085 -0.2828
 9408SOL    HW139683   1.920   1.408   2.433 -0.1631 -0.3286 -0.1741
 9408SOL    HW239684   2.053   1.404   2.487  0.2242  1.1079  0.4206
 9409SOL     OW39685   2.416   1.643  15.331  0.3725  0.1142  0.4424
 9409SOL    HW139686   2.324   1.666  15.334 -0.0169 -1.1522 -2.6274
 9409SOL    HW239687   2.421   1.649  15.236 -1.3614 -1.9536  0.2450
 9410SOL     OW39688   3.428   1.170  13.617 -0.8970 -0.0967  0.2403
 9410SOL    HW139689   3.361   1.214  13.670 -0.8647 -1.1095  1.1224
 9410SOL    HW239690   3.382   1.103  13.567 -0.4912  1.7259 -2.5631
 9411SOL     OW39691   2.023   3.608   2.993  0.3037 -0.0714 -0.7541
 9411SOL    HW139692   2.094   3.671   2.981  1.1359 -0.3474  2.7199
 9411SOL    HW239693   2.062   3.539   2.940  0.2954  1.3817 -2.6963
 9412SOL     OW39694   3.128   0.446   4.669 -0.1558  0.6543 -0.3148
 9412SOL    HW139695   3.066   0.411   4.605 -1.8696 -0.8259  2.1608
 9412SOL    HW239696   3.103   0.377   4.730  1.1996 -0.9348 -1.5856
 9413SOL     OW39697   4.398   2.966   6.146 -0.4752  0.0393  0.0619
 9413SOL    HW139698   4.342   3.003   6.214  0.2388 -0.8503  1.1333
 9413SOL    HW239699   4.417   3.042   6.091  0.8307 -0.1017  0.3245
 9414SOL     OW39700   3.979   4.589  10.654 -0.4322  0.4574 -0.4118
 9414SOL    HW139701   4.059   4.543  10.627  1.6715  4.3224 -0.7218
 9414SOL    HW239702   4.009   4.652  10.719 -0.0031 -1.3120  1.1135
 9415SOL     OW39703   0.344   3.409   2.702  0.3492 -0.2267  0.4230
 9415SOL    HW139704   0.324   3.438   2.613 -2.8440 -2.4565  0.3948
 9415SOL    HW239705   0.398   3.332   2.685 -0.5190 -0.9546  0.9434
 9416SOL     OW39706   3.416   3.953   6.719 -0.0871 -0.2098 -0.0296
 9416SOL    HW139707   3.335   3.907   6.743  0.2428 -0.7121  0.1251
 9416SOL    HW239708   3.462   3.874   6.689 -1.0043 -0.0010 -2.0163
 9417SOL     OW39709   2.015   2.356  15.505  1.0571 -0.1170  0.0325
 9417SOL    HW139710   2.052   2.411  15.574  0.1891  1.9601 -1.1474
 9417SOL    HW239711   2.057   2.395  15.428 -0.0048 -0.4678 -0.7308
 9418SOL     OW39712   4.199   3.344   5.344 -0.2315  0.1374  0.6480
 9418SOL    HW139713   4.141   3.418   5.363  1.5679  1.7447 -0.1038
 9418SOL    HW239714   4.237   3.349   5.257  2.0770  1.3611  1.7101
 9419SOL     OW39715   2.706   0.519   8.631 -0.1558  0.3669  0.6359
 9419SOL    HW139716   2.791   0.538   8.670  0.1067 -2.5918  1.5154
 9419SOL    HW239717   2.701   0.425   8.648 -1.3618  0.6595  1.8865
 9420SOL     OW39718   1.227   2.842   3.564 -0.0467  0.1125  0.2969
 9420SOL    HW139719   1.250   2.763   3.613  2.1826  0.6358  0.0869
 9420SOL    HW239720   1.147   2.827   3.514  0.4610  0.8975 -0.7506
 9421SOL     OW39721   1.241   3.384  10.484  0.0981  0.6057  0.3030
 9421SOL    HW139722   1.326   3.357  10.449  0.0986 -0.2483  0.9586
 9421SOL    HW239723   1.223   3.456  10.424  2.0519  0.3660 -0.5725
 9422SOL     OW39724   3.567   4.144   4.407 -0.0152  0.1263 -0.2858
 9422SOL    HW139725   3.619   4.219   4.438 -0.1893  0.0694  0.1330
 9422SOL    HW239726   3.624   4.131   4.331 -0.7033 -0.6612 -0.6604
 9423SOL     OW39727   2.325   0.594  10.408 -0.7454  0.1907  0.2649
 9423SOL    HW139728   2.309   0.546  10.489 -0.2984  0.1385  0.3244
 9423SOL    HW239729   2.353   0.677  10.448  0.1820 -0.2402  0.5294
 9424SOL     OW39730   2.375   3.795   4.466  0.1753  0.4300  0.0377
 9424SOL    HW139731   2.459   3.800   4.510  0.8871  1.4811 -1.4134
 9424SOL    HW239732   2.354   3.702   4.457  0.3101  0.6263 -2.4400
 9425SOL     OW39733   1.824   1.295   4.186  0.3724 -0.4002  0.4684
 9425SOL    HW139734   1.831   1.344   4.268  0.7528 -1.0544  0.8203
 9425SOL    HW239735   1.861   1.356   4.122  0.9707 -1.8906 -0.6091
 9426SOL     OW39736   0.074   4.569   1.743  0.3695 -0.2552 -0.1903
 9426SOL    HW139737   0.124   4.576   1.662  1.4938 -1.5339  0.4032
 9426SOL    HW239738   4.723   4.616   1.711 -1.1753 -3.3802 -0.9821
 9427SOL     OW39739   3.884   1.168   8.801  0.8897  0.2899 -0.0662
 9427SOL    HW139740   3.906   1.244   8.746 -1.0910  0.9049  0.0159
 9427SOL    HW239741   3.931   1.195   8.880  0.1239 -0.1476  0.5341
 9428SOL     OW39742   1.804   4.133   2.605 -0.2751  0.4202 -0.5074
 9428SOL    HW139743   1.772   4.109   2.692  0.8408  1.1885  0.1089
 9428SOL    HW239744   1.751   4.081   2.545  0.8037 -0.5014 -0.6767
 9429SOL     OW39745   0.470   2.882   8.190  0.0470 -0.0743 -0.1387
 9429SOL    HW139746   0.392   2.878   8.134 -2.0170  2.2143  2.5322
 9429SOL    HW239747   0.510   2.956   8.146 -1.7441 -0.1203 -1.8454
 9430SOL     OW39748   0.832   2.423  11.215  0.0539 -0.6781 -0.6910
 9430SOL    HW139749   0.833   2.343  11.269 -0.5744  0.0075  0.3476
 9430SOL    HW239750   0.882   2.485  11.268 -2.0186  0.1545  0.2966
 9431SOL     OW39751   1.092   2.136   6.584  0.2712 -0.0224  0.5619
 9431SOL    HW139752   1.117   2.183   6.664 -3.2652  2.1386  0.4043
 9431SOL    HW239753   1.002   2.112   6.604  0.0722  2.8587  3.1608
 9432SOL     OW39754   3.184   4.104  14.057  0.3017  0.6815 -0.3575
 9432SOL    HW139755   3.211   4.016  14.080 -1.9265  0.1965  0.4007
 9432SOL    HW239756   3.106   4.125  14.109  1.2184  2.7404  0.1705
 9433SOL     OW39757   2.633   0.069   5.206 -0.0579  0.3610 -0.0118
 9433SOL    HW139758   2.606   0.151   5.165  0.4497 -0.1008 -1.2619
 9433SOL    HW239759   2.561   0.010   5.185 -0.3343  0.4997  0.5587
 9434SOL     OW39760   4.110   3.654   2.635 -0.4451  0.2173  0.1023
 9434SOL    HW139761   4.034   3.706   2.661 -0.1209  0.3621  0.7510
 9434SOL    HW239762   4.169   3.680   2.705 -0.1291 -3.3137  1.1254
 9435SOL     OW39763   1.330   1.152   5.452 -0.0571  0.0496  0.4900
 9435SOL    HW139764   1.390   1.094   5.499 -3.0275 -1.9957  1.7422
 9435SOL    HW239765   1.376   1.160   5.369  0.7864 -1.0297  0.8482
 9436SOL     OW39766   1.079   1.835   0.629 -0.1321 -0.3451 -0.1692
 9436SOL    HW139767   1.116   1.772   0.691  1.1799 -0.0062 -0.6161
 9436SOL    HW239768   1.114   1.920   0.653 -3.5198  1.4272 -1.4941
 9437SOL     OW39769   3.491   4.193   6.718 -0.4633 -0.3773 -0.2549
 9437SOL    HW139770   3.476   4.099   6.718 -0.1574 -0.4246  0.8723
 9437SOL    HW239771   3.483   4.211   6.624  1.5572  2.3352  0.0773
 9438SOL     OW39772   1.194   3.147   5.375 -0.1628  0.1830  0.0193
 9438SOL    HW139773   1.145   3.159   5.456 -1.9496  4.0562 -1.6476
 9438SOL    HW239774   1.125   3.159   5.310 -1.1209  0.9065  1.1719
 9439SOL     OW39775   0.028   1.530   8.820 -0.4203 -0.8256  0.2739
 9439SOL    HW139776   0.059   1.617   8.795  0.9250 -1.4300 -0.1264
 9439SOL    HW239777   0.096   1.466   8.800 -0.6138 -0.5274 -1.3258
 9440SOL     OW39778   1.505   1.034   0.594  0.0075  0.3060  0.0996
 9440SOL    HW139779   1.592   1.025   0.557 -0.2744  0.6988 -0.6554
 9440SOL    HW239780   1.492   0.945   0.629 -0.6237 -0.0791 -1.0931
 9441SOL     OW39781   0.682   1.213   4.047 -0.8210 -0.2540 -0.6943
 9441SOL    HW139782   0.662   1.200   3.954 -2.4457  0.4668 -0.4480
 9441SOL    HW239783   0.675   1.119   4.068  0.0307  0.0216  0.7791
 9442SOL     OW39784   3.663   1.533   4.049  0.4618  0.0313 -0.2676
 9442SOL    HW139785   3.648   1.485   4.130 -2.1527 -0.9577 -1.3551
 9442SOL    HW239786   3.653   1.619   4.090 -0.9877 -1.0702  1.6824
 9443SOL     OW39787   1.107   2.102   5.332  0.3796  0.5648 -0.1483
 9443SOL    HW139788   1.150   2.028   5.290 -0.6716 -0.4250  0.5122
 9443SOL    HW239789   1.179   2.165   5.333  0.8821 -0.0241  0.1242
 9444SOL     OW39790   1.605   0.573  14.649  0.1239 -0.3515 -0.0766
 9444SOL    HW139791   1.679   0.520  14.618  0.1926 -0.4165  0.2022
 9444SOL    HW239792   1.550   0.501  14.677 -0.7273  0.7757  1.1359
 9445SOL     OW39793   1.836   1.089   7.533  0.1007  0.4807  0.5465
 9445SOL    HW139794   1.889   1.012   7.513  0.1872  0.4980  0.7121
 9445SOL    HW239795   1.890   1.131   7.599  0.2342  1.3817 -0.1455
 9446SOL     OW39796   3.507   3.732   0.345  0.3326 -0.4387  0.2044
 9446SOL    HW139797   3.487   3.670   0.275  1.4132  0.5100 -0.9470
 9446SOL    HW239798   3.432   3.721   0.402 -0.9111  1.7037 -1.0309
 9447SOL     OW39799   1.461   3.750   6.506 -0.2793  0.2733  0.4012
 9447SOL    HW139800   1.462   3.692   6.582 -0.0725  2.1738  1.8437
 9447SOL    HW239801   1.374   3.739   6.468 -0.2462 -0.5262  0.5543
 9448SOL     OW39802   3.069   4.074   5.279  0.9583 -0.0804 -0.2994
 9448SOL    HW139803   3.082   4.063   5.185 -2.5397  2.7198 -1.1236
 9448SOL    HW239804   2.999   4.009   5.285  2.3489 -1.7956 -2.4720
 9449SOL     OW39805   0.855   1.573   9.353  0.3491  0.0074  0.3282
 9449SOL    HW139806   0.919   1.637   9.385  0.3694  1.8713 -3.4457
 9449SOL    HW239807   0.786   1.588   9.417 -2.4703 -2.5240 -2.1308
 9450SOL     OW39808   1.767   3.804   1.991  0.0215 -0.3226  0.1232
 9450SOL    HW139809   1.835   3.744   2.023 -0.4147 -1.6768 -1.4604
 9450SOL    HW239810   1.821   3.882   1.994  0.9284 -0.9114 -0.8719
 9451SOL     OW39811   4.177   3.620   4.064  0.3918 -0.0655  0.2149
 9451SOL    HW139812   4.144   3.638   4.152 -0.1680  0.8793 -0.1969
 9451SOL    HW239813   4.158   3.703   4.020 -1.7999 -1.3737 -1.3035
 9452SOL     OW39814   4.554   2.205  10.638  0.1700 -0.2758  0.2926
 9452SOL    HW139815   4.613   2.150  10.587  2.1092  0.3212  1.9084
 9452SOL    HW239816   4.613   2.266  10.683  1.2887  0.1430 -1.7601
 9453SOL     OW39817   2.188   1.364  12.027  0.0521  0.3107 -0.3916
 9453SOL    HW139818   2.135   1.414  11.964  0.0913  0.8488  0.0002
 9453SOL    HW239819   2.276   1.363  11.989  0.1880 -2.7261  0.0143
 9454SOL     OW39820   1.587   3.237   3.020  0.1242  0.4132 -0.3159
 9454SOL    HW139821   1.556   3.155   3.058 -1.1226  0.2379 -1.7379
 9454SOL    HW239822   1.572   3.223   2.927 -0.7693 -0.4928 -0.0280
 9455SOL     OW39823   1.875   4.112  12.387  0.5225  0.0985 -0.5949
 9455SOL    HW139824   1.822   4.089  12.310 -0.3683 -1.8922  0.6198
 9455SOL    HW239825   1.956   4.072  12.354 -0.5154 -2.1207 -0.4499
 9456SOL     OW39826   0.625   2.022   6.436 -0.6136  0.4814 -0.2142
 9456SOL    HW139827   0.558   2.070   6.386 -2.1106 -0.5781  0.7883
 9456SOL    HW239828   0.636   1.946   6.378 -1.1952 -0.6380  1.1459
 9457SOL     OW39829   3.947   0.463  12.858  0.1719  0.2738  0.2169
 9457SOL    HW139830   4.030   0.468  12.811  0.1535 -0.3765  0.1240
 9457SOL    HW239831   3.917   0.554  12.845  0.4999  0.7696  2.8861
 9458SOL     OW39832   2.134   4.688   2.109 -0.5949  0.2589 -0.0053
 9458SOL    HW139833   2.160   4.597   2.095  0.6534  0.4587  1.0110
 9458SOL    HW239834   2.189   4.721   2.039 -0.0030 -3.7253 -1.4482
 9459SOL     OW39835   3.642   1.456   1.934  0.0324 -0.2171 -0.8531
 9459SOL    HW139836   3.576   1.406   1.886 -1.9093 -0.9469  2.5209
 9459SOL    HW239837   3.649   1.534   1.879 -1.1625  1.2021  0.9887
 9460SOL     OW39838   0.500   2.304   2.012  0.0549 -0.0743  0.3075
 9460SOL    HW139839   0.557   2.313   2.088  0.5626 -1.6338  0.1081
 9460SOL    HW239840   0.451   2.384   2.028  0.9199  0.3692  0.7267
 9461SOL     OW39841   0.149   3.322   4.999  0.4035  0.2830 -0.5529
 9461SOL    HW139842   0.071   3.353   5.045  0.8607  3.1225 -1.6855
 9461SOL    HW239843   0.130   3.228   4.994  0.6506  0.2612 -1.0637
 9462SOL     OW39844   1.101   4.575   8.619  0.2262  0.0217  0.9665
 9462SOL    HW139845   1.062   4.609   8.538 -0.3824 -0.2679  1.1370
 9462SOL    HW239846   1.122   4.658   8.660  1.7565  0.7448 -1.3012
 9463SOL     OW39847   1.636   1.034  17.420  0.3100 -0.1995 -0.5792
 9463SOL    HW139848   1.688   0.974  17.474 -0.0351 -0.9126 -1.0548
 9463SOL    HW239849   1.694   1.110  17.410 -0.5875  0.2900 -1.9768
 9464SOL     OW39850   3.392   2.437   2.433  0.4507 -0.2440 -0.3342
 9464SOL    HW139851   3.419   2.483   2.513  0.5713  0.9229 -1.0482
 9464SOL    HW239852   3.300   2.458   2.417  0.6197  2.1953  1.7058
 9465SOL     OW39853   0.134   2.027   3.718 -0.1702  0.6397 -0.6501
 9465SOL    HW139854   0.169   2.031   3.629  1.7301  0.6467  0.0987
 9465SOL    HW239855   0.053   2.079   3.716 -1.7048 -1.7000 -0.1294
 9466SOL     OW39856   3.274   3.940   4.774  0.6808  0.6112  0.1875
 9466SOL    HW139857   3.262   3.909   4.684  0.8402  0.0586  0.3516
 9466SOL    HW239858   3.368   3.954   4.770  0.6667  0.8067  0.5860
 9467SOL     OW39859   4.687   3.015   8.923  0.6878 -0.4998 -0.2739
 9467SOL    HW139860   0.031   3.066   8.961  0.0302  0.2898 -0.1151
 9467SOL    HW239861   4.677   3.056   8.837  2.5555 -1.2150 -0.8251
 9468SOL     OW39862   0.252   0.988   6.542  0.1532  0.3251 -0.0382
 9468SOL    HW139863   0.309   0.946   6.607  0.8068  2.6057  0.8518
 9468SOL    HW239864   0.199   1.037   6.605 -0.3929 -0.7361  0.3352
 9469SOL     OW39865   3.914   4.248   6.762  0.1835 -0.1314 -0.1264
 9469SOL    HW139866   3.972   4.283   6.695 -0.1415 -0.1601 -0.4179
 9469SOL    HW239867   3.901   4.156   6.738  3.2160 -1.0176  1.5005
 9470SOL     OW39868   4.568   1.354   7.248 -0.0439 -0.0832  0.3533
 9470SOL    HW139869   4.518   1.435   7.249 -0.4379 -0.3295  0.3464
 9470SOL    HW239870   4.529   1.328   7.332 -1.0324 -1.3027 -0.4904
 9471SOL     OW39871   3.923   4.339   7.721  0.3224 -0.6967  0.1207
 9471SOL    HW139872   3.965   4.286   7.790  1.5781  1.8439  1.2974
 9471SOL    HW239873   3.907   4.417   7.774 -1.4131 -1.1365  0.2180
 9472SOL     OW39874   0.422   1.261  10.983  0.1801  0.2550 -0.2277
 9472SOL    HW139875   0.465   1.332  11.031 -1.7798  2.5078 -1.8253
 9472SOL    HW239876   0.374   1.206  11.046 -1.5682  1.9735 -0.0767
 9473SOL     OW39877   3.959   2.458   7.672  0.5211 -0.3783 -0.4730
 9473SOL    HW139878   3.926   2.482   7.759 -0.2641 -0.6467 -0.7013
 9473SOL    HW239879   3.882   2.491   7.625 -0.2871 -0.0443  1.0534
 9474SOL     OW39880   2.221   2.656  12.220  0.2279  0.4264  0.2414
 9474SOL    HW139881   2.248   2.741  12.185 -1.9567  1.4320  0.9817
 9474SOL    HW239882   2.303   2.608  12.216 -0.0947  0.0867 -2.2728
 9475SOL     OW39883   0.105   4.269   8.759 -0.8491 -0.3643 -0.1488
 9475SOL    HW139884   0.134   4.295   8.847 -0.0452 -0.9560 -0.2431
 9475SOL    HW239885   0.079   4.179   8.781 -1.5618 -0.8784 -3.1287
 9476SOL     OW39886   0.986   4.273   7.314  0.0936  0.0073 -0.3004
 9476SOL    HW139887   0.917   4.333   7.284  0.8218  0.2959 -1.4082
 9476SOL    HW239888   0.933   4.215   7.369 -1.5304  1.5270 -0.2328
 9477SOL     OW39889   2.689   1.154   5.795 -0.1586 -0.0277  0.6432
 9477SOL    HW139890   2.654   1.227   5.744  2.1715  0.4004 -0.3196
 9477SOL    HW239891   2.611   1.100   5.808 -0.0776 -0.0663  0.9681
 9478SOL     OW39892   2.822   2.829   6.861  0.6886  0.1704 -0.0096
 9478SOL    HW139893   2.852   2.792   6.945 -1.2168  1.3365  1.2035
 9478SOL    HW239894   2.792   2.914   6.893  0.6130 -0.0863  0.6107
 9479SOL     OW39895   3.135   3.641   1.609  0.1906 -0.0118  0.9286
 9479SOL    HW139896   3.115   3.587   1.533  1.9005 -1.1266  1.2781
 9479SOL    HW239897   3.226   3.669   1.602  0.1341 -0.3844 -1.1359
 9480SOL     OW39898   0.649   0.174   3.130  0.5610  0.6034  0.3442
 9480SOL    HW139899   0.614   0.160   3.042 -1.1673  3.1100  0.6042
 9480SOL    HW239900   0.705   0.098   3.141 -2.1534 -1.4190  0.2456
 9481SOL     OW39901   1.920   0.885   9.366 -0.4709 -0.3648  0.2693
 9481SOL    HW139902   1.990   0.839   9.411 -0.4698 -0.6534 -0.0277
 9481SOL    HW239903   1.876   0.916   9.445 -1.0364 -1.2957  0.3277
 9482SOL     OW39904   2.537   1.888   4.559  0.1100 -0.5644 -0.0371
 9482SOL    HW139905   2.488   1.916   4.482 -0.8485 -0.8984  0.4436
 9482SOL    HW239906   2.586   1.816   4.519 -0.0626  0.3568 -1.9068
 9483SOL     OW39907   2.482   1.811   5.038  0.7432 -0.5973  0.1332
 9483SOL    HW139908   2.390   1.827   5.017  1.4802  0.6446 -2.1845
 9483SOL    HW239909   2.526   1.857   4.966 -2.2392  1.6740 -0.2507
 9484SOL     OW39910   1.492   2.554   6.072  0.1321 -0.4710  0.5018
 9484SOL    HW139911   1.531   2.631   6.114  1.4625 -0.3146 -1.0257
 9484SOL    HW239912   1.574   2.511   6.049  1.0130  1.0730  0.7775
 9485SOL     OW39913   4.216   4.585   5.344 -0.3536 -0.1437  0.1206
 9485SOL    HW139914   4.178   4.534   5.415 -1.3853  0.7328  0.1851
 9485SOL    HW239915   4.277   4.637   5.396 -0.4915  1.1906 -1.0633
 9486SOL     OW39916   2.890   2.889   2.938  0.2321  0.5065 -0.0328
 9486SOL    HW139917   2.819   2.829   2.916  1.0678 -0.0753 -1.1475
 9486SOL    HW239918   2.838   2.964   2.968  0.4462  0.8544 -0.5260
 9487SOL     OW39919   2.194   0.927   1.644 -0.0377  0.1070  0.1715
 9487SOL    HW139920   2.261   0.899   1.706 -0.3625  0.8583  0.8598
 9487SOL    HW239921   2.191   0.854   1.581  3.1402  0.7623 -0.7110
 9488SOL     OW39922   3.416   3.523   7.938 -0.3978  0.7996  0.5813
 9488SOL    HW139923   3.384   3.457   7.876 -1.9683  2.1465 -0.0442
 9488SOL    HW239924   3.358   3.527   8.014  1.0825 -3.4092  1.9255
 9489SOL     OW39925   2.141   0.174   5.857  0.0494  0.0598  0.6219
 9489SOL    HW139926   2.049   0.155   5.838 -0.0144  1.4392 -0.4442
 9489SOL    HW239927   2.158   0.225   5.777  2.1837  0.5941  1.4330
 9490SOL     OW39928   1.397   1.387   4.940 -0.1766 -0.2826 -0.1393
 9490SOL    HW139929   1.320   1.335   4.913 -2.2916  2.0042  1.5703
 9490SOL    HW239930   1.463   1.321   4.916 -3.3431 -3.0130 -1.4359
 9491SOL     OW39931   4.217   0.545   3.442  0.5877 -0.1782  0.4192
 9491SOL    HW139932   4.260   0.613   3.389 -1.5461  0.6898 -0.2022
 9491SOL    HW239933   4.128   0.545   3.406  0.2092  1.7459  1.3584
 9492SOL     OW39934   3.277   2.792  11.042 -0.1836 -0.2071  0.1025
 9492SOL    HW139935   3.356   2.805  11.094 -0.4057  0.2737  0.3279
 9492SOL    HW239936   3.265   2.883  11.013  0.7774 -0.2910 -0.5387
 9493SOL     OW39937   2.147   0.744  16.455  0.4924  0.0854 -0.3880
 9493SOL    HW139938   2.095   0.667  16.477 -0.2952  0.2468 -1.6205
 9493SOL    HW239939   2.222   0.707  16.501 -0.6846 -1.0001  0.6399
 9494SOL     OW39940   3.208   2.440  15.521  0.2823 -0.0492  0.7355
 9494SOL    HW139941   3.258   2.509  15.479  0.0301  1.5916  3.1559
 9494SOL    HW239942   3.215   2.468  15.613 -1.7051 -3.4825  1.9348
 9495SOL     OW39943   1.853   3.662   0.580 -0.9434 -0.0858  0.0968
 9495SOL    HW139944   1.852   3.569   0.557  0.5738 -0.4355  1.4685
 9495SOL    HW239945   1.868   3.696   0.492 -2.2561 -0.2073 -0.1719
 9496SOL     OW39946   1.534   2.525  11.502 -0.4619  0.4652 -0.0261
 9496SOL    HW139947   1.578   2.449  11.464 -0.5650  0.2229  0.3513
 9496SOL    HW239948   1.604   2.566  11.554 -0.4582  2.2255 -1.3885
 9497SOL     OW39949   2.152   2.912   3.401 -0.0631 -0.0808 -0.4094
 9497SOL    HW139950   2.209   2.918   3.478  0.3295  2.0519 -0.8620
 9497SOL    HW239951   2.220   2.904   3.334  0.9289  1.2692  0.4157
 9498SOL     OW39952   1.689   3.152   7.644  0.0697  0.2041 -0.3955
 9498SOL    HW139953   1.698   3.247   7.630  2.7920 -0.0573 -0.4276
 9498SOL    HW239954   1.620   3.142   7.710  1.4959  0.2176  1.1212
 9499SOL     OW39955   1.736   1.191  11.502  0.3074 -0.1564  0.4238
 9499SOL    HW139956   1.729   1.239  11.420 -0.1754  0.7580  0.9988
 9499SOL    HW239957   1.700   1.109  11.468  1.0843  0.2180 -1.3145
 9500SOL     OW39958   4.309   3.015   7.274  0.0057 -0.0740  0.1210
 9500SOL    HW139959   4.345   2.974   7.353  1.3541  0.3090 -0.2864
 9500SOL    HW239960   4.378   3.077   7.249 -0.1463  0.6698  1.5366
 9501SOL     OW39961   4.456   0.481  10.537 -0.4747  0.5285  0.0623
 9501SOL    HW139962   4.398   0.442  10.602  0.1004  1.9913  1.4622
 9501SOL    HW239963   4.391   0.521  10.479 -1.2549 -0.1522  0.4714
 9502SOL     OW39964   4.003   2.847   3.753 -0.1655  0.2678 -0.0554
 9502SOL    HW139965   4.041   2.934   3.736  1.2462 -0.4078 -0.3908
 9502SOL    HW239966   4.030   2.795   3.677 -1.2329  0.9158 -0.8864
 9503SOL     OW39967   0.804   1.034   2.183 -0.3364 -0.1023 -0.2575
 9503SOL    HW139968   0.884   0.992   2.153  0.2917 -0.8666  2.4628
 9503SOL    HW239969   0.837   1.061   2.268 -0.2422  2.6112 -1.1533
 9504SOL     OW39970   1.169   2.547   4.163  0.4297 -0.3256  0.2887
 9504SOL    HW139971   1.220   2.477   4.204 -0.9627 -0.3840  1.9346
 9504SOL    HW239972   1.085   2.500   4.162  0.8840 -1.1817  2.3330
 9505SOL     OW39973   4.216   3.846   7.220 -0.3139  0.0709 -0.0508
 9505SOL    HW139974   4.162   3.855   7.142 -0.1120  1.0048 -0.0727
 9505SOL    HW239975   4.206   3.932   7.260  1.7929 -0.7336  2.2441
 9506SOL     OW39976   2.927   2.720   0.098  0.1608  0.3227  0.0264
 9506SOL    HW139977   2.878   2.802   0.095  2.6696  1.9777  4.0806
 9506SOL    HW239978   2.858   2.655   0.111 -0.0367  0.2525 -1.3423
 9507SOL     OW39979   2.231   2.591   7.316  0.5516  0.3169 -0.4317
 9507SOL    HW139980   2.302   2.528   7.318  1.1442  0.9638 -1.1304
 9507SOL    HW239981   2.211   2.607   7.409 -1.1878 -0.1805 -0.7157
 9508SOL     OW39982   4.038   3.619  12.610 -1.0608  0.5806 -0.4417
 9508SOL    HW139983   4.081   3.704  12.624 -1.4961  0.2994  2.7175
 9508SOL    HW239984   4.033   3.617  12.515 -0.1908  1.8683 -0.5210
 9509SOL     OW39985   1.918   3.653   6.885 -0.5094 -0.3349 -0.4172
 9509SOL    HW139986   1.921   3.742   6.920 -1.9038 -0.5043  0.1073
 9509SOL    HW239987   1.859   3.606   6.944 -1.5913  1.9384  0.2963
 9510SOL     OW39988   0.699   3.045   5.528  0.0818  0.2783  0.1805
 9510SOL    HW139989   0.695   3.128   5.481 -1.1831  1.4124  2.3128
 9510SOL    HW239990   0.631   3.052   5.595  0.0048  1.3993 -0.0144
 9511SOL     OW39991   2.068   2.860  14.139  0.1188  0.3019  0.2881
 9511SOL    HW139992   2.143   2.834  14.192 -1.0257 -3.1554  0.1918
 9511SOL    HW239993   2.016   2.780  14.134 -0.7091  1.0984 -4.2032
 9512SOL     OW39994   3.046   1.433   9.059 -0.4923 -0.4908 -0.4454
 9512SOL    HW139995   2.965   1.477   9.085 -0.6351 -0.9749 -0.0739
 9512SOL    HW239996   3.107   1.477   9.120  0.4092 -1.5055 -0.6180
 9513SOL     OW39997   4.382   3.861  15.668 -0.6564 -0.6165 -0.1458
 9513SOL    HW139998   4.373   3.808  15.588  1.3931 -0.4759 -0.4804
 9513SOL    HW239999   4.457   3.823  15.714 -0.3008  0.5139  0.1924
 9514SOL     OW40000   2.721   1.879  10.011  0.0083  0.3408 -0.5154
 9514SOL    HW140001   2.762   1.799   9.979 -2.5724 -0.7102 -1.1998
 9514SOL    HW240002   2.790   1.943   9.991  1.8420 -1.1347  1.1722
 9515SOL     OW40003   3.134   3.517  10.945  0.2803 -0.8354 -0.1245
 9515SOL    HW140004   3.082   3.596  10.927  3.5045  1.4889  0.6442
 9515SOL    HW240005   3.174   3.492  10.862 -0.2198  0.3154 -0.7129
 9516SOL     OW40006   3.925   4.146   5.056 -0.1387  0.4789 -0.6612
 9516SOL    HW140007   3.891   4.151   4.966  1.1459 -1.1291 -1.2393
 9516SOL    HW240008   3.903   4.235   5.084 -1.2775  0.1916 -0.6767
 9517SOL     OW40009   2.626   4.432  17.300 -0.2533 -0.0496 -0.3378
 9517SOL    HW140010   2.594   4.349  17.336  3.5535 -1.9566 -1.3129
 9517SOL    HW240011   2.707   4.397  17.262 -0.2381  0.1605 -0.5017
 9518SOL     OW40012   2.690   0.061  16.828 -0.3652  0.2551 -0.6292
 9518SOL    HW140013   2.747   0.130  16.863 -1.2797  0.4096  0.5309
 9518SOL    HW240014   2.714   0.053  16.735  1.8383 -1.0240  0.0544
 9519SOL     OW40015   4.218   4.467  15.772  0.5215  0.1829 -0.1228
 9519SOL    HW140016   4.248   4.541  15.826  1.1939  1.0742 -1.7198
 9519SOL    HW240017   4.286   4.412  15.812  2.7684  2.6848 -0.4726
 9520SOL     OW40018   2.974   0.648   7.670  0.1797 -0.3184  0.1965
 9520SOL    HW140019   3.012   0.674   7.753  0.9093 -0.7966  0.0186
 9520SOL    HW240020   2.959   0.554   7.683 -0.3608  0.0142  1.9589
 9521SOL     OW40021   0.726   4.636   9.555  0.1801 -0.0534  0.7697
 9521SOL    HW140022   0.747   4.681   9.474 -2.4232  0.1858  0.2338
 9521SOL    HW240023   0.666   4.699   9.596  0.4691  0.8730 -0.2260
 9522SOL     OW40024   3.789   0.442   7.875  0.3298 -0.0707 -0.3201
 9522SOL    HW140025   3.699   0.412   7.871 -0.4823  2.3055  0.0379
 9522SOL    HW240026   3.834   0.368   7.916 -0.4648  0.2472  1.1154
 9523SOL     OW40027   0.137   0.628   5.780 -0.1435  0.2843  0.4063
 9523SOL    HW140028   0.194   0.607   5.706 -1.2504  0.9248 -0.6386
 9523SOL    HW240029   0.145   0.722   5.795  0.3309  0.3126 -0.0164
 9524SOL     OW40030   2.246   2.512   0.469  1.0176 -0.4114 -0.0517
 9524SOL    HW140031   2.232   2.594   0.423  0.4037 -0.6695 -0.3191
 9524SOL    HW240032   2.156   2.487   0.489  0.3843  0.5416 -1.7281
 9525SOL     OW40033   2.747   2.477   8.319  0.2321  0.9650  0.0962
 9525SOL    HW140034   2.836   2.458   8.290 -0.4720 -0.0048 -1.4505
 9525SOL    HW240035   2.755   2.447   8.410  0.3973  0.9577  0.0802
 9526SOL     OW40036   3.117   0.274   1.939  0.1916 -0.1653 -0.3033
 9526SOL    HW140037   3.155   0.329   2.007  0.6131 -0.5873 -0.1956
 9526SOL    HW240038   3.032   0.252   1.976  0.5270  1.2454  1.3160
 9527SOL     OW40039   2.990   1.164   6.978 -0.5341  0.0699  0.2351
 9527SOL    HW140040   2.910   1.159   6.925  0.4813 -1.0253 -1.1862
 9527SOL    HW240041   2.960   1.121   7.057  2.4070 -1.5351  0.4755
 9528SOL     OW40042   3.637   4.055   7.046 -0.5503  0.0781 -0.5425
 9528SOL    HW140043   3.686   3.994   7.102  0.5423  1.8289  0.4011
 9528SOL    HW240044   3.662   4.141   7.079  2.4970 -1.8426  2.1607
 9529SOL     OW40045   2.004   2.709   2.599 -0.2195 -0.0460 -0.5793
 9529SOL    HW140046   1.997   2.631   2.544  1.0216 -0.8152  0.3231
 9529SOL    HW240047   2.011   2.660   2.682  1.8516 -1.9614 -1.8618
 9530SOL     OW40048   0.528   3.735   7.389  0.3557  0.4896 -0.3213
 9530SOL    HW140049   0.526   3.646   7.423  1.6084  0.1981 -0.9770
 9530SOL    HW240050   0.438   3.761   7.404  0.8466  1.2139  1.3401
 9531SOL     OW40051   4.200   2.277  12.345 -0.5003  0.1355  0.1040
 9531SOL    HW140052   4.140   2.239  12.410 -2.0219  0.0102 -1.3647
 9531SOL    HW240053   4.191   2.208  12.279 -0.4546  2.7606 -2.6415
 9532SOL     OW40054   0.586   1.716   1.549 -0.2562 -0.7308 -0.3102
 9532SOL    HW140055   0.589   1.756   1.462 -2.1557 -1.2969 -0.6410
 9532SOL    HW240056   0.582   1.790   1.609 -4.2340 -1.4218  0.2742
 9533SOL     OW40057   3.304   2.655   1.008  0.3914 -0.3353  0.4755
 9533SOL    HW140058   3.262   2.735   1.039 -1.7513 -1.4197  0.3337
 9533SOL    HW240059   3.379   2.691   0.961 -1.0090  1.8984 -0.0193
 9534SOL     OW40060   0.117   2.261   4.817 -0.0086 -0.4937  0.2273
 9534SOL    HW140061   0.043   2.226   4.767 -1.4525 -1.4235  3.0002
 9534SOL    HW240062   0.188   2.214   4.774 -1.4845 -3.1618  0.6344
 9535SOL     OW40063   0.466   3.489   7.499 -0.4009 -0.6923 -0.1165
 9535SOL    HW140064   0.441   3.477   7.591  0.1746  1.4044  0.2980
 9535SOL    HW240065   0.381   3.461   7.465 -0.3112  0.7129 -1.4648
 9536SOL     OW40066   0.101   1.359   7.196 -0.1987 -0.2300  0.2532
 9536SOL    HW140067   0.007   1.359   7.210  0.0070  0.9069  1.6019
 9536SOL    HW240068   0.115   1.440   7.244 -1.5445 -0.4077  0.9261
 9537SOL     OW40069   2.907   3.775   2.844  0.3264 -0.0289 -0.3632
 9537SOL    HW140070   2.965   3.738   2.911 -0.6082 -0.8284 -0.0041
 9537SOL    HW240071   2.821   3.738   2.865  0.5564 -0.1845  0.3087
 9538SOL     OW40072   0.792   4.069   6.340 -0.1482 -0.4465  0.2582
 9538SOL    HW140073   0.762   4.088   6.429  0.8921 -1.7081  0.8733
 9538SOL    HW240074   0.800   4.161   6.316  0.1371 -0.6062 -0.2664
 9539SOL     OW40075   3.065   1.683  16.465 -0.2523 -0.0713  0.7163
 9539SOL    HW140076   3.042   1.694  16.557 -1.8791 -2.6025  0.6194
 9539SOL    HW240077   3.161   1.692  16.471 -0.4156  1.6609  0.5786
 9540SOL     OW40078   1.536   3.618   5.098 -0.0557 -0.0387 -0.2661
 9540SOL    HW140079   1.462   3.598   5.155  0.9548  0.1877  1.1390
 9540SOL    HW240080   1.545   3.710   5.073  2.2729 -0.5727 -1.4244
 9541SOL     OW40081   1.994   0.941   8.845 -0.3067  0.3072 -0.2711
 9541SOL    HW140082   2.060   0.997   8.885 -0.4645 -0.5847  1.2583
 9541SOL    HW240083   2.048   0.896   8.781  1.0386 -0.7806  1.6421
 9542SOL     OW40084   2.598   2.145  17.067  0.0127 -0.6619  0.1790
 9542SOL    HW140085   2.587   2.240  17.075  1.2546 -0.4655 -0.5648
 9542SOL    HW240086   2.505   2.126  17.078  0.0797  0.3174  2.3635
 9543SOL     OW40087   4.689   0.137  16.326  0.0348  0.3844 -0.5679
 9543SOL    HW140088   4.689   0.230  16.351  2.8609 -0.1471  1.4052
 9543SOL    HW240089   4.724   0.145  16.237  0.7465 -1.2950 -0.4343
 9544SOL     OW40090   2.175   4.490  12.706  0.2931 -0.0995 -0.0081
 9544SOL    HW140091   2.206   4.399  12.703 -1.5551 -0.7614  0.5708
 9544SOL    HW240092   2.178   4.513  12.799 -0.5931  1.5466 -0.3912
 9545SOL     OW40093   0.482   1.521   0.508  1.0965  0.2552 -0.2514
 9545SOL    HW140094   0.463   1.447   0.451 -0.8251  0.1017  0.5788
 9545SOL    HW240095   0.390   1.531   0.532  0.7295 -2.8951 -0.3985
 9546SOL     OW40096   2.259   2.623   3.315  0.4386 -0.0123  0.2311
 9546SOL    HW140097   2.269   2.530   3.296  0.6731 -0.3151  1.8362
 9546SOL    HW240098   2.347   2.636   3.349  1.4871 -1.9158 -1.7406
 9547SOL     OW40099   2.360   3.185  13.684  0.1970  0.1022 -0.8416
 9547SOL    HW140100   2.384   3.116  13.746  0.1098  0.4919 -0.3739
 9547SOL    HW240101   2.267   3.177  13.664  0.0798  2.4166 -1.1940
 9548SOL     OW40102   2.813   0.523   6.839  0.0091  0.1586  0.3196
 9548SOL    HW140103   2.856   0.504   6.922  0.5088 -1.7434 -0.3684
 9548SOL    HW240104   2.828   0.615   6.819 -0.2277 -0.3566 -2.2410
 9549SOL     OW40105   1.455   0.468   7.338  0.2442 -0.1162  0.3393
 9549SOL    HW140106   1.438   0.478   7.432  1.4418 -1.0231  0.6564
 9549SOL    HW240107   1.509   0.389   7.332  2.7727  1.5838  0.9189
 9550SOL     OW40108   0.881   1.262  17.694  0.2760  0.0202  0.2745
 9550SOL    HW140109   0.878   1.189   0.048 -1.3025 -0.8590 -0.8299
 9550SOL    HW240110   0.900   1.216  17.612 -2.1645 -2.8779  1.2812
 9551SOL     OW40111   4.240   4.549   4.475  0.4301 -0.3305  0.3802
 9551SOL    HW140112   4.281   4.616   4.420  0.3225 -0.9658 -0.4722
 9551SOL    HW240113   4.193   4.605   4.536  0.2731 -0.4232  0.3431
 9552SOL     OW40114   0.977   0.495  12.631  0.3101  0.2913 -0.4141
 9552SOL    HW140115   0.918   0.569  12.618 -1.4308 -0.7661  1.4283
 9552SOL    HW240116   1.061   0.540  12.624  0.6007 -0.4483 -1.6190
 9553SOL     OW40117   3.593   2.998   5.392  0.1763 -0.3616  0.3500
 9553SOL    HW140118   3.532   3.057   5.348  2.0955  1.4184  0.0746
 9553SOL    HW240119   3.646   3.062   5.439 -0.6946  0.4332  0.2304
 9554SOL     OW40120   2.957   4.187   8.034 -0.1905 -0.0649 -0.0467
 9554SOL    HW140121   2.998   4.267   8.002 -0.9231  0.6371  0.7937
 9554SOL    HW240122   3.035   4.134   8.050 -0.1843  1.1130  3.6585
 9555SOL     OW40123   2.782   3.599   5.310 -0.3142  0.4815 -0.1624
 9555SOL    HW140124   2.712   3.579   5.372  0.8482  1.2722  1.4031
 9555SOL    HW240125   2.794   3.688   5.343 -0.5346 -0.1606  1.6518
 9556SOL     OW40126   1.763   3.877   2.320  0.3304  0.1278  0.2823
 9556SOL    HW140127   1.672   3.894   2.296  1.1442  0.2374 -2.7090
 9556SOL    HW240128   1.755   3.802   2.380  0.2266 -0.5770 -0.6031
 9557SOL     OW40129   2.248   0.880   4.164 -0.1473 -0.4324 -0.4629
 9557SOL    HW140130   2.156   0.877   4.137  0.5803 -0.1844 -2.9950
 9557SOL    HW240131   2.280   0.944   4.100 -0.5229  0.9050  0.6704
 9558SOL     OW40132   3.475   2.419  16.542  0.0464  0.5682  0.3764
 9558SOL    HW140133   3.517   2.353  16.598 -0.9409  0.1351  0.5969
 9558SOL    HW240134   3.393   2.442  16.586  0.2985 -0.2647  1.2939
 9559SOL     OW40135   2.119   0.850   5.773 -0.1088 -0.6758  0.3619
 9559SOL    HW140136   2.188   0.861   5.839 -2.1213  0.3148  2.3302
 9559SOL    HW240137   2.048   0.899   5.816  0.8577  1.6414 -0.7020
 9560SOL     OW40138   3.683   0.469  14.102  0.0545 -0.7463  0.5188
 9560SOL    HW140139   3.751   0.521  14.146  0.7440  0.2020 -1.6671
 9560SOL    HW240140   3.623   0.542  14.092 -0.3699 -1.0783  0.6615
 9561SOL     OW40141   3.411   1.116   8.118 -0.0365  0.0601 -0.1363
 9561SOL    HW140142   3.332   1.062   8.117 -0.1964  0.2879  0.6573
 9561SOL    HW240143   3.386   1.184   8.180 -1.3645  1.2284 -1.9368
 9562SOL     OW40144   3.078   0.894   3.917 -0.5432  0.2514 -0.2461
 9562SOL    HW140145   3.044   0.983   3.925  0.6988  0.7276 -0.2731
 9562SOL    HW240146   3.049   0.855   4.000  0.6187  1.2435  0.6288
 9563SOL     OW40147   4.132   3.382   3.465  0.3485  0.3260 -0.4645
 9563SOL    HW140148   4.206   3.338   3.507  1.7434  0.1227 -3.1360
 9563SOL    HW240149   4.073   3.309   3.450  0.1899 -0.0058  1.7578
 9564SOL     OW40150   1.928   1.188  16.437 -0.0596  0.0396 -0.9565
 9564SOL    HW140151   1.843   1.146  16.451  0.3263 -0.5695 -0.4119
 9564SOL    HW240152   1.983   1.119  16.476  0.6769  1.7363  1.0141
 9565SOL     OW40153   3.672   4.171   2.747 -0.3921  0.1814 -0.5116
 9565SOL    HW140154   3.665   4.171   2.842  0.9206 -0.4073 -0.4100
 9565SOL    HW240155   3.665   4.075   2.745 -0.1302  0.1617 -0.5619
   4.72666   4.72666  17.70760
