Membrane in water
40155
    1TCq1    O1    1   1.013   3.479  11.333  0.7567  0.2899 -0.7113
    1TCq1    C1    2   0.975   3.530  11.449 -0.4712 -0.0209  0.3069
    1TCq1    O2    3   1.007   3.643  11.488  0.2220  0.6720 -0.3172
    1TCq1    C2    4   0.914   3.422  11.521 -0.1486 -0.4000  0.2678
    1TCq1    C3    5   0.822   3.340  11.458  0.0958  0.4181 -0.6053
    1TCq1    C4    6   0.751   3.255  11.548  0.1926  0.4162 -0.0914
    1TCq1    C5    7   0.770   3.261  11.682  0.4173 -0.3740  0.0732
    1TCq1    C6    8   0.864   3.349  11.734 -0.1537  0.5588 -0.2943
    1TCq1    C7    9   0.951   3.418  11.655 -0.0563  0.0134  0.3099
    1TCq1    C8   10   0.892   3.346  11.878  0.4639  0.7305 -0.2734
    1TCq1    O4   11   0.970   3.429  11.924 -0.2034  0.1524 -0.6773
    1TCq1    C9   12   0.650   3.160  11.499 -0.0829 -0.3462 -0.1201
    1TCq1    O5   13   0.577   3.106  11.586 -0.2756 -0.4675 -0.2994
    1TCq1    O6   14   0.651   3.137  11.374 -0.8544  0.0317  0.5091
    1TCq1    H1   15   0.997   3.382  11.323 -1.2432  0.4241  1.3725
    1TCq1    H2   16   0.802   3.339  11.351  0.4703  0.6135 -0.6782
    1TCq1    H3   17   0.703   3.197  11.736  0.0592 -1.1950 -1.3304
    1TCq1    H4   18   1.029   3.481  11.694 -1.7926  1.6159  1.1695
    2MPD2     C   19   0.890   3.121  12.339 -0.9457 -0.2735 -0.5342
    2MPD2    C1   20   0.919   3.252  12.306 -0.1864  0.0103 -0.5871
    2MPD2    C2   21   0.912   3.295  12.168 -0.1936 -0.3704  0.4146
    2MPD2    C3   22   0.865   3.200  12.074  0.0157  0.0228 -0.5477
    2MPD2    C4   23   0.823   3.073  12.117 -0.1558 -0.2075  0.1076
    2MPD2    C5   24   0.838   3.032  12.247 -0.0025 -0.3913  0.0770
    2MPD2     H   25   0.947   3.395  12.148  2.5598 -1.8694 -2.1797
    2MPD2    H1   26   0.800   2.998  12.043  1.8147 -1.7990  1.1262
    2MPD2    H2   27   0.921   3.074  12.431 -1.3461  1.0602  0.2726
    2MPD2    H3   28   0.814   2.932  12.283  0.0342 -1.6929 -3.5987
    2MPD2     N   29   0.855   3.229  11.936 -0.5827  0.0597 -0.2778
    2MPD2    H5   30   0.832   3.151  11.874 -5.2857  0.4262  0.9656
    2MPD2    N1   31   0.966   3.343  12.405 -0.1626  0.2126 -0.0176
    2MPD2    H7   32   0.981   3.438  12.371 -0.3188 -0.0981 -0.9641
    3TCq1    O1   33   4.557   4.686  10.591  0.1053  0.3319 -0.6163
    3TCq1    C1   34   4.571   0.034  10.480  0.5938  0.4581  0.0296
    3TCq1    O2   35   4.487   0.093  10.422 -0.3491  0.0476 -0.1435
    3TCq1    C2   36   4.698   0.097  10.500  0.1919  0.7699 -0.5381
    3TCq1    C3   37   0.028   0.158  10.387 -0.5261 -0.4970 -0.1278
    3TCq1    C4   38   0.121   0.256  10.405 -0.5352  0.7431  0.3026
    3TCq1    C5   39   0.159   0.296  10.526  0.2130 -0.1483  0.2540
    3TCq1    C6   40   0.106   0.230  10.635  0.0512 -0.1282 -0.4503
    3TCq1    C7   41   0.010   0.134  10.626 -0.0406  0.6296  0.7793
    3TCq1    C8   42   0.139   0.271  10.766  0.6533 -0.0008  0.2289
    3TCq1    O4   43   0.129   0.186  10.854 -0.0313 -0.3744 -0.2380
    3TCq1    C9   44   0.191   0.309  10.291  0.0729 -0.4198 -0.1018
    3TCq1    O5   45   0.156   0.276  10.176  0.1785 -0.2560  0.0257
    3TCq1    O6   46   0.269   0.404  10.310 -0.8480  0.0781  0.0871
    3TCq1    H1   47   4.648   4.654  10.610 -1.0694 -2.1197  0.7193
    3TCq1    H2   48   0.006   0.131  10.284 -1.5011  1.1545 -0.3553
    3TCq1    H3   49   0.233   0.374  10.535 -1.4933  1.3889  0.9597
    3TCq1    H4   50   4.682   0.107  10.717 -0.6376 -3.5039 -0.8055
    4MPD2     C   51   0.099   0.643  11.121 -0.3759 -0.2974 -0.2168
    4MPD2    C1   52   0.102   0.692  10.990  1.2678 -0.1536  0.5391
    4MPD2    C2   53   0.126   0.615  10.880  0.5886 -0.3572 -0.0039
    4MPD2    C3   54   0.131   0.475  10.899  0.6926 -0.8542  0.2633
    4MPD2    C4   55   0.131   0.420  11.027 -0.3951 -0.4950  0.1624
    4MPD2    C5   56   0.122   0.507  11.134 -1.0957 -1.2756  0.0825
    4MPD2     H   57   0.130   0.660  10.781  2.1095  0.0297  0.2392
    4MPD2    H1   58   0.137   0.314  11.049 -0.2987  0.0117  2.5679
    4MPD2    H2   59   0.100   0.710  11.206  0.7728 -0.8419  0.2038
    4MPD2    H3   60   0.111   0.471  11.236 -2.0356 -0.3319  0.3177
    4MPD2     N   61   0.137   0.408  10.782  0.1255  0.5539  0.1955
    4MPD2    H5   62   0.122   0.455  10.693 -0.8065 -2.5538 -1.2858
    4MPD2    N1   63   0.079   0.829  10.963 -0.1180 -0.2021 -0.3030
    4MPD2    H7   64   0.075   0.855  10.865  0.0719  0.0564 -0.2396
    5TCq1    O1   65   4.541   1.552  10.786 -0.4320 -0.0521 -0.5550
    5TCq1    C1   66   4.534   1.687  10.771 -0.2834 -0.1267 -0.1681
    5TCq1    O2   67   4.440   1.757  10.804  0.0164 -0.4129 -0.0759
    5TCq1    C2   68   4.666   1.742  10.722 -0.2312 -0.8424  0.1647
    5TCq1    C3   69   4.669   1.880  10.707 -0.0755 -0.1034 -0.5037
    5TCq1    C4   70   0.063   1.936  10.661  0.2008 -0.4110 -0.2403
    5TCq1    C5   71   0.175   1.863  10.642 -0.3701 -0.3507 -0.1222
    5TCq1    C6   72   0.173   1.729  10.667 -0.7407 -0.1890 -0.5502
    5TCq1    C7   73   0.057   1.669  10.705  0.0283  0.1019 -0.1046
    5TCq1    C8   74   0.293   1.648  10.654  0.3643  0.5131  0.0030
    5TCq1    O4   75   0.290   1.529  10.683  0.2866 -0.9926 -0.4216
    5TCq1    C9   76   0.055   2.073  10.614 -0.8196  0.0229 -0.2220
    5TCq1    O5   77   4.672   2.134  10.640 -0.0855  0.2517  0.6979
    5TCq1    O6   78   0.148   2.121  10.541 -0.3398 -1.1463  0.3601
    5TCq1    H1   79   4.607   1.510  10.726  0.1456 -1.7795  1.2790
    5TCq1    H2   80   4.581   1.943  10.705  0.1469  0.2909  1.9187
    5TCq1    H3   81   0.261   1.919  10.607 -0.6514 -1.0051 -1.8325
    5TCq1    H4   82   0.050   1.564  10.733  1.3398  0.4013  1.3803
    6MPD2     C   83   0.627   1.791  10.597  0.1906 -0.1901  0.4363
    6MPD2    C1   84   0.536   1.689  10.619 -0.2126  1.0247 -0.8710
    6MPD2    C2   85   0.578   1.559  10.625 -0.1319  0.0085 -0.3241
    6MPD2    C3   86   0.709   1.523  10.608 -0.5384  0.1358 -0.3143
    6MPD2    C4   87   0.797   1.631  10.585 -0.2216  0.9731 -0.1930
    6MPD2    C5   88   0.757   1.755  10.573  0.0779  0.2772 -0.0339
    6MPD2     H   89   0.501   1.483  10.638  0.0002  0.0074  0.4765
    6MPD2    H1   90   0.905   1.616  10.583 -0.2557  0.7085 -0.0298
    6MPD2    H2   91   0.603   1.897  10.590  2.2044  0.5046  3.9614
    6MPD2    H3   92   0.827   1.837  10.558 -0.7558  1.3615  2.0213
    6MPD2     N   93   0.763   1.394  10.627 -0.5695  0.0140 -0.7763
    6MPD2    H5   94   0.863   1.382  10.643 -0.9590  0.2460  1.7096
    6MPD2    N1   95   0.401   1.724  10.621  0.3496 -0.6944  0.2083
    6MPD2    H7   96   0.373   1.820  10.605 -1.6033 -1.0889  1.3168
    7TCq1    O1   97   2.770   1.418  13.343 -0.2507  0.9069  0.0439
    7TCq1    C1   98   2.804   1.355  13.457  0.2452 -0.2386 -0.2680
    7TCq1    O2   99   2.919   1.327  13.491 -0.3086 -0.0915 -0.8432
    7TCq1    C2  100   2.687   1.296  13.507  0.3407 -0.2438 -0.3166
    7TCq1    C3  101   2.568   1.360  13.513  0.1042 -0.7283 -0.4438
    7TCq1    C4  102   2.460   1.297  13.570 -0.4147  0.0039 -0.0613
    7TCq1    C5  103   2.466   1.173  13.621 -0.1690 -0.4643  0.5076
    7TCq1    C6  104   2.585   1.111  13.600  1.0333  0.4494 -0.4516
    7TCq1    C7  105   2.700   1.169  13.556  0.3212  0.2593 -0.5467
    7TCq1    C8  106   2.590   0.967  13.615  0.2588  0.0047  0.1956
    7TCq1    O4  107   2.687   0.913  13.569  0.1109 -0.2293  0.0806
    7TCq1    C9  108   2.334   1.357  13.581 -0.8701 -0.5574 -0.0430
    7TCq1    O5  109   2.316   1.479  13.550  0.6050  0.2093 -0.0823
    7TCq1    O6  110   2.235   1.291  13.625  0.3758  0.0874 -0.8091
    7TCq1    H1  111   2.675   1.410  13.320 -1.0255  1.9822  2.7683
    7TCq1    H2  112   2.557   1.464  13.482  2.0006 -0.6342 -0.7791
    7TCq1    H3  113   2.379   1.132  13.670 -1.0828  2.0792  1.0393
    7TCq1    H4  114   2.795   1.117  13.552  0.0227 -0.3217 -0.0546
    8MPD2     C  115   2.472   0.501  13.806 -0.5511  0.0362  0.4185
    8MPD2    C1  116   2.518   0.539  13.685  0.0832 -0.1368 -0.2795
    8MPD2    C2  117   2.532   0.675  13.644  0.3381 -0.0888 -0.2017
    8MPD2    C3  118   2.479   0.773  13.721  0.2274 -0.6445  0.0787
    8MPD2    C4  119   2.414   0.730  13.835 -0.1198 -1.1689 -0.7421
    8MPD2    C5  120   2.416   0.602  13.880 -0.2599 -0.2364  0.2027
    8MPD2     H  121   2.580   0.702  13.550  0.1061  0.8397 -0.0448
    8MPD2    H1  122   2.364   0.802  13.898  2.9266  0.4892 -0.2115
    8MPD2    H2  123   2.478   0.401  13.847 -1.2110 -0.4495 -0.6458
    8MPD2    H3  124   2.385   0.576  13.980 -1.1794  1.1147  0.2566
    8MPD2     N  125   2.488   0.911  13.696  0.1191 -0.0896  0.1892
    8MPD2    H5  126   2.421   0.976  13.736  0.3763 -0.1836  0.7677
    8MPD2    N1  127   2.555   0.438  13.594  0.4245 -0.6884  0.0092
    8MPD2    H7  128   2.552   0.343  13.630  0.8166 -0.4545  0.6534
    9TCq1    O1  129   0.060   0.060  11.071 -0.1837  0.1649 -0.7748
    9TCq1    C1  130   0.152   4.702  11.118 -1.0972  0.2536  0.2770
    9TCq1    O2  131   0.150   4.658  11.231  0.2473  0.4979 -0.1434
    9TCq1    C2  132   0.216   4.639  11.005 -0.1222  0.0942  0.1905
    9TCq1    C3  133   0.153   4.625  10.883  0.7979  0.0340  0.2634
    9TCq1    C4  134   0.226   4.597  10.773 -0.6098  0.4614 -0.2108
    9TCq1    C5  135   0.362   4.594  10.780  0.4561  0.9219  0.3328
    9TCq1    C6  136   0.424   4.600  10.902  0.2477  0.3906 -0.0729
    9TCq1    C7  137   0.353   4.626  11.017 -0.0800 -0.1143  0.3722
    9TCq1    C8  138   0.557   4.536  10.897 -0.2272 -0.1800  0.1998
    9TCq1    O4  139   0.614   4.519  10.791 -0.2506  0.4131  0.2210
    9TCq1    C9  140   0.161   4.564  10.640 -0.3697 -0.2768 -0.2544
    9TCq1    O5  141   0.243   4.578  10.543 -0.3392 -0.7455 -0.0408
    9TCq1    O6  142   0.038   4.561  10.640 -0.1570  0.3741  0.1389
    9TCq1    H1  143   0.089   0.094  10.984 -2.3967  0.9037 -1.2205
    9TCq1    H2  144   0.048   4.601  10.891  0.7819 -0.4060 -1.2647
    9TCq1    H3  145   0.422   4.561  10.695 -0.9101  0.4123 -0.4219
    9TCq1    H4  146   0.400   4.623  11.114  1.0550 -1.6581 -0.2183
   10MPD2     C  147   0.771   4.320  10.919  0.4837 -0.8791 -0.4826
   10MPD2    C1  148   0.690   4.372  11.025 -0.2747 -0.5088 -0.2167
   10MPD2    C2  149   0.725   4.321  11.154  0.7938 -0.5186  0.6688
   10MPD2    C3  150   0.794   4.202  11.167 -0.5130 -0.3265  0.2206
   10MPD2    C4  151   0.856   4.142  11.060 -0.5434 -0.2832  0.1100
   10MPD2    C5  152   0.855   4.216  10.947  0.2792  0.3746 -0.2573
   10MPD2     H  153   0.679   4.364  11.242  0.2139  0.6147 -0.1774
   10MPD2    H1  154   0.908   4.047  11.062  2.1662  1.2134  0.5470
   10MPD2    H2  155   0.764   4.368  10.823  4.6526 -0.7175 -0.7035
   10MPD2    H3  156   0.907   4.173  10.862 -0.2852 -2.1933  0.6824
   10MPD2     N  157   0.790   4.143  11.298 -0.0640 -0.2500 -0.0592
   10MPD2    H5  158   0.741   4.191  11.373 -0.4877  1.8203 -1.6514
   10MPD2    N1  159   0.586   4.474  11.016  0.0579  0.2437  0.0601
   10MPD2    H7  160   0.526   4.478  11.098 -0.1042  0.4132 -0.0676
   11TCq1    O1  161   2.029   3.908  13.914 -0.1498  0.1951 -0.2186
   11TCq1    C1  162   1.955   4.015  13.945 -0.9056  1.1378 -0.0199
   11TCq1    O2  163   1.877   4.068  13.866 -0.7839  0.3511 -0.9369
   11TCq1    C2  164   1.932   4.021  14.086  0.4252 -0.0053 -0.5407
   11TCq1    C3  165   2.020   3.979  14.179  0.6548 -1.0152 -1.1473
   11TCq1    C4  166   1.979   3.981  14.309  0.6250  0.3784 -0.4427
   11TCq1    C5  167   1.853   4.022  14.344 -0.2337  0.0530  0.1465
   11TCq1    C6  168   1.764   4.041  14.245 -0.2322 -0.0828 -0.4347
   11TCq1    C7  169   1.797   4.041  14.113  0.2016  0.1019 -0.1713
   11TCq1    C8  170   1.626   4.073  14.281  0.7533 -0.7607  0.2649
   11TCq1    O4  171   1.609   4.140  14.378  0.4900 -0.3120 -0.0799
   11TCq1    C9  172   2.069   3.956  14.415 -1.0012 -0.6854  0.5301
   11TCq1    O5  173   2.031   3.995  14.533  0.9118 -0.2510 -0.2565
   11TCq1    O6  174   2.190   3.943  14.378 -0.3248 -0.1370 -0.0156
   11TCq1    H1  175   2.089   3.869  13.981 -0.8768 -1.7589 -0.7168
   11TCq1    H2  176   2.126   3.960  14.168  1.2658  1.8268 -0.1763
   11TCq1    H3  177   1.821   4.031  14.447  1.3250  0.0713  0.6382
   11TCq1    H4  178   1.730   4.067  14.032  0.1417 -2.2591 -0.8786
   12MPD2     C  179   1.327   4.078  14.294 -0.2813  0.4653  0.3559
   12MPD2    C1  180   1.396   4.022  14.191 -0.2390  0.7883  0.6197
   12MPD2    C2  181   1.328   3.933  14.112  0.8732  0.2934 -0.1532
   12MPD2    C3  182   1.200   3.894  14.125 -0.2529  0.3102  1.2858
   12MPD2    C4  183   1.132   3.967  14.220  0.2333  0.5873  0.5932
   12MPD2    C5  184   1.196   4.060  14.306  0.6585 -0.0289  0.8833
   12MPD2     H  185   1.387   3.882  14.036  1.2654 -0.5713  0.7383
   12MPD2    H1  186   1.025   3.960  14.235  0.4375 -1.7702  0.9510
   12MPD2    H2  187   1.369   4.150  14.364 -0.4616  0.0199  0.9182
   12MPD2    H3  188   1.140   4.118  14.379 -0.4380  1.0390 -0.7814
   12MPD2     N  189   1.131   3.796  14.055  0.4090 -0.0417  0.8132
   12MPD2    H5  190   1.031   3.791  14.071  0.0641  1.9850 -0.7397
   12MPD2    N1  191   1.543   4.020  14.184  0.1679  0.7594 -0.4007
   12MPD2    H7  192   1.590   3.957  14.119 -0.3848  1.4903 -1.4978
   13TCq1    O1  193   0.650   4.312  10.468 -0.4420  0.2289 -0.4552
   13TCq1    C1  194   0.659   4.203  10.548  0.3298  0.4415  0.1278
   13TCq1    O2  195   0.765   4.149  10.584 -0.2573 -0.0144  0.2356
   13TCq1    C2  196   0.530   4.190  10.614  0.3566  0.6130  0.2177
   13TCq1    C3  197   0.418   4.225  10.537 -0.1391 -0.2721  0.0267
   13TCq1    C4  198   0.293   4.239  10.595  0.1299  0.2883  0.2851
   13TCq1    C5  199   0.280   4.227  10.733 -0.3163  0.2974  0.3322
   13TCq1    C6  200   0.396   4.196  10.805  0.0599  0.4146  0.3321
   13TCq1    C7  201   0.520   4.175  10.750  0.5606 -0.7800 -0.7479
   13TCq1    C8  202   0.384   4.169  10.948 -0.1375 -0.3848 -0.7543
   13TCq1    O4  203   0.298   4.235  11.000 -0.8815  0.4573 -0.5250
   13TCq1    C9  204   0.175   4.258  10.519  0.2107 -0.3999  0.4852
   13TCq1    O5  205   0.181   4.297  10.400 -0.0235  0.3512  0.0989
   13TCq1    O6  206   0.061   4.249  10.576 -0.1665  0.0129  0.4440
   13TCq1    H1  207   0.561   4.353  10.457 -0.0790  0.3827 -2.8304
   13TCq1    H2  208   0.417   4.246  10.431  1.2475 -1.8650 -0.3025
   13TCq1    H3  209   0.184   4.239  10.781 -0.1173  0.1216  0.7727
   13TCq1    H4  210   0.609   4.160  10.809  0.6564 -0.5821 -0.8398
   14MPD2     C  211   0.517   3.920  11.172 -0.3899 -0.1388 -0.7091
   14MPD2    C1  212   0.444   4.028  11.130  0.2474  0.3926 -0.1622
   14MPD2    C2  213   0.355   4.084  11.221  0.3620 -0.3002  0.0573
   14MPD2    C3  214   0.339   4.032  11.351 -0.2293  0.1453 -0.3008
   14MPD2    C4  215   0.388   3.908  11.378 -0.4914 -0.2315 -0.2974
   14MPD2    C5  216   0.488   3.864  11.292  0.0280  0.9246 -0.6294
   14MPD2     H  217   0.302   4.178  11.208 -1.7217 -1.2391  1.7719
   14MPD2    H1  218   0.375   3.855  11.472  0.5973 -0.3848 -0.2358
   14MPD2    H2  219   0.584   3.865  11.107  2.7904  1.8762  0.8463
   14MPD2    H3  220   0.546   3.777  11.319 -0.2398  0.7418 -0.6420
   14MPD2     N  221   0.239   4.097  11.430 -0.3269  0.0895 -0.2507
   14MPD2    H5  222   0.196   4.183  11.398 -0.4995 -0.1605 -0.6944
   14MPD2    N1  223   0.454   4.059  10.992  0.0154 -0.0656 -0.4890
   14MPD2    H7  224   0.525   4.011  10.938  0.5864 -0.8737  0.9707
   15TCq1    O1  225   2.431   2.551   1.583  0.7339  0.1738 -0.2583
   15TCq1    C1  226   2.520   2.556   1.686 -0.5429  0.1001  0.0054
   15TCq1    O2  227   2.492   2.589   1.800 -0.1662 -0.5990 -0.7498
   15TCq1    C2  228   2.653   2.581   1.629 -0.4840 -1.0667  0.1743
   15TCq1    C3  229   2.734   2.666   1.705 -0.0459 -0.3704 -0.3181
   15TCq1    C4  230   2.851   2.705   1.644  0.1734 -0.6851  0.0398
   15TCq1    C5  231   2.896   2.648   1.526  0.9932  0.2265 -0.0276
   15TCq1    C6  232   2.813   2.561   1.464  0.0778  0.3599 -0.1361
   15TCq1    C7  233   2.691   2.525   1.514 -0.1384 -0.3341 -0.0129
   15TCq1    C8  234   2.855   2.520   1.336  0.1940 -0.3765  0.9488
   15TCq1    O4  235   2.975   2.517   1.303 -0.3353 -0.4493 -0.2609
   15TCq1    C9  236   2.943   2.792   1.709  0.2183  0.4452 -0.1798
   15TCq1    O5  237   2.894   2.873   1.792 -0.1151 -0.7041  0.0759
   15TCq1    O6  238   3.058   2.797   1.656  0.2612  0.1809 -0.1453
   15TCq1    H1  239   2.476   2.560   1.496  0.2230  1.8824 -0.3381
   15TCq1    H2  240   2.691   2.719   1.789 -0.8652 -0.4689 -0.6810
   15TCq1    H3  241   2.993   2.671   1.482  1.2308 -1.3024 -0.3193
   15TCq1    H4  242   2.632   2.451   1.462 -1.3885 -0.1388  1.1014
   16MPD2     C  243   2.645   2.504   1.037  0.3209 -0.1602  0.5284
   16MPD2    C1  244   2.751   2.472   1.118 -0.3714 -0.1924  0.6052
   16MPD2    C2  245   2.857   2.395   1.067 -0.0434  0.5402  1.1579
   16MPD2    C3  246   2.849   2.365   0.927 -0.1327  0.1814  0.1823
   16MPD2    C4  247   2.737   2.394   0.842  0.4720 -0.5777 -0.2575
   16MPD2    C5  248   2.635   2.462   0.906 -0.5018 -0.1981 -0.0446
   16MPD2     H  249   2.939   2.368   1.131  0.9954 -1.0973 -0.8720
   16MPD2    H1  250   2.726   2.370   0.737  0.2970  0.8968 -0.5867
   16MPD2    H2  251   2.555   2.557   1.066  0.7537  0.0741  1.4311
   16MPD2    H3  252   2.549   2.494   0.848 -0.1177  0.6241 -0.1710
   16MPD2     N  253   2.958   2.301   0.873 -0.5596  0.2356 -0.2362
   16MPD2    H5  254   3.038   2.290   0.934 -0.1069 -1.5056 -1.1358
   16MPD2    N1  255   2.750   2.516   1.252  0.1736 -0.4849  0.1077
   16MPD2    H7  256   2.661   2.546   1.290  0.3703 -0.0536  0.2290
   17TCq1    O1  257   4.667   4.138  10.790  0.6238  0.2766  0.3511
   17TCq1    C1  258   4.659   4.010  10.824 -0.3520 -0.5081  0.6399
   17TCq1    O2  259   4.628   3.968  10.934  0.6240  0.5401  0.4513
   17TCq1    C2  260   0.017   3.934  10.735  0.8530  0.1574  0.8050
   17TCq1    C3  261   0.031   3.968  10.596  0.0022 -0.8428 -0.7564
   17TCq1    C4  262   0.139   3.924  10.523  0.3140  0.5527 -1.6105
   17TCq1    C5  263   0.229   3.841  10.582 -0.1169 -0.3338 -0.3662
   17TCq1    C6  264   0.215   3.804  10.712 -0.4838 -0.0389 -0.5873
   17TCq1    C7  265   0.114   3.853  10.786 -0.0253  0.0454  0.1449
   17TCq1    C8  266   0.289   3.694  10.767  0.0615  0.5361  0.2423
   17TCq1    O4  267   0.237   3.647  10.867 -0.6065  0.0705  0.0958
   17TCq1    C9  268   0.141   3.948  10.385  0.4189 -0.1937 -0.8292
   17TCq1    O5  269   0.250   3.918  10.325  0.3233  0.5188 -0.9628
   17TCq1    O6  270   0.034   3.998  10.338 -0.1771  0.0218  0.3796
   17TCq1    H1  271   4.700   4.156  10.700  1.4480  2.1938  1.0412
   17TCq1    H2  272   4.682   4.034  10.552  0.0636 -0.5330 -0.3911
   17TCq1    H3  273   0.309   3.806  10.518  1.8974 -0.6869  2.3410
   17TCq1    H4  274   0.095   3.829  10.890  0.6580  0.1211  0.2894
   18MPD2     C  275   0.481   3.466  10.844  0.0043 -0.4906 -0.7358
   18MPD2    C1  276   0.504   3.574  10.767 -0.0558 -0.5862  0.0226
   18MPD2    C2  277   0.635   3.600  10.733 -0.3323  0.0526 -0.0153
   18MPD2    C3  278   0.744   3.524  10.778  0.2477  0.0970  0.1394
   18MPD2    C4  279   0.708   3.412  10.849 -0.1348 -0.1133  0.1514
   18MPD2    C5  280   0.580   3.384  10.884  0.0273  0.1862  0.1851
   18MPD2     H  281   0.655   3.697  10.691  1.6324  0.5490  2.0534
   18MPD2    H1  282   0.781   3.335  10.869  1.1264  0.4869 -2.2020
   18MPD2    H2  283   0.384   3.420  10.858  0.6787 -1.5582  0.4280
   18MPD2    H3  284   0.562   3.287  10.929 -0.7563 -0.6498 -1.9235
   18MPD2     N  285   0.877   3.547  10.755 -0.5875 -0.0948 -0.1658
   18MPD2    H5  286   0.948   3.495  10.806 -0.6680 -2.0690 -2.1058
   18MPD2    N1  287   0.416   3.671  10.720 -0.4468  0.6636 -0.1162
   18MPD2    H7  288   0.450   3.736  10.650  0.8601  0.7495  0.6005
   19TMC2    C1  289   2.253   3.294  13.711 -0.4309 -0.3271 -0.1071
   19TMC2    C2  290   2.211   3.317  13.587  0.2506 -0.1093  0.0319
   19TMC2    C3  291   2.085   3.290  13.554 -0.1759 -0.2891 -0.9259
   19TMC2    C4  292   2.169   3.233  13.806  0.6081 -0.1543 -0.4158
   19TMC2    C5  293   2.043   3.204  13.765  0.3453  0.3872 -0.3804
   19TMC2    C6  294   1.998   3.233  13.642 -0.0720  0.2068 -0.3711
   19TMC2     C  295   2.394   3.328  13.745  0.1731 -0.1875  0.2837
   19TMC2     O  296   2.467   3.362  13.653  0.0881  0.5908 -0.5131
   19TMC2     H  297   2.273   3.377  13.521  0.3121  0.9782  1.0885
   19TMC2    H1  298   2.216   3.199  13.897 -1.6822  2.0529  1.5818
   19TMC2    H2  299   1.891   3.234  13.628 -0.1087  0.9592 -0.0628
   19TMC2    C7  300   1.944   3.156  13.860 -0.6574 -0.4773  0.6283
   19TMC2    C8  301   2.039   3.332  13.424  0.0414 -0.2367 -0.0367
   19TMC2    O1  302   1.847   3.095  13.816 -0.1900 -0.0440  0.1267
   19TMC2    O2  303   2.110   3.327  13.322 -0.4005  0.0963  0.1200
   19TMC2    O5  304   1.962   3.433  13.461  0.5300  0.3952  0.3060
   19TMC2    H5  305   1.902   3.414  13.537 -1.0458  2.0058 -0.5123
   20MPD2     C  306   2.659   3.387  13.860  0.2283  0.7389  0.4333
   20MPD2    C1  307   2.546   3.357  13.936 -0.1179 -0.3607 -0.4989
   20MPD2    C2  308   2.564   3.345  14.075 -0.2166  0.3876 -0.4721
   20MPD2    C3  309   2.685   3.363  14.137  0.3768 -0.0626  0.1341
   20MPD2    C4  310   2.795   3.372  14.053  0.3899  0.4210  0.0100
   20MPD2    C5  311   2.786   3.387  13.918  0.4184  1.0512  0.5899
   20MPD2     H  312   2.476   3.315  14.131 -1.0010 -0.7508 -2.2801
   20MPD2    H1  313   2.891   3.368  14.103 -0.8071  0.0776  2.2827
   20MPD2    H2  314   2.662   3.398  13.752  2.4955  0.2596  0.4243
   20MPD2    H3  315   2.876   3.388  13.857  0.1276 -2.3094  0.1295
   20MPD2     N  316   2.699   3.348  14.276  0.1687  0.1926  0.5323
   20MPD2    H5  317   2.780   3.378  14.328  0.8935  1.5475 -1.3894
   20MPD2    N1  318   2.417   3.337  13.882  0.3096 -0.2210  0.6690
   20MPD2    H7  319   2.344   3.318  13.951  0.6666 -1.2110  0.7639
   21MPD2     C  320   4.530   4.246  14.311  0.2607  0.4229  0.5370
   21MPD2    C1  321   4.522   4.113  14.354 -0.1239 -0.2666  0.0944
   21MPD2    C2  322   4.435   4.073  14.452 -0.1566 -0.0444  0.4578
   21MPD2    C3  323   4.340   4.160  14.494  0.1059  0.3381 -0.4011
   21MPD2    C4  324   4.335   4.283  14.435  0.7483 -0.7237  1.3036
   21MPD2    C5  325   4.427   4.325  14.347 -0.2779  0.6788  0.7030
   21MPD2     H  326   4.441   3.969  14.484 -0.1415 -0.5233 -1.1037
   21MPD2    H1  327   4.254   4.354  14.451  0.9381  0.0780 -1.2389
   21MPD2    H2  328   4.595   4.278  14.231 -0.7757  1.7786  0.2384
   21MPD2    H3  329   4.418   4.417  14.289  0.6302  0.7416  0.6579
   21MPD2     N  330   4.243   4.133  14.592  0.5603  0.0856 -0.1215
   21MPD2    H5  331   4.167   4.200  14.597 -0.3688 -1.1924  2.9577
   21MPD2    N1  332   4.606   4.013  14.301  0.9245  0.4651  0.0836
   21MPD2    H7  333   4.587   3.919  14.332  3.1624  0.0633  0.2174
   22TCq2    C1  334   4.244   4.033  14.683  0.5552  0.0688  0.3627
   22TCq2    O2  335   4.322   3.939  14.697  0.4702 -0.1511 -0.3801
   22TCq2    C2  336   4.136   4.044  14.773 -0.3212 -0.1064 -0.1614
   22TCq2    C3  337   4.159   4.014  14.903 -0.5031 -0.1500 -0.5638
   22TCq2    C4  338   4.071   4.038  15.002 -0.2235  0.2505 -0.1215
   22TCq2    C5  339   3.960   4.110  14.961 -0.7976  0.5178 -0.7403
   22TCq2    C6  340   3.932   4.140  14.829  0.1669 -0.2555  0.3945
   22TCq2    C7  341   4.024   4.118  14.733 -0.6752  0.0007  0.0977
   22TCq2    C8  342   3.799   4.199  14.809 -0.8474  0.1414  0.0727
   22TCq2    O4  343   3.725   4.198  14.906  0.0887 -0.0088  1.0121
   22TCq2    C9  344   4.098   4.010  15.138  0.0381  0.0691 -0.8746
   22TCq2    O5  345   4.210   3.958  15.164  0.2307 -0.9009 -0.2412
   22TCq2    O6  346   4.006   4.032  15.222  0.3162  0.6744  0.5295
   22TCq2    H2  347   4.253   3.964  14.925 -2.0208 -3.0365 -0.5713
   22TCq2    H3  348   3.893   4.134  15.043 -0.7987  0.7367 -0.8072
   22TCq2    H4  349   3.999   4.131  14.628  0.1228  0.3986 -0.0503
   23MPD2     C  350   1.163   0.088  14.621 -0.1420  0.3363  0.2056
   23MPD2    C1  351   1.047   0.065  14.687  0.8006  0.2181 -1.2576
   23MPD2    C2  352   0.928   0.118  14.639 -0.5506 -0.3654 -0.2965
   23MPD2    C3  353   0.927   0.194  14.523  0.5093 -0.0951 -0.8412
   23MPD2    C4  354   1.047   0.209  14.454  0.2978 -0.5842  0.1218
   23MPD2    C5  355   1.164   0.159  14.508 -0.0739  0.7180 -0.2692
   23MPD2     H  356   0.831   0.093  14.681 -1.4737 -0.1041 -2.2618
   23MPD2    H1  357   1.060   0.260  14.360 -0.2044  2.4178  1.6773
   23MPD2    H2  358   1.259   0.048  14.651  0.4138  3.1730  2.1880
   23MPD2    H3  359   1.256   0.171  14.451  0.7342 -0.4389  0.7821
   23MPD2     N  360   0.812   0.252  14.469 -0.4755  0.0019 -0.5999
   23MPD2    H5  361   0.828   0.312  14.389  0.0899 -0.6167 -0.9470
   23MPD2    N1  362   1.030   4.719  14.803  0.4634 -0.3069  0.3831
   23MPD2    H7  363   0.933   0.000  14.835  0.0785  0.5486 -0.9348
   24TCq2    C1  364   0.687   0.254  14.518  0.3749  0.0822  0.2496
   24TCq2    O2  365   0.642   0.209  14.623  0.0365 -0.1052 -0.7077
   24TCq2    C2  366   0.607   0.319  14.419 -0.3982 -0.6068 -0.3085
   24TCq2    C3  367   0.656   0.370  14.303 -0.3494 -0.1690 -0.1783
   24TCq2    C4  368   0.574   0.369  14.195 -0.2901 -0.2578 -0.0302
   24TCq2    C5  369   0.443   0.325  14.194 -0.1667 -0.1335  0.4509
   24TCq2    C6  370   0.391   0.294  14.315 -0.7595  0.0897  1.2241
   24TCq2    C7  371   0.475   0.280  14.427 -0.3647 -0.4144 -0.8174
   24TCq2    C8  372   0.251   0.267  14.341  0.9192 -0.1325 -0.4515
   24TCq2    O4  373   0.207   0.240  14.451  0.1652 -0.0287 -0.7814
   24TCq2    C9  374   0.631   0.388  14.067  0.1146  0.4330  0.3103
   24TCq2    O5  375   0.552   0.437  13.980 -0.0239 -0.1911 -0.1127
   24TCq2    O6  376   0.753   0.392  14.070  0.4929  0.2922  0.0833
   24TCq2    H2  377   0.762   0.379  14.283 -0.6789  2.2401 -0.7941
   24TCq2    H3  378   0.397   0.302  14.098 -1.2884 -1.0681  1.2189
   24TCq2    H4  379   0.435   0.223  14.510 -0.1929 -2.3193 -2.0171
   25TMC2    C1  380   0.348   2.803  11.584  0.8820 -0.2414  0.4430
   25TMC2    C2  381   0.462   2.857  11.629 -0.2183 -0.6824 -0.3349
   25TMC2    C3  382   0.466   2.899  11.757 -0.1193 -0.5809  0.0318
   25TMC2    C4  383   0.233   2.818  11.654  0.0221  0.2945 -0.6522
   25TMC2    C5  384   0.237   2.861  11.780  0.2150 -0.6462  0.3021
   25TMC2    C6  385   0.353   2.906  11.833 -0.0380  0.1167 -0.0702
   25TMC2     C  386   0.343   2.769  11.439 -0.3852 -0.2571  0.4667
   25TMC2     O  387   0.410   2.840  11.370  0.4517 -0.0549 -0.2790
   25TMC2     H  388   0.544   2.864  11.559  1.5081  0.4567  1.7781
   25TMC2    H1  389   0.142   2.785  11.606 -0.1467  0.3214 -0.3526
   25TMC2    H2  390   0.357   2.953  11.931  1.8567 -1.3909  0.5764
   25TMC2    C7  391   0.115   2.886  11.856 -0.2100  0.4831 -0.2179
   25TMC2    C8  392   0.592   2.912  11.830 -0.3425 -0.5376  0.3526
   25TMC2    O1  393   0.119   2.854  11.972  0.3246  0.1464  0.2385
   25TMC2    O2  394   0.613   2.872  11.944 -0.2532 -0.1532 -0.1380
   25TMC2    O5  395   0.679   2.929  11.738  0.4253  0.0673 -0.4863
   25TMC2    H5  396   0.634   2.975  11.664 -1.3830  0.0026  0.5901
   26MPD2     C  397   0.117   2.513  11.062 -0.8216 -0.1967 -0.0975
   26MPD2    C1  398   0.083   2.460  11.182 -0.1567  0.3506 -0.1494
   26MPD2    C2  399   0.139   2.508  11.292  0.3120  0.5546 -0.1822
   26MPD2    C3  400   0.225   2.616  11.284 -0.0633 -0.6735  0.8026
   26MPD2    C4  401   0.256   2.670  11.163  0.1184 -0.2447  0.2967
   26MPD2    C5  402   0.204   2.619  11.051 -0.2853 -0.3074 -0.1638
   26MPD2     H  403   0.111   2.466  11.388  0.5997 -2.3560 -1.3912
   26MPD2    H1  404   0.313   2.762  11.161  0.0281 -0.1740  0.9830
   26MPD2    H2  405   0.055   2.475  10.982 -1.4972 -0.3675  0.5000
   26MPD2    H3  406   0.214   2.662  10.952  3.4381 -1.5695 -0.3461
   26MPD2     N  407   0.258   2.666  11.408 -0.1621  0.7396 -0.1580
   26MPD2    H5  408   0.219   2.618  11.488  0.5934  0.0888 -0.1778
   26MPD2    N1  409   4.717   2.352  11.184  0.6620 -0.1841 -0.4125
   26MPD2    H7  410   4.677   2.311  11.101  3.6562 -1.7533 -1.1050
   27TMC2    C1  411   3.855   0.667  11.831 -0.0834  0.1399  0.3505
   27TMC2    C2  412   3.805   0.725  11.714  0.5229  0.6195  0.1668
   27TMC2    C3  413   3.889   0.811  11.643  0.6114  0.0935  0.1274
   27TMC2    C4  414   3.974   0.702  11.881  0.0899  0.0838  0.0931
   27TMC2    C5  415   4.045   0.801  11.821 -0.6020  0.2665  0.4797
   27TMC2    C6  416   4.009   0.845  11.699  0.5073 -0.0036  0.0877
   27TMC2     C  417   3.775   0.571  11.902  0.4431  0.1317  0.3173
   27TMC2     O  418   3.820   0.524  12.008 -0.0395 -0.1197  0.1508
   27TMC2     H  419   3.708   0.704  11.671 -0.5917  1.8446  2.1338
   27TMC2    H1  420   4.006   0.672  11.980 -0.9521  1.4513  0.8489
   27TMC2    H2  421   4.057   0.931  11.655 -0.8933  0.8359  0.1970
   27TMC2    C7  422   4.122   0.876  11.913  0.4500  0.3418 -0.1504
   27TMC2    C8  423   3.822   0.918  11.582 -0.0477  0.1265 -0.3133
   27TMC2    O1  424   4.197   0.817  11.994  0.3044  0.3908  0.2484
   27TMC2    O2  425   3.706   0.946  11.613 -0.3386  0.0441  0.3560
   27TMC2    O5  426   3.861   0.913  11.453 -0.0545  0.3699  0.3631
   27TMC2    H5  427   3.953   0.884  11.432  0.6287  0.9373  2.6079
   28MPD2     C  428   3.326   0.373  12.020  0.3245 -0.2440 -0.4899
   28MPD2    C1  429   3.303   0.488  11.946  0.0090  0.3863  0.2172
   28MPD2    C2  430   3.414   0.542  11.885 -0.3947 -0.0727  0.1977
   28MPD2    C3  431   3.542   0.489  11.898 -0.2431  0.0048  0.3214
   28MPD2    C4  432   3.561   0.376  11.970  0.0106  0.7430 -0.3467
   28MPD2    C5  433   3.453   0.313  12.034  0.4046  0.6681  0.0608
   28MPD2     H  434   3.398   0.632  11.827  1.4708  1.3279  1.8932
   28MPD2    H1  435   3.658   0.332  11.989 -1.9682 -3.6730 -0.3985
   28MPD2    H2  436   3.245   0.312  12.060 -1.0563  0.8152 -1.6578
   28MPD2    H3  437   3.472   0.226  12.096 -1.8360 -0.7442 -1.2265
   28MPD2     N  438   3.647   0.572  11.856  0.5576  0.0559  0.6022
   28MPD2    H5  439   3.633   0.654  11.798 -0.7754 -1.2025 -0.8613
   28MPD2    N1  440   3.174   0.538  11.946 -0.8557  0.1768  0.2445
   28MPD2    H7  441   3.100   0.487  11.992 -0.5109  1.2758  2.0400
   29MPD2     C  442   3.106   2.012  14.488 -0.3477  0.9350  0.2811
   29MPD2    C1  443   3.139   1.957  14.607 -0.3126 -0.6048 -0.9261
   29MPD2    C2  444   3.123   2.032  14.716 -0.5607  0.4664 -0.2655
   29MPD2    C3  445   3.071   2.159  14.705 -0.0938  0.2102 -0.3834
   29MPD2    C4  446   3.037   2.211  14.586 -0.2950 -0.9330  0.2445
   29MPD2    C5  447   3.061   2.138  14.478  0.1453  0.4603  0.1180
   29MPD2     H  448   3.151   1.995  14.814 -0.4360 -0.7973 -0.7832
   29MPD2    H1  449   3.011   2.316  14.586  0.0680 -0.8447 -0.6069
   29MPD2    H2  450   3.119   1.952  14.399  0.2842  1.4373  0.0262
   29MPD2    H3  451   3.022   2.187  14.389  0.5093 -1.0050 -0.8525
   29MPD2     N  452   3.055   2.244  14.817 -0.6416 -0.3800  0.0865
   29MPD2    H5  453   3.027   2.341  14.812 -0.5712 -0.2712  1.6532
   29MPD2    N1  454   3.189   1.816  14.609  0.0206  0.3510  0.6589
   29MPD2    H7  455   3.234   1.783  14.694 -1.6311 -0.6566  1.1273
   30TCq2    C1  456   3.048   2.199  14.947  0.2150  0.9193  0.2207
   30TCq2    O2  457   3.020   2.087  14.984  0.2840 -0.1996  0.2028
   30TCq2    C2  458   3.059   2.302  15.048 -0.3882 -0.3178 -0.7046
   30TCq2    C3  459   3.028   2.272  15.181  0.1054 -0.3855 -0.0938
   30TCq2    C4  460   3.008   2.369  15.272 -0.5129  1.1117 -0.4426
   30TCq2    C5  461   3.030   2.503  15.236  0.6241  0.1096 -0.4491
   30TCq2    C6  462   3.065   2.527  15.108 -0.3714  0.1639  0.8003
   30TCq2    C7  463   3.076   2.435  15.011  0.5040 -0.3328  1.1260
   30TCq2    C8  464   3.107   2.669  15.069  0.1210 -0.5073 -0.3579
   30TCq2    O4  465   3.151   2.744  15.155  0.6805  0.3162  0.3805
   30TCq2    C9  466   2.981   2.341  15.414 -0.7538 -0.1803 -0.4012
   30TCq2    O5  467   2.958   2.434  15.495 -0.0918  0.4320  0.2858
   30TCq2    O6  468   2.962   2.220  15.446 -0.1092 -0.8851 -0.7202
   30TCq2    H2  469   3.016   2.171  15.219  1.1762 -0.5908 -0.2922
   30TCq2    H3  470   3.018   2.586  15.305 -1.5216  1.9047 -2.9564
   30TCq2    H4  471   3.103   2.462  14.909 -0.3413 -0.9319  0.7379
   31MPD2     C  472   1.108   0.826  14.807  0.3859  0.4017 -0.2738
   31MPD2    C1  473   1.000   0.898  14.777 -0.3014 -0.2372  0.5920
   31MPD2    C2  474   0.884   0.883  14.858  0.3058  0.0696  0.5761
   31MPD2    C3  475   0.880   0.799  14.968  0.1174  0.0155 -0.0499
   31MPD2    C4  476   0.991   0.720  14.989 -0.9137  0.1083 -0.3036
   31MPD2    C5  477   1.101   0.748  14.915  0.2372  0.1469  0.3048
   31MPD2     H  478   0.793   0.935  14.831  0.2129 -1.9279 -2.9340
   31MPD2    H1  479   0.995   0.658  15.077 -0.1008  1.8052  0.8626
   31MPD2    H2  480   1.194   0.837  14.743 -0.0205  1.0078 -0.7176
   31MPD2    H3  481   1.195   0.698  14.936 -0.2494  0.2427  2.7701
   31MPD2     N  482   0.772   0.792  15.062 -0.0099  0.1226  0.2705
   31MPD2    H5  483   0.789   0.751  15.153  2.5967  1.9516  0.6130
   31MPD2    N1  484   1.010   1.003  14.684  0.2505  0.0350  0.4374
   31MPD2    H7  485   1.105   1.029  14.658  0.7093 -3.4587 -1.3760
   32TCq2    C1  486   0.657   0.864  15.050  0.2580 -0.9294 -0.8221
   32TCq2    O2  487   0.600   0.915  14.959 -0.2372  0.1987  0.2939
   32TCq2    C2  488   0.623   0.918  15.184 -0.0973 -0.0451 -0.3232
   32TCq2    C3  489   0.534   1.021  15.181  0.5080 -0.0378  0.2525
   32TCq2    C4  490   0.496   1.083  15.296 -0.7011 -0.0630  0.1213
   32TCq2    C5  491   0.570   1.065  15.410 -0.5839  0.1120 -0.3458
   32TCq2    C6  492   0.664   0.974  15.409  1.1880  0.1363  0.0451
   32TCq2    C7  493   0.695   0.894  15.298 -0.6607  0.0244  0.1023
   32TCq2    C8  494   0.757   0.964  15.522 -0.6468  0.0473 -0.6911
   32TCq2    O4  495   0.825   0.860  15.542 -0.7377 -0.0817 -0.0627
   32TCq2    C9  496   0.387   1.178  15.292  0.1776  0.2672  0.4748
   32TCq2    O5  497   0.394   1.281  15.370 -0.3931  0.7608  0.0370
   32TCq2    O6  498   0.296   1.155  15.210  0.2143  0.4101  0.1139
   32TCq2    H2  499   0.466   1.033  15.097 -1.6124  1.9123  2.2440
   32TCq2    H3  500   0.547   1.121  15.500  2.8101 -0.7430  1.0458
   32TCq2    H4  501   0.768   0.814  15.304  0.7059  1.3717  1.5029
   33MPD2     C  502   1.346   4.168  10.425 -0.0494  0.1281 -0.5368
   33MPD2    C1  503   1.222   4.106  10.429  0.3593  0.4533 -0.1026
   33MPD2    C2  504   1.126   4.168  10.352 -0.5237  0.0119  0.1015
   33MPD2    C3  505   1.143   4.269  10.264  0.6332  0.3437  0.5078
   33MPD2    C4  506   1.270   4.319  10.259  0.2546  0.2460  0.7967
   33MPD2    C5  507   1.373   4.263  10.331 -0.4542  0.4218 -0.5400
   33MPD2     H  508   1.029   4.121  10.362 -0.8010  0.6373  0.3070
   33MPD2    H1  509   1.294   4.402  10.193 -0.8786  0.0975  0.2033
   33MPD2    H2  510   1.436   4.135  10.476  0.3305  2.0222  0.0057
   33MPD2    H3  511   1.477   4.295  10.327 -0.0460 -0.9966 -1.3248
   33MPD2     N  512   1.045   4.312  10.167 -0.5104 -1.1106 -0.1629
   33MPD2    H5  513   1.052   4.410  10.141 -1.8297 -0.4727  1.8954
   33MPD2    N1  514   1.201   3.986  10.500 -0.0763  0.0701  0.2653
   33MPD2    H7  515   1.108   3.947  10.487 -0.8817  2.5821 -1.5598
   34TCq2    C1  516   0.926   4.248  10.154 -0.1232  0.3051 -0.6803
   34TCq2    O2  517   0.897   4.132  10.174 -0.4788 -0.0857 -0.5231
   34TCq2    C2  518   0.824   4.343  10.105  0.2822 -0.1155  0.1420
   34TCq2    C3  519   0.698   4.303  10.146 -0.1240 -0.0088  0.0647
   34TCq2    C4  520   0.597   4.393  10.117 -0.7328 -0.2867 -0.1076
   34TCq2    C5  521   0.618   4.518  10.069 -0.2608 -0.4614 -0.1661
   34TCq2    C6  522   0.751   4.556  10.054  0.0060  0.6288 -0.3283
   34TCq2    C7  523   0.856   4.471  10.074  0.7611  0.5203  0.0119
   34TCq2    C8  524   0.778   4.692  10.002 -0.2722  0.2181 -0.4075
   34TCq2    O4  525   0.888   0.018  10.021 -0.1906 -0.0519  0.4241
   34TCq2    C9  526   0.466   4.339  10.145  1.1236  0.2424 -0.6454
   34TCq2    O5  527   0.381   4.428  10.161  0.3806 -0.1263  0.0052
   34TCq2    O6  528   0.452   4.224  10.195 -0.2716 -0.4405 -0.5004
   34TCq2    H2  529   0.668   4.202  10.171 -1.1750  0.0515 -0.9899
   34TCq2    H3  530   0.530   4.578  10.053 -1.0487 -0.7604  3.1318
   34TCq2    H4  531   0.952   4.493  10.028  0.8501  0.0502 -0.0328
   35MPD2     C  532   2.419   0.616  11.101 -0.8049 -0.5249  1.0034
   35MPD2    C1  533   2.344   0.523  11.171 -0.3227  0.4651  0.2410
   35MPD2    C2  534   2.220   0.504  11.123 -0.4435  0.2710  0.4351
   35MPD2    C3  535   2.152   0.574  11.025 -0.1318 -0.0177  0.8057
   35MPD2    C4  536   2.231   0.670  10.955 -0.0424 -0.2749  1.2685
   35MPD2    C5  537   2.362   0.682  10.991 -0.3607 -0.6451  0.1045
   35MPD2     H  538   2.166   0.421  11.166  1.1641 -0.0498  1.8445
   35MPD2    H1  539   2.201   0.726  10.868  3.8517 -0.3796 -0.1609
   35MPD2    H2  540   2.522   0.635  11.126 -0.6276  1.9716 -1.5796
   35MPD2    H3  541   2.431   0.749  10.941 -1.4011  1.4140  1.3941
   35MPD2     N  542   2.018   0.547  11.002  0.0290  0.1147  0.0513
   35MPD2    H5  543   1.982   0.479  11.069  2.7905  0.1758  1.6166
   35MPD2    N1  544   2.406   0.450  11.278  0.8828 -0.3022  0.2629
   35MPD2    H7  545   2.487   0.498  11.316 -0.2397  0.8030  1.2690
   36TCq2    C1  546   1.936   0.615  10.908 -0.4276 -0.3461 -0.8647
   36TCq2    O2  547   1.961   0.729  10.865  0.4759 -0.8386 -0.4511
   36TCq2    C2  548   1.797   0.571  10.910 -0.9650  0.5186  0.2827
   36TCq2    C3  549   1.699   0.664  10.898  0.7060 -0.4806 -0.0811
   36TCq2    C4  550   1.584   0.633  10.964 -0.1779 -0.1984 -0.0042
   36TCq2    C5  551   1.552   0.519  11.020  0.8528 -0.0405  0.9298
   36TCq2    C6  552   1.645   0.424  11.019 -0.1529  0.2808 -0.5971
   36TCq2    C7  553   1.769   0.454  10.972  0.1715 -0.1098  0.2837
   36TCq2    C8  554   1.628   0.305  11.097  1.0529  0.6220 -0.8038
   36TCq2    O4  555   1.727   0.250  11.125 -0.2169  0.1520 -0.1933
   36TCq2    C9  556   1.500   0.746  10.980 -0.4370 -0.4021  0.1794
   36TCq2    O5  557   1.540   0.850  10.928  0.0978  0.3858  0.0871
   36TCq2    O6  558   1.406   0.732  11.056 -0.4117 -0.2322 -0.7838
   36TCq2    H2  559   1.718   0.764  10.859 -3.3507  0.2132 -0.2997
   36TCq2    H3  560   1.457   0.502  11.069  0.8352  0.2948  1.0106
   36TCq2    H4  561   1.851   0.384  10.969  0.1348 -0.2328  2.4945
   37TMC2    C1  562   0.117   1.157  11.411  0.0597 -0.2235  0.3522
   37TMC2    C2  563   0.133   1.203  11.284 -0.6744  0.0914  0.7397
   37TMC2    C3  564   0.267   1.233  11.249 -0.1064 -0.0209 -0.3154
   37TMC2    C4  565   0.218   1.146  11.506 -0.2697  0.8905  0.5042
   37TMC2    C5  566   0.343   1.174  11.465 -0.1088  0.9028  0.2590
   37TMC2    C6  567   0.373   1.212  11.338  0.2827 -0.3994  0.5635
   37TMC2     C  568   4.715   1.084  11.448  0.1770 -0.2466  0.2581
   37TMC2     O  569   4.614   1.126  11.390 -0.1189  0.0477 -0.0123
   37TMC2     H  570   0.059   1.207  11.205 -0.4118  0.3577  0.5075
   37TMC2    H1  571   0.199   1.120  11.610  1.6750  0.7121  0.8236
   37TMC2    H2  572   0.474   1.240  11.311 -0.3972  0.4610 -1.1049
   37TMC2    C7  573   0.446   1.146  11.565 -0.8440 -1.2518 -0.0537
   37TMC2    C8  574   0.301   1.219  11.111 -0.1625 -0.1046  0.3371
   37TMC2    O1  575   0.425   1.151  11.686  0.2080  0.6361 -0.2130
   37TMC2    O2  576   0.356   1.117  11.074 -0.7562  0.3553  0.1046
   37TMC2    O5  577   0.228   1.295  11.031 -0.2370 -0.0382  0.1653
   37TMC2    H5  578   0.185   1.366  11.083 -1.1629 -1.5483  1.4549
   38MPD2     C  579   4.467   0.787  11.790 -0.6126 -0.3282 -0.3625
   38MPD2    C1  580   4.602   0.761  11.792 -0.4457  0.4191  0.2675
   38MPD2    C2  581   4.688   0.832  11.715  0.8668  0.6198 -0.1000
   38MPD2    C3  582   4.649   0.920  11.619  0.3497  0.2295 -0.3971
   38MPD2    C4  583   4.512   0.946  11.616 -0.1530 -0.2544 -0.1329
   38MPD2    C5  584   4.426   0.874  11.696  0.3454 -0.0908  0.1066
   38MPD2     H  585   0.071   0.814  11.722  0.8514  0.8186  0.6653
   38MPD2    H1  586   4.470   1.020  11.548 -1.0581 -0.3883  0.2837
   38MPD2    H2  587   4.392   0.731  11.845 -1.3624  0.2859 -0.7539
   38MPD2    H3  588   4.321   0.898  11.703  0.7781  1.6374  0.6975
   38MPD2     N  589   0.018   0.991  11.544 -0.3537  0.9603  0.6520
   38MPD2    H5  590   0.114   0.967  11.566 -0.2969 -1.0803 -1.7918
   38MPD2    N1  591   4.665   0.672  11.891 -0.0507  0.2657 -0.3140
   38MPD2    H7  592   0.042   0.665  11.893 -0.0785  0.0388  0.2978
   39MPD2     C  593   3.573   1.726   1.250 -0.5596  0.7909 -0.0024
   39MPD2    C1  594   3.541   1.857   1.279 -0.6078  0.1747  0.1732
   39MPD2    C2  595   3.410   1.898   1.258 -0.3380 -0.5623  0.4002
   39MPD2    C3  596   3.326   1.811   1.185  0.1561  0.8645 -0.5794
   39MPD2    C4  597   3.367   1.683   1.153  0.0049 -0.1789  0.1861
   39MPD2    C5  598   3.490   1.644   1.187 -0.2627 -0.2946  0.1156
   39MPD2     H  599   3.379   2.000   1.274 -2.2065 -1.2009  0.8540
   39MPD2    H1  600   3.303   1.619   1.093  0.4846  1.3082 -1.8774
   39MPD2    H2  601   3.672   1.701   1.288 -0.8963 -1.0008 -0.3080
   39MPD2    H3  602   3.531   1.549   1.153  2.8761  1.5825 -1.3347
   39MPD2     N  603   3.196   1.864   1.148 -0.1951  0.3137 -0.1926
   39MPD2    H5  604   3.178   1.961   1.173 -1.3877 -0.2060  0.9376
   39MPD2    N1  605   3.642   1.942   1.338  0.5971  0.5130 -1.2372
   39MPD2    H7  606   3.735   1.909   1.363 -0.3853 -0.4300  1.0860
   40TCq2    C1  607   3.620   2.060   1.409  0.3429 -0.3192 -0.3046
   40TCq2    O2  608   3.508   2.106   1.434 -0.0884 -0.3665  0.5956
   40TCq2    C2  609   3.741   2.107   1.474  0.3167  0.1701  0.1547
   40TCq2    C3  610   3.718   2.194   1.577 -0.6238 -0.0805  0.3377
   40TCq2    C4  611   3.819   2.264   1.635  0.1635  0.0521  0.2617
   40TCq2    C5  612   3.945   2.252   1.579  0.4424 -0.0250  0.4871
   40TCq2    C6  613   3.966   2.169   1.467  0.4206  0.4178  0.9380
   40TCq2    C7  614   3.871   2.091   1.421 -0.4876  0.3414 -0.6510
   40TCq2    C8  615   4.102   2.130   1.436 -0.2530  0.9269  0.4241
   40TCq2    O4  616   4.128   2.021   1.390 -0.3158  0.2898 -0.4413
   40TCq2    C9  617   3.799   2.343   1.756  0.3535  0.5206 -1.0250
   40TCq2    O5  618   3.677   2.374   1.780  0.3260  0.4752  0.1703
   40TCq2    O6  619   3.903   2.371   1.821 -0.0922  0.0929  0.1311
   40TCq2    H2  620   3.616   2.194   1.615 -0.5515 -2.0035  0.5122
   40TCq2    H3  621   4.024   2.309   1.627 -0.9109  0.9904  1.5001
   40TCq2    H4  622   3.887   2.023   1.339 -0.6169  0.8256 -1.0770
   41TMC2    C1  623   1.757   4.676  13.598 -0.8821 -0.5445  0.0934
   41TMC2    C2  624   1.876   4.605  13.584  0.1914  0.0587  0.2608
   41TMC2    C3  625   1.952   4.643  13.476  0.2140  0.6198  0.6961
   41TMC2    C4  626   1.719   0.050  13.513  0.2362 -0.1768 -0.1374
   41TMC2    C5  627   1.806   0.091  13.415 -0.3891  0.4326  0.5169
   41TMC2    C6  628   1.923   0.025  13.394  0.2584  0.3086 -0.2570
   41TMC2     C  629   1.653   4.616  13.673  0.2147  0.0274 -0.0057
   41TMC2     O  630   1.539   4.629  13.627 -0.0963  0.1514 -0.5481
   41TMC2     H  631   1.899   4.509  13.628 -0.1181  0.2600  0.8594
   41TMC2    H1  632   1.616   0.084  13.513  0.6895  1.2587 -2.7680
   41TMC2    H2  633   1.978   0.048  13.304 -1.5396  0.3435 -1.3585
   41TMC2    C7  634   1.738   0.148  13.293 -0.1132 -0.6474 -0.4902
   41TMC2    C8  635   2.063   4.555  13.430 -0.2315 -0.7658  0.1433
   41TMC2    O1  636   1.621   0.106  13.278  0.2165  0.5234  0.2973
   41TMC2    O2  637   2.161   4.530  13.493  0.0732 -0.1646  0.6791
   41TMC2    O5  638   2.065   4.553  13.298 -0.4256  0.1742 -0.1989
   41TMC2    H5  639   1.976   4.566  13.258  0.0547  0.6953 -1.0968
   42MPD2     C  640   1.492   4.419  13.831 -0.7484 -0.7168  0.3938
   42MPD2    C1  641   1.618   4.461  13.861  0.2063 -0.5348 -0.4237
   42MPD2    C2  642   1.669   4.433  13.989  0.0621  0.6969  0.1951
   42MPD2    C3  643   1.580   4.397  14.092  0.0483 -0.0015 -0.2107
   42MPD2    C4  644   1.449   4.364  14.066 -0.5830 -0.6237  0.4756
   42MPD2    C5  645   1.409   4.374  13.933  0.7060 -0.0127  0.5099
   42MPD2     H  646   1.767   4.474  14.010  0.4274  0.6930 -1.5400
   42MPD2    H1  647   1.387   4.318  14.142  0.1116 -0.0700  1.3662
   42MPD2    H2  648   1.446   4.434  13.734 -1.6040  1.4131  1.1412
   42MPD2    H3  649   1.305   4.352  13.911  1.0096 -0.6163 -0.3008
   42MPD2     N  650   1.632   4.400  14.227 -0.0316  0.2002 -0.1504
   42MPD2    H5  651   1.563   4.371  14.297  0.0061  0.0660 -0.1677
   42MPD2    N1  652   1.697   4.531  13.770  0.5079  0.3045 -0.2344
   42MPD2    H7  653   1.795   4.541  13.796  0.5148 -2.4411  0.7834
   43MPD2     C  654   4.513   3.517   1.397 -0.2329 -0.5370  0.2066
   43MPD2    C1  655   4.423   3.482   1.306  1.0072  0.5054 -0.6293
   43MPD2    C2  656   4.294   3.520   1.325 -0.3714  0.6816  0.1536
   43MPD2    C3  657   4.262   3.594   1.444  0.1286  0.2470 -0.2599
   43MPD2    C4  658   4.360   3.627   1.531  0.0748  0.1627 -0.7304
   43MPD2    C5  659   4.482   3.581   1.511 -0.4337 -0.6160 -0.0653
   43MPD2     H  660   4.209   3.483   1.267 -0.7407 -0.9036  1.7104
   43MPD2    H1  661   4.342   3.680   1.624  0.1646 -2.4778  0.7961
   43MPD2    H2  662   4.617   3.486   1.390 -0.5390 -1.6754  0.6525
   43MPD2    H3  663   4.561   3.606   1.580  1.9099 -0.2041 -2.9256
   43MPD2     N  664   4.128   3.629   1.477 -0.5417  0.0961  0.0789
   43MPD2    H5  665   4.119   3.664   1.572  0.8026  2.6687 -0.7322
   43MPD2    N1  666   4.445   3.414   1.178  0.2803  0.3453  0.1199
   43MPD2    H7  667   4.362   3.417   1.120 -0.7710 -0.3973  1.5939
   44TCq2    C1  668   3.748   3.766   1.743 -0.4978  0.7975  0.4171
   44TCq2    O2  669   3.849   3.793   1.809  0.4392 -0.8783  0.0967
   44TCq2    C2  670   3.760   3.735   1.603  0.8530 -0.2121  0.3105
   44TCq2    C3  671   3.653   3.719   1.519 -0.2713  0.3849  1.0212
   44TCq2    C4  672   3.670   3.671   1.394 -0.1769  0.2707  0.0461
   44TCq2    C5  673   3.791   3.616   1.363 -0.1584 -0.0770 -0.3957
   44TCq2    C6  674   3.897   3.638   1.445 -0.1799  0.0889 -0.6253
   44TCq2    C7  675   3.888   3.704   1.562 -0.4049 -0.2060 -1.0844
   44TCq2    C8  676   4.021   3.609   1.388 -0.3398 -0.0311 -0.6807
   44TCq2    O4  677   4.019   3.572   1.267  0.1940  0.3019 -0.5225
   44TCq2    C9  678   3.557   3.657   1.304 -0.2237 -0.1730 -0.2062
   44TCq2    O5  679   3.589   3.608   1.192  0.0826  0.7395  0.5772
   44TCq2    O6  680   3.448   3.711   1.346  0.0149 -0.0131  0.0925
   44TCq2    H2  681   3.560   3.769   1.544  0.3048  1.1944  1.5455
   44TCq2    H3  682   3.804   3.567   1.268 -0.7278 -0.5530 -0.2328
   44TCq2    H4  683   3.971   3.696   1.632 -1.4154 -0.6890  0.0638
   45TMC2    C1  684   3.779   1.774   9.149 -0.1902  0.6958 -0.0970
   45TMC2    C2  685   3.725   1.825   9.028 -0.3486 -0.1926  0.3325
   45TMC2    C3  686   3.796   1.921   8.962 -0.0783 -0.7476  0.4731
   45TMC2    C4  687   3.901   1.817   9.195  0.5227 -0.1382 -0.1820
   45TMC2    C5  688   3.966   1.908   9.119  0.4287 -0.3553  0.3517
   45TMC2    C6  689   3.923   1.962   8.999  0.5182 -0.0393 -0.0024
   45TMC2     C  690   3.750   1.635   9.183  0.0590 -0.7310  0.5181
   45TMC2     O  691   3.842   1.566   9.225 -0.1534  0.3533 -0.0255
   45TMC2     H  692   3.633   1.781   8.994  0.5715  0.3067 -2.7887
   45TMC2    H1  693   3.951   1.767   9.277  0.8948  0.5038 -0.0201
   45TMC2    H2  694   3.990   2.027   8.945 -0.6790 -0.8355 -2.4225
   45TMC2    C7  695   4.058   1.992   9.197 -0.4133 -0.6106 -0.2211
   45TMC2    C8  696   3.758   1.951   8.824  0.7549  0.4442 -0.2358
   45TMC2    O1  697   4.130   2.058   9.127 -0.4268 -0.3135 -0.2312
   45TMC2    O2  698   3.704   1.873   8.750 -0.6139 -0.4741  1.1834
   45TMC2    O5  699   3.744   2.086   8.813 -0.4014 -0.3418  0.1157
   45TMC2    H5  700   3.766   2.133   8.897  0.2589 -1.4978  0.6010
   46MPD2     C  701   3.619   1.356   9.194 -0.7693  1.1309 -0.1011
   46MPD2    C1  702   3.557   1.479   9.163 -1.0445  0.4492  0.3224
   46MPD2    C2  703   3.425   1.471   9.132  0.0680  0.4782  0.4837
   46MPD2    C3  704   3.359   1.349   9.141  0.2899 -0.0927 -0.1536
   46MPD2    C4  705   3.421   1.226   9.163 -0.4372 -0.5988 -0.0873
   46MPD2    C5  706   3.554   1.232   9.182 -0.5565 -0.2003  0.6349
   46MPD2     H  707   3.374   1.566   9.119  0.6851  0.9405  1.4298
   46MPD2    H1  708   3.364   1.135   9.157  1.5329 -1.7033 -1.9520
   46MPD2    H2  709   3.725   1.347   9.216 -0.5186  4.1962 -0.1502
   46MPD2    H3  710   3.620   1.149   9.204 -0.6885 -0.2797  0.7328
   46MPD2     N  711   3.217   1.368   9.136  0.6289 -0.1926  0.3753
   46MPD2    H5  712   3.176   1.461   9.126  1.4102  0.2814  1.6023
   46MPD2    N1  713   3.620   1.606   9.163 -0.0187  0.2291 -0.0119
   46MPD2    H7  714   3.569   1.690   9.138  0.6990  0.3149 -1.1629
   47TMC2    C1  715   1.096   2.232   9.074  0.0569  0.1128  0.4643
   47TMC2    C2  716   1.125   2.190   9.198  0.8802 -0.1740  0.0122
   47TMC2    C3  717   1.028   2.197   9.295 -0.6756  0.3482 -0.3800
   47TMC2    C4  718   0.992   2.310   9.042  0.0957  0.1948 -0.1023
   47TMC2    C5  719   0.903   2.331   9.143  0.8640 -0.1964  0.6592
   47TMC2    C6  720   0.905   2.259   9.263 -0.0341 -0.0240  0.2595
   47TMC2     C  721   1.175   2.175   8.965 -0.0093 -0.7756  0.1407
   47TMC2     O  722   1.210   2.247   8.875  0.1900 -0.1870  0.0280
   47TMC2     H  723   1.217   2.139   9.225  0.6963  0.7093  2.2788
   47TMC2    H1  724   0.974   2.340   8.939  0.7714 -0.4593 -0.4168
   47TMC2    H2  725   0.830   2.270   9.340 -0.4993  0.2337 -0.2323
   47TMC2    C7  726   0.800   2.426   9.130  0.2707  0.4905  0.0967
   47TMC2    C8  727   1.038   2.116   9.414 -0.3706  0.5013  1.0056
   47TMC2    O1  728   0.708   2.406   9.207  0.3687  0.5504 -0.1039
   47TMC2    O2  729   1.126   2.026   9.416  0.5623  0.5231 -0.0038
   47TMC2    O5  730   0.992   2.177   9.526 -0.4413  0.0192 -0.1836
   47TMC2    H5  731   0.934   2.253   9.506 -1.8152 -1.3937 -1.5845
   48MPD2     C  732   1.434   2.058   8.862  0.6648 -0.5213  0.4559
   48MPD2    C1  733   1.354   2.007   8.968 -0.3251  0.2573 -0.0308
   48MPD2    C2  734   1.399   1.902   9.042 -0.5880 -0.6277 -0.3478
   48MPD2    C3  735   1.519   1.836   9.012  0.2037  0.0213 -0.3313
   48MPD2    C4  736   1.601   1.892   8.911  0.4333 -0.1424 -0.0310
   48MPD2    C5  737   1.553   1.996   8.837 -0.3636 -0.0611 -0.7128
   48MPD2     H  738   1.333   1.866   9.120 -0.4316  0.8213  0.4533
   48MPD2    H1  739   1.696   1.844   8.892  0.2931 -0.5803  0.3719
   48MPD2    H2  740   1.393   2.133   8.795 -0.1190 -0.8035  0.6226
   48MPD2    H3  741   1.617   2.026   8.754  0.1668  2.4169  0.5904
   48MPD2     N  742   1.549   1.713   9.071  0.0542  0.3245  0.6452
   48MPD2    H5  743   1.469   1.670   9.117 -0.4927  0.9181  0.2466
   48MPD2    N1  744   1.228   2.059   9.008  0.5868  0.1032  0.1878
   48MPD2    H7  745   1.178   2.013   9.084 -1.5503  0.7201 -0.8350
   49MPD2     C  746   3.849   3.813   9.683  0.2158  0.4531  0.5316
   49MPD2    C1  747   3.812   3.721   9.779 -0.2593  0.1675 -0.5171
   49MPD2    C2  748   3.876   3.742   9.897 -0.1894  0.3867  0.5263
   49MPD2    C3  749   3.973   3.839   9.916 -0.3583  0.0353 -0.0111
   49MPD2    C4  750   4.010   3.918   9.811  0.3105  0.1832 -0.2410
   49MPD2    C5  751   3.945   3.908   9.695 -0.4670 -0.0056  0.7654
   49MPD2     H  752   3.856   3.668   9.974  1.0328 -0.5966 -0.0976
   49MPD2    H1  753   4.097   3.982   9.816  2.3888 -2.6115 -0.4399
   49MPD2    H2  754   3.806   3.811   9.583 -1.5971 -1.5118  1.3505
   49MPD2    H3  755   3.970   3.988   9.625 -0.3793  0.6980  1.6026
   49MPD2     N  756   4.050   3.855  10.033  0.5254  0.2947 -0.4148
   49MPD2    H5  757   4.127   3.921  10.030  1.3493 -0.6387  0.3853
   49MPD2    N1  758   3.717   3.611   9.750  0.3684  0.1688 -0.1047
   49MPD2    H7  759   3.697   3.554   9.831  0.8008 -0.6867 -0.5901
   50TCq2    C1  760   3.638   3.600   9.634  0.3745 -0.4812 -0.2669
   50TCq2    O2  761   3.641   3.666   9.530 -0.4314  0.0726 -0.4489
   50TCq2    C2  762   3.535   3.491   9.637  0.3863 -0.4171 -0.5687
   50TCq2    C3  763   3.420   3.521   9.574  0.0006 -0.1847 -0.3133
   50TCq2    C4  764   3.311   3.440   9.587 -0.0352 -0.5338  0.3518
   50TCq2    C5  765   3.315   3.327   9.656 -0.0484  0.1128 -0.5224
   50TCq2    C6  766   3.436   3.299   9.718 -0.6043  0.3299  0.4352
   50TCq2    C7  767   3.550   3.380   9.712  0.0212  0.2528  0.0256
   50TCq2    C8  768   3.443   3.169   9.787  0.0743 -0.0650 -0.0298
   50TCq2    O4  769   3.347   3.095   9.778  0.7230 -0.2945  0.2473
   50TCq2    C9  770   3.197   3.466   9.508 -0.3539  0.3026 -0.0447
   50TCq2    O5  771   3.200   3.575   9.445 -0.0607  0.3196 -0.1176
   50TCq2    O6  772   3.129   3.368   9.479 -0.3183  0.2236 -0.0179
   50TCq2    H2  773   3.414   3.610   9.513 -0.4088 -0.3727 -0.5451
   50TCq2    H3  774   3.227   3.264   9.651  0.3863 -0.5126 -0.1887
   50TCq2    H4  775   3.646   3.353   9.754 -0.6248 -3.1692 -0.6751
   51MPD2     C  776   1.443   1.283   1.160  0.2947  0.6422 -0.9103
   51MPD2    C1  777   1.316   1.234   1.154 -0.5075 -0.0103 -0.5032
   51MPD2    C2  778   1.245   1.229   1.274 -0.0978  0.1963  0.0484
   51MPD2    C3  779   1.298   1.266   1.398  0.0458  0.2196  0.0593
   51MPD2    C4  780   1.426   1.306   1.398  0.1031  0.9111  0.2850
   51MPD2    C5  781   1.494   1.318   1.281  0.0649  0.0031 -0.5780
   51MPD2     H  782   1.145   1.187   1.271  0.0370 -0.0473 -0.9525
   51MPD2    H1  783   1.475   1.338   1.489  0.8635  1.0540 -0.1798
   51MPD2    H2  784   1.504   1.295   1.071  0.8099 -1.7938 -0.8978
   51MPD2    H3  785   1.600   1.342   1.278 -0.4306  2.1551 -0.6473
   51MPD2     N  786   1.231   1.243   1.520 -0.1600 -0.0035 -0.5141
   51MPD2    H5  787   1.289   1.243   1.604 -0.0008  0.4984 -0.6252
   51MPD2    N1  788   1.257   1.188   1.034 -0.1820  0.5445  0.3447
   51MPD2    H7  789   1.162   1.150   1.037 -0.7072  1.7002 -1.6491
   52TCq2    C1  790   1.102   1.200   1.533  0.1228  0.8191  0.0791
   52TCq2    O2  791   1.006   1.226   1.459 -0.7897  0.3114  0.1140
   52TCq2    C2  792   1.072   1.164   1.672 -0.6883 -0.0042  0.2738
   52TCq2    C3  793   0.940   1.159   1.714  0.1513  0.7121  0.3945
   52TCq2    C4  794   0.916   1.122   1.844  0.0153  0.3925 -0.1305
   52TCq2    C5  795   1.015   1.101   1.931  0.2358 -0.3699  0.1636
   52TCq2    C6  796   1.146   1.085   1.881  0.1012  0.4440 -0.3734
   52TCq2    C7  797   1.178   1.125   1.753 -0.2719  0.5175  0.0391
   52TCq2    C8  798   1.254   1.091   1.976 -0.5165  0.6624 -0.9329
   52TCq2    O4  799   1.358   1.135   1.935 -0.4189  0.3392  0.5314
   52TCq2    C9  800   0.780   1.129   1.891  0.0282  0.2268 -0.4661
   52TCq2    O5  801   0.767   1.129   2.013 -0.2393  0.6070  0.0208
   52TCq2    O6  802   0.694   1.160   1.805 -0.6854  0.1079  0.1966
   52TCq2    H2  803   0.858   1.176   1.644 -0.2537  1.8430  1.1435
   52TCq2    H3  804   0.999   1.121   2.037 -0.4408 -1.0152  0.1822
   52TCq2    H4  805   1.278   1.109   1.714 -0.4232 -1.7562  0.5704
   53TMC2    C1  806   0.791   0.807  12.098 -0.1113  0.5593 -0.3457
   53TMC2    C2  807   0.869   0.776  12.203 -0.0755 -0.2974 -0.1921
   53TMC2    C3  808   0.812   0.743  12.325 -0.5784 -0.9476 -0.0541
   53TMC2    C4  809   0.658   0.806  12.111 -0.3469 -0.2920  0.5311
   53TMC2    C5  810   0.612   0.774  12.236 -0.3874  0.5330 -0.3391
   53TMC2    C6  811   0.681   0.749  12.350 -0.2339  0.6422 -0.0973
   53TMC2     C  812   0.857   0.840  11.975 -0.4060 -0.1656  0.1357
   53TMC2     O  813   0.970   0.798  11.949  0.7338  0.2093 -0.1127
   53TMC2     H  814   0.977   0.769  12.193 -0.0180 -0.9317  0.7765
   53TMC2    H1  815   0.583   0.824  12.035  0.3915  0.3875 -0.0235
   53TMC2    H2  816   0.641   0.744  12.451 -0.0443  1.2475  0.0097
   53TMC2    C7  817   0.469   0.766  12.244 -0.0473  0.7294 -0.9816
   53TMC2    C8  818   0.903   0.716  12.440 -0.4356 -0.7043 -0.0957
   53TMC2    O1  819   0.407   0.839  12.170  0.2133 -0.3410  1.2044
   53TMC2    O2  820   0.913   0.774  12.547 -0.3124  0.2017 -0.0253
   53TMC2    O5  821   1.000   0.630  12.394 -0.3342  0.5503  0.0641
   53TMC2    H5  822   0.969   0.578  12.317  0.6678 -0.9636  0.6753
   54MPD2     C  823   0.899   0.915  11.686  0.4793 -0.0531  0.1154
   54MPD2    C1  824   0.796   0.961  11.767  0.3293 -0.3444 -0.4048
   54MPD2    C2  825   0.687   1.029  11.705  0.2797  0.0744  0.6755
   54MPD2    C3  826   0.680   1.055  11.571  0.1635 -0.4094  0.0865
   54MPD2    C4  827   0.789   1.016  11.494 -0.4052 -0.0193  0.4581
   54MPD2    C5  828   0.891   0.942  11.546  0.1112 -0.5719 -0.1089
   54MPD2     H  829   0.601   1.044  11.769 -1.1944  2.0610 -1.7950
   54MPD2    H1  830   0.782   1.020  11.386  0.4754  1.3799  0.4396
   54MPD2    H2  831   0.972   0.842  11.717  0.2902  1.4978  4.2690
   54MPD2    H3  832   0.966   0.898  11.482 -0.8226 -1.4712 -0.5812
   54MPD2     N  833   0.568   1.109  11.502  0.5738  0.2100  0.1367
   54MPD2    H5  834   0.572   1.123  11.402 -0.0237  1.9683  0.3710
   54MPD2    N1  835   0.776   0.924  11.904 -0.7826 -0.4441  0.2840
   54MPD2    H7  836   0.691   0.957  11.948 -0.2909 -0.1046  0.9825
   55MPD2     C  837   1.464   3.147  17.527  0.1809  0.1185  0.9575
   55MPD2    C1  838   1.438   3.049  17.621  0.5539  0.0465  0.2889
   55MPD2    C2  839   1.360   3.090   0.035  0.0222  0.4448 -0.7944
   55MPD2    C3  840   1.318   3.222   0.049 -0.0666 -0.1450 -0.5261
   55MPD2    C4  841   1.348   3.314  17.648 -0.3135 -0.1010 -0.4741
   55MPD2    C5  842   1.430   3.280  17.544 -0.3940  0.5630 -1.1383
   55MPD2     H  843   1.339   3.015   0.111 -1.1018  0.5809 -0.9736
   55MPD2    H1  844   1.326   3.420  17.659 -2.6323 -0.4398 -1.7190
   55MPD2    H2  845   1.518   3.138  17.433  0.5303  0.6670  1.1060
   55MPD2    H3  846   1.455   3.342  17.459 -0.8007  0.4355 -1.3510
   55MPD2     N  847   1.247   3.268   0.168 -0.9012 -0.4002 -0.0463
   55MPD2    H5  848   1.249   3.202   0.246  0.0627 -0.4935 -0.1423
   55MPD2    N1  849   1.489   2.920  17.606 -0.1310  0.0147  0.2244
   55MPD2    H7  850   1.527   2.894  17.516 -2.6248  1.0426 -1.1242
   56TCq2    C1  851   1.506   2.824   0.010 -0.1414  0.2792  0.0345
   56TCq2    O2  852   1.487   2.833   0.133  0.4309  0.0588 -0.4508
   56TCq2    C2  853   1.560   2.697  17.651  0.1520 -0.4139 -0.4091
   56TCq2    C3  854   1.559   2.671  17.512  0.2857  0.9560 -0.2104
   56TCq2    C4  855   1.569   2.543  17.477 -0.2993  0.7124  0.3700
   56TCq2    C5  856   1.588   2.438  17.565 -0.2853  0.3592 -0.5607
   56TCq2    C6  857   1.586   2.462  17.696  0.7595 -0.7855  0.2570
   56TCq2    C7  858   1.568   2.593   0.043 -0.4802 -0.1673 -0.0776
   56TCq2    C8  859   1.581   2.348   0.089  0.4773 -1.0711 -0.0392
   56TCq2    O4  860   1.596   2.239   0.035 -0.8390  0.2702 -0.0552
   56TCq2    C9  861   1.553   2.514  17.342  0.1186 -0.5405 -0.5398
   56TCq2    O5  862   1.533   2.399  17.303  0.0902  0.0697  0.4583
   56TCq2    O6  863   1.575   2.610  17.262  0.0190  0.5547 -0.3376
   56TCq2    H2  864   1.539   2.743  17.434  1.7814  0.3056 -1.1814
   56TCq2    H3  865   1.593   2.335  17.531  0.6276  0.9947 -2.3890
   56TCq2    H4  866   1.561   2.620   0.147 -1.4783 -1.4816  0.1993
   57TMC2    C1  867   0.567   4.187  13.837 -1.0172  0.0952 -0.1825
   57TMC2    C2  868   0.617   4.139  13.955 -0.0638 -0.7307 -0.4597
   57TMC2    C3  869   0.733   4.070  13.947  0.1759  0.5462  1.0650
   57TMC2    C4  870   0.635   4.166  13.722 -0.2429  0.9715  0.3609
   57TMC2    C5  871   0.755   4.105  13.715  0.1551 -0.7023 -0.8461
   57TMC2    C6  872   0.805   4.047  13.830  0.8676  0.2894 -0.2311
   57TMC2     C  873   0.437   4.251  13.831  0.0893  0.3418  0.5344
   57TMC2     O  874   0.364   4.227  13.928  0.4306 -0.1993  0.2839
   57TMC2     H  875   0.564   4.144  14.050 -1.5413 -1.8821 -1.2241
   57TMC2    H1  876   0.601   4.193  13.622 -1.7162 -2.6450 -0.0943
   57TMC2    H2  877   0.884   3.973  13.829  2.2160  1.7600 -0.2774
   57TMC2    C7  878   0.821   4.084  13.590  0.5974 -0.3609  0.7467
   57TMC2    C8  879   0.754   3.983  14.057 -0.3152  0.5401 -0.0453
   57TMC2    O1  880   0.790   4.165  13.505 -0.3057  0.2912  0.4073
   57TMC2    O2  881   0.827   3.884  14.047  0.1390  0.1723  0.2739
   57TMC2    O5  882   0.778   4.078  14.154  0.1556 -0.1814 -0.1117
   57TMC2    H5  883   0.755   4.171  14.132 -1.3508 -0.7084 -0.7583
   58MPD2     C  884   0.119   4.612  13.650 -0.4055 -0.3282 -0.0618
   58MPD2    C1  885   0.113   4.536  13.766 -0.4310  0.0039  0.5436
   58MPD2    C2  886   0.207   4.442  13.794  0.4594  0.3563  0.3002
   58MPD2    C3  887   0.317   4.437  13.711 -0.1801 -0.3709 -0.5258
   58MPD2    C4  888   0.329   4.511  13.604  0.7967 -0.2540 -0.0530
   58MPD2    C5  889   0.226   4.598  13.571  0.3220  0.3301  0.3382
   58MPD2     H  890   0.205   4.383  13.884  0.5434 -0.9020 -0.5218
   58MPD2    H1  891   0.408   4.489  13.533 -0.2139 -1.0273 -0.9472
   58MPD2    H2  892   0.043   4.686  13.627  0.0392  0.6455  1.5759
   58MPD2    H3  893   0.238   4.665  13.486 -0.2435 -1.7424 -1.3657
   58MPD2     N  894   0.427   4.348  13.736  0.3137  0.2084  0.0357
   58MPD2    H5  895   0.508   4.360  13.675 -1.6067  0.9560 -2.3494
   58MPD2    N1  896   0.006   4.554  13.852  0.3098  0.3730  0.0931
   58MPD2    H7  897   4.674   4.636  13.830  0.9195  1.0094  0.9055
   59MPD2     C  898   2.936   4.630  12.456 -0.4017 -0.2216  0.3754
   59MPD2    C1  899   2.910   4.506  12.523  0.2435 -0.1095  0.2606
   59MPD2    C2  900   2.961   4.485  12.650  0.4772  1.0939  0.0695
   59MPD2    C3  901   3.053   4.580  12.699  0.4334  0.2134 -0.5810
   59MPD2    C4  902   3.052   4.707  12.647  0.2702  0.2360  0.2011
   59MPD2    C5  903   3.006   0.009  12.526 -0.0635  0.0206 -0.2326
   59MPD2     H  904   2.938   4.392  12.701 -0.5032  0.8681 -0.7915
   59MPD2    H1  905   3.098   0.059  12.709  0.2211 -1.4589  2.3172
   59MPD2    H2  906   2.910   4.647  12.352  0.8967 -2.3338 -0.3011
   59MPD2    H3  907   3.025   0.108  12.487 -0.9291 -0.1191 -1.0275
   59MPD2     N  908   3.133   4.572  12.818 -0.3418 -0.1031  0.3247
   59MPD2    H5  909   3.185   4.651  12.854  1.1094 -1.0152  0.2733
   59MPD2    N1  910   2.824   4.405  12.469  0.9329  0.0027 -0.3481
   59MPD2    H7  911   2.806   4.317  12.517 -0.2225  1.1724  1.3523
   60TCq2    C1  912   2.765   4.421  12.345  0.1008  0.1080 -0.0031
   60TCq2    O2  913   2.771   4.511  12.261 -0.1031 -0.0972 -0.4414
   60TCq2    C2  914   2.675   4.313  12.320  0.3651 -0.2088  0.1111
   60TCq2    C3  915   2.681   4.187  12.385 -0.1659  0.1311 -0.6005
   60TCq2    C4  916   2.575   4.108  12.374  0.2586  0.5688  0.8705
   60TCq2    C5  917   2.458   4.152  12.309  0.1255 -0.4311  0.2258
   60TCq2    C6  918   2.454   4.277  12.250  0.0517 -0.5702 -0.2673
   60TCq2    C7  919   2.565   4.360  12.252 -0.2429 -0.3110  1.0673
   60TCq2    C8  920   2.327   4.336  12.218 -0.1187 -0.4205  0.4842
   60TCq2    O4  921   2.233   4.313  12.291 -0.4006 -0.5399  0.1591
   60TCq2    C9  922   2.567   3.974  12.431 -0.6423  0.2176 -0.6916
   60TCq2    O5  923   2.622   3.965  12.544 -0.2863 -0.2200 -0.6582
   60TCq2    O6  924   2.491   3.893  12.370 -0.2343 -0.0310  0.3260
   60TCq2    H2  925   2.766   4.157  12.446  0.7641  3.3918 -0.3151
   60TCq2    H3  926   2.372   4.086  12.303 -0.1813 -0.0631  0.5987
   60TCq2    H4  927   2.564   4.465  12.226 -0.0165 -0.3114  1.0544
   61MPD2     C  928   2.355   0.661  15.518  0.3760  0.7787  0.0255
   61MPD2    C1  929   2.241   0.611  15.454 -0.1115  0.2288  0.2364
   61MPD2    C2  930   2.235   0.609  15.319  0.0787 -0.0590  0.1875
   61MPD2    C3  931   2.327   0.688  15.244 -0.1655  0.6318 -0.5055
   61MPD2    C4  932   2.440   0.740  15.305 -0.1483 -0.3310  0.1162
   61MPD2    C5  933   2.454   0.732  15.443 -0.3305  0.1487  0.0311
   61MPD2     H  934   2.156   0.561  15.262 -0.0600  2.8700 -2.1173
   61MPD2    H1  935   2.509   0.808  15.257 -0.2054  0.3181  0.9653
   61MPD2    H2  936   2.376   0.656  15.625  1.2299  0.2965 -0.1685
   61MPD2    H3  937   2.542   0.759  15.500  0.3153 -0.7853 -0.5284
   61MPD2     N  938   2.300   0.738  15.116  0.4202 -0.1125  0.2038
   61MPD2    H5  939   2.366   0.797  15.066  0.0812  0.6440  0.6595
   61MPD2    N1  940   2.141   0.556  15.541 -0.4398 -0.2735  0.0852
   61MPD2    H7  941   2.165   0.552  15.640  1.9397  1.3318 -0.4346
   62TCq2    C1  942   2.018   0.508  15.500  0.6818 -0.9791 -0.0201
   62TCq2    O2  943   1.947   0.429  15.560 -0.5732  0.5987  0.1310
   62TCq2    C2  944   1.961   0.556  15.377  0.4926  0.8521 -0.1609
   62TCq2    C3  945   1.868   0.469  15.316 -0.2607  0.0812 -0.0655
   62TCq2    C4  946   1.790   0.515  15.214 -0.3312 -0.2570  0.5363
   62TCq2    C5  947   1.785   0.648  15.189  0.8888 -0.1045 -0.7223
   62TCq2    C6  948   1.862   0.739  15.261 -0.0864  0.6084 -0.2608
   62TCq2    C7  949   1.948   0.693  15.358  0.5761  0.2547  0.0094
   62TCq2    C8  950   1.889   0.874  15.202 -0.3217  0.1809  0.2376
   62TCq2    O4  951   1.972   0.937  15.267 -0.7315  0.1457 -0.7245
   62TCq2    C9  952   1.707   0.433  15.137  0.0819  0.4477  0.0042
   62TCq2    O5  953   1.650   0.489  15.045  0.0079 -0.9590  0.2296
   62TCq2    O6  954   1.731   0.313  15.150  0.0724 -0.3093 -0.0429
   62TCq2    H2  955   1.869   0.362  15.332 -2.0811 -0.0239 -0.6320
   62TCq2    H3  956   1.707   0.679  15.121  0.6355 -0.1134 -0.4336
   62TCq2    H4  957   1.995   0.770  15.419  1.3183 -0.7500  0.7058
   63TMC2    C1  958   1.418   1.140  10.725 -0.0060 -0.1860  0.2288
   63TMC2    C2  959   1.511   1.105  10.818  0.2270  0.1713 -0.5143
   63TMC2    C3  960   1.641   1.144  10.799 -0.4094 -0.5963  0.5769
   63TMC2    C4  961   1.465   1.214  10.620 -0.0643 -0.1814  0.2623
   63TMC2    C5  962   1.592   1.242  10.596 -0.5757 -0.0587 -0.1325
   63TMC2    C6  963   1.684   1.205  10.684  0.9096  0.2302 -0.1117
   63TMC2     C  964   1.309   1.050  10.698 -0.4515  0.3716  0.1964
   63TMC2     O  965   1.220   1.097  10.632  0.0820 -0.1185 -0.2729
   63TMC2     H  966   1.490   1.056  10.913 -0.5594 -0.8724 -1.2295
   63TMC2    H1  967   1.393   1.246  10.545  2.0327  0.8190 -1.3099
   63TMC2    H2  968   1.790   1.224  10.673  0.5949  1.2453 -1.3602
   63TMC2    C7  969   1.633   1.307  10.472  0.1533 -1.0371  0.1602
   63TMC2    C8  970   1.741   1.133  10.906 -0.0610 -0.6805 -0.2130
   63TMC2    O1  971   1.550   1.321  10.383  0.5192 -0.2259 -0.2668
   63TMC2    O2  972   1.841   1.206  10.913 -0.1234  0.1679 -0.8175
   63TMC2    O5  973   1.726   1.013  10.968  0.3551 -0.2972  0.4007
   63TMC2    H5  974   1.653   0.954  10.943 -0.5352 -0.5673  3.6506
   64MPD2     C  975   1.227   0.581  10.523 -0.7135  0.0041  0.0550
   64MPD2    C1  976   1.346   0.584  10.584  0.3516 -0.3494  0.5220
   64MPD2    C2  977   1.380   0.702  10.637 -0.1638 -0.1127  0.4045
   64MPD2    C3  978   1.297   0.814  10.640  0.2007  0.6388  0.0238
   64MPD2    C4  979   1.184   0.814  10.562  0.5436  0.0311  0.0623
   64MPD2    C5  980   1.153   0.697  10.502  0.0824  0.1972 -0.9186
   64MPD2     H  981   1.478   0.704  10.685 -0.7197 -0.2674  1.5510
   64MPD2    H1  982   1.112   0.895  10.562  1.1813  0.6054  2.3945
   64MPD2    H2  983   1.183   0.486  10.493 -1.1630  0.2425 -0.0471
   64MPD2    H3  984   1.059   0.696  10.449 -1.9406 -0.5010  2.7311
   64MPD2     N  985   1.350   0.918  10.716  0.6931  0.1169 -0.6753
   64MPD2    H5  986   1.434   0.907  10.771 -0.3191 -0.1094  0.8289
   64MPD2    N1  987   1.426   0.468  10.578 -0.2464 -0.3102 -0.0019
   64MPD2    H7  988   1.390   0.381  10.539  0.5421 -0.8747  0.5363
   65MPD2     C  989   2.936   4.711  15.773 -0.0934 -0.6843  0.0877
   65MPD2    C1  990   2.938   0.015  15.634  0.1823 -0.4173  0.8409
   65MPD2    C2  991   2.926   4.630  15.554 -0.1234 -1.3549  0.7095
   65MPD2    C3  992   2.903   4.504  15.605 -0.2143  0.2736  0.2330
   65MPD2    C4  993   2.889   4.484  15.742  0.3165 -0.1932  0.1376
   65MPD2    C5  994   2.911   4.588  15.821  0.0952 -0.1976  1.1486
   65MPD2     H  995   2.936   4.648  15.448 -1.4166 -0.7110  0.6974
   65MPD2    H1  996   2.869   4.387  15.786 -2.0302 -0.1781 -0.8848
   65MPD2    H2  997   2.963   0.055  15.852 -1.7711 -0.3284  0.3609
   65MPD2    H3  998   2.893   4.568  15.926 -0.9314 -0.5789  0.8992
   65MPD2     N  999   2.866   4.396  15.516 -0.1569 -0.5695  0.0115
   65MPD2    H5 1000   2.839   4.310  15.562 -2.1110  0.5332  0.8848
   65MPD2    N1 1001   2.949   0.146  15.576  0.5270  0.2427 -0.3650
   65MPD2    H7 1002   2.951   0.160  15.475  1.7032  0.2484 -0.3452
   66TCq2    C1 1003   2.952   0.263  15.646  0.8553 -0.0144 -0.7274
   66TCq2    O2 1004   2.937   0.288  15.763 -0.0374 -0.8013 -0.1624
   66TCq2    C2 1005   2.960   0.379  15.560 -0.3097  0.1700  0.0904
   66TCq2    C3 1006   2.999   0.365  15.431  0.6826  0.8336  0.5757
   66TCq2    C4 1007   2.998   0.477  15.345 -0.1861  0.7947 -0.2024
   66TCq2    C5 1008   2.950   0.595  15.391 -0.0321 -0.6107  0.3732
   66TCq2    C6 1009   2.920   0.606  15.524  0.6420  0.3627  0.5321
   66TCq2    C7 1010   2.926   0.496  15.612 -0.0241  0.5892 -0.0811
   66TCq2    C8 1011   2.878   0.738  15.574 -0.0089  0.7024 -0.2977
   66TCq2    O4 1012   2.895   0.834  15.499  0.1761 -0.5219 -0.2674
   66TCq2    C9 1013   3.036   0.454  15.207 -0.1290 -0.5484  0.3865
   66TCq2    O5 1014   3.001   0.349  15.145 -0.7685  0.0205  0.4257
   66TCq2    O6 1015   3.073   0.558  15.149 -0.1353  1.0226  0.0540
   66TCq2    H2 1016   3.022   0.266  15.394 -1.2954  1.3078 -1.9007
   66TCq2    H3 1017   2.943   0.679  15.323 -0.6692  0.0229  1.2101
   66TCq2    H4 1018   2.914   0.501  15.720  0.0220  0.1721 -0.0589
   67MPD2     C 1019   2.635   4.421  13.948  0.3173  0.4710 -0.3096
   67MPD2    C1 1020   2.640   4.559  13.961 -0.2452  0.1218  0.2046
   67MPD2    C2 1021   2.576   4.631  13.863 -0.2487 -0.1455  0.1373
   67MPD2    C3 1022   2.514   4.573  13.753 -0.4190  0.2329  0.2663
   67MPD2    C4 1023   2.515   4.436  13.743 -0.4316 -0.2793  0.4920
   67MPD2    C5 1024   2.571   4.359  13.842 -0.9708  0.0466  0.2779
   67MPD2     H 1025   2.558   0.013  13.872  1.3845  0.2526 -1.4729
   67MPD2    H1 1026   2.464   4.387  13.662 -0.2193  0.0014  0.1878
   67MPD2    H2 1027   2.685   4.359  14.021 -1.0418 -0.2482  0.0027
   67MPD2    H3 1028   2.573   4.252  13.822 -0.0286  0.1140  0.0304
   67MPD2     N 1029   2.459   4.646  13.648  0.3171 -0.6559 -0.5243
   67MPD2    H5 1030   2.400   4.591  13.587 -1.7155  0.6314  0.2663
   67MPD2    N1 1031   2.705   4.627  14.072 -0.9758 -0.1037  0.1158
   67MPD2    H7 1032   2.675   4.724  14.082  0.7995  0.2743  1.7520
   68TCq2    C1 1033   2.827   4.590  14.119  0.2692 -0.2671 -0.8355
   68TCq2    O2 1034   2.919   4.520  14.074 -0.4343  0.7947 -0.2443
   68TCq2    C2 1035   2.864   4.667  14.238  0.7949 -0.0663  0.1761
   68TCq2    C3 1036   2.772   0.014  14.314  0.1817 -0.3427  0.5522
   68TCq2    C4 1037   2.807   0.086  14.422 -0.7615 -0.0518 -0.7454
   68TCq2    C5 1038   2.937   0.078  14.466  0.4820 -0.0587 -0.3442
   68TCq2    C6 1039   3.026   0.005  14.399  0.4179 -0.3109 -0.0572
   68TCq2    C7 1040   2.992   4.664  14.277 -0.3479 -0.4913 -0.5342
   68TCq2    C8 1041   3.142   4.676  14.467 -0.1480  0.1419  0.0406
   68TCq2    O4 1042   3.220   4.624  14.392 -0.2148  0.1128  0.2378
   68TCq2    C9 1043   2.706   0.157  14.499 -0.1029 -0.5259  0.4694
   68TCq2    O5 1044   2.734   0.173  14.622 -0.8282 -0.2137 -0.3920
   68TCq2    O6 1045   2.583   0.144  14.458  0.2869  0.1083  0.3511
   68TCq2    H2 1046   2.667   0.010  14.288  0.4104  0.6275 -0.4911
   68TCq2    H3 1047   2.968   0.126  14.558 -0.5412 -1.4049  0.7207
   68TCq2    H4 1048   3.077   4.628  14.220  0.5005  2.1799 -0.9397
   69TMC2    C1 1049   4.337   1.539  11.971 -0.5889  0.1268  0.1097
   69TMC2    C2 1050   4.229   1.536  11.896 -0.3340 -0.0153 -0.4319
   69TMC2    C3 1051   4.234   1.593  11.768 -0.0417 -0.3838 -0.3152
   69TMC2    C4 1052   4.456   1.586  11.922 -0.2246 -0.0977  0.1468
   69TMC2    C5 1053   4.464   1.623  11.785  0.3480  0.6214  0.6503
   69TMC2    C6 1054   4.352   1.626  11.710  0.2420 -0.4101  0.4252
   69TMC2     C 1055   4.317   1.502  12.111 -0.2121  0.2244 -0.6837
   69TMC2     O 1056   4.240   1.414  12.142 -0.5899 -0.1802 -0.5932
   69TMC2     H 1057   4.143   1.490  11.944 -0.9669  2.8612  1.2090
   69TMC2    H1 1058   4.541   1.593  11.988  0.0987  0.7068 -0.3505
   69TMC2    H2 1059   4.350   1.636  11.602  0.8846  3.2425  0.7488
   69TMC2    C7 1060   4.594   1.658  11.739  0.3265 -0.6824  0.3008
   69TMC2    C8 1061   4.118   1.594  11.687 -0.6303  0.1777  0.0755
   69TMC2    O1 1062   4.679   1.644  11.820  0.1442 -0.5061  0.4668
   69TMC2    O2 1063   4.111   1.612  11.567  0.2377  0.0463  0.0081
   69TMC2    O5 1064   4.011   1.594  11.769 -0.8454  0.3473 -0.1779
   69TMC2    H5 1065   4.019   1.586  11.867  0.4325 -0.7083 -0.3856
   70MPD2     C 1066   4.510   1.655  12.394 -0.0311  0.1854  0.4952
   70MPD2    C1 1067   4.444   1.554  12.324 -0.3524 -0.4458 -0.1439
   70MPD2    C2 1068   4.431   1.426  12.389 -0.9655 -0.2257 -0.4085
   70MPD2    C3 1069   4.500   1.406  12.508 -0.1852  0.3391  0.2552
   70MPD2    C4 1070   4.569   1.509  12.574 -0.0571  0.2184  0.2295
   70MPD2    C5 1071   4.562   1.635  12.521  0.0173  0.1495 -0.5361
   70MPD2     H 1072   4.388   1.345  12.331  1.8344 -0.6221 -1.9272
   70MPD2    H1 1073   4.631   1.498  12.662  0.6909 -0.2644 -0.3635
   70MPD2    H2 1074   4.518   1.756  12.356  1.2727 -0.7762 -1.7977
   70MPD2    H3 1075   4.606   1.721  12.570  0.5658  0.0608 -0.8658
   70MPD2     N 1076   4.507   1.274  12.563 -0.2000 -0.2969  0.1267
   70MPD2    H5 1077   4.576   1.251  12.634  1.5444 -0.2003 -1.5190
   70MPD2    N1 1078   4.399   1.582  12.191  0.0712  0.0940 -0.4817
   70MPD2    H7 1079   4.431   1.670  12.150 -1.2530  1.0325  0.5109
   71TMC2    C1 1080   3.457   1.157   1.093  0.0438  0.3514 -0.6296
   71TMC2    C2 1081   3.588   1.177   1.109 -0.8366  0.0333 -0.5133
   71TMC2    C3 1082   3.638   1.178   1.239 -0.1207  0.0572 -0.1286
   71TMC2    C4 1083   3.374   1.124   1.204 -1.0374  0.7228  0.5853
   71TMC2    C5 1084   3.428   1.143   1.333 -0.6738 -0.5224 -0.2754
   71TMC2    C6 1085   3.560   1.175   1.355  0.8303 -0.0427  0.2760
   71TMC2     C 1086   3.398   1.175   0.960  0.2895  0.1493  0.5285
   71TMC2     O 1087   3.463   1.235   0.882 -0.1130  0.5179  0.2712
   71TMC2     H 1088   3.644   1.212   1.023  0.5625  0.1045  0.4288
   71TMC2    H1 1089   3.266   1.117   1.196 -0.6809 -0.9748 -2.7528
   71TMC2    H2 1090   3.598   1.178   1.456 -1.2613 -1.7221  1.1253
   71TMC2    C7 1091   3.331   1.187   1.430  0.8098 -0.1517  0.3486
   71TMC2    C8 1092   3.786   1.171   1.260 -0.6362 -0.2849 -0.8487
   71TMC2    O1 1093   3.363   1.284   1.497 -0.0256  0.2144 -0.0927
   71TMC2    O2 1094   3.862   1.264   1.235  0.5736 -0.3876 -0.3232
   71TMC2    O5 1095   3.814   1.086   1.361 -0.4395  0.4344 -0.2338
   71TMC2    H5 1096   3.749   1.013   1.362 -0.3848  0.3716 -1.6095
   72MPD2     C 1097   3.057   0.985   0.617  0.0524 -0.6307  0.5749
   72MPD2    C1 1098   3.143   1.092   0.594  0.6081  0.2015 -0.2166
   72MPD2    C2 1099   3.221   1.128   0.698  0.7363 -0.0306 -0.7831
   72MPD2    C3 1100   3.219   1.068   0.823 -0.2269  0.5408  0.2671
   72MPD2    C4 1101   3.128   0.964   0.844  0.0636 -0.2034  0.2736
   72MPD2    C5 1102   3.041   0.929   0.739  0.6568 -0.0233  0.5080
   72MPD2     H 1103   3.301   1.198   0.681  1.6761 -0.6717  1.0441
   72MPD2    H1 1104   3.120   0.905   0.935 -0.7883  2.5308  1.9582
   72MPD2    H2 1105   2.995   0.952   0.534 -2.3809  3.1988  0.8962
   72MPD2    H3 1106   2.978   0.842   0.752 -0.7300  0.5703 -2.1227
   72MPD2     N 1107   3.294   1.088   0.935 -0.9845 -0.0194 -0.3537
   72MPD2    H5 1108   3.271   1.020   1.007 -1.9308  0.0796 -0.5718
   72MPD2    N1 1109   3.164   1.156   0.467 -0.0126  0.2877  0.0381
   72MPD2    H7 1110   3.224   1.238   0.458 -0.0352  0.1439 -1.4649
   73TMC2    C1 1111   2.382   2.932  14.114  0.4744 -0.0208 -0.1287
   73TMC2    C2 1112   2.385   2.800  14.165  0.9953 -0.5102 -0.1402
   73TMC2    C3 1113   2.500   2.748  14.213  0.1669 -0.4802  0.1563
   73TMC2    C4 1114   2.502   3.002  14.125  0.2875 -0.2283  0.1697
   73TMC2    C5 1115   2.616   2.947  14.167 -0.5735 -0.3498 -0.1348
   73TMC2    C6 1116   2.616   2.820  14.213 -0.2158 -0.3940  0.4598
   73TMC2     C 1117   2.338   2.941  13.976  0.4678  0.6953 -1.1914
   73TMC2     O 1118   2.428   2.992  13.907 -0.1924  0.3268  0.1223
   73TMC2     H 1119   2.296   2.738  14.161  0.7534 -0.2396  1.0980
   73TMC2    H1 1120   2.496   3.109  14.110 -0.5669 -0.1151  1.3274
   73TMC2    H2 1121   2.706   2.771  14.247 -0.6521 -0.8343  0.9916
   73TMC2    C7 1122   2.734   2.971  14.079 -0.4709 -0.1972 -0.2133
   73TMC2    C8 1123   2.497   2.640  14.313 -0.3686  1.1049  0.0941
   73TMC2    O1 1124   2.848   2.958  14.128  0.0861  0.3463 -0.2643
   73TMC2    O2 1125   2.579   2.643  14.401  0.3154  0.1017 -0.3385
   73TMC2    O5 1126   2.371   2.622  14.340  0.1511 -0.0241  0.1460
   73TMC2    H5 1127   2.303   2.627  14.270 -0.7182  0.5316  1.0262
   74MPD2     C 1128   2.045   2.807  13.577  0.2155  0.1124 -0.6641
   74MPD2    C1 1129   2.171   2.875  13.584 -0.0888 -0.5098  0.4044
   74MPD2    C2 1130   2.236   2.889  13.707  0.5517  0.2763  0.0848
   74MPD2    C3 1131   2.168   2.856  13.820 -0.3791 -0.0662 -0.2296
   74MPD2    C4 1132   2.047   2.788  13.812 -0.4421  0.0941  0.3380
   74MPD2    C5 1133   1.987   2.768  13.693 -0.5844  0.3870  0.4721
   74MPD2     H 1134   2.333   2.936  13.713  1.8888 -2.3040 -1.2807
   74MPD2    H1 1135   1.984   2.764  13.897  0.5467 -0.1394  1.0102
   74MPD2    H2 1136   1.996   2.791  13.482  0.7839 -0.7746 -0.8027
   74MPD2    H3 1137   1.889   2.723  13.682 -1.3683  1.8096  1.6556
   74MPD2     N 1138   2.213   2.889  13.955 -0.1866  0.1520  0.4103
   74MPD2    H5 1139   2.145   2.873  14.029  2.1119 -0.5550  2.3943
   74MPD2    N1 1140   2.218   2.935  13.465  0.0046  0.3774 -0.1667
   74MPD2    H7 1141   2.166   2.914  13.380  0.7498  1.4334 -0.8821
   75TCq2    C1 1142   2.459   0.057  13.625  0.1448 -0.1130  0.5594
   75TCq2    O2 1143   2.493   0.157  13.685 -0.3511 -0.2080  0.2193
   75TCq2    C2 1144   2.377   0.084  13.502  0.1124  0.4375 -0.5972
   75TCq2    C3 1145   2.315   0.207  13.497  0.4900 -0.9923  0.4628
   75TCq2    C4 1146   2.236   0.224  13.384  0.7839 -0.0349 -0.0210
   75TCq2    C5 1147   2.227   0.131  13.286 -0.0591 -0.0328 -0.5326
   75TCq2    C6 1148   2.309   0.026  13.286  1.1008 -0.0520 -0.3918
   75TCq2    C7 1149   2.386   4.716  13.396 -0.0975  0.2948 -0.7479
   75TCq2    C8 1150   2.316   4.681  13.164  0.2913 -0.3533 -0.2115
   75TCq2    O4 1151   2.229   4.715  13.084  0.6458 -0.3258  0.0972
   75TCq2    C9 1152   2.153   0.346  13.364  0.1935 -0.6953 -0.2874
   75TCq2    O5 1153   2.182   0.444  13.434 -0.0892  0.7832  0.0709
   75TCq2    O6 1154   2.050   0.342  13.297  0.2239  0.2158 -0.6475
   75TCq2    H2 1155   2.312   0.281  13.576  0.2885 -1.2524  0.6962
   75TCq2    H3 1156   2.170   0.155  13.197 -0.9783 -0.0502  0.0497
   75TCq2    H4 1157   2.422   4.614  13.403  2.2167  1.3680  3.1912
   76MPD2     C 1158   0.765   1.200  12.132  0.2516  0.1892  0.4449
   76MPD2    C1 1159   0.841   1.241  12.026 -0.1987 -0.0994 -0.0541
   76MPD2    C2 1160   0.970   1.193  12.017  0.5569 -0.2363  0.9160
   76MPD2    C3 1161   1.027   1.115  12.114 -0.5479 -0.0984  0.6701
   76MPD2    C4 1162   0.957   1.092  12.227  0.3312  0.7982  0.0927
   76MPD2    C5 1163   0.827   1.138  12.235 -0.3387 -0.1593  0.9634
   76MPD2     H 1164   1.027   1.204  11.926 -0.6451 -4.2500 -0.3095
   76MPD2    H1 1165   0.999   1.043  12.314 -1.3705 -3.0863 -1.2925
   76MPD2    H2 1166   0.661   1.227  12.142 -0.5010 -2.6192  0.2877
   76MPD2    H3 1167   0.773   1.108  12.324 -0.4589  0.2816  1.0373
   76MPD2     N 1168   1.163   1.072  12.105  0.2131 -0.0946  0.2097
   76MPD2    H5 1169   1.195   1.016  12.183  2.4381  0.6854 -0.1288
   76MPD2    N1 1170   0.787   1.331  11.927  0.0121 -0.2137  0.1374
   76MPD2    H7 1171   0.854   1.342  11.851  0.1829  1.1622  0.4894
   77TCq2    C1 1172   1.261   1.117  12.012  0.4104 -0.5486 -0.0085
   77TCq2    O2 1173   1.245   1.203  11.924  0.3599 -0.6802  0.4035
   77TCq2    C2 1174   1.376   1.029  12.010  0.0757 -0.4744 -0.0819
   77TCq2    C3 1175   1.365   0.887  12.007  0.1293  0.1578 -0.2345
   77TCq2    C4 1176   1.478   0.810  12.002  0.1835  0.2010 -0.0374
   77TCq2    C5 1177   1.599   0.866  12.002  0.4768 -0.3572  0.0178
   77TCq2    C6 1178   1.609   1.003  11.987 -0.3190  0.2497  0.3437
   77TCq2    C7 1179   1.497   1.090  11.980  0.3669 -0.3659 -0.6818
   77TCq2    C8 1180   1.737   1.065  12.010 -0.2292  0.4168  0.1888
   77TCq2    O4 1181   1.742   1.186  11.994 -0.7337 -0.5873  0.3963
   77TCq2    C9 1182   1.461   0.671  11.988  0.5745  0.3300 -0.0323
   77TCq2    O5 1183   1.567   0.604  11.970  0.4910  0.4259 -1.0198
   77TCq2    O6 1184   1.347   0.618  11.981 -0.7086 -0.2943 -0.2978
   77TCq2    H2 1185   1.273   0.831  12.019  0.3472 -0.2130 -0.2981
   77TCq2    H3 1186   1.680   0.795  11.991  1.5661  1.1951 -1.9051
   77TCq2    H4 1187   1.508   1.198  11.982 -0.2533 -0.2798 -1.8613
   78MPD1     C 1188   3.221   0.163   1.151  0.2113  0.2687  0.1965
   78MPD1    C1 1189   3.330   0.236   1.123  0.3561 -0.5176  0.2740
   78MPD1    C2 1190   3.401   0.302   1.221  0.1171  0.7247  0.2716
   78MPD1    C3 1191   3.328   0.331   1.342  0.0180 -0.4839  0.3231
   78MPD1    C4 1192   3.207   0.274   1.363  0.2579 -0.2797 -0.3131
   78MPD1    C5 1193   3.162   0.183   1.270 -0.5130  0.1447 -0.2101
   78MPD1     H 1194   3.503   0.334   1.204  0.2445 -0.1697 -0.6368
   78MPD1    H1 1195   3.154   0.284   1.458  2.5609  2.8818  0.6322
   78MPD1    H2 1196   3.174   0.100   1.075  2.2832 -1.1643  0.1195
   78MPD1    H3 1197   3.071   0.130   1.295 -0.2161 -0.5317 -0.5740
   78MPD1     N 1198   3.384   0.404   1.454 -0.2530  0.3163  0.5901
   78MPD1    H5 1199   3.330   0.395   1.539  2.0764 -0.3980  2.0177
   78MPD1    N1 1200   3.386   0.221   0.996  0.5940  0.0960  0.2440
   78MPD1    H6 1201   3.446   0.299   0.970  0.2259  0.5107  0.6381
   78MPD1    H7 1202   3.321   0.191   0.923  1.8749  4.1280 -2.5547
   79TCq2    C1 1203   3.514   0.450   1.465  0.3948 -0.2830  0.3945
   79TCq2    O2 1204   3.600   0.466   1.377  0.0999 -0.7029 -0.2458
   79TCq2    C2 1205   3.538   0.492   1.602  0.5525  0.3897  1.3057
   79TCq2    C3 1206   3.444   0.546   1.683 -0.2674 -0.2604  0.0697
   79TCq2    C4 1207   3.479   0.567   1.813 -0.2397  0.1205 -0.1555
   79TCq2    C5 1208   3.599   0.525   1.866 -0.0365  0.5747 -0.5568
   79TCq2    C6 1209   3.690   0.471   1.780  0.2763  0.4201 -0.4516
   79TCq2    C7 1210   3.661   0.465   1.647  0.0730  0.3226 -0.5166
   79TCq2    C8 1211   3.830   0.501   1.799 -0.3143 -0.2864  0.2005
   79TCq2    O4 1212   3.899   0.542   1.706  0.7230 -0.0233 -0.3450
   79TCq2    C9 1213   3.382   0.633   1.899 -0.6469  0.5310 -0.9825
   79TCq2    O5 1214   3.266   0.647   1.856 -0.0848  0.5578  0.4173
   79TCq2    O6 1215   3.436   0.688   1.999 -0.6653  0.0604  0.1090
   79TCq2    H2 1216   3.351   0.586   1.646  0.5617  0.6401 -1.0551
   79TCq2    H3 1217   3.624   0.553   1.968 -4.5912  1.6150  0.2934
   79TCq2    H4 1218   3.744   0.426   1.589  2.3182  0.0964  2.8711
   80MPD2     C 1219   0.722   0.465  11.774  0.2149 -0.1697 -0.1660
   80MPD2    C1 1220   0.663   0.356  11.838 -0.1957 -0.5039  0.2301
   80MPD2    C2 1221   0.548   0.372  11.908 -0.3211 -0.5287  0.5623
   80MPD2    C3 1222   0.477   0.484  11.908  0.0837  0.2534  0.8201
   80MPD2    C4 1223   0.527   0.597  11.844  0.0237  0.1652 -0.2021
   80MPD2    C5 1224   0.655   0.584  11.792 -0.1176 -0.0709  0.0035
   80MPD2     H 1225   0.523   0.283  11.965 -0.7414 -1.6759 -1.4185
   80MPD2    H1 1226   0.481   0.695  11.851  2.9225  1.4172  1.3415
   80MPD2    H2 1227   0.820   0.463  11.728 -0.5114  0.0582 -1.7104
   80MPD2    H3 1228   0.691   0.669  11.735  0.2092 -1.2701 -1.5546
   80MPD2     N 1229   0.357   0.499  11.987 -0.3226 -0.8852 -0.2882
   80MPD2    H5 1230   0.306   0.587  11.982 -0.6718 -0.9503  1.9785
   80MPD2    N1 1231   0.713   0.227  11.820  0.7048 -0.1942  0.0524
   80MPD2    H7 1232   0.646   0.152  11.835  0.2452  0.4943  1.4732
   81TCq2    C1 1233   0.831   0.196  11.761  0.5300  0.4860 -0.3173
   81TCq2    O2 1234   0.933   0.264  11.750 -0.3774 -0.3032 -0.2642
   81TCq2    C2 1235   0.847   0.051  11.738  0.2485  0.4640 -0.7905
   81TCq2    C3 1236   0.976   0.002  11.732 -0.2317 -0.1797 -0.1255
   81TCq2    C4 1237   1.000   4.614  11.661 -0.2868  0.5427  0.7400
   81TCq2    C5 1238   0.904   4.537  11.614 -0.1649 -0.0665  0.4809
   81TCq2    C6 1239   0.769   4.577  11.625  0.4293 -0.1004 -0.3009
   81TCq2    C7 1240   0.742   4.697  11.688  0.1976  0.2871  0.3868
   81TCq2    C8 1241   0.668   4.469  11.615  0.3050 -0.2069 -0.3414
   81TCq2    O4 1242   0.697   4.381  11.536  0.3057  0.5889  0.3801
   81TCq2    C9 1243   1.141   4.572  11.640  0.1719 -0.5486 -0.3624
   81TCq2    O5 1244   1.157   4.467  11.568  0.1373  0.3539 -0.0657
   81TCq2    O6 1245   1.210   4.610  11.744 -0.7154 -0.9947 -0.3815
   81TCq2    H2 1246   1.063   0.059  11.766  0.9788 -1.5057 -1.0124
   81TCq2    H3 1247   0.930   4.451  11.554 -1.3350  0.7147 -1.1402
   81TCq2    H4 1248   0.640   0.009  11.680  0.4773  1.1849  1.0701
   82MPD2     C 1249   3.039   0.656  10.487  0.0491  0.2853 -0.4165
   82MPD2    C1 1250   2.977   0.536  10.462  0.1576 -0.5669 -1.0695
   82MPD2    C2 1251   2.973   0.445  10.567 -0.3044 -0.4570 -0.5446
   82MPD2    C3 1252   3.041   0.462  10.689  0.4458 -0.0951  0.6042
   82MPD2    C4 1253   3.104   0.584  10.714 -0.4174 -0.2448 -0.6042
   82MPD2    C5 1254   3.103   0.673  10.608  0.0012  0.1502  0.8398
   82MPD2     H 1255   2.932   0.347  10.545 -0.2085 -0.1574 -2.0608
   82MPD2    H1 1256   3.156   0.608  10.806  0.4020 -0.6247 -0.9746
   82MPD2    H2 1257   3.044   0.727  10.406 -2.4130 -0.3314 -1.1082
   82MPD2    H3 1258   3.145   0.771  10.628  2.4169 -0.5647 -0.6334
   82MPD2     N 1259   3.054   0.360  10.789  0.3517  0.2772  0.2670
   82MPD2    H5 1260   3.110   0.385  10.870  1.6158  0.4583 -0.6460
   82MPD2    N1 1261   2.911   0.518  10.337 -0.2402 -0.4782 -0.6845
   82MPD2    H7 1262   2.930   0.587  10.265 -2.1286  0.3836 -0.3574
   83TCq2    C1 1263   3.014   0.230  10.773 -0.1221  0.0121 -0.7974
   83TCq2    O2 1264   2.963   0.173  10.679  0.4249 -0.1020 -0.1562
   83TCq2    C2 1265   3.058   0.152  10.885 -0.0522  0.0799 -0.0557
   83TCq2    C3 1266   3.078   0.216  11.005  0.3039 -0.4925 -0.1042
   83TCq2    C4 1267   3.138   0.141  11.098  0.4667 -0.4141  0.7790
   83TCq2    C5 1268   3.168   0.010  11.082 -0.4071 -0.6319  0.2391
   83TCq2    C6 1269   3.134   4.670  10.967  0.4341 -0.1854  0.1844
   83TCq2    C7 1270   3.083   0.017  10.864  1.0181 -0.3180  0.5253
   83TCq2    C8 1271   3.135   4.523  10.964  0.3528  0.3469  0.8870
   83TCq2    O4 1272   3.186   4.470  11.065  0.1329  0.0206 -0.1468
   83TCq2    C9 1273   3.166   0.199  11.229 -0.9629  0.0379  0.2408
   83TCq2    O5 1274   3.168   0.325  11.224  0.2444  0.4770 -0.2353
   83TCq2    O6 1275   3.176   0.123  11.329 -0.1266  0.0053 -0.1337
   83TCq2    H2 1276   3.050   0.319  11.028  3.2284  0.2489  0.1054
   83TCq2    H3 1277   3.217   4.687  11.166  1.1496  0.1386 -0.2298
   83TCq2    H4 1278   3.052   4.706  10.767  0.2722 -1.2965  1.1166
   84TCq2    C1 1279   4.022   3.798  10.159  0.4091  0.0279 -0.2751
   84TCq2    O2 1280   3.917   3.742  10.189 -0.1541  0.0262  0.2345
   84TCq2    C2 1281   4.126   3.833  10.252 -0.3052 -0.1257  0.4321
   84TCq2    C3 1282   4.245   3.880  10.205  0.0294 -0.0934 -0.7152
   84TCq2    C4 1283   4.323   3.948  10.294 -0.3114 -0.3821  0.1789
   84TCq2    C5 1284   4.292   3.952  10.424  0.1413 -0.2680  0.4928
   84TCq2    C6 1285   4.180   3.883  10.469 -1.0861 -0.3473  0.1563
   84TCq2    C7 1286   4.093   3.829  10.379 -0.0406  0.1391  0.5247
   84TCq2    C8 1287   4.148   3.882  10.609 -0.3251  0.5119 -0.1981
   84TCq2    O4 1288   4.229   3.942  10.678 -0.0067  0.2342  0.6931
   84TCq2    C9 1289   4.451   4.007  10.250 -0.1789  0.0175 -0.5618
   84TCq2    O5 1290   4.500   3.967  10.139  0.0913 -0.0413 -0.3161
   84TCq2    O6 1291   4.499   4.096  10.322  0.4111  0.1975  0.2204
   84TCq2    H2 1292   4.285   3.863  10.106  2.1979 -0.9640  0.3179
   84TCq2    H3 1293   4.374   3.985  10.486 -0.9892  0.8831  1.3635
   84TCq2    H4 1294   4.002   3.780  10.412 -0.3165  0.8239  0.7809
   85MPD2     C 1295   0.371   0.996  16.075  0.1095  0.4240 -0.0944
   85MPD2    C1 1296   0.252   1.063  16.078  0.4792 -0.8642  0.0961
   85MPD2    C2 1297   0.253   1.205  16.080 -0.2012  0.5990  0.1314
   85MPD2    C3 1298   0.377   1.272  16.085  0.0000 -0.4731  0.4459
   85MPD2    C4 1299   0.489   1.195  16.091  0.0952 -0.1014 -0.1308
   85MPD2    C5 1300   0.487   1.064  16.083  0.0136  0.3202  0.3268
   85MPD2     H 1301   0.158   1.256  16.068  0.6232  2.3166  0.9057
   85MPD2    H1 1302   0.586   1.244  16.093 -0.8151  1.7590 -0.8316
   85MPD2    H2 1303   0.389   0.890  16.067 -0.8436  0.3565 -1.4378
   85MPD2    H3 1304   0.576   1.006  16.102 -0.7079 -0.5680  1.0111
   85MPD2     N 1305   0.368   1.412  16.075  0.5223 -0.5726  0.1709
   85MPD2    H5 1306   0.274   1.450  16.080  1.2974  1.7066 -2.6195
   85MPD2    N1 1307   0.131   0.990  16.073  0.5549  0.0817 -0.7259
   85MPD2    H7 1308   0.049   1.042  16.104 -0.1925 -1.8236  0.4751
   86TCq2    C1 1309   0.477   1.495  16.034 -0.3432 -0.4166  0.2307
   86TCq2    O2 1310   0.580   1.447  15.988 -0.0122  0.1162 -0.2834
   86TCq2    C2 1311   0.445   1.637  16.020  0.0799  0.7384  0.6576
   86TCq2    C3 1312   0.325   1.698  16.061 -0.7520 -0.2535  0.4347
   86TCq2    C4 1313   0.304   1.830  16.036 -0.2993 -0.2405  0.3425
   86TCq2    C5 1314   0.396   1.906  15.963  0.2686  0.3366  0.9270
   86TCq2    C6 1315   0.505   1.839  15.917  0.1831 -0.0314 -0.7568
   86TCq2    C7 1316   0.536   1.705  15.945  0.8473 -0.2730  0.8345
   86TCq2    C8 1317   0.572   1.878  15.787  0.4040  0.0550 -0.1253
   86TCq2    O4 1318   0.674   1.822  15.751  0.7012  0.4515  0.1178
   86TCq2    C9 1319   0.196   1.900  16.105 -0.5625  0.2859  0.4721
   86TCq2    O5 1320   0.219   2.024  16.122  0.4162 -0.0585 -0.0791
   86TCq2    O6 1321   0.103   1.843  16.163 -0.2051 -0.1206 -0.1974
   86TCq2    H2 1322   0.252   1.650  16.126 -2.0163  0.0098 -0.7979
   86TCq2    H3 1323   0.392   2.014  15.968  1.2494  0.2926  2.6276
   86TCq2    H4 1324   0.620   1.652  15.902  1.1651  1.7618 -1.0350
   87MPD2     C 1325   3.135   4.343   2.075  0.3020 -0.4552 -0.0967
   87MPD2    C1 1326   3.148   4.395   1.949  0.1101  0.1320  0.0297
   87MPD2    C2 1327   3.035   4.412   1.872  0.1301 -0.3864 -0.1499
   87MPD2    C3 1328   2.908   4.403   1.924  0.6239  0.5276 -0.2950
   87MPD2    C4 1329   2.898   4.347   2.051 -0.8558  0.1046  0.3273
   87MPD2    C5 1330   3.008   4.320   2.124 -0.5837  0.4355  0.0318
   87MPD2     H 1331   3.039   4.470   1.780  2.9881  0.1851  0.3219
   87MPD2    H1 1332   2.799   4.333   2.092 -0.0585  0.3497  2.2986
   87MPD2    H2 1333   3.218   4.308   2.135  0.1964 -2.0836 -0.9182
   87MPD2    H3 1334   2.999   4.270   2.219 -0.7800  2.8203  1.2662
   87MPD2     N 1335   2.790   4.437   1.858 -0.9546  0.2678 -0.3668
   87MPD2    H5 1336   2.705   4.422   1.912 -0.8005  0.9593  0.0612
   87MPD2    N1 1337   3.278   4.429   1.908 -0.5494 -0.3646  0.1581
   87MPD2    H7 1338   3.358   4.413   1.967 -0.4421 -1.5118 -0.2868
   88TCq2    C1 1339   3.316   4.475   1.783  0.0992  1.0831  0.1601
   88TCq2    O2 1340   3.255   4.484   1.679 -0.2809  0.5126 -0.4139
   88TCq2    C2 1341   3.458   4.501   1.780 -0.0793  0.1478 -0.5925
   88TCq2    C3 1342   3.537   4.511   1.895 -0.4865 -0.0783 -0.0804
   88TCq2    C4 1343   3.671   4.490   1.877  0.2570 -0.1354  0.5526
   88TCq2    C5 1344   3.721   4.479   1.751 -0.4642  0.2974  0.6844
   88TCq2    C6 1345   3.642   4.483   1.643 -0.2708  1.5072 -0.1635
   88TCq2    C7 1346   3.509   4.504   1.653 -0.3439  0.7064 -0.2329
   88TCq2    C8 1347   3.688   4.439   1.516 -0.4958  0.5368  0.7129
   88TCq2    O4 1348   3.608   4.446   1.423  0.7185 -0.1673  0.4366
   88TCq2    C9 1349   3.758   4.472   1.991 -0.0469  0.1677  0.0477
   88TCq2    O5 1350   3.852   4.393   1.965 -0.1687 -0.3929  0.0472
   88TCq2    O6 1351   3.711   4.475   2.105  0.1448  0.0636 -0.0788
   88TCq2    H2 1352   3.495   4.527   1.994  0.5276 -0.0468  0.3511
   88TCq2    H3 1353   3.825   4.449   1.753 -0.1396  1.6377  4.2039
   88TCq2    H4 1354   3.443   4.520   1.569 -1.5703 -0.1336  0.5515
   89MPD2     C 1355   4.398   2.116   1.416 -0.0058  0.5205  0.9874
   89MPD2    C1 1356   4.325   2.235   1.429 -0.1390 -1.0699 -0.1478
   89MPD2    C2 1357   4.402   2.353   1.431  0.2279  0.9142  0.5741
   89MPD2    C3 1358   4.541   2.362   1.443 -0.4543  0.5317  0.0778
   89MPD2    C4 1359   4.606   2.240   1.438 -0.4515 -1.0067 -0.0517
   89MPD2    C5 1360   4.538   2.122   1.424 -0.2930  0.5411 -0.1802
   89MPD2     H 1361   4.344   2.445   1.434  0.9326  1.3173  2.2137
   89MPD2    H1 1362   4.713   2.227   1.438 -0.8036 -3.7937  0.8704
   89MPD2    H2 1363   4.347   2.021   1.410  1.2958 -0.1003 -0.3522
   89MPD2    H3 1364   4.587   2.027   1.404  0.7961  0.9123  0.7490
   89MPD2     N 1365   4.598   2.487   1.463  0.1704 -0.0404  0.0504
   89MPD2    H5 1366   4.526   2.559   1.453  0.5951  0.2770 -0.6892
   89MPD2    N1 1367   4.184   2.243   1.437  0.4626 -0.0389 -0.4441
   89MPD2    H7 1368   4.145   2.335   1.455  2.0321 -0.0229  2.7507
   90TCq2    C1 1369   0.014   2.510   1.487  0.5658  0.8780  0.1038
   90TCq2    O2 1370   0.102   2.434   1.530 -0.1496 -0.2102 -0.2230
   90TCq2    C2 1371   0.051   2.654   1.485 -0.0176  0.0338 -0.0724
   90TCq2    C3 1372   4.673   2.741   1.445  0.7467  0.0857 -0.4014
   90TCq2    C4 1373   4.702   2.869   1.454 -0.0853 -1.0444 -0.4110
   90TCq2    C5 1374   0.101   2.917   1.501  0.3476 -0.0097 -0.5760
   90TCq2    C6 1375   0.193   2.826   1.548 -0.0517  0.3576 -0.1754
   90TCq2    C7 1376   0.168   2.691   1.537 -0.2627  0.1987  0.4673
   90TCq2    C8 1377   0.302   2.889   1.627 -0.0439 -0.4833 -1.1224
   90TCq2    O4 1378   0.361   2.823   1.717  0.0490 -0.6324  0.6519
   90TCq2    C9 1379   4.596   2.963   1.412  0.4784  0.3804 -0.2742
   90TCq2    O5 1380   4.631   3.086   1.405 -0.0077 -0.0346 -0.3455
   90TCq2    O6 1381   4.484   2.918   1.378 -0.1126  0.2392  0.0819
   90TCq2    H2 1382   4.584   2.706   1.394  1.2279 -1.7967  0.0420
   90TCq2    H3 1383   0.121   3.024   1.503  3.5275 -0.5600 -2.4799
   90TCq2    H4 1384   0.226   2.623   1.598 -1.6172 -1.9338 -0.6343
   91TMC2    C1 1385   0.354   2.205  16.701  0.5520 -0.9950  0.1032
   91TMC2    C2 1386   0.446   2.201  16.799 -0.3811  0.3868 -0.2102
   91TMC2    C3 1387   0.400   2.211  16.926  0.4069 -0.0564  0.2222
   91TMC2    C4 1388   0.223   2.213  16.726 -0.5901 -0.5300 -0.0251
   91TMC2    C5 1389   0.179   2.225  16.853  0.2261 -0.0954  0.1910
   91TMC2    C6 1390   0.265   2.224  16.956  0.0217 -1.1244  0.8854
   91TMC2     C 1391   0.392   2.151  16.571 -0.0876  0.1151  0.0036
   91TMC2     O 1392   0.305   2.083  16.514 -0.3683 -0.3545  0.1119
   91TMC2     H 1393   0.552   2.186  16.784  0.2686  2.5182  2.1764
   91TMC2    H1 1394   0.161   2.234  16.639 -2.5541 -0.1158  1.4791
   91TMC2    H2 1395   0.227   2.243  17.056 -1.7904 -1.9325  0.3541
   91TMC2    C7 1396   0.040   2.227  16.885 -0.0651  0.0848 -0.4618
   91TMC2    C8 1397   0.502   2.217  17.031  0.3150 -0.1426 -0.6435
   91TMC2    O1 1398   0.003   2.234  17.003  0.2447  0.9728  0.4454
   91TMC2    O2 1399   0.620   2.186  17.024 -0.1134  0.3687 -0.1535
   91TMC2    O5 1400   0.459   2.287  17.141 -0.5241  0.0238 -0.3033
   91TMC2    H5 1401   0.376   2.339  17.152 -1.7679 -1.6113 -2.1130
   92MPD2     C 1402   0.538   2.011  16.351 -0.3603 -0.2626 -0.2641
   92MPD2    C1 1403   0.586   2.122  16.417  0.2357  0.3658 -0.6427
   92MPD2    C2 1404   0.701   2.190  16.371 -0.2129  0.9232 -0.1907
   92MPD2    C3 1405   0.770   2.141  16.262 -0.0329  0.3584 -0.2255
   92MPD2    C4 1406   0.711   2.039  16.187 -0.1672  0.2017 -0.7602
   92MPD2    C5 1407   0.600   1.975  16.239  0.0977  0.4277  0.0143
   92MPD2     H 1408   0.748   2.257  16.442  1.4995  1.3901 -1.7893
   92MPD2    H1 1409   0.748   2.013  16.088  0.6114 -1.3248 -0.0797
   92MPD2    H2 1410   0.451   1.961  16.391 -1.4180  1.9446  0.1610
   92MPD2    H3 1411   0.552   1.899  16.177  0.2240 -1.1373  1.8340
   92MPD2     N 1412   0.887   2.210  16.222  0.2108  0.9248 -0.4505
   92MPD2    H5 1413   0.911   2.284  16.287  0.8282 -0.1170  0.5083
   92MPD2    N1 1414   0.517   2.182  16.525 -0.1014 -0.1766 -0.1970
   92MPD2    H7 1415   0.558   2.260  16.577 -1.3378 -0.6710  1.5284
   93MPD2     C 1416   1.824   2.224  13.540  0.6306 -0.6778  0.4844
   93MPD2    C1 1417   1.802   2.314  13.642 -0.2146 -0.3270  0.9788
   93MPD2    C2 1418   1.671   2.336  13.680 -1.4250  0.0710 -1.2045
   93MPD2    C3 1419   1.571   2.260  13.622  0.2900  0.0614  0.3201
   93MPD2    C4 1420   1.594   2.176  13.518  0.4202 -0.0036  1.1421
   93MPD2    C5 1421   1.718   2.162  13.482  0.1991 -0.1060  0.0367
   93MPD2     H 1422   1.651   2.388  13.773 -1.7229  1.2522 -1.9266
   93MPD2    H1 1423   1.519   2.113  13.471  0.8692 -0.0373  0.4654
   93MPD2    H2 1424   1.926   2.215  13.503  1.2835  2.6318  1.4054
   93MPD2    H3 1425   1.733   2.093  13.400  1.7344 -2.1101  2.0230
   93MPD2     N 1426   1.439   2.272  13.661  0.2870  0.3793 -0.2802
   93MPD2    H5 1427   1.377   2.203  13.619 -1.9565  0.3414  3.1100
   93MPD2    N1 1428   1.908   2.373  13.711  0.2036 -0.1753 -0.0531
   93MPD2    H7 1429   1.876   2.451  13.767  0.6926 -1.2513  1.6927
   94TCq2    C1 1430   2.040   2.340  13.692  0.5946  0.2082  0.3675
   94TCq2    O2 1431   2.098   2.259  13.620  0.2436 -0.0710 -0.1122
   94TCq2    C2 1432   2.116   2.415  13.791  0.1996 -0.4589 -0.1175
   94TCq2    C3 1433   2.059   2.446  13.914  0.5961  0.1552 -0.8565
   94TCq2    C4 1434   2.141   2.496  14.012 -0.1037  0.4209  0.5924
   94TCq2    C5 1435   2.268   2.533  13.976 -0.1677 -0.3434  0.3855
   94TCq2    C6 1436   2.310   2.520  13.845  0.2787  0.2564 -0.5294
   94TCq2    C7 1437   2.238   2.447  13.751 -0.1407 -0.3492  0.2048
   94TCq2    C8 1438   2.453   2.547  13.820  0.3105 -0.4935  0.2580
   94TCq2    O4 1439   2.526   2.538  13.918 -0.5126  0.0529  0.0515
   94TCq2    C9 1440   2.085   2.517  14.142 -0.5120  0.4617  0.5698
   94TCq2    O5 1441   1.982   2.452  14.176 -0.3983  0.1694  0.3527
   94TCq2    O6 1442   2.130   2.615  14.204 -0.2124  0.7088  0.4971
   94TCq2    H2 1443   1.964   2.404  13.945  1.4611 -0.5967  0.8070
   94TCq2    H3 1444   2.333   2.583  14.046 -0.0634 -3.0274  2.2049
   94TCq2    H4 1445   2.277   2.417  13.654 -2.7369  0.3610 -1.0505
   95TMC2    C1 1446   2.477   3.438  15.622  0.6774 -0.4878  0.5922
   95TMC2    C2 1447   2.429   3.319  15.585  0.2345  0.0223  0.3673
   95TMC2    C3 1448   2.356   3.255  15.671 -0.0096 -0.4585  0.7417
   95TMC2    C4 1449   2.461   3.491  15.750 -0.0034  0.0135 -0.4802
   95TMC2    C5 1450   2.384   3.419  15.835  0.1405 -0.1444  0.4485
   95TMC2    C6 1451   2.323   3.305  15.791 -0.0804  0.7407 -1.0623
   95TMC2     C 1452   2.564   3.512  15.533  0.9462 -0.5669  0.2188
   95TMC2     O 1453   2.602   3.619  15.581 -0.5837  0.2521 -0.0973
   95TMC2     H 1454   2.455   3.270  15.492  4.1449  1.3307  0.7366
   95TMC2    H1 1455   2.497   3.590  15.777 -2.7894  0.9429 -0.2686
   95TMC2    H2 1456   2.262   3.246  15.859  0.7826 -1.4796 -2.2225
   95TMC2    C7 1457   2.339   3.485  15.961  0.0217  0.0083  1.0532
   95TMC2    C8 1458   2.289   3.135  15.639 -0.0519  0.1638  0.9373
   95TMC2    O1 1459   2.304   3.415  16.056 -0.1894 -0.4942 -0.1519
   95TMC2    O2 1460   2.238   3.065  15.722 -0.7275 -0.3187 -0.0938
   95TMC2    O5 1461   2.251   3.148  15.509  0.3576  0.4576 -0.6544
   95TMC2    H5 1462   2.286   3.230  15.468  0.5590 -0.4622 -2.3305
   96MPD2     C 1463   2.870   3.614  15.134 -0.0443 -0.3050  0.0114
   96MPD2    C1 1464   2.825   3.693  15.234 -0.3321 -0.5087  0.2025
   96MPD2    C2 1465   2.731   3.645  15.319  0.1951  0.0800  0.3106
   96MPD2    C3 1466   2.672   3.517  15.305 -1.1849  0.7379 -0.3989
   96MPD2    C4 1467   2.708   3.450  15.192 -0.4556  0.2872  0.0012
   96MPD2    C5 1468   2.802   3.499  15.105 -0.3146 -0.1659  0.3397
   96MPD2     H 1469   2.675   3.712  15.383 -0.6469 -1.7240  1.4472
   96MPD2    H1 1470   2.670   3.351  15.169  2.6523 -0.3683 -2.2203
   96MPD2    H2 1471   2.948   3.637  15.063 -1.0055 -2.2058 -1.6990
   96MPD2    H3 1472   2.834   3.434  15.024 -0.5415  1.7058 -1.2684
   96MPD2     N 1473   2.581   3.458  15.398  0.5287 -0.0481 -0.0686
   96MPD2    H5 1474   2.542   3.368  15.372 -0.7109  1.2716 -2.7481
   96MPD2    N1 1475   2.876   3.824  15.249  0.2579  0.0665 -0.1590
   96MPD2    H7 1476   2.952   3.856  15.189  0.8481 -0.9222  0.0706
   97MPD2     C 1477   4.597   1.097   0.211  0.7084 -1.2332 -0.6743
   97MPD2    C1 1478   4.591   1.211   0.287  0.0972  0.0365  0.0038
   97MPD2    C2 1479   4.569   1.329   0.219 -0.4476  0.7446 -0.3677
   97MPD2    C3 1480   4.561   1.333   0.080  0.5057  1.1042 -0.0026
   97MPD2    C4 1481   4.560   1.218   0.006  0.1967 -0.2932  0.3772
   97MPD2    C5 1482   4.586   1.096   0.071  0.5030 -1.1727 -0.4501
   97MPD2     H 1483   4.562   1.416   0.283  1.4498  1.5900 -1.2875
   97MPD2    H1 1484   4.534   1.214  17.601 -0.1713 -1.3556  0.5102
   97MPD2    H2 1485   4.616   0.999   0.253  1.4956 -0.5169  0.6206
   97MPD2    H3 1486   4.588   1.001   0.020  0.1732  0.0495 -2.7327
   97MPD2     N 1487   4.552   1.457   0.010 -0.3674  0.1726  0.1246
   97MPD2    H5 1488   4.536   1.458  17.609 -2.2313 -1.2093  0.4079
   97MPD2    N1 1489   4.605   1.216   0.430 -0.1288  0.7981 -0.0903
   97MPD2    H7 1490   4.589   1.309   0.469 -0.0222  1.7885 -2.3901
   98TCq2    C1 1491   4.584   1.580   0.057 -0.0332 -0.5139  0.5278
   98TCq2    O2 1492   4.636   1.606   0.165 -0.5537 -0.4861 -0.2912
   98TCq2    C2 1493   4.569   1.688  17.660  1.0026  0.1477  0.0333
   98TCq2    C3 1494   4.460   1.689  17.569 -0.2442 -0.8815 -0.5172
   98TCq2    C4 1495   4.429   1.817  17.521  0.3304 -0.1807  0.8460
   98TCq2    C5 1496   4.508   1.926  17.543  0.2031 -0.0101  0.4992
   98TCq2    C6 1497   4.610   1.921  17.633  1.0832  0.3655 -0.1878
   98TCq2    C7 1498   4.645   1.800  17.696 -0.3195  0.3886  0.2386
   98TCq2    C8 1499   4.663   2.043  17.677 -0.1450 -0.8336 -0.0115
   98TCq2    O4 1500   0.047   2.040   0.034 -0.0837  0.2109  0.4573
   98TCq2    C9 1501   4.316   1.832  17.432 -0.0073 -0.0922 -0.1911
   98TCq2    O5 1502   4.245   1.727  17.413 -0.4266 -0.8297 -0.6444
   98TCq2    O6 1503   4.304   1.943  17.373  0.9955  0.1951  0.1075
   98TCq2    H2 1504   4.408   1.601  17.534 -0.3348 -0.5259 -1.2805
   98TCq2    H3 1505   4.487   2.016  17.487 -1.1100 -0.3095  0.4885
   98TCq2    H4 1506   0.007   1.800   0.063 -0.4240  1.7152  0.3711
   99MPD2     C 1507   3.420   3.944   2.096 -0.2509 -0.0565  0.8573
   99MPD2    C1 1508   3.345   3.889   1.999 -0.4081  0.3204 -0.1322
   99MPD2    C2 1509   3.415   3.837   1.889  1.3455  0.5815 -0.0814
   99MPD2    C3 1510   3.552   3.826   1.893 -0.0592  0.6108 -0.0060
   99MPD2    C4 1511   3.620   3.863   2.003  0.1589  0.4188  1.0970
   99MPD2    C5 1512   3.554   3.927   2.108  0.5858 -0.1545  0.2033
   99MPD2     H 1513   3.374   3.812   1.792  1.0605  0.5706  0.0388
   99MPD2    H1 1514   3.728   3.860   2.011  0.2699 -1.3733 -1.3373
   99MPD2    H2 1515   3.382   4.002   2.180 -0.5448  2.1001 -0.7779
   99MPD2    H3 1516   3.616   3.977   2.181 -0.5968 -0.5917  1.4982
   99MPD2     N 1517   3.616   3.778   1.775  0.3455  0.2269  0.0759
   99MPD2    H5 1518   3.546   3.761   1.703 -0.5882  2.0553  0.5304
   99MPD2    N1 1519   3.216   3.928   1.978 -0.1764  0.5942  0.5764
   99MPD2    H7 1520   3.182   3.924   1.882 -2.4135 -0.4152  1.4033
  100TCq2    C1 1521   3.131   3.956   2.074  0.2906  0.2368 -0.2540
  100TCq2    O2 1522   3.137   3.928   2.192  0.4164  0.0195 -0.1084
  100TCq2    C2 1523   2.994   3.999   2.030 -0.0335  0.8096 -0.3707
  100TCq2    C3 1524   2.883   3.960   2.104 -0.1630  0.3992  0.4740
  100TCq2    C4 1525   2.762   3.976   2.039  0.4687  0.5114 -0.1480
  100TCq2    C5 1526   2.757   4.027   1.910  0.1247  0.4898 -0.2929
  100TCq2    C6 1527   2.867   4.052   1.840  0.0436 -0.6851  0.6379
  100TCq2    C7 1528   2.995   4.052   1.904 -0.4055  0.2353  0.1451
  100TCq2    C8 1529   2.857   4.083   1.701 -0.1583  0.0412  0.9235
  100TCq2    O4 1530   2.949   4.145   1.646 -0.1350  0.1238  0.0749
  100TCq2    C9 1531   2.648   3.964   2.120 -0.4251  0.1670 -0.1392
  100TCq2    O5 1532   2.660   3.904   2.228  0.4292  0.1691  0.2511
  100TCq2    O6 1533   2.539   4.007   2.078  0.1394 -0.5344 -0.5320
  100TCq2    H2 1534   2.897   3.928   2.207  1.7900 -3.1619 -0.9090
  100TCq2    H3 1535   2.664   4.070   1.874 -0.1613 -0.9271 -1.2822
  100TCq2    H4 1536   3.080   4.096   1.854  0.6313 -1.8524  0.0302
  101MPD2     C 1537   3.768   0.356  12.931  0.5418 -0.0298 -0.8066
  101MPD2    C1 1538   3.641   0.373  12.899 -0.1864  0.7766  0.4787
  101MPD2    C2 1539   3.554   0.270  12.925 -0.0064 -0.3400 -0.1373
  101MPD2    C3 1540   3.596   0.156  12.993  0.1169 -1.1430 -0.6194
  101MPD2    C4 1541   3.725   0.153  13.044 -0.2891  0.6529 -0.1185
  101MPD2    C5 1542   3.808   0.249  13.010  0.9404  0.0077 -0.0039
  101MPD2     H 1543   3.450   0.267  12.895 -0.7673  0.5430  2.4729
  101MPD2    H1 1544   3.761   0.061  13.088 -0.0897  1.4736  1.4461
  101MPD2    H2 1545   3.849   0.424  12.906 -0.4213  1.7873  0.9455
  101MPD2    H3 1546   3.912   0.243  13.040  0.9636 -2.0301 -0.5357
  101MPD2     N 1547   3.500   0.054  13.014  0.1955  0.0873 -0.2560
  101MPD2    H5 1548   3.405   0.071  12.980  0.9179  1.9622 -1.3058
  101MPD2    N1 1549   3.606   0.478  12.813  0.0606 -0.3636 -0.0665
  101MPD2    H7 1550   3.678   0.543  12.785 -2.2549  1.4244 -1.8522
  102TCq2    C1 1551   3.653   0.841  12.500  0.4808  0.9767  0.0981
  102TCq2    O2 1552   3.760   0.779  12.499 -0.5780  0.6986  0.4112
  102TCq2    C2 1553   3.540   0.789  12.566  0.9286 -0.1354 -0.2055
  102TCq2    C3 1554   3.416   0.827  12.525  0.1356 -0.6194  0.1368
  102TCq2    C4 1555   3.309   0.761  12.581  0.7263 -0.0227  0.2200
  102TCq2    C5 1556   3.330   0.660  12.671  0.5343  0.5672  0.3017
  102TCq2    C6 1557   3.466   0.628  12.701 -1.0463  0.1899 -0.4085
  102TCq2    C7 1558   3.573   0.692  12.648 -0.2694 -0.3868  0.1523
  102TCq2    C8 1559   3.479   0.504  12.774 -0.6400  0.1009 -0.3756
  102TCq2    O4 1560   3.378   0.434  12.778  0.4604 -0.1915 -0.0379
  102TCq2    C9 1561   3.178   0.819  12.567  0.3455  0.1073 -0.2458
  102TCq2    O5 1562   3.085   0.758  12.622  0.2564 -0.2309 -0.1009
  102TCq2    O6 1563   3.171   0.941  12.527  0.1222 -0.2067 -0.2111
  102TCq2    H2 1564   3.386   0.907  12.458 -0.4889  0.2421  1.4396
  102TCq2    H3 1565   3.248   0.614  12.726  1.9496 -0.8897  1.1945
  102TCq2    H4 1566   3.676   0.669  12.669 -0.1028 -1.1467 -1.4590
  103TMC2    C1 1567   2.180   0.645  12.519  0.0241 -0.3127 -0.0940
  103TMC2    C2 1568   2.311   0.671  12.541  0.4710 -0.4302  0.4563
  103TMC2    C3 1569   2.369   0.617  12.654 -0.1497  0.4814  0.7910
  103TMC2    C4 1570   2.099   0.583  12.611 -0.0133 -0.6440  0.2920
  103TMC2    C5 1571   2.162   0.537  12.726 -0.8594 -0.6620  0.3289
  103TMC2    C6 1572   2.294   0.553  12.747 -0.1538 -0.0961  1.1623
  103TMC2     C 1573   2.107   0.715  12.416 -0.2254  0.0831  0.0728
  103TMC2     O 1574   2.002   0.665  12.372  0.2661  0.3555 -0.5248
  103TMC2     H 1575   2.370   0.715  12.462  2.5038 -2.6729  0.7275
  103TMC2    H1 1576   1.995   0.569  12.585  0.6171 -1.1227 -2.0192
  103TMC2    H2 1577   2.334   0.514  12.839  1.4994 -0.2412  0.3796
  103TMC2    C7 1578   2.086   0.455  12.827  0.4861 -0.0662  0.4021
  103TMC2    C8 1579   2.513   0.609  12.649  0.4293 -0.0264 -0.2613
  103TMC2    O1 1580   2.150   0.384  12.906  0.2173 -0.1969  0.2796
  103TMC2    O2 1581   2.576   0.637  12.546  0.0589  0.0620 -0.0261
  103TMC2    O5 1582   2.566   0.608  12.772  0.4253 -0.5044 -0.3540
  103TMC2    H5 1583   2.495   0.598  12.840 -3.0110  0.2267 -3.8590
  104MPD2     C 1584   2.179   1.051  12.282  0.4647  0.6965 -0.5141
  104MPD2    C1 1585   2.123   0.920  12.281  0.5820 -0.2834  0.0825
  104MPD2    C2 1586   2.005   0.900  12.205  0.0585 -0.6343 -0.1294
  104MPD2    C3 1587   1.949   0.994  12.127  0.3209  0.4533 -0.3247
  104MPD2    C4 1588   2.015   1.117  12.119 -0.5034  0.4042 -0.5816
  104MPD2    C5 1589   2.126   1.143  12.195 -0.7898  0.0708  0.5389
  104MPD2     H 1590   1.950   0.808  12.218 -2.1422  0.6375 -0.4328
  104MPD2    H1 1591   1.990   1.203  12.059 -1.5313  0.7999  0.4059
  104MPD2    H2 1592   2.260   1.079  12.348 -0.4108  1.2353  0.3384
  104MPD2    H3 1593   2.169   1.242  12.189 -0.2064 -0.3617 -2.2319
  104MPD2     N 1594   1.820   0.976  12.069 -0.0551 -0.2273  0.0550
  104MPD2    H5 1595   1.772   0.888  12.083  0.2867 -0.6946 -1.7832
  104MPD2    N1 1596   2.168   0.833  12.383 -0.5379 -0.0664  0.0963
  104MPD2    H7 1597   2.246   0.866  12.438 -1.9749  1.4768  1.1766
  105MPD2     C 1598   4.132   4.241   0.048  0.7237 -0.2830 -0.4504
  105MPD2    C1 1599   4.007   4.290   0.042 -0.0532 -0.8665  0.2853
  105MPD2    C2 1600   3.940   4.316   0.164  0.3956  0.1366 -0.1295
  105MPD2    C3 1601   3.990   4.284   0.284 -0.0700  0.3118  0.8040
  105MPD2    C4 1602   4.111   4.217   0.289  0.7508 -0.5303  0.3159
  105MPD2    C5 1603   4.182   4.198   0.168  0.2931  0.2406 -0.0810
  105MPD2     H 1604   3.852   4.379   0.158  0.3906  0.1852  0.4239
  105MPD2    H1 1605   4.153   4.176   0.380  2.8358  1.6093  0.2991
  105MPD2    H2 1606   4.203   4.238  17.665  1.0569  0.3926 -0.1863
  105MPD2    H3 1607   4.287   4.173   0.168  0.6132  1.6015 -1.2046
  105MPD2     N 1608   3.912   4.321   0.394 -0.2036  0.0517 -0.4367
  105MPD2    H5 1609   3.831   4.380   0.377 -0.4365 -0.7721 -2.1823
  105MPD2    N1 1610   3.951   4.334  17.622  0.6899 -0.6882  0.4785
  105MPD2    H7 1611   3.863   4.383  17.632  0.2569 -1.1644 -0.9978
  106TCq2    C1 1612   3.947   4.301   0.527 -0.4428  0.3237  0.1604
  106TCq2    O2 1613   4.058   4.272   0.574 -0.3418 -0.3613 -0.4863
  106TCq2    C2 1614   3.832   4.299   0.625 -0.1594  0.2430 -0.3600
  106TCq2    C3 1615   3.708   4.297   0.569 -1.1167 -0.5963  0.0685
  106TCq2    C4 1616   3.600   4.329   0.650 -0.1743  0.0611 -0.1946
  106TCq2    C5 1617   3.621   4.359   0.783  0.3121 -0.4066 -1.0974
  106TCq2    C6 1618   3.752   4.352   0.838  0.0266 -0.4177 -0.5232
  106TCq2    C7 1619   3.858   4.325   0.756 -0.1831  0.0717 -0.2317
  106TCq2    C8 1620   3.763   4.351   0.978  0.2395  0.4016  0.4622
  106TCq2    O4 1621   3.658   4.361   1.042 -0.3102 -0.8792 -0.3460
  106TCq2    C9 1622   3.465   4.325   0.596  0.0740 -0.3415 -0.3815
  106TCq2    O5 1623   3.375   4.384   0.658 -0.1178  0.3241 -0.1249
  106TCq2    O6 1624   3.457   4.291   0.473  0.6022 -0.1634 -0.0876
  106TCq2    H2 1625   3.691   4.289   0.463 -0.1488 -1.1977 -0.0391
  106TCq2    H3 1626   3.529   4.378   0.837  2.0476 -1.4111  2.2812
  106TCq2    H4 1627   3.959   4.308   0.792 -0.8501  0.7304  1.9563
  107TMC2    C1 1628   4.211   3.868  11.603 -0.0303 -0.2394  0.1390
  107TMC2    C2 1629   4.324   3.941  11.577 -0.2803 -0.0150  0.0358
  107TMC2    C3 1630   4.339   3.977  11.446 -0.2217 -0.6711 -0.8073
  107TMC2    C4 1631   4.136   3.820  11.495 -0.9265  0.1542 -0.4383
  107TMC2    C5 1632   4.169   3.845  11.363  0.4425  0.1667  0.0351
  107TMC2    C6 1633   4.272   3.930  11.337 -0.1159 -0.0325  0.5712
  107TMC2     C 1634   4.169   3.839  11.733  0.3575  0.2758  0.8126
  107TMC2     O 1635   4.051   3.831  11.748  0.4329 -0.2665  0.1672
  107TMC2     H 1636   4.396   3.964  11.654  2.5783 -3.2147 -1.6515
  107TMC2    H1 1637   4.063   3.745  11.522 -0.0569  0.2012  2.1128
  107TMC2    H2 1638   4.310   3.951  11.238 -2.1049  0.3830 -0.1197
  107TMC2    C7 1639   4.067   3.810  11.266 -0.0360 -0.6142 -0.1323
  107TMC2    C8 1640   4.443   4.064  11.412  0.6914  0.0083 -0.2275
  107TMC2    O1 1641   3.985   3.730  11.315  0.0122 -0.2676 -0.0757
  107TMC2    O2 1642   4.528   4.029  11.331 -0.4416 -0.5552  0.1116
  107TMC2    O5 1643   4.456   4.159  11.513  0.0786 -0.1311 -0.0703
  107TMC2    H5 1644   4.374   4.178  11.563  0.7943  1.8340  0.3463
  108MPD2     C 1645   4.377   3.709  12.003 -0.0736  0.4182 -0.0577
  108MPD2    C1 1646   4.263   3.753  11.947  0.3895 -0.4595 -0.5016
  108MPD2    C2 1647   4.145   3.751  12.013 -0.4396  0.2170  0.0050
  108MPD2    C3 1648   4.141   3.689  12.135 -0.7860  0.0235  0.8138
  108MPD2    C4 1649   4.256   3.630  12.191  0.2668  0.0158  0.3111
  108MPD2    C5 1650   4.377   3.656  12.131 -0.3060 -0.2353 -0.2318
  108MPD2     H 1651   4.063   3.811  11.975  0.7453  1.6871 -0.2382
  108MPD2    H1 1652   4.243   3.580  12.287 -0.1965  1.9389  1.2429
  108MPD2    H2 1653   4.472   3.723  11.953 -0.4446  0.3825 -0.7722
  108MPD2    H3 1654   4.471   3.628  12.179 -0.0872 -2.3650 -1.9129
  108MPD2     N 1655   4.019   3.662  12.196  0.2173  0.1740  0.4523
  108MPD2    H5 1656   4.027   3.611  12.284  0.3287  0.5066  0.6374
  108MPD2    N1 1657   4.271   3.812  11.818 -0.1170 -0.8387 -0.2656
  108MPD2    H7 1658   4.362   3.810  11.774 -0.0121  0.1832 -0.1005
  109MPD2     C 1659   0.383   0.653   1.894 -0.1330  0.3824 -0.7524
  109MPD2    C1 1660   0.337   0.672   1.762 -1.0467 -0.3364 -0.0773
  109MPD2    C2 1661   0.420   0.714   1.660  0.4114  0.0057  0.3408
  109MPD2    C3 1662   0.549   0.748   1.683  0.0440  0.0347  0.3791
  109MPD2    C4 1663   0.588   0.746   1.820  0.1023 -0.6353 -0.6397
  109MPD2    C5 1664   0.506   0.697   1.924 -0.5098  0.3480  0.3690
  109MPD2     H 1665   0.374   0.743   1.566  0.8702  1.9000  0.7081
  109MPD2    H1 1666   0.685   0.784   1.849 -0.8728  2.0990 -0.9666
  109MPD2    H2 1667   0.320   0.616   1.974 -0.5914  1.8496 -0.4331
  109MPD2    H3 1668   0.536   0.703   2.028 -2.5958 -0.8816  1.0388
  109MPD2     N 1669   0.622   0.813   1.581  0.1425 -0.2500  0.2186
  109MPD2    H5 1670   0.566   0.836   1.499 -1.3106 -0.7529  1.0550
  109MPD2    N1 1671   0.210   0.624   1.718  0.0957 -0.1555  0.7122
  109MPD2    H7 1672   0.194   0.614   1.618  0.2313  2.8465  0.3894
  110TCq2    C1 1673   0.755   0.851   1.582  0.1409 -0.0757 -0.4390
  110TCq2    O2 1674   0.831   0.818   1.674 -0.1373 -0.4603 -0.3424
  110TCq2    C2 1675   0.802   0.912   1.456  0.0445 -0.2717 -0.0929
  110TCq2    C3 1676   0.933   0.893   1.415 -0.1895 -0.4718  1.0607
  110TCq2    C4 1677   0.967   0.913   1.280  0.4263  0.5907  0.2887
  110TCq2    C5 1678   0.870   0.962   1.197 -0.5006  0.0663  0.1833
  110TCq2    C6 1679   0.741   0.977   1.243 -0.1676 -0.0202  0.0053
  110TCq2    C7 1680   0.701   0.964   1.372  0.4712 -0.0244  0.1023
  110TCq2    C8 1681   0.633   1.022   1.155 -0.3090 -0.4575 -0.4064
  110TCq2    O4 1682   0.517   1.005   1.191  0.6291 -0.4190  0.1516
  110TCq2    C9 1683   1.089   0.863   1.223  1.2978 -0.0888 -1.1034
  110TCq2    O5 1684   1.179   0.809   1.292  0.3758 -0.1224  0.1756
  110TCq2    O6 1685   1.105   0.873   1.098  0.0716  0.4208 -0.0441
  110TCq2    H2 1686   0.997   0.831   1.477  1.1388 -1.9199 -1.7686
  110TCq2    H3 1687   0.899   0.966   1.092  1.6602 -1.2253  0.7499
  110TCq2    H4 1688   0.598   0.974   1.404 -0.5157 -2.0357 -2.4506
  111TMC2    C1 1689   4.311   1.551  11.252 -0.6144  0.1556  0.3124
  111TMC2    C2 1690   4.417   1.583  11.168  0.1547 -0.1640  0.0057
  111TMC2    C3 1691   4.535   1.524  11.204 -0.1069  0.0585 -0.6095
  111TMC2    C4 1692   4.327   1.474  11.369 -0.2070 -0.6049  0.0854
  111TMC2    C5 1693   4.456   1.418  11.394 -0.0654  0.0790  0.2467
  111TMC2    C6 1694   4.558   1.446  11.311 -0.1263 -0.5173 -0.2358
  111TMC2     C 1695   4.187   1.603  11.200  0.7399 -0.2551 -0.2097
  111TMC2     O 1696   4.186   1.619  11.081 -0.4278  0.1904  0.1882
  111TMC2     H 1697   4.413   1.651  11.084 -0.1899 -1.1936 -0.8135
  111TMC2    H1 1698   4.241   1.452  11.431 -1.3454 -1.0226 -1.6676
  111TMC2    H2 1699   4.655   1.399  11.317 -0.5685 -1.3161  0.6819
  111TMC2    C7 1700   4.490   1.369  11.527  0.0431  0.0058  1.1577
  111TMC2    C8 1701   4.651   1.549  11.125  0.0154  0.5372 -0.5953
  111TMC2    O1 1702   4.393   1.346  11.598 -0.4169  0.4237 -0.5225
  111TMC2    O2 1703   0.016   1.467  11.104  0.2503  0.0134 -0.0844
  111TMC2    O5 1704   4.655   1.682  11.125  0.7204  0.5811 -0.2425
  111TMC2    H5 1705   4.576   1.732  11.153 -1.0456 -2.2155 -0.2818
  112MPD2     C 1706   3.670   1.629  11.191 -0.1389 -0.5051  0.1755
  112MPD2    C1 1707   3.769   1.632  11.089  0.4762  0.2393 -0.0344
  112MPD2    C2 1708   3.904   1.618  11.122 -0.5699 -0.3744  0.1365
  112MPD2    C3 1709   3.944   1.595  11.251  0.2171 -0.1736  0.2208
  112MPD2    C4 1710   3.847   1.586  11.346 -0.2849 -0.4297 -0.4606
  112MPD2    C5 1711   3.715   1.609  11.317 -0.0970 -0.1248 -0.4591
  112MPD2     H 1712   3.962   1.617  11.030  0.2171  1.2976  0.6131
  112MPD2    H1 1713   3.862   1.564  11.451  0.2554  0.6849 -0.3135
  112MPD2    H2 1714   3.566   1.647  11.170  0.5276  0.9468 -1.9271
  112MPD2    H3 1715   3.638   1.605  11.393 -0.1766 -1.6710 -0.6212
  112MPD2     N 1716   4.083   1.587  11.287  0.0066  0.0403 -0.1892
  112MPD2    H5 1717   4.111   1.583  11.385 -0.4617  1.1399 -0.0072
  112MPD2    N1 1718   3.731   1.643  10.949 -0.6152 -0.0917  0.2037
  112MPD2    H7 1719   3.803   1.652  10.877 -0.2418 -1.2823  0.4269
  113MPD2     C 1720   2.822   3.354   1.341  0.2925  0.1604  0.6217
  113MPD2    C1 1721   2.760   3.467   1.293 -0.1759  0.7119 -0.1469
  113MPD2    C2 1722   2.639   3.444   1.215  0.6544  0.5406  0.8700
  113MPD2    C3 1723   2.588   3.314   1.201  0.1443 -0.0523 -0.1133
  113MPD2    C4 1724   2.655   3.206   1.254  0.1511 -0.5871  0.2478
  113MPD2    C5 1725   2.767   3.230   1.317  0.2737 -0.2534  0.0998
  113MPD2     H 1726   2.575   3.528   1.189  1.0584  0.0572 -1.7039
  113MPD2    H1 1727   2.601   3.112   1.264 -1.5651  0.3692  0.0630
  113MPD2    H2 1728   2.918   3.359   1.391  0.4903  1.9960  0.0438
  113MPD2    H3 1729   2.808   3.137   1.356  0.9739 -0.2121 -0.5369
  113MPD2     N 1730   2.460   3.280   1.147 -0.0872 -0.2952 -0.4911
  113MPD2    H5 1731   2.427   3.185   1.160  1.2801 -1.2444 -3.8939
  113MPD2    N1 1732   2.814   3.593   1.301 -0.1302 -0.1742 -0.2968
  113MPD2    H7 1733   2.780   3.666   1.240  1.7415 -0.1166 -1.2801
  114TCq2    C1 1734   2.378   3.361   1.067 -0.4808  0.0006 -0.0777
  114TCq2    O2 1735   2.391   3.480   1.045 -0.3635 -0.3458 -0.6397
  114TCq2    C2 1736   2.240   3.314   1.058 -0.0733  0.2779 -0.4510
  114TCq2    C3 1737   2.149   3.404   1.011  0.4623 -1.2398  0.0240
  114TCq2    C4 1738   2.013   3.388   1.022 -0.3982 -0.2966 -0.3401
  114TCq2    C5 1739   1.968   3.271   1.070  0.3283 -0.1906 -0.4638
  114TCq2    C6 1740   2.061   3.171   1.098 -0.4652  0.4483 -0.5446
  114TCq2    C7 1741   2.197   3.190   1.099  0.0761  0.2351 -1.0457
  114TCq2    C8 1742   2.020   3.045   1.162  0.1071  0.1807 -0.1118
  114TCq2    O4 1743   2.096   2.954   1.150 -0.2600 -0.3582 -0.3437
  114TCq2    C9 1744   1.918   3.485   0.986  0.1925  0.1545 -0.7730
  114TCq2    O5 1745   1.800   3.461   1.021  0.1399  0.1148  0.7048
  114TCq2    O6 1746   1.973   3.596   0.965 -0.5294  0.0509  0.2366
  114TCq2    H2 1747   2.184   3.506   0.995 -3.3871  0.2399  0.9585
  114TCq2    H3 1748   1.862   3.251   1.075  0.3909 -0.2110  0.7459
  114TCq2    H4 1749   2.264   3.115   1.140 -4.4355 -4.1345 -1.6574
  115TMC2    C1 1750   2.877   1.730   0.251 -0.1253  0.7130 -0.7357
  115TMC2    C2 1751   2.948   1.706   0.366 -0.6176  0.2214 -0.0679
  115TMC2    C3 1752   2.988   1.816   0.438 -0.4285 -0.4711 -0.4477
  115TMC2    C4 1753   2.851   1.859   0.204 -0.7443  0.3317  0.0339
  115TMC2    C5 1754   2.893   1.966   0.283 -0.7801 -0.1292  0.6534
  115TMC2    C6 1755   2.960   1.944   0.405 -0.1660  0.0329  0.0187
  115TMC2     C 1756   2.839   1.613   0.181 -0.6575 -0.5374  0.0028
  115TMC2     O 1757   2.821   1.620   0.058 -0.0883 -0.5231  0.0352
  115TMC2     H 1758   2.980   1.615   0.414 -0.7897  0.4751  0.5278
  115TMC2    H1 1759   2.784   1.879   0.122 -0.2420 -0.7175 -0.6376
  115TMC2    H2 1760   2.979   2.025   0.475 -0.0006  1.4499 -1.6603
  115TMC2    C7 1761   2.873   2.106   0.241  0.4431 -0.4936 -0.7876
  115TMC2    C8 1762   3.060   1.792   0.558  0.3543  0.3145 -0.2948
  115TMC2    O1 1763   2.895   2.188   0.330 -0.1239 -0.0158 -0.2850
  115TMC2    O2 1764   3.061   1.876   0.649  0.4965  0.2485 -0.2536
  115TMC2    O5 1765   3.146   1.682   0.556 -0.6545  0.3116  0.4857
  115TMC2    H5 1766   3.157   1.640   0.468  0.8262  2.7518 -0.4880
  116MPD2     C 1767   2.758   1.109   0.184  0.1151 -0.4918  0.1823
  116MPD2    C1 1768   2.765   1.196   0.078  0.3063 -0.4511 -0.3120
  116MPD2    C2 1769   2.779   1.336   0.100  0.0711 -0.2330 -0.1903
  116MPD2    C3 1770   2.796   1.379   0.231 -0.2500 -0.5029 -0.5047
  116MPD2    C4 1771   2.779   1.289   0.335 -0.0172 -0.0898  0.2521
  116MPD2    C5 1772   2.764   1.156   0.309  0.7698  0.5506  0.6692
  116MPD2     H 1773   2.784   1.400   0.012 -0.2410 -1.3402 -1.0081
  116MPD2    H1 1774   2.790   1.317   0.439 -2.3934 -1.0634  0.7557
  116MPD2    H2 1775   2.747   1.001   0.179 -2.6638 -0.2109  0.1238
  116MPD2    H3 1776   2.756   1.086   0.391 -1.8593 -0.4477 -0.4244
  116MPD2     N 1777   2.827   1.510   0.263 -0.3707  0.6459 -0.1912
  116MPD2    H5 1778   2.824   1.529   0.363 -0.1195  2.0910 -0.4641
  116MPD2    N1 1779   2.751   1.141  17.647 -0.0876  0.0142  0.3355
  116MPD2    H7 1780   2.726   1.044  17.636 -0.7753  0.0670  1.4818
  117TMC2    C1 1781   1.355   2.629  14.094 -0.5528  0.2525 -0.3721
  117TMC2    C2 1782   1.383   2.502  14.107 -0.5165  0.2782 -0.0376
  117TMC2    C3 1783   1.512   2.454  14.119  0.1327  0.1122 -0.0692
  117TMC2    C4 1784   1.448   2.726  14.115  0.0284  0.1626 -0.4623
  117TMC2    C5 1785   1.580   2.678  14.148  0.4008 -0.0451 -0.2194
  117TMC2    C6 1786   1.607   2.544  14.152  0.2768 -0.4903  0.2592
  117TMC2     C 1787   1.225   2.669  14.064  0.3101 -0.3454  0.1127
  117TMC2     O 1788   1.137   2.587  14.058 -0.2092 -0.0834 -0.4505
  117TMC2     H 1789   1.304   2.429  14.092 -1.5763  1.3332  0.4026
  117TMC2    H1 1790   1.434   2.833  14.113 -0.7268  0.0731  0.1977
  117TMC2    H2 1791   1.709   2.507  14.163 -0.2396 -1.6892  1.0372
  117TMC2    C7 1792   1.686   2.779  14.135 -0.3686 -0.9069 -0.2819
  117TMC2    C8 1793   1.531   2.318  14.069  0.9390 -0.2108 -0.0752
  117TMC2    O1 1794   1.798   2.744  14.095  0.0967  0.1268 -0.4193
  117TMC2    O2 1795   1.456   2.225  14.087 -0.3502  0.5204 -0.3928
  117TMC2    O5 1796   1.659   2.306  14.033 -0.1415  0.3429 -0.5840
  117TMC2    H5 1797   1.701   2.395  14.022  0.4731 -0.4091 -4.3901
  118MPD2     C 1798   1.726   3.086  14.318  0.2714  0.9705  0.4180
  118MPD2    C1 1799   1.738   3.000  14.214  0.2016 -0.8087  0.5161
  118MPD2    C2 1800   1.820   3.032  14.103 -0.4165  0.0071  0.1344
  118MPD2    C3 1801   1.889   3.147  14.105 -0.2670 -0.7486  0.5815
  118MPD2    C4 1802   1.888   3.223  14.220 -0.3691  0.2005 -0.1566
  118MPD2    C5 1803   1.811   3.188  14.331 -0.0487 -0.1590 -0.0195
  118MPD2     H 1804   1.824   2.966  14.017 -0.2721  1.2178 -0.7829
  118MPD2    H1 1805   1.941   3.316  14.234 -0.7855  0.2606  0.9568
  118MPD2    H2 1806   1.658   3.060  14.398  0.8427  3.9064  1.8672
  118MPD2    H3 1807   1.810   3.239  14.426  1.1326  0.4803 -0.3514
  118MPD2     N 1808   1.967   3.192  13.991  0.0522 -0.7208  0.4043
  118MPD2    H5 1809   2.036   3.264  14.008 -1.2801  0.2014  1.9279
  118MPD2    N1 1810   1.653   2.890  14.210 -0.5483  0.3465 -0.0851
  118MPD2    H7 1811   1.567   2.881  14.264  0.9137 -1.0108  1.9847
  119MPD2     C 1812   4.653   0.211  13.615 -0.8009  0.2250 -0.1072
  119MPD2    C1 1813   4.560   0.123  13.672 -0.3938  0.3298 -0.0485
  119MPD2    C2 1814   4.504   0.030  13.593  0.1988 -0.0301 -0.2027
  119MPD2    C3 1815   4.524   0.029  13.459 -0.1652  0.0170 -0.6099
  119MPD2    C4 1816   4.611   0.119  13.401  0.0720  0.1714 -0.1524
  119MPD2    C5 1817   4.667   0.213  13.477  1.1140 -1.0092  1.1529
  119MPD2     H 1818   4.443   4.677  13.638 -0.8943  1.2925  0.6243
  119MPD2    H1 1819   4.646   0.117  13.298  0.3647  0.7637 -0.0603
  119MPD2    H2 1820   4.712   0.280  13.675 -2.0722  0.3652  0.9893
  119MPD2    H3 1821   0.009   0.287  13.435 -0.0020 -0.0357  1.0992
  119MPD2     N 1822   4.469   4.650  13.375 -0.1968  0.2197 -0.0118
  119MPD2    H5 1823   4.508   4.636  13.283  2.2115  0.3613  0.9908
  119MPD2    N1 1824   4.549   0.114  13.809  0.0693 -0.4626 -0.1368
  119MPD2    H7 1825   4.617   0.163  13.866 -0.5485 -1.2188  1.2599
  120TCq2    C1 1826   4.381   4.550  13.423  1.1158  0.6794 -0.2328
  120TCq2    O2 1827   4.319   4.542  13.531 -0.0093 -0.0503 -0.5050
  120TCq2    C2 1828   4.353   4.454  13.319 -0.5067  0.6740 -0.0243
  120TCq2    C3 1829   4.457   4.398  13.243 -0.0692 -0.1320  0.0265
  120TCq2    C4 1830   4.448   4.276  13.190 -0.2821 -0.7644 -0.2380
  120TCq2    C5 1831   4.330   4.194  13.223  0.6031  1.1325  0.3640
  120TCq2    C6 1832   4.233   4.249  13.299 -0.4786 -0.3055 -0.1270
  120TCq2    C7 1833   4.248   4.371  13.349  0.4207  0.3459  0.9785
  120TCq2    C8 1834   4.156   4.152  13.380 -0.1913 -0.3796 -0.8192
  120TCq2    O4 1835   4.205   4.051  13.434  0.3951 -0.4072 -0.0804
  120TCq2    C9 1836   4.555   4.228  13.099 -0.2317 -0.1653  0.4964
  120TCq2    O5 1837   4.664   4.292  13.088  0.1412 -0.3083 -0.2648
  120TCq2    O6 1838   4.525   4.129  13.032 -0.2903 -0.5747  0.5520
  120TCq2    H2 1839   4.552   4.446  13.223 -0.1061  0.8322  2.1486
  120TCq2    H3 1840   4.307   4.097  13.179  1.7174  0.3781  1.4383
  120TCq2    H4 1841   4.162   4.420  13.393 -1.9190 -1.7779 -1.2437
  121TMC2    C1 1842   1.392   1.063  14.009  0.0908 -0.4408 -0.0945
  121TMC2    C2 1843   1.480   0.987  14.081 -0.5097 -0.6385 -0.0020
  121TMC2    C3 1844   1.473   0.853  14.057 -0.4278  0.6780 -0.0010
  121TMC2    C4 1845   1.291   1.007  13.932 -0.6480 -0.1594  0.6327
  121TMC2    C5 1846   1.284   0.870  13.925  0.0342 -0.1734 -1.5510
  121TMC2    C6 1847   1.378   0.788  13.979 -0.1383 -0.0822 -0.0148
  121TMC2     C 1848   1.404   1.202  14.026 -0.0506  0.3558 -0.3098
  121TMC2     O 1849   1.433   1.233  14.144 -1.0268 -0.2101  0.5406
  121TMC2     H 1850   1.548   1.027  14.155 -3.0626  0.1184  1.9231
  121TMC2    H1 1851   1.217   1.067  13.880  1.1235  0.0165 -1.6382
  121TMC2    H2 1852   1.377   0.680  13.980 -2.1879 -0.0660 -1.0075
  121TMC2    C7 1853   1.175   0.804  13.852  0.5118  0.5369  0.0446
  121TMC2    C8 1854   1.563   0.776  14.148  0.5677 -0.1486 -0.3275
  121TMC2    O1 1855   1.195   0.687  13.815  0.6445  0.9408  0.1583
  121TMC2    O2 1856   1.674   0.819  14.177 -0.2038  0.7028 -0.1529
  121TMC2    O5 1857   1.483   0.706  14.231  0.1749  0.3900  0.2034
  121TMC2    H5 1858   1.395   0.678  14.200 -0.7030  3.4756 -0.0932
  122MPD2     C 1859   1.418   1.495  13.990  0.2011 -0.2554 -0.1785
  122MPD2    C1 1860   1.404   1.410  13.891  0.4822  0.1240  0.1252
  122MPD2    C2 1861   1.415   1.445  13.757  0.3701 -0.0741 -0.3934
  122MPD2    C3 1862   1.442   1.578  13.730  0.9376  0.5281  0.0585
  122MPD2    C4 1863   1.445   1.673  13.826  0.2145  0.5060 -0.0591
  122MPD2    C5 1864   1.445   1.630  13.959 -0.3293  0.2820 -0.3231
  122MPD2     H 1865   1.413   1.366  13.682  0.1510 -1.5253  1.1261
  122MPD2    H1 1866   1.487   1.770  13.804 -1.6125  1.3017 -0.0078
  122MPD2    H2 1867   1.394   1.462  14.090 -2.4560  0.7647 -0.4555
  122MPD2    H3 1868   1.460   1.703  14.038 -1.6576 -0.9141  1.0413
  122MPD2     N 1869   1.467   1.623  13.599  0.2226  0.3607 -0.0319
  122MPD2    H5 1870   1.509   1.715  13.592  1.6437 -0.0324  3.5755
  122MPD2    N1 1871   1.378   1.274  13.912 -0.0622  0.4037 -0.2010
  122MPD2    H7 1872   1.363   1.215  13.831  0.9429 -0.2657  0.1068
  123MPD2     C 1873   4.536   0.775  10.703 -0.3847  0.4353 -0.1793
  123MPD2    C1 1874   4.535   0.652  10.642  0.1877  0.8806  0.2435
  123MPD2    C2 1875   4.563   0.648  10.502  1.1528 -0.9951  0.9717
  123MPD2    C3 1876   4.581   0.765  10.432  0.1313 -0.1304 -0.6556
  123MPD2    C4 1877   4.584   0.881  10.503 -0.4774 -0.1243  0.2825
  123MPD2    C5 1878   4.572   0.885  10.639 -1.1285  0.3053  0.1426
  123MPD2     H 1879   4.575   0.552  10.454 -1.5724 -0.8807  0.0962
  123MPD2    H1 1880   4.586   0.978  10.455  0.9563 -1.1812 -1.7807
  123MPD2    H2 1881   4.512   0.789  10.807 -0.4272 -0.6909 -0.0325
  123MPD2    H3 1882   4.567   0.979  10.693 -2.2229 -0.8880  2.1185
  123MPD2     N 1883   4.586   0.761  10.289 -0.0188  0.3196  0.8860
  123MPD2    H5 1884   4.591   0.668  10.249  3.6886  1.4297 -1.2373
  123MPD2    N1 1885   4.511   0.539  10.715  0.4464  0.0616  0.6816
  123MPD2    H7 1886   4.518   0.551  10.815  0.8651  0.8914  0.5495
  124TCq2    C1 1887   4.589   0.864  10.197 -0.1177 -0.8798  0.2985
  124TCq2    O2 1888   4.591   0.985  10.217 -0.4478  0.2001  0.1765
  124TCq2    C2 1889   4.576   0.803  10.067 -0.6003 -0.5334  0.3897
  124TCq2    C3 1890   4.580   0.894   9.963 -0.7682 -0.0389  0.6033
  124TCq2    C4 1891   4.570   0.845   9.835 -0.7737  0.6424 -1.1544
  124TCq2    C5 1892   4.557   0.710   9.811  0.1644  0.4392  0.1860
  124TCq2    C6 1893   4.538   0.626   9.916  1.3297  0.1015 -0.0372
  124TCq2    C7 1894   4.553   0.671  10.044  0.6863 -0.9304 -0.3936
  124TCq2    C8 1895   4.494   0.485   9.894  0.2079  0.7471 -0.5561
  124TCq2    O4 1896   4.507   0.393   9.974 -0.3519  0.5049  0.8042
  124TCq2    C9 1897   4.562   0.929   9.721 -1.0298  0.8456 -0.7329
  124TCq2    O5 1898   4.599   1.050   9.743 -0.4652  0.1597 -0.7225
  124TCq2    O6 1899   4.538   0.871   9.608 -0.5477  0.1244 -0.2153
  124TCq2    H2 1900   4.582   0.999   9.991  0.7301 -0.1309  0.8355
  124TCq2    H3 1901   4.549   0.672   9.710  2.1901  1.4179 -0.3339
  124TCq2    H4 1902   4.546   0.601  10.126  0.6043 -1.3192 -0.7304
  125TMC2    C1 1903   0.013   2.931   9.300  0.1349  0.1783 -0.3369
  125TMC2    C2 1904   4.683   2.803   9.299 -0.3970 -0.0550 -0.2924
  125TMC2    C3 1905   0.026   2.708   9.229 -0.2297 -0.4791 -0.3341
  125TMC2    C4 1906   0.137   2.956   9.254  0.0267 -1.2560 -0.6068
  125TMC2    C5 1907   0.200   2.862   9.182 -0.0982  0.0942 -0.3480
  125TMC2    C6 1908   0.145   2.735   9.167  0.8731 -0.1157  0.9424
  125TMC2     C 1909   4.680   3.026   9.391  0.1323 -0.4783 -0.0592
  125TMC2     O 1910   4.555   3.032   9.380  0.0514  0.2683 -0.0520
  125TMC2     H 1911   4.586   2.788   9.346  0.3131 -1.2265  0.7838
  125TMC2    H1 1912   0.175   3.057   9.250  1.9070 -1.8661  1.7063
  125TMC2    H2 1913   0.187   2.654   9.109 -1.7960 -0.4161 -0.5375
  125TMC2    C7 1914   0.328   2.894   9.111 -0.2898  0.6710  0.2109
  125TMC2    C8 1915   4.703   2.570   9.216  0.4466 -0.2181  0.4381
  125TMC2    O1 1916   0.352   3.009   9.081 -0.0867  0.0583  0.3291
  125TMC2    O2 1917   0.061   2.477   9.213 -0.2548  0.3608 -0.1904
  125TMC2    O5 1918   4.576   2.558   9.248  0.1622  0.3863 -0.7313
  125TMC2    H5 1919   4.549   2.652   9.247 -4.0577 -0.8035 -0.7811
  126MPD1     C 1920   4.692   3.399   9.737  0.7186 -0.2254 -0.1720
  126MPD1    C1 1921   0.096   3.345   9.722  0.0236  0.1037 -0.2391
  126MPD1    C2 1922   0.114   3.240   9.645  0.3831 -0.8576 -0.4881
  126MPD1    C3 1923   0.015   3.190   9.565  0.2769 -0.0281  0.6718
  126MPD1    C4 1924   4.617   3.259   9.568  0.7290 -0.0633 -0.2011
  126MPD1    C5 1925   4.590   3.360   9.652 -0.2060  1.2473 -0.1142
  126MPD1     H 1926   0.209   3.189   9.637  0.0944 -1.6673  1.3929
  126MPD1    H1 1927   4.533   3.230   9.507 -0.0824  1.7615  0.0629
  126MPD1    H2 1928   4.673   3.471   9.815  1.3192  0.5320 -0.7317
  126MPD1    H3 1929   4.491   3.404   9.654  0.0722  1.8868 -0.1487
  126MPD1     N 1930   0.049   3.084   9.482  0.2656  0.4269 -0.8319
  126MPD1    H5 1931   0.142   3.045   9.474 -1.2018 -3.1396 -0.3309
  126MPD1    N1 1932   0.191   3.368   9.820  0.6210 -0.3722  0.3624
  126MPD1    H6 1933   0.175   3.460   9.861  0.8257 -0.1998  0.0565
  126MPD1    H7 1934   0.289   3.356   9.794  0.7673  1.0073  0.2531
  127MPD2     C 1935   1.126   0.911   9.236  0.4277  0.0680 -0.4067
  127MPD2    C1 1936   1.192   0.941   9.353  0.3545 -0.1351  0.3816
  127MPD2    C2 1937   1.301   1.024   9.340  0.2971 -0.1392  0.5150
  127MPD2    C3 1938   1.339   1.078   9.226 -0.5235 -0.2098  0.3163
  127MPD2    C4 1939   1.273   1.055   9.108 -0.4202  0.6560 -0.3488
  127MPD2    C5 1940   1.169   0.963   9.110 -0.0489  0.9740  0.3000
  127MPD2     H 1941   1.367   1.050   9.422 -1.3192  1.5879  1.2809
  127MPD2    H1 1942   1.305   1.086   9.009  2.6210  1.9335  1.0457
  127MPD2    H2 1943   1.050   0.834   9.225 -0.7518  1.1115  0.4274
  127MPD2    H3 1944   1.115   0.937   9.020 -1.2739 -1.0495  1.6180
  127MPD2     N 1945   1.455   1.159   9.233  0.4764  0.9673  0.2451
  127MPD2    H5 1946   1.493   1.162   9.327 -0.2072 -2.8019  0.6276
  127MPD2    N1 1947   1.160   0.865   9.467  0.7620 -0.6956 -0.6574
  127MPD2    H7 1948   1.083   0.799   9.462 -0.4243  0.5799  0.4656
  128TCq2    C1 1949   1.228   0.864   9.586  0.5271 -0.6487  0.6248
  128TCq2    O2 1950   1.306   0.947   9.631 -0.1930 -0.8140 -0.4161
  128TCq2    C2 1951   1.165   0.779   9.689 -0.3473 -0.2854  0.2867
  128TCq2    C3 1952   1.237   0.759   9.807 -0.6474 -0.5113 -0.4962
  128TCq2    C4 1953   1.194   0.664   9.891 -0.8903 -0.0916  0.6464
  128TCq2    C5 1954   1.072   0.598   9.872  0.6603  0.1576 -0.0869
  128TCq2    C6 1955   1.004   0.627   9.759 -0.3540  0.2604  0.8676
  128TCq2    C7 1956   1.049   0.708   9.658 -0.1691 -0.2649  0.7350
  128TCq2    C8 1957   0.881   0.555   9.726 -0.5503  1.3022 -0.5071
  128TCq2    O4 1958   0.798   0.605   9.652  0.7780 -0.0117 -0.5831
  128TCq2    C9 1959   1.266   0.631  10.010  0.1222  1.0416 -0.2853
  128TCq2    O5 1960   1.349   0.720  10.048  0.3557 -0.0188  0.1618
  128TCq2    O6 1961   1.219   0.537  10.077 -0.0150  0.8148  0.4583
  128TCq2    H2 1962   1.331   0.809   9.825 -1.2997  0.3646  0.4624
  128TCq2    H3 1963   1.015   0.557   9.955 -0.4398 -0.1134 -0.9870
  128TCq2    H4 1964   0.991   0.718   9.567 -1.4609 -1.1453  1.4536
  129MPD2     C 1965   0.554   0.695   0.983  0.9937  0.2129 -0.4723
  129MPD2    C1 1966   0.679   0.674   1.041  0.0500  0.1343 -0.3511
  129MPD2    C2 1967   0.791   0.730   0.981 -0.0832 -0.2605 -0.4225
  129MPD2    C3 1968   0.782   0.815   0.878  0.9651 -0.4521  0.2193
  129MPD2    C4 1969   0.656   0.839   0.831 -0.0554  0.8223  0.2591
  129MPD2    C5 1970   0.539   0.777   0.875  0.4267 -0.3169 -0.1057
  129MPD2     H 1971   0.888   0.709   1.024 -0.2306  0.7982  0.4350
  129MPD2    H1 1972   0.633   0.923   0.766 -0.5085  0.3702 -0.1639
  129MPD2    H2 1973   0.466   0.658   1.035  1.8910  0.5573  1.3099
  129MPD2    H3 1974   0.444   0.798   0.828  0.1295  2.0158  1.5642
  129MPD2     N 1975   0.899   0.894   0.843  0.6949 -0.4953 -0.2469
  129MPD2    H5 1976   0.984   0.886   0.898  0.4711 -0.3808  0.1162
  129MPD2    N1 1977   0.702   0.592   1.154 -0.6909 -0.4611 -0.7515
  129MPD2    H7 1978   0.794   0.605   1.195 -0.4280  0.0297 -1.4908
  130TCq2    C1 1979   0.602   0.526   1.224 -0.1383 -0.2956  0.2493
  130TCq2    O2 1980   0.486   0.504   1.194 -0.4283  0.4258 -0.5223
  130TCq2    C2 1981   0.646   0.509   1.364 -0.2925 -0.5651  0.1753
  130TCq2    C3 1982   0.765   0.545   1.418  0.3624  0.7195  0.4482
  130TCq2    C4 1983   0.799   0.503   1.540  0.0199 -0.0857 -0.0632
  130TCq2    C5 1984   0.711   0.426   1.617 -0.4126  0.1214 -0.5136
  130TCq2    C6 1985   0.589   0.403   1.568 -0.2704  0.8269  0.0263
  130TCq2    C7 1986   0.555   0.446   1.444 -0.7629 -0.6349  0.2672
  130TCq2    C8 1987   0.480   0.346   1.647  0.1403 -0.6035  0.4804
  130TCq2    O4 1988   0.372   0.329   1.591  0.0062 -0.3966 -0.2252
  130TCq2    C9 1989   0.928   0.543   1.602 -0.2912  0.2500  0.2564
  130TCq2    O5 1990   0.935   0.514   1.724 -0.1540  0.4601 -0.2263
  130TCq2    O6 1991   1.025   0.578   1.530  0.6500 -0.1185  0.0848
  130TCq2    H2 1992   0.834   0.614   1.369 -0.1414  1.1028  0.2860
  130TCq2    H3 1993   0.753   0.386   1.708 -0.7296 -0.6356 -0.7011
  130TCq2    H4 1994   0.464   0.416   1.392 -0.5037 -2.0175  0.6004
  131MPD2     C 1995   3.956   4.562  10.340  0.0046 -0.4658  0.1233
  131MPD2    C1 1996   4.062   4.635  10.282 -1.2926 -0.5754 -0.1233
  131MPD2    C2 1997   4.155   4.691  10.371  1.1666  0.7414  0.4991
  131MPD2    C3 1998   4.148   4.669  10.506  0.9643 -0.1040  0.0305
  131MPD2    C4 1999   4.048   4.592  10.555  0.1768 -0.0538 -0.2834
  131MPD2    C5 2000   3.949   4.545  10.476 -0.8319 -0.5664  0.4654
  131MPD2     H 2001   4.229   0.042  10.347  1.2415  1.0801  1.8050
  131MPD2    H1 2002   4.017   4.593  10.659  0.4438  0.2175 -0.2074
  131MPD2    H2 2003   3.876   4.524  10.277 -0.1695  0.1541 -0.0315
  131MPD2    H3 2004   3.870   4.496  10.532 -0.2988  0.1674  1.8649
  131MPD2     N 2005   4.237   0.023  10.584  0.2234 -0.1365  0.5545
  131MPD2    H5 2006   4.317   0.063  10.536  0.0268  1.5637  1.6515
  131MPD2    N1 2007   4.053   4.682  10.148  0.6963 -0.3596  0.5063
  131MPD2    H7 2008   3.958   4.674  10.112  0.2433  0.7196  1.4478
  132TCq2    C1 2009   4.139   0.493   9.993  0.7616  0.0080 -0.0674
  132TCq2    O2 2010   4.219   0.495  10.084 -0.0306  0.1162 -0.2165
  132TCq2    C2 2011   4.086   0.361   9.960  0.5460  0.4945 -0.0753
  132TCq2    C3 2012   3.967   0.350   9.901  0.1114  0.9774  0.2527
  132TCq2    C4 2013   3.913   0.227   9.898  0.1002  0.1554  0.0928
  132TCq2    C5 2014   3.989   0.118   9.935 -0.8973  0.7759 -0.2043
  132TCq2    C6 2015   4.117   0.128   9.989  0.2783  0.0534  0.3751
  132TCq2    C7 2016   4.159   0.258  10.005 -0.4554 -0.0347 -0.6692
  132TCq2    C8 2017   4.149   0.036  10.095  0.6746 -0.0342  0.4348
  132TCq2    O4 2018   4.266   0.045  10.129 -0.1923 -0.4912  0.4812
  132TCq2    C9 2019   3.793   0.201   9.826  0.3483 -0.2114 -0.3864
  132TCq2    O5 2020   3.758   0.080   9.808  0.3756  0.1768 -0.1022
  132TCq2    O6 2021   3.734   0.308   9.786  0.0251 -0.3917  0.2136
  132TCq2    H2 2022   3.920   0.442   9.867 -1.9470 -0.7660 -1.6527
  132TCq2    H3 2023   3.946   0.021   9.914  1.6058 -0.1577 -1.1332
  132TCq2    H4 2024   4.258   0.280  10.042 -0.5172 -0.5866 -0.1764
  133MPD2     C 2025   3.143   2.068   9.434  0.8707 -0.4212  0.0021
  133MPD2    C1 2026   3.215   1.976   9.356 -0.0090  0.0982 -0.1737
  133MPD2    C2 2027   3.151   1.880   9.280  0.0038 -0.3358 -0.0615
  133MPD2    C3 2028   3.019   1.852   9.302 -0.1898  1.3875  0.0216
  133MPD2    C4 2029   2.949   1.947   9.377 -0.5494 -0.5312  0.5269
  133MPD2    C5 2030   3.007   2.056   9.428  0.1491  0.6939 -0.0519
  133MPD2     H 2031   3.213   1.824   9.211  1.2230  0.5573  0.3002
  133MPD2    H1 2032   2.841   1.942   9.388 -0.7432  2.0278 -0.4707
  133MPD2    H2 2033   3.192   2.146   9.490  0.9411 -0.9270  0.6488
  133MPD2    H3 2034   2.955   2.135   9.481 -2.7051 -0.8654 -0.5220
  133MPD2     N 2035   2.941   1.757   9.231  0.0942  0.0499  0.0540
  133MPD2    H5 2036   2.842   1.752   9.249  0.1954 -1.6467  0.1298
  133MPD2    N1 2037   3.360   2.001   9.351 -0.6344 -0.4770 -0.0697
  133MPD2    H7 2038   3.391   2.072   9.416 -2.9458 -0.1152  0.6491
  134TCq2    C1 2039   3.456   1.949   9.268  0.5131 -0.2160 -0.0322
  134TCq2    O2 2040   3.456   1.874   9.169 -0.3779 -0.4159  1.0215
  134TCq2    C2 2041   3.581   2.019   9.290  0.0954  0.7177  0.0128
  134TCq2    C3 2042   3.636   2.098   9.195  0.0046 -0.4439 -0.1281
  134TCq2    C4 2043   3.734   2.188   9.229  0.2697  0.6801 -0.1470
  134TCq2    C5 2044   3.781   2.196   9.354 -1.3499 -0.3930 -0.1750
  134TCq2    C6 2045   3.722   2.121   9.453 -0.4771  0.8924  0.3105
  134TCq2    C7 2046   3.628   2.027   9.418 -0.4062  0.1206 -0.4348
  134TCq2    C8 2047   3.754   2.135   9.600  0.3518 -0.3745  0.5131
  134TCq2    O4 2048   3.697   2.061   9.679 -0.3527  0.0111  0.6173
  134TCq2    C9 2049   3.791   2.279   9.124 -0.1285  0.1203 -0.4194
  134TCq2    O5 2050   3.882   2.363   9.160  0.0252  0.6753 -0.2714
  134TCq2    O6 2051   3.762   2.258   9.005 -0.5202 -0.0053 -0.6247
  134TCq2    H2 2052   3.598   2.088   9.094  1.5460  1.8252 -0.9473
  134TCq2    H3 2053   3.857   2.269   9.377 -2.7040  0.5608  1.3050
  134TCq2    H4 2054   3.585   1.964   9.496 -0.7680 -2.4995 -2.7487
  135MPD2     C 2055   1.084   2.563   9.394 -0.6592 -0.6474  0.3863
  135MPD2    C1 2056   1.031   2.636   9.287 -0.1831 -0.1122  0.5265
  135MPD2    C2 2057   1.089   2.635   9.162 -0.2586 -0.1132 -0.1081
  135MPD2    C3 2058   1.208   2.560   9.151 -0.1465  0.4617  0.0582
  135MPD2    C4 2059   1.269   2.499   9.257  0.4859  0.1025  0.1124
  135MPD2    C5 2060   1.212   2.506   9.380  0.3001  0.2184  0.1826
  135MPD2     H 2061   1.049   2.701   9.086 -1.6326 -0.2147  0.5396
  135MPD2    H1 2062   1.361   2.444   9.240  0.3744 -0.1877  0.4577
  135MPD2    H2 2063   1.044   2.562   9.495 -1.4359 -1.5489  0.0722
  135MPD2    H3 2064   1.258   2.442   9.454 -1.2989  0.2815  1.2318
  135MPD2     N 2065   1.273   2.537   9.026 -0.5238  0.2684 -0.3409
  135MPD2    H5 2066   1.364   2.492   9.036  0.2688  2.0225  0.2465
  135MPD2    N1 2067   0.906   2.702   9.298  0.2271  1.1008  0.0598
  135MPD2    H7 2068   0.881   2.747   9.210 -0.6602 -0.1055 -0.2985
  136TCq2    C1 2069   0.826   2.713   9.406  0.6989  0.1158 -0.4182
  136TCq2    O2 2070   0.823   2.643   9.510 -0.1748 -0.1477 -0.0549
  136TCq2    C2 2071   0.731   2.822   9.386  0.0189 -0.0542 -0.8417
  136TCq2    C3 2072   0.772   2.935   9.321 -0.0272  0.0036  0.5078
  136TCq2    C4 2073   0.688   3.039   9.308  0.4064 -0.3683 -0.4912
  136TCq2    C5 2074   0.568   3.039   9.373 -0.3545 -0.0196  0.7728
  136TCq2    C6 2075   0.533   2.925   9.439  0.0065  0.3433  0.8934
  136TCq2    C7 2076   0.616   2.821   9.455 -0.3027 -0.6501 -0.0283
  136TCq2    C8 2077   0.394   2.907   9.482  0.2079  0.8713 -1.2323
  136TCq2    O4 2078   0.333   3.015   9.478 -0.0603  0.8358 -0.0470
  136TCq2    C9 2079   0.738   3.162   9.249 -0.1162  0.1508  0.0482
  136TCq2    O5 2080   0.865   3.184   9.256 -0.8011  0.1700 -0.6135
  136TCq2    O6 2081   0.653   3.247   9.209 -0.6438 -0.3153  0.3354
  136TCq2    H2 2082   0.865   2.954   9.269  0.3028  1.1511  1.5311
  136TCq2    H3 2083   0.507   3.128   9.363  0.4526  0.2381 -1.7674
  136TCq2    H4 2084   0.591   2.738   9.521 -0.6074  0.4211  1.2048
  137MPD2     C 2085   0.476   1.396   8.386  0.2825  0.1539 -0.1769
  137MPD2    C1 2086   0.425   1.368   8.513  0.0331 -0.1634 -0.1356
  137MPD2    C2 2087   0.481   1.435   8.624  0.2898 -0.0502 -0.3396
  137MPD2    C3 2088   0.588   1.518   8.606 -0.8708 -0.0890  0.2381
  137MPD2    C4 2089   0.640   1.537   8.478 -0.0352  0.2982 -0.2484
  137MPD2    C5 2090   0.583   1.482   8.365 -0.4518 -0.2150  0.5478
  137MPD2     H 2091   0.441   1.431   8.725 -0.3610  1.4177 -0.5237
  137MPD2    H1 2092   0.732   1.593   8.465 -1.0939  1.9183 -0.8370
  137MPD2    H2 2093   0.436   1.331   8.308 -1.1293  2.1913 -1.1542
  137MPD2    H3 2094   0.642   1.496   8.275 -2.5353 -0.7704 -0.9101
  137MPD2     N 2095   0.641   1.570   8.725 -0.3424 -0.3928 -0.0226
  137MPD2    H5 2096   0.605   1.545   8.817 -0.4986  0.9860  0.2977
  137MPD2    N1 2097   0.317   1.277   8.520 -0.4279  0.2415 -0.3994
  137MPD2    H7 2098   0.274   1.247   8.433  0.6008  2.0455 -1.5219
  138TCq2    C1 2099   0.247   1.247   8.634  0.1630 -0.1000  0.2427
  138TCq2    O2 2100   0.248   1.296   8.746  0.7475  0.2683  0.0939
  138TCq2    C2 2101   0.157   1.139   8.608  0.0063  0.2352 -0.8528
  138TCq2    C3 2102   0.184   1.041   8.516 -0.6269 -0.1464 -0.1605
  138TCq2    C4 2103   0.083   0.947   8.506  0.1964  0.2159 -0.1650
  138TCq2    C5 2104   4.705   0.935   8.600 -0.0329 -0.0793  0.4112
  138TCq2    C6 2105   4.686   1.035   8.691 -0.3235 -0.4503  0.1672
  138TCq2    C7 2106   0.047   1.139   8.687  0.5625 -0.4806 -0.3931
  138TCq2    C8 2107   4.567   1.052   8.774 -0.6178  0.5142 -0.6949
  138TCq2    O4 2108   4.558   1.142   8.855  0.1274 -0.1631 -0.4133
  138TCq2    C9 2109   0.096   0.849   8.404  0.1702 -0.1591  0.6884
  138TCq2    O5 2110   0.209   0.842   8.348  0.1311  0.3165 -0.2760
  138TCq2    O6 2111   0.001   0.772   8.378  0.2772 -0.1491  0.3965
  138TCq2    H2 2112   0.276   1.042   8.459 -0.1066 -0.8198  0.6706
  138TCq2    H3 2113   4.639   0.849   8.599 -0.4476  0.2639 -0.8644
  138TCq2    H4 2114   0.033   1.222   8.755 -3.5194 -1.2300 -0.3211
  139TMC2    C1 2115   1.511   3.864  13.322 -0.0830  0.5990  0.1825
  139TMC2    C2 2116   1.567   3.926  13.217 -1.0709 -1.0450  0.8702
  139TMC2    C3 2117   1.533   4.057  13.203  0.3836  0.0433  0.1139
  139TMC2    C4 2118   1.426   3.926  13.416 -0.1809  0.6171  0.2779
  139TMC2    C5 2119   1.402   4.060  13.397 -0.3514 -0.0449  0.9518
  139TMC2    C6 2120   1.460   4.128  13.296 -0.2895  0.4103 -0.7399
  139TMC2     C 2121   1.547   3.726  13.326 -0.5335  0.3590 -0.1139
  139TMC2     O 2122   1.611   3.678  13.231  0.3139  0.3242  0.6235
  139TMC2     H 2123   1.658   3.895  13.167 -1.0061 -2.2662  1.7490
  139TMC2    H1 2124   1.366   3.870  13.486  0.1540  2.2951  1.9249
  139TMC2    H2 2125   1.433   4.232  13.282  0.2378  0.5828 -0.4795
  139TMC2    C7 2126   1.290   4.132  13.463  0.2988  0.1556  0.3871
  139TMC2    C8 2127   1.602   4.131  13.104 -0.2033  0.3764 -0.7369
  139TMC2    O1 2128   1.246   4.227  13.400 -0.4963  0.4018 -0.2044
  139TMC2    O2 2129   1.704   4.190  13.127  0.1483  0.3970  0.3052
  139TMC2    O5 2130   1.594   4.051  12.998 -0.2751  0.5277 -0.6414
  139TMC2    H5 2131   1.514   3.994  12.999  1.1338 -1.5001 -2.3025
  140MPD2     C 2132   1.493   3.477  13.596 -0.1532  0.2221 -0.7781
  140MPD2    C1 2133   1.539   3.526  13.478 -1.0734  0.6507 -0.0829
  140MPD2    C2 2134   1.599   3.434  13.396 -0.5483  0.5208 -0.5040
  140MPD2    C3 2135   1.633   3.307  13.435 -0.6207  0.1128 -0.2667
  140MPD2    C4 2136   1.586   3.261  13.558  0.0239  0.4448 -0.7420
  140MPD2    C5 2137   1.517   3.348  13.632 -0.4091  0.3527 -0.4182
  140MPD2     H 2138   1.630   3.460  13.296 -0.2737 -1.7209 -1.0005
  140MPD2    H1 2139   1.584   3.157  13.590  0.4819 -0.1014 -2.4665
  140MPD2    H2 2140   1.437   3.540  13.664 -0.0016 -1.1102  0.5694
  140MPD2    H3 2141   1.488   3.312  13.730 -2.1959 -0.1350 -1.1316
  140MPD2     N 2142   1.697   3.220  13.341  0.0341 -0.1409 -0.0870
  140MPD2    H5 2143   1.705   3.247  13.244  0.8707 -1.3817 -0.3591
  140MPD2    N1 2144   1.512   3.661  13.444 -0.5346 -0.1795  0.0524
  140MPD2    H7 2145   1.470   3.711  13.522  1.7444  1.8806 -0.0298
  141TCq2    C1 2146   1.766   4.396  14.259 -0.6909 -0.9082  0.3235
  141TCq2    O2 2147   1.864   4.382  14.185  0.1309 -0.3263  0.0952
  141TCq2    C2 2148   1.789   4.463  14.380  0.5520 -0.3785  0.6053
  141TCq2    C3 2149   1.902   4.416  14.448 -0.4162  0.1496  0.2989
  141TCq2    C4 2150   1.959   4.500  14.534 -0.0504  0.6991 -0.3415
  141TCq2    C5 2151   1.914   4.628  14.549  0.0649  0.2064 -0.3403
  141TCq2    C6 2152   1.813   4.665  14.465  0.1208 -0.1656  0.4481
  141TCq2    C7 2153   1.745   4.589  14.388  0.7412  0.1470 -0.0880
  141TCq2    C8 2154   1.794   0.080  14.442 -1.0446 -0.0254 -0.7420
  141TCq2    O4 2155   1.686   0.111  14.399 -0.4421 -0.1527 -0.5516
  141TCq2    C9 2156   2.071   4.452  14.610  0.1731 -0.0549 -0.1169
  141TCq2    O5 2157   2.109   4.521  14.710 -0.4790 -0.3584 -0.0242
  141TCq2    O6 2158   2.109   4.337  14.594  0.1327  0.1837 -0.1474
  141TCq2    H2 2159   1.934   4.313  14.437 -0.4493  0.2193 -0.4110
  141TCq2    H3 2160   1.960   4.687  14.628 -1.8940  0.4320  0.6628
  141TCq2    H4 2161   1.659   4.623  14.332 -0.9917  0.7077  2.8869
  142MPD2     C 2162   4.015   4.175  10.458  0.7462  0.4381 -0.6343
  142MPD2    C1 2163   3.978   4.151  10.330 -0.4901  0.5558 -0.0518
  142MPD2    C2 2164   4.059   4.207  10.231  0.3027  0.1778 -0.2074
  142MPD2    C3 2165   4.177   4.276  10.261  0.3250  0.4170  0.4858
  142MPD2    C4 2166   4.209   4.309  10.393 -0.1729  0.9238  0.6611
  142MPD2    C5 2167   4.124   4.260  10.494 -0.2404  0.1461 -0.3258
  142MPD2     H 2168   4.033   4.177  10.129  1.2296  0.9129 -0.6536
  142MPD2    H1 2169   4.300   4.363  10.415  1.2798 -0.8866 -0.8528
  142MPD2    H2 2170   3.957   4.129  10.537 -0.2465  1.4902 -0.7328
  142MPD2    H3 2171   4.135   4.285  10.599 -0.6754 -0.5912 -0.0970
  142MPD2     N 2172   4.264   4.319  10.167 -0.4761  0.3563 -0.6224
  142MPD2    H5 2173   4.345   4.366  10.206 -0.8637  0.7323 -0.2811
  142MPD2    N1 2174   3.864   4.079  10.309  0.2262  0.7786 -0.0597
  142MPD2    H7 2175   3.820   4.037  10.391  1.0129  0.5534  0.2466
  143TCq2    C1 2176   4.250   4.308  10.034 -0.1478  0.0262 -0.6798
  143TCq2    O2 2177   4.151   4.302   9.961  0.3766  0.2643 -0.6676
  143TCq2    C2 2178   4.375   4.357   9.973  0.1861  0.7223 -0.4248
  143TCq2    C3 2179   4.488   4.321  10.049  0.0947 -0.4817 -0.4839
  143TCq2    C4 2180   4.600   4.398  10.022 -0.3349 -0.5213  0.6013
  143TCq2    C5 2181   4.594   4.494   9.922 -0.0492  0.4381  0.0779
  143TCq2    C6 2182   4.478   4.533   9.866 -0.4220  0.1541  0.8994
  143TCq2    C7 2183   4.362   4.466   9.891 -0.2286 -0.4474 -0.5913
  143TCq2    C8 2184   4.467   4.676   9.840 -0.2511  0.2320  0.3820
  143TCq2    O4 2185   4.558   0.018   9.888 -0.1637 -0.6003 -0.2968
  143TCq2    C9 2186   0.005   4.354  10.078  0.0099  0.3040 -0.4107
  143TCq2    O5 2187   0.001   4.260  10.164  0.4722 -0.0428 -0.0926
  143TCq2    O6 2188   0.110   4.401  10.038  0.5429  0.7349 -0.6571
  143TCq2    H2 2189   4.497   4.238  10.119  0.3998  0.4998  0.6416
  143TCq2    H3 2190   4.685   4.542   9.889 -2.2395  2.2746 -3.3279
  143TCq2    H4 2191   4.265   4.488   9.848  0.3769  0.0457 -1.6823
  144MPD2     C 2192   1.836   2.994   0.587  0.1751 -0.3784 -0.2249
  144MPD2    C1 2193   1.899   2.871   0.564  0.1552 -0.1158  0.5922
  144MPD2    C2 2194   1.947   2.795   0.672 -0.0048 -0.4856  0.3429
  144MPD2    C3 2195   1.956   2.850   0.798 -0.1111  0.8610 -0.3144
  144MPD2    C4 2196   1.905   2.979   0.818 -0.2274 -0.4983  1.3515
  144MPD2    C5 2197   1.847   3.048   0.717 -0.2178 -0.2680 -0.3861
  144MPD2     H 2198   1.995   2.701   0.649  3.2396  1.2659 -0.0112
  144MPD2    H1 2199   1.921   3.022   0.917  2.5088  2.3464 -0.3194
  144MPD2    H2 2200   1.792   3.058   0.511  1.5916 -1.6909 -2.1560
  144MPD2    H3 2201   1.806   3.147   0.731 -2.0894 -1.1488  0.4201
  144MPD2     N 2202   2.026   2.795   0.907  0.5251  0.6814  0.1100
  144MPD2    H5 2203   2.045   2.842   0.995 -1.1459 -1.2901  1.5356
  144MPD2    N1 2204   1.918   2.826   0.432  0.2614  0.0132  0.2413
  144MPD2    H7 2205   1.907   2.727   0.415  0.7286  0.3146 -1.8742
  145TCq2    C1 2206   2.067   2.663   0.904  0.4248  0.2481 -0.2909
  145TCq2    O2 2207   2.035   2.571   0.832 -0.0272 -0.4963  0.0252
  145TCq2    C2 2208   2.143   2.611   1.017  0.5519  0.3532  0.0999
  145TCq2    C3 2209   2.140   2.478   1.033 -0.1233  1.1833  0.0918
  145TCq2    C4 2210   2.232   2.413   1.107 -0.6609 -0.0325 -0.3927
  145TCq2    C5 2211   2.330   2.484   1.171 -0.2835  0.0635  0.0502
  145TCq2    C6 2212   2.329   2.621   1.158  0.3563 -0.4930  0.1410
  145TCq2    C7 2213   2.243   2.690   1.073  0.2567  0.5162  0.6190
  145TCq2    C8 2214   2.405   2.689   1.262 -0.3528 -0.2292  0.2739
  145TCq2    O4 2215   2.486   2.622   1.325 -0.0665  0.2837  0.2695
  145TCq2    C9 2216   2.219   2.271   1.127 -0.0409  0.7377  0.6561
  145TCq2    O5 2217   2.264   2.229   1.237 -0.1534  0.2263 -0.3792
  145TCq2    O6 2218   2.171   2.202   1.036 -0.2054  0.8170  0.9271
  145TCq2    H2 2219   2.055   2.421   0.997  0.8461  0.1220 -0.5497
  145TCq2    H3 2220   2.401   2.428   1.232 -2.2275 -1.3703  0.9966
  145TCq2    H4 2221   2.250   2.795   1.049 -2.1417  0.6762  0.6431
  146TMC2    C1 2222   3.330   1.751  12.646  0.2529 -0.2732  0.1758
  146TMC2    C2 2223   3.301   1.861  12.578  0.1143 -0.3602 -0.0949
  146TMC2    C3 2224   3.373   1.898  12.476 -0.5262 -0.0049  0.2646
  146TMC2    C4 2225   3.424   1.668  12.592  0.7397 -0.0223  0.3515
  146TMC2    C5 2226   3.491   1.709  12.481  0.3421 -0.1681 -0.3906
  146TMC2    C6 2227   3.480   1.831  12.430 -0.3403 -1.0803  0.2909
  146TMC2     C 2228   3.278   1.734  12.779 -0.7867 -0.0430  1.1210
  146TMC2     O 2229   3.176   1.796  12.805 -0.2335 -0.1857 -0.4608
  146TMC2     H 2230   3.222   1.920  12.624 -0.6726 -0.5742 -1.1651
  146TMC2    H1 2231   3.456   1.578  12.642 -3.0518 -0.4847  1.9448
  146TMC2    H2 2232   3.527   1.860  12.337  1.6826 -1.1917  1.2889
  146TMC2    C7 2233   3.634   1.677  12.481  0.6888 -0.0841 -0.1379
  146TMC2    C8 2234   3.360   2.034  12.432 -0.1187  0.3601  0.1236
  146TMC2    O1 2235   3.716   1.771  12.459 -0.7377  0.5726  0.5302
  146TMC2    O2 2236   3.457   2.100  12.394  0.0654  0.0163 -0.0786
  146TMC2    O5 2237   3.233   2.072  12.454 -0.1126 -0.0093 -0.3399
  146TMC2    H5 2238   3.175   1.994  12.450  0.3270 -0.3947  0.7174
  147MPD2     C 2239   4.047   1.395  12.432 -0.5135 -0.7343  0.8209
  147MPD2    C1 2240   3.959   1.327  12.511 -0.1928  0.2869 -0.0902
  147MPD2    C2 2241   3.827   1.380  12.534 -0.7289 -0.6154 -0.0767
  147MPD2    C3 2242   3.793   1.500  12.477  0.7809  0.2570  0.7749
  147MPD2    C4 2243   3.888   1.565  12.395  0.7042  0.1916  0.3438
  147MPD2    C5 2244   4.009   1.506  12.365 -0.3710 -0.0341 -0.6219
  147MPD2     H 2245   3.747   1.338  12.593 -0.3036  0.5426  1.3073
  147MPD2    H1 2246   3.866   1.653  12.336 -0.5112  1.6189  2.9568
  147MPD2    H2 2247   4.147   1.357  12.416 -1.1911 -0.9905 -2.9178
  147MPD2    H3 2248   4.079   1.549  12.295 -0.0888  1.0217  0.3072
  147MPD2     N 2249   3.664   1.549  12.504  0.1437 -0.2905 -0.1591
  147MPD2    H5 2250   3.598   1.489  12.552  1.4002  0.0362  2.0036
  147MPD2    N1 2251   4.002   1.205  12.569  0.3991  0.3966 -0.5081
  147MPD2    H7 2252   4.095   1.172  12.542 -0.3486  0.1384 -2.7890
  148MPD2     C 2253   3.701   0.138  11.081  0.3114 -0.5846 -0.1635
  148MPD2    C1 2254   3.747   0.239  11.005 -0.3142 -0.3584  0.7277
  148MPD2    C2 2255   3.666   0.297  10.906 -0.4375  0.2129  0.0835
  148MPD2    C3 2256   3.539   0.248  10.877  0.6350  0.5408  0.0625
  148MPD2    C4 2257   3.484   0.144  10.950  0.5046  0.3133  0.0989
  148MPD2    C5 2258   3.572   0.087  11.049  0.4837  0.2823  0.1212
  148MPD2     H 2259   3.690   0.385  10.848  1.3427  0.2726  0.9087
  148MPD2    H1 2260   3.386   0.099  10.933  1.3949 -1.1910 -0.9836
  148MPD2    H2 2261   3.757   0.086  11.158 -0.4117  0.4468  1.0566
  148MPD2    H3 2262   3.553   4.721  11.105 -0.9171 -0.7691 -2.0581
  148MPD2     N 2263   3.460   0.291  10.767 -0.1411 -0.8696  0.7317
  148MPD2    H5 2264   3.398   0.225  10.723  1.0404 -0.8960 -0.8764
  148MPD2    N1 2265   3.880   0.294  11.019 -0.2157  0.5687  0.0249
  148MPD2    H7 2266   3.917   0.354  10.945  1.1855 -0.0137  0.2456
  149TCq2    C1 2267   3.970   0.263  11.115  0.1501 -0.3074 -0.3038
  149TCq2    O2 2268   3.953   0.210  11.224 -0.3381 -0.1406  0.6407
  149TCq2    C2 2269   4.103   0.301  11.077 -0.2727 -0.1080  0.0277
  149TCq2    C3 2270   4.163   0.389  11.165 -0.5161  0.4570  0.1604
  149TCq2    C4 2271   4.228   0.495  11.110  0.4994  0.2841  0.1864
  149TCq2    C5 2272   4.207   0.530  10.978  0.4152 -0.5493 -0.0622
  149TCq2    C6 2273   4.149   0.439  10.895 -0.5376  0.2008 -0.3542
  149TCq2    C7 2274   4.107   0.320  10.944  0.4665  0.0438 -0.0758
  149TCq2    C8 2275   4.136   0.456  10.746  0.4571 -0.3095  0.6356
  149TCq2    O4 2276   4.116   0.354  10.681 -0.3403  0.3616 -0.5961
  149TCq2    C9 2277   4.251   0.599  11.204  0.4432  0.6510 -0.7450
  149TCq2    O5 2278   4.336   0.690  11.171  0.0891  0.0636  0.1441
  149TCq2    O6 2279   4.174   0.603  11.300 -0.0195 -0.1349 -0.1951
  149TCq2    H2 2280   4.151   0.377  11.272  3.2962  2.4024  0.7888
  149TCq2    H3 2281   4.232   0.633  10.954 -3.2692  0.3383 -0.2010
  149TCq2    H4 2282   4.062   0.247  10.877  1.3865 -0.4963 -0.1041
  150MPD2     C 2283   0.652   4.257  12.097  0.4593 -0.3684 -0.0474
  150MPD2    C1 2284   0.735   4.276  11.980  0.5172 -0.5197  0.2870
  150MPD2    C2 2285   0.805   4.388  11.958 -0.1219  0.2745  0.4753
  150MPD2    C3 2286   0.799   4.493  12.050  0.7902 -0.3383 -0.2909
  150MPD2    C4 2287   0.723   4.478  12.164 -0.4603 -0.0432  0.0724
  150MPD2    C5 2288   0.658   4.359  12.189  0.7748 -0.0733 -0.5667
  150MPD2     H 2289   0.870   4.404  11.873  1.6086  1.1483  1.9513
  150MPD2    H1 2290   0.709   4.557  12.237  0.1399  0.4576 -0.3505
  150MPD2    H2 2291   0.589   4.171  12.117  1.3169 -0.5601  1.7727
  150MPD2    H3 2292   0.594   4.340  12.274  0.8562 -1.4407 -0.7974
  150MPD2     N 2293   0.864   4.614  12.029  0.0793 -0.1363 -0.3094
  150MPD2    H5 2294   0.939   4.619  11.960 -0.1405  0.0577 -0.5324
  150MPD2    N1 2295   0.726   4.166  11.888  0.6247 -0.7018 -1.1317
  150MPD2    H7 2296   0.645   4.106  11.894  0.7979 -0.5125  3.1688
  151TCq2    C1 2297   0.823   0.010  12.089 -0.1114  0.2067 -0.5170
  151TCq2    O2 2298   0.719   0.046  12.145  0.0915  0.0735  0.6357
  151TCq2    C2 2299   0.936   0.097  12.085 -0.7036  0.7164 -0.0372
  151TCq2    C3 2300   0.905   0.225  12.115  0.2589 -0.2805 -0.1712
  151TCq2    C4 2301   0.990   0.319  12.084  0.1511  0.9641 -0.4873
  151TCq2    C5 2302   1.117   0.292  12.049 -0.9094  0.6496  0.1535
  151TCq2    C6 2303   1.154   0.162  12.029 -0.1075  0.3131  0.3447
  151TCq2    C7 2304   1.065   0.062  12.042  0.1290  1.1596 -0.1170
  151TCq2    C8 2305   1.283   0.137  11.969 -0.6986  0.0936  0.2143
  151TCq2    O4 2306   1.340   0.236  11.918 -0.1388  0.5828  0.7238
  151TCq2    C9 2307   0.963   0.455  12.128 -0.1834 -0.3051  0.0927
  151TCq2    O5 2308   0.897   0.467  12.235 -0.1367  0.2974 -0.4453
  151TCq2    O6 2309   1.046   0.544  12.088 -0.5873  0.2655 -0.1567
  151TCq2    H2 2310   0.812   0.247  12.166  1.6483  1.5053  1.5441
  151TCq2    H3 2311   1.186   0.375  12.034 -0.6221  0.4587  0.4303
  151TCq2    H4 2312   1.097   4.684  12.022 -1.9487  0.7267 -1.1896
  152MPD2     C 2313   0.747   4.235  12.792  0.2328  0.0478 -0.0370
  152MPD2    C1 2314   0.760   4.247  12.650  0.8203  0.6117  0.6304
  152MPD2    C2 2315   0.644   4.240  12.575 -0.0664 -0.1885 -0.4896
  152MPD2    C3 2316   0.514   4.223  12.630 -0.2070 -0.0339  0.6777
  152MPD2    C4 2317   0.506   4.212  12.768  0.8941  0.2198  0.1628
  152MPD2    C5 2318   0.616   4.209  12.842 -0.1873 -0.1863 -0.4146
  152MPD2     H 2319   0.649   4.250  12.467  0.8002 -1.6542 -0.5925
  152MPD2    H1 2320   0.408   4.209  12.815  0.7187  0.2434 -0.2025
  152MPD2    H2 2321   0.828   4.249  12.862 -1.0966  0.0076  1.5084
  152MPD2    H3 2322   0.609   4.206  12.950  1.3522 -0.2601 -0.3188
  152MPD2     N 2323   0.406   4.238  12.541  0.1621  0.2620 -0.7173
  152MPD2    H5 2324   0.422   4.261  12.444 -2.1453 -1.3095 -1.4740
  152MPD2    N1 2325   0.886   4.267  12.597 -0.1797  0.9451  0.1926
  152MPD2    H7 2326   0.958   4.300  12.661 -3.9198  1.9078  3.9024
  153TCq2    C1 2327   0.912   4.247  12.462 -0.1904 -0.0863 -0.0590
  153TCq2    O2 2328   0.839   4.198  12.380 -0.2218  0.0393 -0.3301
  153TCq2    C2 2329   1.038   4.299  12.407 -0.4148  0.0976  0.3079
  153TCq2    C3 2330   1.050   4.319  12.271 -0.3920 -0.0321  0.1748
  153TCq2    C4 2331   1.165   4.383  12.232 -0.1540  0.7000 -0.1210
  153TCq2    C5 2332   1.279   4.405  12.311  0.4587  0.4766  0.5671
  153TCq2    C6 2333   1.273   4.351  12.441 -0.3937  0.1289 -0.6587
  153TCq2    C7 2334   1.147   4.300  12.488  0.0499 -0.2870  0.4708
  153TCq2    C8 2335   1.383   4.356  12.540  0.2204 -0.0648 -0.2708
  153TCq2    O4 2336   1.347   4.329  12.653 -0.2295 -0.2740  0.7915
  153TCq2    C9 2337   1.161   4.437  12.098 -0.3945  0.7156 -0.3100
  153TCq2    O5 2338   1.137   4.360  12.004  0.2206 -0.0686  0.2783
  153TCq2    O6 2339   1.237   4.532  12.081  0.0547  0.4024  0.1501
  153TCq2    H2 2340   0.966   4.302  12.204 -0.4248  1.1036 -0.0849
  153TCq2    H3 2341   1.364   4.449  12.260 -1.3478  1.2687 -1.7796
  153TCq2    H4 2342   1.134   4.244  12.580 -0.2741  0.9843  1.1951
  154MPD2     C 2343   1.966   3.314   0.531 -0.0257 -0.3762  0.2768
  154MPD2    C1 2344   2.087   3.314   0.592 -0.2940 -0.7495 -0.0775
  154MPD2    C2 2345   2.153   3.437   0.614  0.1095  0.5011 -0.4604
  154MPD2    C3 2346   2.090   3.552   0.580 -0.4080 -0.8192  0.0447
  154MPD2    C4 2347   1.961   3.546   0.522  0.0204  0.7288 -0.0114
  154MPD2    C5 2348   1.899   3.426   0.499 -0.6984  0.2486 -0.2037
  154MPD2     H 2349   2.254   3.436   0.654 -0.6628  2.6752  1.5536
  154MPD2    H1 2350   1.903   3.633   0.495 -1.1472  0.1898  0.7722
  154MPD2    H2 2351   1.926   3.213   0.525 -1.4366  0.0400  2.6159
  154MPD2    H3 2352   1.802   3.417   0.452 -1.0177 -1.1952  0.7407
  154MPD2     N 2353   2.157   3.671   0.610 -0.4070 -0.1988 -0.3397
  154MPD2    H5 2354   2.253   3.661   0.639  0.6342  2.2180 -2.8630
  154MPD2    N1 2355   2.138   3.188   0.635 -0.4136  0.2247  0.3934
  154MPD2    H7 2356   2.098   3.102   0.600  0.8737 -0.0038 -0.5204
  155TCq2    C1 2357   2.245   3.173   0.716 -0.1749 -0.3510 -0.1610
  155TCq2    O2 2358   2.339   3.251   0.733  0.4364 -0.2491  0.1241
  155TCq2    C2 2359   2.269   3.036   0.755  0.5882 -0.1181 -0.3834
  155TCq2    C3 2360   2.256   2.930   0.668 -0.0919  0.2326  0.5931
  155TCq2    C4 2361   2.322   2.817   0.683 -0.2402  0.0237 -0.6011
  155TCq2    C5 2362   2.423   2.806   0.783 -0.6663  0.0873 -0.1731
  155TCq2    C6 2363   2.433   2.910   0.869 -0.7936  0.3872  0.0232
  155TCq2    C7 2364   2.364   3.026   0.847  0.0509 -0.4024 -0.1709
  155TCq2    C8 2365   2.533   2.912   0.978 -0.2864  0.4704 -0.0333
  155TCq2    O4 2366   2.489   2.965   1.079 -0.2548  0.0059  0.5690
  155TCq2    C9 2367   2.296   2.697   0.604 -0.2723 -0.5425  0.2057
  155TCq2    O5 2368   2.208   2.697   0.514  0.2485 -0.1807  0.5530
  155TCq2    O6 2369   2.335   2.588   0.653 -0.2716  0.8537 -0.0162
  155TCq2    H2 2370   2.182   2.934   0.589 -0.6934 -0.3881  1.1229
  155TCq2    H3 2371   2.472   2.714   0.811  0.8255 -0.1125 -3.4110
  155TCq2    H4 2372   2.398   3.108   0.910 -0.3513 -0.9308  0.7348
  156MPD2     C 2373   1.124   1.566  12.029 -0.2656  0.3227 -0.2735
  156MPD2    C1 2374   1.073   1.686  11.970 -0.9106 -0.7826  0.0765
  156MPD2    C2 2375   0.947   1.734  12.008 -0.8982 -0.5368 -0.4323
  156MPD2    C3 2376   0.871   1.656  12.095  0.1811  0.0414 -0.0890
  156MPD2    C4 2377   0.917   1.535  12.139 -0.9911  0.3450 -0.4320
  156MPD2    C5 2378   1.044   1.491  12.109 -0.2140  0.3398  0.1946
  156MPD2     H 2379   0.906   1.826  11.968  0.4215  0.0225 -0.4864
  156MPD2    H1 2380   0.858   1.459  12.190  1.5516  0.3820  2.5521
  156MPD2    H2 2381   1.227   1.535  12.020 -0.3359 -0.5665  2.0605
  156MPD2    H3 2382   1.087   1.400  12.151  2.0226  1.0178 -0.6037
  156MPD2     N 2383   0.750   1.707  12.151  0.7230 -1.2705 -0.3873
  156MPD2    H5 2384   0.724   1.799  12.117  0.4095 -1.6721 -1.2381
  156MPD2    N1 2385   1.155   1.758  11.873 -0.7278 -0.1514 -0.2596
  156MPD2    H7 2386   1.247   1.715  11.865  0.4310  2.0263  1.4213
  157TCq2    C1 2387   1.109   1.859  11.791 -0.3679  0.3312 -0.2854
  157TCq2    O2 2388   0.992   1.898  11.769 -0.5167 -0.4341  0.1400
  157TCq2    C2 2389   1.219   1.929  11.728  0.0833 -0.0906 -0.3979
  157TCq2    C3 2390   1.348   1.912  11.782 -0.0584  0.2885 -0.2660
  157TCq2    C4 2391   1.440   1.986  11.719  0.3683 -0.8939 -0.0278
  157TCq2    C5 2392   1.411   2.075  11.610 -0.1675  0.4141 -0.3966
  157TCq2    C6 2393   1.283   2.079  11.560 -0.0701  0.4351  0.4534
  157TCq2    C7 2394   1.191   2.005  11.621  0.0586  0.3792 -0.2207
  157TCq2    C8 2395   1.236   2.203  11.495  0.3631 -0.7392  0.5693
  157TCq2    O4 2396   1.297   2.305  11.508 -0.7834  0.0278  0.4061
  157TCq2    C9 2397   1.580   1.983  11.761 -0.3480 -0.4952  0.1514
  157TCq2    O5 2398   1.600   1.926  11.876  0.2142  0.0255  0.3447
  157TCq2    O6 2399   1.673   2.011  11.677  0.3996 -0.6668  0.0076
  157TCq2    H2 2400   1.371   1.857  11.872  0.1227 -1.1763 -1.1944
  157TCq2    H3 2401   1.487   2.137  11.562 -1.3964  1.1669 -1.3685
  157TCq2    H4 2402   1.086   2.015  11.595 -0.4966 -3.3582  0.7056
  158TMC2    C1 2403   1.701   0.438  13.512 -0.4228  0.0878 -0.3258
  158TMC2    C2 2404   1.804   0.502  13.451  0.1519 -0.4200 -0.2403
  158TMC2    C3 2405   1.771   0.550  13.331  0.4280  0.6998 -0.7990
  158TMC2    C4 2406   1.567   0.451  13.488  0.1481  0.4099  0.3075
  158TMC2    C5 2407   1.539   0.533  13.382 -0.2032 -0.3656  0.2352
  158TMC2    C6 2408   1.639   0.569  13.298 -0.9368  0.6045  0.0429
  158TMC2     C 2409   1.733   0.386  13.642  0.3952  0.4273  1.1572
  158TMC2     O 2410   1.840   0.426  13.687 -0.0012 -0.1987 -0.4672
  158TMC2     H 2411   1.907   0.489  13.480 -0.3871  2.1547  2.8270
  158TMC2    H1 2412   1.490   0.417  13.556 -0.0424 -0.6827 -0.4556
  158TMC2    H2 2413   1.602   0.616  13.208  0.1926 -0.3048 -0.8942
  158TMC2    C7 2414   1.405   0.528  13.325 -0.1306 -0.1078  0.8962
  158TMC2    C8 2415   1.863   0.644  13.267  0.1346  0.0424 -0.3222
  158TMC2    O1 2416   1.398   0.544  13.205 -0.0266 -0.0414 -0.1511
  158TMC2    O2 2417   1.819   0.729  13.192 -0.3453 -0.1608 -0.0687
  158TMC2    O5 2418   1.968   0.572  13.221 -0.0159  0.5366 -0.0262
  158TMC2    H5 2419   1.982   0.483  13.261  1.8222 -0.1280 -2.2115
  159MPD2     C 2420   1.653   0.088  14.047 -0.1792 -0.5521  0.2533
  159MPD2    C1 2421   1.536   0.091  13.977 -0.1032 -0.0958  0.5283
  159MPD2    C2 2422   1.527   0.164  13.859 -0.2924  0.3878 -0.4110
  159MPD2    C3 2423   1.643   0.230  13.816  0.4606 -0.2358 -0.6262
  159MPD2    C4 2424   1.759   0.223  13.884  0.0918 -1.0732 -0.2087
  159MPD2    C5 2425   1.768   0.143  13.998 -0.3073 -0.4516 -0.7309
  159MPD2     H 2426   1.435   0.169  13.802 -2.2351 -0.1885  2.6550
  159MPD2    H1 2427   1.849   0.265  13.841  0.5372  0.9107  2.7032
  159MPD2    H2 2428   1.659   0.018  14.130  1.3977 -0.7882 -0.0602
  159MPD2    H3 2429   1.863   0.126  14.048 -0.4346  0.7100 -0.0892
  159MPD2     N 2430   1.635   0.310  13.700 -0.3672  0.1873  0.0510
  159MPD2    H5 2431   1.542   0.306  13.658 -0.4625  2.2530  0.0697
  159MPD2    N1 2432   1.427   0.034  14.050 -1.0043 -0.1456  0.4618
  159MPD2    H7 2433   1.449   0.006  14.145  2.0017  1.1490  0.1477
  160TMC2    C1 2434   1.450   2.985   0.965 -0.3222 -0.6639 -0.2737
  160TMC2    C2 2435   1.485   2.853   0.955  0.3416  0.2648 -0.7598
  160TMC2    C3 2436   1.514   2.808   0.830  0.1365  0.3707 -0.4250
  160TMC2    C4 2437   1.436   3.071   0.851 -1.0015  0.1824  0.5444
  160TMC2    C5 2438   1.467   3.019   0.732  0.1048  0.9724  0.3389
  160TMC2    C6 2439   1.514   2.887   0.718  0.4230 -0.4040  0.7927
  160TMC2     C 2440   1.407   3.029   1.095 -0.3706 -0.1043 -0.4259
  160TMC2     O 2441   1.350   2.949   1.172 -0.8526  0.8947 -0.2598
  160TMC2     H 2442   1.494   2.794   1.046  1.5416  2.5788  0.6013
  160TMC2    H1 2443   1.398   3.172   0.847 -2.0227 -0.1861  0.8661
  160TMC2    H2 2444   1.557   2.854   0.624 -0.7811  2.2825 -0.7081
  160TMC2    C7 2445   1.491   3.100   0.610  0.3914 -0.1040 -0.1919
  160TMC2    C8 2446   1.562   2.676   0.804 -0.1763  0.3325  0.1311
  160TMC2    O1 2447   1.503   3.043   0.502 -0.6386 -0.1471  0.1285
  160TMC2    O2 2448   1.620   2.629   0.708  0.3120  0.2759  0.2771
  160TMC2    O5 2449   1.481   2.608   0.882  0.0048  0.0656 -0.1247
  160TMC2    H5 2450   1.416   2.654   0.940  2.0136  0.0950  2.0867
  161MPD2     C 2451   1.267   3.185   1.314 -0.1316 -0.3252  0.3131
  161MPD2    C1 2452   1.343   3.244   1.212  0.0587  0.0321 -0.3849
  161MPD2    C2 2453   1.360   3.382   1.208 -0.0391  0.3378  0.2644
  161MPD2    C3 2454   1.287   3.465   1.291  0.4304 -0.2231 -0.6137
  161MPD2    C4 2455   1.221   3.406   1.400  0.7899 -1.0872  0.7777
  161MPD2    C5 2456   1.204   3.268   1.400 -0.1278  0.3700  0.2029
  161MPD2     H 2457   1.427   3.423   1.134  0.8909 -0.0573  0.8920
  161MPD2    H1 2458   1.157   3.463   1.466 -1.2822  0.7239 -2.7869
  161MPD2    H2 2459   1.238   3.081   1.315  1.5221 -0.8208 -1.8078
  161MPD2    H3 2460   1.130   3.222   1.464  0.3205 -0.9052 -0.1919
  161MPD2     N 2461   1.282   3.606   1.281 -0.4242 -0.1498 -0.6036
  161MPD2    H5 2462   1.261   3.659   1.365 -0.5219 -1.6934  0.3408
  161MPD2    N1 2463   1.412   3.162   1.117 -0.0641 -0.0980 -0.3266
  161MPD2    H7 2464   1.453   3.214   1.040 -0.4106  0.9514  0.1940
  162TMC2    C1 2465   3.762   0.105   1.159  0.6917  0.7631 -0.2551
  162TMC2    C2 2466   3.656   0.038   1.107  0.8155 -0.8085  0.4884
  162TMC2    C3 2467   3.569   4.704   1.191 -0.0911 -0.2027  0.0357
  162TMC2    C4 2468   3.773   0.134   1.291  0.0264  0.4176  0.2479
  162TMC2    C5 2469   3.669   0.087   1.371 -0.1193 -0.3260  0.5245
  162TMC2    C6 2470   3.566   0.006   1.321  0.6374 -0.0643  0.0721
  162TMC2     C 2471   3.879   0.114   1.069 -0.4486 -1.0098  0.4753
  162TMC2     O 2472   3.853   0.142   0.954 -0.4322 -0.1671  0.0387
  162TMC2     H 2473   3.665   0.015   1.001 -0.9461  0.1600  0.1202
  162TMC2    H1 2474   3.847   0.203   1.331 -2.2316  1.3525  2.8660
  162TMC2    H2 2475   3.482   4.691   1.376  2.5306 -2.8991  0.9831
  162TMC2    C7 2476   3.669   0.109   1.519 -0.4123  0.0526 -0.3523
  162TMC2    C8 2477   3.438   4.647   1.148  0.3223  0.1010 -0.3259
  162TMC2    O1 2478   3.555   0.102   1.570 -0.1759  0.3017  0.6443
  162TMC2    O2 2479   3.400   4.540   1.192  0.1870 -0.2800 -0.3298
  162TMC2    O5 2480   3.454   4.661   1.009 -0.1540  0.5427 -0.2423
  162TMC2    H5 2481   3.496   0.025   1.001 -0.2709  0.6637  0.4537
  163MPD2     C 2482   4.365   4.723   0.982  0.4650 -0.0902 -0.2874
  163MPD2    C1 2483   4.279   0.080   0.908  0.3278  0.8431  0.4600
  163MPD2    C2 2484   4.151   0.104   0.959 -0.2139  0.2748  0.3482
  163MPD2    C3 2485   4.112   0.030   1.071  0.2581 -0.0924  0.0690
  163MPD2    C4 2486   4.189   4.666   1.132  0.8280  0.5337 -0.1082
  163MPD2    C5 2487   4.324   4.665   1.097 -1.0861 -0.5706  0.0980
  163MPD2     H 2488   4.079   0.172   0.915 -0.7623 -0.0021  0.8298
  163MPD2    H1 2489   4.159   4.608   1.218  0.3076 -1.6862 -1.7743
  163MPD2    H2 2490   4.469   4.709   0.956  0.5970  0.6084 -0.1517
  163MPD2    H3 2491   4.390   4.598   1.151 -0.8041  0.2470  0.7784
  163MPD2     N 2492   3.988   0.049   1.127  0.1336  0.1798 -0.0777
  163MPD2    H5 2493   3.974   0.013   1.221 -0.3457 -1.4344 -0.7780
  163MPD2    N1 2494   4.325   0.134   0.787  0.3139  0.3471 -0.5197
  163MPD2    H7 2495   4.399   0.082   0.741  1.2439  0.7548  0.4878
  164TCq2    C1 2496   0.057   0.935  11.050 -0.5415  0.1164 -0.3310
  164TCq2    O2 2497   0.059   0.927  11.174  0.9031  0.0771 -0.0784
  164TCq2    C2 2498   4.718   1.041  10.986  0.4444  0.5198 -0.0967
  164TCq2    C3 2499   0.033   1.088  10.864  0.0634  0.4685  0.1156
  164TCq2    C4 2500   4.688   1.193  10.812  0.0844 -1.1798 -1.0810
  164TCq2    C5 2501   4.574   1.245  10.868 -0.1475  0.5419 -0.1357
  164TCq2    C6 2502   4.538   1.195  10.990  0.2238 -0.1939  0.5485
  164TCq2    C7 2503   4.610   1.095  11.053  1.0531 -0.5373  0.2152
  164TCq2    C8 2504   4.399   1.214  11.030  0.7610  0.3572  0.3064
  164TCq2    O4 2505   4.330   1.256  10.939 -0.3909  0.2594  0.1705
  164TCq2    C9 2506   0.010   1.251  10.688  0.3947 -0.8090 -0.1660
  164TCq2    O5 2507   0.100   1.193  10.624 -0.0406 -0.5023  0.0375
  164TCq2    O6 2508   4.662   1.344  10.638 -0.2560 -0.1276  0.3630
  164TCq2    H2 2509   0.127   1.071  10.811  0.1074 -0.7609  0.5820
  164TCq2    H3 2510   4.509   1.320  10.825  0.4017  1.0822 -0.0145
  164TCq2    H4 2511   4.575   1.037  11.137  1.6461 -1.5994 -0.2784
  165MPD2     C 2512   1.293   0.963   2.321  0.5428 -0.1146 -0.8368
  165MPD2    C1 2513   1.315   1.044   2.214 -0.1987  0.3561  0.4530
  165MPD2    C2 2514   1.427   1.124   2.213 -0.2421 -0.0003  0.5618
  165MPD2    C3 2515   1.516   1.136   2.317  0.1128 -0.0775  0.2898
  165MPD2    C4 2516   1.494   1.056   2.429  0.0594  0.2561  0.2395
  165MPD2    C5 2517   1.388   0.962   2.425 -0.0579 -0.1637 -0.4486
  165MPD2     H 2518   1.445   1.194   2.132 -0.1149  0.8747  1.3553
  165MPD2    H1 2519   1.563   1.048   2.512 -0.4541  0.9345  0.7272
  165MPD2    H2 2520   1.217   0.886   2.322  1.2322 -0.8004 -1.1639
  165MPD2    H3 2521   1.371   0.905   2.515  0.6904 -0.1629 -0.3089
  165MPD2     N 2522   1.628   1.218   2.317  0.0045  0.3307 -0.1769
  165MPD2    H5 2523   1.689   1.204   2.397 -0.0534  1.9225  0.1524
  165MPD2    N1 2524   1.228   1.038   2.100  0.0513 -0.9975  0.1075
  165MPD2    H7 2525   1.150   0.972   2.105 -0.9994  0.2425 -0.0521
  166TCq2    C1 2526   1.650   1.337   2.248 -0.0978  0.0031 -0.1963
  166TCq2    O2 2527   1.576   1.384   2.162 -0.2220 -0.1995  0.6324
  166TCq2    C2 2528   1.775   1.401   2.272 -0.7567  0.3705 -0.1706
  166TCq2    C3 2529   1.883   1.318   2.248  0.8843  0.0091 -0.3986
  166TCq2    C4 2530   1.999   1.374   2.201 -0.4903 -0.9393 -0.3249
  166TCq2    C5 2531   2.007   1.511   2.170  0.1640  0.2925  0.1771
  166TCq2    C6 2532   1.887   1.586   2.177  0.6261 -0.0729  0.7415
  166TCq2    C7 2533   1.772   1.527   2.219  0.6991 -0.1622  0.7457
  166TCq2    C8 2534   1.890   1.724   2.121 -0.0712 -0.4198 -0.7984
  166TCq2    O4 2535   1.984   1.745   2.046  0.3386  0.5321  0.0375
  166TCq2    C9 2536   2.107   1.283   2.181  0.3634 -0.1486 -0.2671
  166TCq2    O5 2537   2.089   1.167   2.221  0.1823  0.7243 -0.5687
  166TCq2    O6 2538   2.221   1.330   2.153  0.0609 -0.0136 -0.7330
  166TCq2    H2 2539   1.871   1.211   2.256  0.0474  0.1134 -0.2398
  166TCq2    H3 2540   2.101   1.560   2.149 -0.9261  1.8239 -1.1250
  166TCq2    H4 2541   1.677   1.579   2.230  0.4291 -0.2722 -1.1517
  167TMC2    C1 2542   3.441   1.106  12.045 -0.2499  0.1027 -0.2166
  167TMC2    C2 2543   3.370   1.191  12.126  0.4719 -0.2419  0.0055
  167TMC2    C3 2544   3.273   1.143  12.204  0.1201  0.6680  0.0880
  167TMC2    C4 2545   3.433   0.971  12.060  0.7197 -0.4984  0.1368
  167TMC2    C5 2546   3.329   0.926  12.141 -0.0365 -0.3147  0.1827
  167TMC2    C6 2547   3.242   1.009  12.212 -0.2485  0.1856  0.0164
  167TMC2     C 2548   3.547   1.161  11.965  0.2584 -0.5641  0.4863
  167TMC2     O 2549   3.534   1.281  11.953  0.7247  0.4462  0.3656
  167TMC2     H 2550   3.394   1.296  12.134 -0.3332 -0.2683  3.0427
  167TMC2    H1 2551   3.487   0.902  11.996  1.8088  0.0376  0.4680
  167TMC2    H2 2552   3.172   0.974  12.287 -0.2056  0.5395  0.2196
  167TMC2    C7 2553   3.316   0.792  12.188 -0.5836  0.7395 -0.0086
  167TMC2    C8 2554   3.241   1.216  12.332 -0.4919 -0.3308 -0.0057
  167TMC2    O1 2555   3.212   0.757  12.241  0.5470  0.1149 -0.3233
  167TMC2    O2 2556   3.260   1.336  12.324  0.1951 -0.1625 -1.1562
  167TMC2    O5 2557   3.303   1.141  12.427  0.6417 -0.3350 -0.1171
  167TMC2    H5 2558   3.263   1.059  12.463  1.2391 -0.1813  0.9212
  168MPD2     C 2559   3.792   1.245  11.836 -1.0383  0.2034  0.1924
  168MPD2    C1 2560   3.777   1.125  11.909  0.0037  0.3235 -0.4810
  168MPD2    C2 2561   3.891   1.049  11.924  0.0951 -0.5644  0.5835
  168MPD2    C3 2562   4.015   1.090  11.870  0.3130 -0.4074  0.2146
  168MPD2    C4 2563   4.035   1.218  11.828  0.5340 -1.0224  0.9107
  168MPD2    C5 2564   3.917   1.295  11.811  0.2856  0.0647  0.5783
  168MPD2     H 2565   3.883   0.954  11.976  1.1779 -1.1921 -0.3868
  168MPD2    H1 2566   4.131   1.260  11.802  0.8278 -2.1922  0.1169
  168MPD2    H2 2567   3.705   1.306  11.814 -1.0466 -0.1498 -0.7541
  168MPD2    H3 2568   3.919   1.387  11.753  3.4665 -0.5146 -0.2285
  168MPD2     N 2569   4.134   1.005  11.878 -1.1110  0.9654 -0.2748
  168MPD2    H5 2570   4.227   1.037  11.901 -0.2921  0.6598 -3.1906
  168MPD2    N1 2571   3.657   1.076  11.957  1.1539 -0.1930  0.5329
  168MPD2    H7 2572   3.667   0.992  12.014  2.4249 -1.5034 -1.6360
  169MPD1     C 2573   4.693   0.436   9.513 -0.6336  0.0575 -0.0072
  169MPD1    C1 2574   4.705   0.300   9.502 -0.8345 -0.9345 -1.0487
  169MPD1    C2 2575   0.104   0.243   9.476  1.0988 -0.5387  0.2031
  169MPD1    C3 2576   0.219   0.317   9.464 -0.7405  0.7040  0.6089
  169MPD1    C4 2577   0.209   0.453   9.474  0.4211 -0.3379 -0.2103
  169MPD1    C5 2578   0.086   0.505   9.500  0.3456 -0.1854 -0.5581
  169MPD1     H 2579   0.102   0.136   9.458 -1.1831 -0.4223 -0.2916
  169MPD1    H1 2580   0.294   0.518   9.455  0.0233  0.5851  1.1761
  169MPD1    H2 2581   4.601   0.491   9.531 -0.1528  0.8564  0.0421
  169MPD1    H3 2582   0.086   0.613   9.490 -3.6993 -0.2922 -1.6038
  169MPD1     N 2583   0.338   0.243   9.436 -0.1501 -0.3788  0.2390
  169MPD1    H5 2584   0.340   0.142   9.433  0.9336 -0.3170 -1.0542
  169MPD1    N1 2585   4.579   0.225   9.494  0.3753  0.2682 -0.1133
  169MPD1    H6 2586   4.495   0.268   9.531 -0.1634 -0.0828 -0.9442
  169MPD1    H7 2587   4.584   0.127   9.521  0.5018  0.3866  0.2983
  170MPD1     C 2588   0.069   2.234  12.947  0.3248 -0.1925 -0.2988
  170MPD1    C1 2589   0.116   2.204  13.071  0.5863 -0.2389 -0.4740
  170MPD1    C2 2590   0.072   2.274  13.184 -0.0708  0.7846  0.0958
  170MPD1    C3 2591   4.699   2.365  13.171  0.1572  0.1408  0.0642
  170MPD1    C4 2592   4.646   2.393  13.043 -0.0876  0.1231 -0.3582
  170MPD1    C5 2593   4.688   2.318  12.931 -0.3447  0.3939  0.6925
  170MPD1     H 2594   0.111   2.243  13.280 -1.4280  3.3544  1.5067
  170MPD1    H1 2595   4.572   2.465  13.011 -1.1985 -2.0582 -2.6435
  170MPD1    H2 2596   0.108   2.178  12.863  1.4348 -0.1175  0.1667
  170MPD1    H3 2597   4.645   2.334  12.833  1.6685 -0.0391 -0.2603
  170MPD1     N 2598   4.657   2.445  13.281 -0.2465  0.0905  0.2526
  170MPD1    H5 2599   4.700   2.425  13.371  0.4674 -2.6842 -0.7001
  170MPD1    N1 2600   0.203   2.097  13.102  0.0244  0.4191 -0.0143
  170MPD1    H6 2601   0.242   2.069  13.012  1.8017  1.8058  0.3225
  170MPD1    H7 2602   0.271   2.114  13.176 -0.8429  1.0694  0.6411
  171MPD1     C 2603   3.407   3.711  15.262 -0.1100 -0.2362 -0.0212
  171MPD1    C1 2604   3.311   3.612  15.238  0.8822 -0.0031  0.0889
  171MPD1    C2 2605   3.284   3.507  15.327 -0.0874 -0.0294  0.3664
  171MPD1    C3 2606   3.362   3.499  15.438 -0.2768  0.3330  0.0662
  171MPD1    C4 2607   3.467   3.593  15.460 -0.6865 -0.0122 -0.2108
  171MPD1    C5 2608   3.487   3.694  15.370 -0.1303 -0.0210  0.7238
  171MPD1     H 2609   3.199   3.440  15.322 -0.9913  1.1985 -0.7503
  171MPD1    H1 2610   3.525   3.591  15.552  0.9532 -3.2455 -1.3265
  171MPD1    H2 2611   3.428   3.790  15.191  0.3835 -1.1686 -0.9194
  171MPD1    H3 2612   3.555   3.768  15.410 -0.7713  1.2201 -0.4977
  171MPD1     N 2613   3.358   3.391  15.533 -0.3761 -0.8174  0.6571
  171MPD1    H5 2614   3.398   3.411  15.625 -0.2234  2.1603 -0.0517
  171MPD1    N1 2615   3.231   3.627  15.120  0.2256  0.0813  0.0446
  171MPD1    H6 2616   3.194   3.539  15.084  1.9826 -0.6850  0.0836
  171MPD1    H7 2617   3.280   3.666  15.040  1.4453  1.3569  1.4249
  172MPD1     C 2618   2.363   2.353  17.636 -0.3963  0.2604  1.1870
  172MPD1    C1 2619   2.316   2.478  17.603  0.2517  0.2704  0.6614
  172MPD1    C2 2620   2.304   2.576   0.002 -0.7744  0.2073 -0.1764
  172MPD1    C3 2621   2.323   2.545   0.137 -0.1008  0.4154  0.6964
  172MPD1    C4 2622   2.349   2.419   0.169  0.7358 -0.2046 -0.8072
  172MPD1    C5 2623   2.380   2.324   0.072  0.0707  0.2133  0.1162
  172MPD1     H 2624   2.285   2.677  17.667 -1.4224  0.5119  1.0740
  172MPD1    H1 2625   2.363   2.400   0.275  1.9892  1.4779 -0.6745
  172MPD1    H2 2626   2.373   2.275  17.562  0.3923  1.9591 -0.5160
  172MPD1    H3 2627   2.418   2.225   0.091 -0.0019  0.1757  0.0689
  172MPD1     N 2628   2.327   2.646   0.238  0.2504 -0.6163 -0.1063
  172MPD1    H5 2629   2.356   2.621   0.332 -1.5674  2.9377  1.4155
  172MPD1    N1 2630   2.313   2.514  17.463 -0.7896 -0.3423  0.2947
  172MPD1    H6 2631   2.262   2.444  17.410 -1.2259 -1.7968  2.6434
  172MPD1    H7 2632   2.271   2.606  17.450  0.0648  0.3888  2.6352
  173MPD1     C 2633   3.263   2.700  14.169  0.3836 -0.0387  0.1570
  173MPD1    C1 2634   3.396   2.660  14.174  0.4318 -0.0473 -0.0407
  173MPD1    C2 2635   3.436   2.582  14.285 -0.2575  0.2776  0.7400
  173MPD1    C3 2636   3.356   2.585  14.399 -0.4696 -0.6118 -0.5257
  173MPD1    C4 2637   3.225   2.636  14.395  0.2243 -0.4676 -0.5004
  173MPD1    C5 2638   3.178   2.693  14.279 -0.5537 -0.4470  0.5224
  173MPD1     H 2639   3.524   2.520  14.280  0.3155  0.9645  2.1597
  173MPD1    H1 2640   3.157   2.606  14.473  0.6654  1.0878  0.4864
  173MPD1    H2 2641   3.220   2.748  14.081 -0.2462 -0.4090  0.2621
  173MPD1    H3 2642   3.077   2.731  14.280  0.0626  1.2290 -0.3734
  173MPD1     N 2643   3.409   2.502  14.504 -0.3001  0.1684  0.7949
  173MPD1    H5 2644   3.504   2.468  14.494 -0.3379  0.5871 -0.9415
  173MPD1    N1 2645   3.463   2.662  14.053  0.0399 -0.1522  0.5289
  173MPD1    H6 2646   3.441   2.742  13.994  3.2209  0.3506  0.0008
  173MPD1    H7 2647   3.564   2.666  14.068  0.0092 -0.1693  0.7314
  174MPD1     C 2648   3.624   1.771  14.090 -0.4405 -0.8168 -0.1230
  174MPD1    C1 2649   3.644   1.732  14.215  0.5828 -0.0253 -0.2261
  174MPD1    C2 2650   3.617   1.827  14.316  0.0025 -0.2895  0.2598
  174MPD1    C3 2651   3.540   1.939  14.292  0.5137 -0.2229 -0.1708
  174MPD1    C4 2652   3.511   1.968  14.161 -0.2692  0.1399 -0.1809
  174MPD1    C5 2653   3.562   1.888  14.060 -0.0785  0.1646 -0.6251
  174MPD1     H 2654   3.654   1.805  14.416  1.6956 -1.1186 -0.5536
  174MPD1    H1 2655   3.447   2.055  14.146 -2.8842 -1.7945 -0.1601
  174MPD1    H2 2656   3.675   1.717  14.010  1.4892 -0.9779  1.2285
  174MPD1    H3 2657   3.550   1.928  13.960  2.3521  0.6677 -0.6909
  174MPD1     N 2658   3.489   2.024  14.395  0.2804 -0.2169  0.2437
  174MPD1    H5 2659   3.446   2.113  14.372  0.6629 -0.0823  0.0628
  174MPD1    N1 2660   3.734   1.632  14.251 -0.2263 -0.1465  0.1232
  174MPD1    H6 2661   3.710   1.608  14.347  0.0872 -1.9114 -0.2413
  174MPD1    H7 2662   3.720   1.549  14.194  1.7480 -0.3015 -0.1603
  175MPD1     C 2663   1.900   3.479  15.454 -0.3280  0.1636  0.1562
  175MPD1    C1 2664   1.966   3.373  15.508 -0.2416  0.1574  0.4112
  175MPD1    C2 2665   1.969   3.361  15.644 -0.4969  0.1912 -0.2861
  175MPD1    C3 2666   1.919   3.459  15.720 -0.4111  0.6150 -0.0254
  175MPD1    C4 2667   1.863   3.575  15.672 -0.6826  0.0266  0.0357
  175MPD1    C5 2668   1.852   3.585  15.532 -0.0089  0.3895 -0.5310
  175MPD1     H 2669   2.022   3.277  15.687 -0.4246  1.2487  1.6547
  175MPD1    H1 2670   1.819   3.656  15.728  0.1525  0.9545 -0.6572
  175MPD1    H2 2671   1.901   3.494  15.347 -1.5919 -3.4920 -0.3592
  175MPD1    H3 2672   1.802   3.673  15.492 -0.5497  0.3024 -0.0502
  175MPD1     N 2673   1.917   3.453  15.861 -0.5799 -0.0609 -0.0006
  175MPD1    H5 2674   1.867   3.530  15.903 -1.4774 -0.0227 -1.1406
  175MPD1    N1 2675   1.994   3.263  15.425 -0.0696 -0.2938  0.0910
  175MPD1    H6 2676   2.081   3.215  15.449  0.2107  0.0156 -0.3025
  175MPD1    H7 2677   2.008   3.294  15.329 -0.5878 -3.5984 -1.0720
  176MPD1     C 2678   4.210   0.463  16.278 -0.5187 -0.9576 -0.1303
  176MPD1    C1 2679   4.134   0.388  16.364 -0.6552  0.1931  0.1779
  176MPD1    C2 2680   4.082   0.436  16.482  0.2038 -0.3966  0.1533
  176MPD1    C3 2681   4.096   0.577  16.507 -0.0421 -1.0746  0.3233
  176MPD1    C4 2682   4.176   0.655  16.417  0.0849 -0.2332  0.9768
  176MPD1    C5 2683   4.230   0.597  16.302 -0.7284 -0.8247  0.7986
  176MPD1     H 2684   4.022   0.377  16.550  0.8937 -1.0621  0.1758
  176MPD1    H1 2685   4.187   0.763  16.428  1.9875 -0.4957  1.6440
  176MPD1    H2 2686   4.263   0.421  16.193  1.2601 -1.2799  1.1341
  176MPD1    H3 2687   4.293   0.651  16.233 -0.9206 -1.2141  0.3160
  176MPD1     N 2688   4.046   0.627  16.630  0.1660 -0.1610 -0.3718
  176MPD1    H5 2689   4.000   0.560  16.691 -2.4190  1.9944 -0.0240
  176MPD1    N1 2690   4.136   0.252  16.336  0.3748  0.1738  0.0526
  176MPD1    H6 2691   4.144   0.231  16.237  2.3307 -0.9668  0.4666
  176MPD1    H7 2692   4.055   0.196  16.364  0.9522 -0.6108  0.1473
  177MPD1     C 2693   2.107   1.097   9.780  0.1107 -0.0850 -0.0041
  177MPD1    C1 2694   1.986   1.033   9.748 -0.3651 -0.4963  0.3465
  177MPD1    C2 2695   1.902   1.098   9.657  0.2810  0.7002 -0.3892
  177MPD1    C3 2696   1.938   1.218   9.598 -0.5694 -0.0131  0.1471
  177MPD1    C4 2697   2.063   1.275   9.633  0.1877  0.2928  0.2616
  177MPD1    C5 2698   2.142   1.219   9.729 -0.4964  0.2521  0.5388
  177MPD1     H 2699   1.815   1.043   9.625 -0.3712  1.4842  0.0533
  177MPD1    H1 2700   2.080   1.378   9.604  2.2993  0.1770  1.0904
  177MPD1    H2 2701   2.173   1.055   9.855  1.4310 -0.1657 -1.2267
  177MPD1    H3 2702   2.229   1.267   9.773 -0.5287 -1.0066  1.9594
  177MPD1     N 2703   1.855   1.275   9.501  0.1267  0.9193 -0.3252
  177MPD1    H5 2704   1.763   1.235   9.486 -0.6615  2.5473  0.2021
  177MPD1    N1 2705   1.969   0.901   9.784  0.1223 -0.2314 -0.5109
  177MPD1    H6 2706   1.880   0.855   9.768 -0.0260 -0.4669  0.9949
  177MPD1    H7 2707   2.014   0.873   9.871 -1.9256  1.4456  1.0939
  178MPD1     C 2708   0.249   1.600   0.293 -0.4619  0.2111  0.1377
  178MPD1    C1 2709   0.185   1.493   0.228 -0.3645 -0.4958  0.1071
  178MPD1    C2 2710   0.198   1.489   0.090 -0.8030 -0.8991 -0.6119
  178MPD1    C3 2711   0.251   1.596   0.020  0.2386 -0.4923 -0.0313
  178MPD1    C4 2712   0.317   1.693   0.091 -0.0434  0.5888 -0.3835
  178MPD1    C5 2713   0.314   1.696   0.225  0.3445 -0.2040  0.4620
  178MPD1     H 2714   0.164   1.404   0.033 -0.1661 -2.4257  1.2970
  178MPD1    H1 2715   0.347   1.783   0.038  1.7424  0.5670  0.5511
  178MPD1    H2 2716   0.256   1.609   0.401  1.9758  1.3011 -0.1114
  178MPD1    H3 2717   0.358   1.778   0.281  0.8236 -0.3842  0.3567
  178MPD1     N 2718   0.259   1.598  17.577  0.4292 -1.0639 -0.2852
  178MPD1    H5 2719   0.302   1.677  17.529  0.2538 -0.2137  0.9596
  178MPD1    N1 2720   0.136   1.374   0.290  0.2849  0.5360  0.0273
  178MPD1    H6 2721   0.110   1.399   0.385  1.0536  0.6834  0.1949
  178MPD1    H7 2722   0.058   1.344   0.231 -1.9260  1.6198  2.3972
  179MPD1     C 2723   4.659   4.552  15.440 -0.1300 -0.0805  0.3081
  179MPD1    C1 2724   0.000   4.468  15.521  0.3830 -0.0540  0.0611
  179MPD1    C2 2725   4.657   4.384  15.598  0.1844 -0.3128 -0.0307
  179MPD1    C3 2726   4.527   4.368  15.586 -0.5228  0.2511  0.8259
  179MPD1    C4 2727   4.459   4.461  15.504 -0.1451 -0.8029  0.7593
  179MPD1    C5 2728   4.530   4.552  15.432 -0.1968 -0.4351 -0.7816
  179MPD1     H 2729   4.707   4.312  15.661  1.7703  1.9185  1.2389
  179MPD1    H1 2730   4.351   4.462  15.499 -0.2042  2.2539  2.2549
  179MPD1    H2 2731   4.712   4.620  15.374 -0.8213 -0.8346 -1.0418
  179MPD1    H3 2732   4.481   4.634  15.380 -1.7236 -0.5932  0.4047
  179MPD1     N 2733   4.449   4.285  15.669  0.5821 -0.4451  0.1858
  179MPD1    H5 2734   4.348   4.283  15.660  0.7101 -2.9470 -0.5520
  179MPD1    N1 2735   0.137   4.460  15.500 -0.1779 -0.6891  0.1410
  179MPD1    H6 2736   0.179   4.548  15.473 -0.3482 -0.4762  0.5630
  179MPD1    H7 2737   0.187   4.413  15.576 -0.5570 -1.0232  0.1835
  180MPD1     C 2738   4.257   0.912  14.673  0.7471  0.2149  0.5720
  180MPD1    C1 2739   4.314   0.900  14.545  0.3726 -0.0321  0.1698
  180MPD1    C2 2740   4.234   0.920  14.437 -0.1315 -0.0269 -0.6963
  180MPD1    C3 2741   4.096   0.931  14.457 -0.0903  0.5352  0.2338
  180MPD1    C4 2742   4.038   0.947  14.586 -0.2535 -0.4213 -0.6774
  180MPD1    C5 2743   4.122   0.932  14.692 -0.0143  0.2009 -0.1381
  180MPD1     H 2744   4.281   0.919  14.339 -0.2681  0.2598 -0.7654
  180MPD1    H1 2745   3.931   0.964  14.590 -0.7013 -3.3223 -0.2047
  180MPD1    H2 2746   4.322   0.916  14.760  1.5310 -1.1227  0.0562
  180MPD1    H3 2747   4.076   0.952  14.788 -0.6479 -1.3507 -0.1167
  180MPD1     N 2748   4.018   0.952  14.341 -0.5239  0.1815  0.4874
  180MPD1    H5 2749   4.065   0.948  14.251 -0.7810  0.7570  0.3254
  180MPD1    N1 2750   4.456   0.892  14.528 -0.8534  0.3423  0.1005
  180MPD1    H6 2751   4.510   0.869  14.612  0.3871 -3.1674 -1.6805
  180MPD1    H7 2752   4.481   0.852  14.439  0.3767 -0.8942  1.0013
  181MPD1     C 2753   0.351   3.247  10.551 -0.9128  0.1744 -0.7152
  181MPD1    C1 2754   0.424   3.133  10.527  0.2156  0.3404  0.0551
  181MPD1    C2 2755   0.552   3.149  10.499 -1.1135 -0.7688 -0.4335
  181MPD1    C3 2756   0.609   3.277  10.493 -0.0404 -0.4597  0.5113
  181MPD1    C4 2757   0.525   3.386  10.517  0.1149 -0.0010 -0.9667
  181MPD1    C5 2758   0.392   3.376  10.531  0.2628 -0.1954  0.0128
  181MPD1     H 2759   0.620   3.068  10.475  1.9304  2.0994 -1.4868
  181MPD1    H1 2760   0.561   3.488  10.527 -0.8903  0.1066  1.3824
  181MPD1    H2 2761   0.247   3.242  10.582 -0.4297  0.3184  0.9282
  181MPD1    H3 2762   0.330   3.464  10.542  0.4785 -0.2976  2.0504
  181MPD1     N 2763   0.744   3.303  10.460 -0.3523  0.4840 -0.0155
  181MPD1    H5 2764   0.769   3.400  10.445  1.4983  0.3712  2.4474
  181MPD1    N1 2765   0.378   3.007  10.566 -0.5714 -0.1075  0.1739
  181MPD1    H6 2766   0.277   2.995  10.565 -0.6688  0.7391 -0.9983
  181MPD1    H7 2767   0.426   2.933  10.515  1.3692  0.7227  0.7951
  182MPD1     C 2768   3.153   1.421   1.210  0.0815  0.1551  0.1201
  182MPD1    C1 2769   3.090   1.480   1.329  0.1801 -0.2001 -0.6217
  182MPD1    C2 2770   2.968   1.545   1.308  0.1054  0.2933  0.0503
  182MPD1    C3 2771   2.894   1.541   1.195 -0.1476  0.5599 -0.8415
  182MPD1    C4 2772   2.947   1.467   1.084 -0.2283 -0.1442 -0.0193
  182MPD1    C5 2773   3.074   1.417   1.095 -0.0344 -0.0459  0.1710
  182MPD1     H 2774   2.930   1.597   1.395 -0.4663 -2.8303  1.6904
  182MPD1    H1 2775   2.900   1.460   0.986 -3.1065  0.8504  1.2946
  182MPD1    H2 2776   3.255   1.385   1.214  0.3661  0.9238 -0.3529
  182MPD1    H3 2777   3.110   1.371   1.003  2.8131  2.0271  0.2187
  182MPD1     N 2778   2.771   1.605   1.169 -0.1097 -0.3276 -0.2249
  182MPD1    H5 2779   2.723   1.590   1.080  0.1078 -0.5531 -0.3040
  182MPD1    N1 2780   3.170   1.499   1.441  0.1420  0.7217  0.6901
  182MPD1    H6 2781   3.103   1.524   1.514 -0.3289 -0.8391  0.7993
  182MPD1    H7 2782   3.219   1.412   1.462 -0.7445 -0.0445 -0.4085
  183MPD1     C 2783   2.128   2.980   8.982  0.1513 -0.6224  0.6557
  183MPD1    C1 2784   2.086   2.864   9.044 -0.7588 -0.2755 -0.2842
  183MPD1    C2 2785   1.988   2.878   9.142 -1.0101 -0.1306 -0.1053
  183MPD1    C3 2786   1.938   3.002   9.183 -0.0438 -0.1483  0.2120
  183MPD1    C4 2787   1.980   3.110   9.111 -0.3991 -0.1264  0.0548
  183MPD1    C5 2788   2.071   3.100   9.004  0.0432  0.6868  0.5632
  183MPD1     H 2789   1.945   2.793   9.195  2.3118 -0.3371  2.2053
  183MPD1    H1 2790   1.945   3.210   9.135  1.8958  0.8201 -0.5398
  183MPD1    H2 2791   2.203   2.978   8.904 -1.3556 -0.6424 -0.7848
  183MPD1    H3 2792   2.103   3.191   8.956 -0.8596 -0.3080 -1.8936
  183MPD1     N 2793   1.844   3.008   9.291  0.1378 -0.4208  0.7342
  183MPD1    H5 2794   1.812   2.924   9.339 -1.3361  1.0349  2.2837
  183MPD1    N1 2795   2.120   2.738   8.998  0.2761  0.6576  0.0388
  183MPD1    H6 2796   2.097   2.662   9.062 -1.3850  0.5244 -0.7120
  183MPD1    H7 2797   2.219   2.739   8.977  0.4214 -0.4385  0.6798
  184MPD1     C 2798   0.890   0.935   9.881 -0.6443  0.2250  0.0959
  184MPD1    C1 2799   0.794   0.966   9.781  1.0387  0.2525  0.5028
  184MPD1    C2 2800   0.825   1.042   9.668  0.2367  0.1773  0.3069
  184MPD1    C3 2801   0.948   1.095   9.655  0.0626 -0.1616  0.2703
  184MPD1    C4 2802   1.040   1.073   9.754  0.1100 -0.0303  0.1964
  184MPD1    C5 2803   1.016   1.000   9.866  0.6339  0.3163 -0.2166
  184MPD1     H 2804   0.750   1.043   9.591 -0.9820 -1.2306  1.4589
  184MPD1    H1 2805   1.138   1.120   9.749 -0.5800  1.4563  0.6373
  184MPD1    H2 2806   0.869   0.885   9.975  0.9570 -1.0755 -0.2239
  184MPD1    H3 2807   1.099   0.986   9.934  0.7684  2.5253  0.0668
  184MPD1     N 2808   0.995   1.166   9.540 -0.4663  0.0715  0.3139
  184MPD1    H5 2809   1.092   1.194   9.537 -0.6519  0.5490 -1.8665
  184MPD1    N1 2810   0.659   0.925   9.796 -0.1139 -0.6004  0.3420
  184MPD1    H6 2811   0.649   0.841   9.853  0.1015 -0.2664  0.8706
  184MPD1    H7 2812   0.633   0.889   9.704 -3.0814 -1.1354  1.4084
  185MPD1     C 2813   0.729   1.181   8.553 -0.0135  0.2668 -0.0671
  185MPD1    C1 2814   0.855   1.230   8.564 -0.0561  0.3176 -0.3983
  185MPD1    C2 2815   0.902   1.270   8.693  0.2294 -0.3097 -0.3320
  185MPD1    C3 2816   0.824   1.253   8.807 -0.0737  0.0056 -0.5515
  185MPD1    C4 2817   0.699   1.203   8.790 -0.3861 -0.3541  0.2522
  185MPD1    C5 2818   0.649   1.167   8.668 -0.3891 -0.0515 -0.4314
  185MPD1     H 2819   0.997   1.322   8.702  0.2797 -0.3080 -0.8734
  185MPD1    H1 2820   0.643   1.181   8.880 -0.8078  3.0076  0.7851
  185MPD1    H2 2821   0.685   1.141   8.462 -1.2254  0.8559  0.2519
  185MPD1    H3 2822   0.556   1.112   8.664 -0.4458 -0.2150  3.5153
  185MPD1     N 2823   0.877   1.281   8.941 -0.2679 -0.3564 -0.5307
  185MPD1    H5 2824   0.816   1.258   9.018 -1.2331 -1.4598 -1.6145
  185MPD1    N1 2825   0.949   1.239   8.460 -0.1118 -0.4899 -0.1150
  185MPD1    H6 2826   0.914   1.252   8.366  1.4788 -0.1913 -0.6781
  185MPD1    H7 2827   1.044   1.274   8.474 -0.4136 -0.2364  1.2416
  186MPD1     C 2828   4.207   4.560  15.716 -0.3297  1.2673 -0.4658
  186MPD1    C1 2829   4.215   4.504  15.837 -0.0562  0.1305 -0.2968
  186MPD1    C2 2830   4.303   4.559  15.931  0.1710  0.9063  0.5940
  186MPD1    C3 2831   4.359   4.690  15.915 -0.3478 -0.8258  0.3559
  186MPD1    C4 2832   4.328   0.031  15.795  0.4746  0.6235  0.1515
  186MPD1    C5 2833   4.257   4.685  15.697 -0.0337 -0.2797  0.3386
  186MPD1     H 2834   4.317   4.508  16.026 -0.6989  3.0272  1.8473
  186MPD1    H1 2835   4.370   0.127  15.768  3.1218 -0.0682  1.8938
  186MPD1    H2 2836   4.168   4.499  15.635  0.0139 -1.8310  1.7181
  186MPD1    H3 2837   4.254   0.004  15.598 -0.0895  0.0387  0.4786
  186MPD1     N 2838   4.449   0.027  16.007  0.5660  0.7422 -0.8933
  186MPD1    H5 2839   4.497   0.113  15.981 -0.7912  0.9649 -2.7221
  186MPD1    N1 2840   4.162   4.371  15.850  0.1629 -0.5016  0.3987
  186MPD1    H6 2841   4.148   4.343  15.947 -2.9244 -0.0249  0.0802
  186MPD1    H7 2842   4.075   4.373  15.798  0.5711 -0.5934 -0.2850
  187MPD1     C 2843   4.437   1.901   0.290  0.2566 -0.2646  0.7264
  187MPD1    C1 2844   4.354   1.801   0.238 -0.0092 -0.4906  0.5941
  187MPD1    C2 2845   4.235   1.847   0.184  0.1986  0.1821 -0.3637
  187MPD1    C3 2846   4.217   1.978   0.147 -0.3858 -0.7172 -0.0560
  187MPD1    C4 2847   4.297   2.071   0.211  0.1813 -0.7141  0.1149
  187MPD1    C5 2848   4.403   2.032   0.285 -0.1410 -0.5629  1.3285
  187MPD1     H 2849   4.159   1.780   0.145 -1.0438  0.7950  0.9742
  187MPD1    H1 2850   4.285   2.176   0.190  0.6009 -0.7084 -0.1026
  187MPD1    H2 2851   4.535   1.887   0.334  0.7225  3.6262  0.9028
  187MPD1    H3 2852   4.470   2.103   0.332 -0.4625 -0.5810  1.8201
  187MPD1     N 2853   4.115   2.031   0.067  0.7053 -0.8821 -0.0555
  187MPD1    H5 2854   4.100   2.131   0.074 -1.1512 -1.1658  0.0313
  187MPD1    N1 2855   4.384   1.671   0.275 -0.2591  0.3404 -0.6778
  187MPD1    H6 2856   4.486   1.665   0.267 -0.1344  1.1437  0.3572
  187MPD1    H7 2857   4.346   1.602   0.210 -0.4254 -0.9666  0.7896
  188MPD1     C 2858   3.886   2.320  10.579  0.0742 -0.3880 -0.8502
  188MPD1    C1 2859   3.808   2.371  10.476 -0.0592  0.4301  1.0214
  188MPD1    C2 2860   3.770   2.283  10.381  0.2450 -0.2270 -0.7843
  188MPD1    C3 2861   3.793   2.143  10.383  0.0775  0.9496 -0.2210
  188MPD1    C4 2862   3.847   2.097  10.499 -0.5417 -0.3479 -1.0822
  188MPD1    C5 2863   3.901   2.185  10.595  0.0925 -0.5715  0.5410
  188MPD1     H 2864   3.714   2.322  10.297 -3.4290 -0.4383  1.5578
  188MPD1    H1 2865   3.862   1.992  10.525  1.9055  0.3853  0.5117
  188MPD1    H2 2866   3.931   2.385  10.653 -1.1105 -0.6842  0.1283
  188MPD1    H3 2867   3.954   2.153  10.684  0.9228 -1.4832 -0.2975
  188MPD1     N 2868   3.748   2.054  10.281  0.4788 -0.1157  0.0255
  188MPD1    H5 2869   3.769   1.956  10.296 -0.5099  0.1709  3.4226
  188MPD1    N1 2870   3.791   2.510  10.467  0.4946  0.5523 -0.7217
  188MPD1    H6 2871   3.717   2.543  10.405  0.2271  3.3365  1.0716
  188MPD1    H7 2872   3.792   2.565  10.553 -3.1991  0.4390 -0.6060
  189MPD1     C 2873   1.043   2.143   0.312  0.2630  0.3941  0.2360
  189MPD1    C1 2874   0.917   2.084   0.303  0.2102  0.2802 -0.6431
  189MPD1    C2 2875   0.812   2.172   0.286 -0.1525 -0.5447  0.3809
  189MPD1    C3 2876   0.827   2.312   0.275  0.6673 -0.1206  0.7592
  189MPD1    C4 2877   0.955   2.361   0.275  0.1840  0.1567 -0.6123
  189MPD1    C5 2878   1.061   2.277   0.299  0.4901  0.2779 -0.3122
  189MPD1     H 2879   0.710   2.140   0.272 -0.9031  1.2062  1.7187
  189MPD1    H1 2880   0.967   2.469   0.271  1.8547  0.0625  2.0681
  189MPD1    H2 2881   1.132   2.084   0.329  1.5933  2.6185  1.0447
  189MPD1    H3 2882   1.164   2.307   0.316 -0.0222  0.7724  1.9458
  189MPD1     N 2883   0.710   2.390   0.287  0.5270  0.7733  0.9342
  189MPD1    H5 2884   0.623   2.338   0.288 -0.5732  2.5489 -2.6593
  189MPD1    N1 2885   0.894   1.947   0.330  0.3704 -0.1071  0.7449
  189MPD1    H6 2886   0.804   1.918   0.293  1.4049 -1.7057 -0.5669
  189MPD1    H7 2887   0.962   1.896   0.273 -1.3006 -2.4541  0.8266
  190MPD1     C 2888   3.900   4.505  16.092  0.3396 -0.0066 -0.1121
  190MPD1    C1 2889   3.879   4.512  15.955 -0.3552 -0.5473  0.0931
  190MPD1    C2 2890   3.913   4.630  15.889  0.5836 -0.6609  0.5874
  190MPD1    C3 2891   3.979   0.005  15.953 -0.6300  0.8770  0.0997
  190MPD1    C4 2892   4.019   4.712  16.093  0.2445 -0.5903 -0.6105
  190MPD1    C5 2893   3.974   4.601  16.160  0.2269 -0.2659  0.8373
  190MPD1     H 2894   3.889   4.632  15.783 -1.8870  0.0126  1.1640
  190MPD1    H1 2895   4.083   0.051  16.153  1.1237 -1.7703 -0.2984
  190MPD1    H2 2896   3.865   4.421  16.152 -0.6775  0.4806 -0.0267
  190MPD1    H3 2897   4.000   4.606  16.265  3.3433  0.9995  0.0056
  190MPD1     N 2898   4.016   0.111  15.872 -0.2879 -0.1527 -0.0087
  190MPD1    H5 2899   3.986   0.106  15.775 -0.9591  0.2898  0.1691
  190MPD1    N1 2900   3.806   4.412  15.887  0.2672 -0.3713 -0.4036
  190MPD1    H6 2901   3.854   4.397  15.799 -0.2957 -0.8577 -0.6254
  190MPD1    H7 2902   3.819   4.324  15.936  1.3847 -0.6234 -1.1456
  191MPD1     C 2903   3.630   2.388  12.359 -0.0725 -0.0069  0.0713
  191MPD1    C1 2904   3.517   2.460  12.399  0.7906  0.6367  0.3372
  191MPD1    C2 2905   3.527   2.601  12.397 -0.3602  0.4563  0.2442
  191MPD1    C3 2906   3.650   2.663  12.389  0.6813 -0.1130  0.4109
  191MPD1    C4 2907   3.759   2.590  12.359 -0.2486 -0.0852 -0.1838
  191MPD1    C5 2908   3.745   2.457  12.336  0.5008  0.2495  0.5394
  191MPD1     H 2909   3.439   2.663  12.411  0.7452  2.1789 -0.5725
  191MPD1    H1 2910   3.851   2.635  12.322  0.6512 -0.1414  1.9563
  191MPD1    H2 2911   3.627   2.281  12.342  0.8487  0.1818 -1.2456
  191MPD1    H3 2912   3.832   2.409  12.293 -0.3786 -2.4512  1.7959
  191MPD1     N 2913   3.650   2.800  12.359 -0.5404 -0.0723 -0.0865
  191MPD1    H5 2914   3.560   2.832  12.326 -0.8558  0.9617  1.7723
  191MPD1    N1 2915   3.393   2.395  12.403  0.1496 -0.1127 -0.1267
  191MPD1    H6 2916   3.398   2.293  12.413 -1.3279 -0.2024 -0.2757
  191MPD1    H7 2917   3.338   2.428  12.483 -1.7822  0.3426 -1.6479
  192MPD1     C 2918   3.083   3.399  12.520 -0.1427 -0.2935 -0.4812
  192MPD1    C1 2919   3.166   3.484  12.438  0.0858 -0.5594 -0.4697
  192MPD1    C2 2920   3.288   3.438  12.408  0.1463 -0.1550 -0.1670
  192MPD1    C3 2921   3.319   3.307  12.434  0.0931 -0.5685 -0.0140
  192MPD1    C4 2922   3.234   3.223  12.503  0.2398  0.4018  0.5138
  192MPD1    C5 2923   3.117   3.269  12.552  0.1148  0.2633 -0.4185
  192MPD1     H 2924   3.345   3.500  12.340  1.3628 -0.5765  0.4584
  192MPD1    H1 2925   3.255   3.118  12.518  2.2343  0.7004 -0.1135
  192MPD1    H2 2926   2.987   3.433  12.558  0.8488  0.2334  1.5719
  192MPD1    H3 2927   3.044   3.203  12.598  1.7642 -2.2489 -1.4240
  192MPD1     N 2928   3.441   3.250  12.386  0.6071 -0.6190 -0.3000
  192MPD1    H5 2929   3.464   3.160  12.428  0.3611  0.4570  2.1659
  192MPD1    N1 2930   3.144   3.622  12.422  0.1816  0.2387  0.3207
  192MPD1    H6 2931   3.050   3.659  12.409 -0.1606 -0.0579  1.9157
  192MPD1    H7 2932   3.200   3.670  12.352 -0.2914  1.4819  0.8062
  193MPD1     C 2933   2.934   2.964  15.976  0.0000 -0.5110  0.2683
  193MPD1    C1 2934   2.909   3.056  16.076  0.3574  0.9904  0.5717
  193MPD1    C2 2935   3.012   3.076  16.167 -0.0554  0.6071 -0.2952
  193MPD1    C3 2936   3.123   2.993  16.164  0.1951 -0.1007 -1.5411
  193MPD1    C4 2937   3.129   2.896  16.071  0.1327 -0.5677 -0.2647
  193MPD1    C5 2938   3.030   2.874  15.979 -0.7973  0.1590  0.1534
  193MPD1     H 2939   3.009   3.152  16.244 -0.0749  1.5573 -1.2303
  193MPD1    H1 2940   3.213   2.828  16.068 -0.3773 -1.2050 -0.0427
  193MPD1    H2 2941   2.866   2.960  15.891 -0.2013 -1.4651  0.4747
  193MPD1    H3 2942   3.045   2.799  15.902  1.6957  0.8268  0.0016
  193MPD1     N 2943   3.243   3.004  16.237 -0.6220  0.4846 -0.1836
  193MPD1    H5 2944   3.309   2.931  16.210 -1.0570 -0.8924  2.4059
  193MPD1    N1 2945   2.806   3.147  16.065  0.4673 -0.0261 -0.5681
  193MPD1    H6 2946   2.729   3.105  16.013  0.1093  1.4230 -1.1833
  193MPD1    H7 2947   2.782   3.193  16.153 -0.6893  1.5479 -1.7149
  194MPD1     C 2948   0.925   0.958  17.505  0.1558  0.1588  0.0679
  194MPD1    C1 2949   0.922   0.817  17.509 -0.0859  0.0685  0.4307
  194MPD1    C2 2950   0.979   0.748  17.405  1.0300 -0.0899 -0.3067
  194MPD1    C3 2951   1.036   0.806  17.297 -0.1062  0.1803  0.0660
  194MPD1    C4 2952   1.037   0.943  17.296  0.5776  0.6091  0.0397
  194MPD1    C5 2953   0.989   1.023  17.401  0.2644  0.6571 -0.1252
  194MPD1     H 2954   0.957   0.642  17.398  2.6141 -0.4954  0.7273
  194MPD1    H1 2955   1.095   1.002  17.226 -0.7419  3.1695  1.0916
  194MPD1    H2 2956   0.869   1.011  17.581  0.9160 -0.7214  1.2286
  194MPD1    H3 2957   0.984   1.131  17.393  3.9086  0.8465  0.3140
  194MPD1     N 2958   1.089   0.741  17.177 -0.0915 -0.0852  0.3031
  194MPD1    H5 2959   1.115   0.799  17.098 -1.5142  1.2450  0.8100
  194MPD1    N1 2960   0.843   0.743  17.598 -0.7342 -0.0267  0.1000
  194MPD1    H6 2961   0.891   0.657  17.626 -0.7277  0.2735  1.0319
  194MPD1    H7 2962   0.845   0.796  17.685  1.5406  1.0085 -0.5713
  195MPD1     C 2963   3.640   1.628   0.156  0.5005 -0.5110 -0.2747
  195MPD1    C1 2964   3.591   1.589   0.037 -0.0091  0.1407 -0.2987
  195MPD1    C2 2965   3.553   1.454   0.017  0.5368  0.6451 -0.0029
  195MPD1    C3 2966   3.560   1.362   0.125  0.1250 -0.5022  0.0895
  195MPD1    C4 2967   3.605   1.408   0.246 -0.0935  0.1415  0.0995
  195MPD1    C5 2968   3.636   1.541   0.262  0.0875 -0.5435  0.0983
  195MPD1     H 2969   3.513   1.422  17.621 -0.9217  1.5521  0.2943
  195MPD1    H1 2970   3.612   1.333   0.324  1.6094  0.8389  0.6062
  195MPD1    H2 2971   3.659   1.735   0.163 -1.5106 -0.1951  0.2786
  195MPD1    H3 2972   3.662   1.576   0.361  1.4249 -3.4779  0.7649
  195MPD1     N 2973   3.510   1.226   0.114  0.1597 -0.5482  0.1160
  195MPD1    H5 2974   3.530   1.177   0.201  0.7281 -0.7942 -0.1554
  195MPD1    N1 2975   3.594   1.687  17.634 -0.2415 -0.3496  0.1800
  195MPD1    H6 2976   3.533   1.657  17.559 -0.4788  0.7113 -0.0541
  195MPD1    H7 2977   3.571   1.783  17.660 -0.9921 -1.3488  3.2522
  196MPD1     C 2978   3.002   1.327  17.078  0.2560 -0.0289 -0.3188
  196MPD1    C1 2979   3.010   1.208  17.154 -0.0406 -0.1498 -0.1174
  196MPD1    C2 2980   3.037   1.212  17.288 -0.2450 -0.5532  0.9264
  196MPD1    C3 2981   3.040   1.334  17.363  0.0580 -0.2681  0.6029
  196MPD1    C4 2982   3.024   1.450  17.293  0.4497  0.2238 -0.2808
  196MPD1    C5 2983   3.009   1.438  17.156  0.1785  0.2391 -0.0428
  196MPD1     H 2984   3.032   1.121  17.347 -0.2305 -2.2271 -1.6372
  196MPD1    H1 2985   3.041   1.550  17.332 -2.6959  1.0265 -0.9970
  196MPD1    H2 2986   2.982   1.341  16.973 -0.8388 -1.6831 -0.3343
  196MPD1    H3 2987   2.984   1.535  17.116  2.3400  0.8459  0.0833
  196MPD1     N 2988   3.068   1.339  17.503 -0.3298  0.1150 -0.1684
  196MPD1    H5 2989   3.073   1.435  17.537  1.0044  0.8902 -2.5110
  196MPD1    N1 2990   3.023   1.080  17.095  0.8773 -0.0190  0.7072
  196MPD1    H6 2991   2.997   1.002  17.155  0.2781  0.0063  0.4779
  196MPD1    H7 2992   2.962   1.074  17.013  0.7846  0.1889  0.7605
  197MPD1     C 2993   2.649   3.605   0.036  0.1035  0.1225 -0.4638
  197MPD1    C1 2994   2.662   3.738   0.018  0.9394  0.8781  0.0299
  197MPD1    C2 2995   2.628   3.790  17.592 -0.0093 -0.1428  0.1416
  197MPD1    C3 2996   2.555   3.714  17.498 -0.3096 -0.1234 -0.0990
  197MPD1    C4 2997   2.556   3.578  17.518  0.2423 -0.0175  0.6496
  197MPD1    C5 2998   2.608   3.528  17.635 -0.5886  0.4336 -0.2029
  197MPD1     H 2999   2.636   3.898  17.599  1.8428 -0.0913 -2.7416
  197MPD1    H1 3000   2.520   3.509  17.442  0.2125 -0.6152  1.2063
  197MPD1    H2 3001   2.690   3.549   0.119  0.7860  3.5823  1.5493
  197MPD1    H3 3002   2.612   3.419  17.641  1.1928  0.6176  1.9042
  197MPD1     N 3003   2.524   3.765  17.369  0.0034 -0.0283 -0.0885
  197MPD1    H5 3004   2.486   3.696  17.306  1.2130 -0.3880 -0.4248
  197MPD1    N1 3005   2.733   3.815   0.116 -1.0134  0.1163  0.1995
  197MPD1    H6 3006   2.707   3.800   0.213  0.7976  2.4141  1.0110
  197MPD1    H7 3007   2.714   3.912   0.093  0.2750  0.1131 -0.8533
  198MPD1     C 3008   3.505   2.251  15.727  0.4200 -0.6306 -0.0876
  198MPD1    C1 3009   3.620   2.203  15.668 -0.6413 -0.0916  0.5803
  198MPD1    C2 3010   3.723   2.178  15.753  0.2143  0.0472 -0.2767
  198MPD1    C3 3011   3.715   2.204  15.886 -0.1554  0.6940 -0.1951
  198MPD1    C4 3012   3.595   2.237  15.948 -0.0338 -0.5357  0.1766
  198MPD1    C5 3013   3.490   2.260  15.864  0.6499  0.4860 -0.0488
  198MPD1     H 3014   3.824   2.170  15.714 -0.0718 -0.8694 -0.8421
  198MPD1    H1 3015   3.590   2.255  16.055 -0.2301  1.8334 -0.2278
  198MPD1    H2 3016   3.425   2.266  15.656 -0.0418  1.5966  0.8774
  198MPD1    H3 3017   3.392   2.288  15.901  0.2795 -0.2080 -0.4906
  198MPD1     N 3018   3.839   2.193  15.951  0.5117  0.6571  0.3335
  198MPD1    H5 3019   3.913   2.143  15.902  1.3565  1.2078  1.0351
  198MPD1    N1 3020   3.626   2.222  15.527 -0.2250  0.0987 -0.3094
  198MPD1    H6 3021   3.536   2.216  15.481 -0.8214  0.7257  0.7778
  198MPD1    H7 3022   3.681   2.149  15.481 -1.4580 -0.4986 -0.8199
  199MPD1     C 3023   1.895   4.714   9.957 -0.1706  0.2069  1.0226
  199MPD1    C1 3024   1.913   4.593  10.022  0.1030 -0.8995  0.1071
  199MPD1    C2 3025   1.834   4.486   9.990 -0.4651  0.4572  0.1262
  199MPD1    C3 3026   1.727   4.506   9.903  0.2419 -0.2606 -0.6330
  199MPD1    C4 3027   1.710   4.622   9.832 -0.5174 -0.2263 -0.1016
  199MPD1    C5 3028   1.800   4.717   9.856 -0.0463  0.2881 -0.2533
  199MPD1     H 3029   1.845   4.393  10.045 -1.1808 -1.5656 -3.1474
  199MPD1    H1 3030   1.624   4.641   9.768  1.3279  3.2852 -1.5213
  199MPD1    H2 3031   1.964   0.071   9.976  0.8493 -0.7384  1.3923
  199MPD1    H3 3032   1.773   0.084   9.806  2.8480  2.0123  1.3220
  199MPD1     N 3033   1.638   4.407   9.868 -0.0030  0.2954  0.0115
  199MPD1    H5 3034   1.569   4.434   9.799  0.2783  0.9914  0.0090
  199MPD1    N1 3035   2.026   4.573  10.103  0.0782 -0.6260 -0.0926
  199MPD1    H6 3036   2.018   4.493  10.166 -0.7895 -1.8604 -1.7897
  199MPD1    H7 3037   2.054   4.653  10.160  0.9341 -0.9074 -0.1155
  200MPD1     C 3038   4.648   3.384  15.355  0.3331 -0.1815  0.0942
  200MPD1    C1 3039   0.053   3.352  15.384 -0.0672 -0.5965 -0.4717
  200MPD1    C2 3040   0.130   3.305  15.287 -0.1854 -0.5534  0.1922
  200MPD1    C3 3041   0.092   3.283  15.157  0.0041  0.2499  0.5893
  200MPD1    C4 3042   4.694   3.342  15.125 -0.0482 -0.4063 -0.5845
  200MPD1    C5 3043   4.606   3.380  15.228 -0.2100  0.2210  0.4360
  200MPD1     H 3044   0.228   3.272  15.319  0.4330 -0.0695 -1.2174
  200MPD1    H1 3045   4.660   3.348  15.022  0.0273 -4.3541 -0.8327
  200MPD1    H2 3046   4.578   3.423  15.428  1.6052 -0.8067  1.6348
  200MPD1    H3 3047   4.499   3.393  15.217 -0.3725 -0.7797  0.7537
  200MPD1     N 3048   0.191   3.247  15.059  0.3634  0.4383 -0.4260
  200MPD1    H5 3049   0.286   3.233  15.094 -0.7954 -2.1848  1.6442
  200MPD1    N1 3050   0.103   3.379  15.511  0.6051 -0.1745 -0.6598
  200MPD1    H6 3051   0.026   3.394  15.576  1.2236 -2.2061  0.5396
  200MPD1    H7 3052   0.166   3.304  15.539  0.1933 -0.1694  0.2882
  201MPD1     C 3053   1.791   2.502  13.282  0.1795  0.2009  0.2290
  201MPD1    C1 3054   1.844   2.407  13.200 -0.0394 -0.4070 -0.1600
  201MPD1    C2 3055   1.978   2.371  13.209 -0.1695 -0.7886 -0.7397
  201MPD1    C3 3056   2.063   2.432  13.299 -0.3206 -0.1787 -0.0115
  201MPD1    C4 3057   2.008   2.519  13.392  0.2104  0.6906  0.2822
  201MPD1    C5 3058   1.874   2.550  13.378 -0.0697  0.6100  0.8457
  201MPD1     H 3059   2.024   2.308  13.134 -0.4255 -1.4835 -0.3211
  201MPD1    H1 3060   2.062   2.564  13.474 -2.7935  0.7085  2.2701
  201MPD1    H2 3061   1.688   2.534  13.270 -0.6450 -1.7256  2.3063
  201MPD1    H3 3062   1.823   2.610  13.453 -1.4358 -1.6269  1.7310
  201MPD1     N 3063   2.201   2.412  13.289  0.3358  0.4896 -0.0100
  201MPD1    H5 3064   2.228   2.349  13.214  2.4799  1.8509 -0.3872
  201MPD1    N1 3065   1.772   2.382  13.082 -0.4636 -0.1269  0.0568
  201MPD1    H6 3066   1.800   2.295  13.038  1.8016  0.1647  0.9072
  201MPD1    H7 3067   1.672   2.385  13.098 -0.1455 -3.3069  2.6075
  202MPD1     C 3068   2.356   2.088   8.937 -0.5790  0.6545 -0.5608
  202MPD1    C1 3069   2.272   2.194   8.973  0.9083 -0.1367 -0.3298
  202MPD1    C2 3070   2.276   2.223   9.111  0.4406 -0.5847  0.0796
  202MPD1    C3 3071   2.328   2.131   9.200  0.2874  0.2852  0.0463
  202MPD1    C4 3072   2.402   2.026   9.158  0.1110 -0.6258  0.5425
  202MPD1    C5 3073   2.418   2.006   9.026  0.1478 -0.3025  0.3709
  202MPD1     H 3074   2.210   2.302   9.146  2.1593  0.4498  1.0040
  202MPD1    H1 3075   2.454   1.956   9.222  2.3663 -0.8518 -1.5031
  202MPD1    H2 3076   2.374   2.069   8.832  0.6653 -1.3562 -0.0064
  202MPD1    H3 3077   2.493   1.935   8.994 -0.5064 -1.3122  1.1076
  202MPD1     N 3078   2.301   2.133   9.340  0.2433 -0.2121 -0.2003
  202MPD1    H5 3079   2.349   2.066   9.399  1.0012  0.2177 -0.3317
  202MPD1    N1 3080   2.251   2.302   8.883 -0.2110 -0.1227 -0.1179
  202MPD1    H6 3081   2.168   2.352   8.910  0.6755  1.1727  0.1987
  202MPD1    H7 3082   2.228   2.270   8.789  1.7254 -0.2020 -0.5831
  203MPD1     C 3083   1.681   3.321  12.414 -0.3203  0.5132 -0.6701
  203MPD1    C1 3084   1.625   3.252  12.306  0.7075  0.4223  0.4091
  203MPD1    C2 3085   1.583   3.119  12.340  0.0361 -0.2189  0.1499
  203MPD1    C3 3086   1.593   3.068  12.472  0.7478  0.1310 -0.3063
  203MPD1    C4 3087   1.647   3.143  12.572  0.0239 -1.1669  0.1032
  203MPD1    C5 3088   1.684   3.272  12.545 -0.5964 -0.1173  0.6916
  203MPD1     H 3089   1.540   3.056  12.262 -1.7708  0.7196  0.3902
  203MPD1    H1 3090   1.655   3.107  12.673 -1.4925  0.7422  0.9184
  203MPD1    H2 3091   1.719   3.422  12.404 -1.0575  0.9059  0.5338
  203MPD1    H3 3092   1.715   3.348  12.616 -1.6726  1.4007 -0.4700
  203MPD1     N 3093   1.552   2.934  12.482  0.4377 -0.2331 -0.3456
  203MPD1    H5 3094   1.520   2.888  12.397  1.2974 -3.6415  1.1505
  203MPD1    N1 3095   1.648   3.294  12.175  1.0334  0.3635  0.1346
  203MPD1    H6 3096   1.570   3.258  12.121 -0.7610  0.8174  2.4519
  203MPD1    H7 3097   1.664   3.395  12.168  0.1716  0.3541 -2.2248
  204MPD1     C 3098   0.669   3.692   0.170  0.4936 -0.2413 -0.6471
  204MPD1    C1 3099   0.793   3.745   0.132  0.6731  0.1404  0.2028
  204MPD1    C2 3100   0.869   3.655   0.062 -0.0808 -0.3089 -0.0526
  204MPD1    C3 3101   0.831   3.524   0.045  0.3500 -0.6537 -0.2810
  204MPD1    C4 3102   0.719   3.478   0.102 -0.1008  0.3419  0.4944
  204MPD1    C5 3103   0.636   3.564   0.167  0.3547 -1.1275 -0.4973
  204MPD1     H 3104   0.966   3.681   0.022 -0.2636  0.9583  0.3329
  204MPD1    H1 3105   0.687   3.375   0.094  0.3460  0.2158  0.3307
  204MPD1    H2 3106   0.599   3.761   0.216  0.5139 -0.1797 -0.7093
  204MPD1    H3 3107   0.544   3.531   0.213 -1.1143  1.4786 -1.5625
  204MPD1     N 3108   0.920   3.443  17.669 -0.1142 -0.2591  0.1355
  204MPD1    H5 3109   1.004   3.493  17.641 -0.0972 -0.1231  0.4290
  204MPD1    N1 3110   0.809   3.880   0.140  0.2860 -0.0896  0.6894
  204MPD1    H6 3111   0.746   3.925   0.206 -0.5758 -0.7027  0.2708
  204MPD1    H7 3112   0.906   3.912   0.141  0.9061 -1.9414  0.1803
  205MPD1     C 3113   1.410   1.969  16.493  1.1578  0.1235 -0.1025
  205MPD1    C1 3114   1.346   2.089  16.520  0.0311  0.2977 -0.6836
  205MPD1    C2 3115   1.299   2.111  16.651 -0.3226  0.3783 -0.1887
  205MPD1    C3 3116   1.326   2.029  16.761  0.5479  0.5915  0.2048
  205MPD1    C4 3117   1.401   1.922  16.733 -0.5751 -1.0737  0.2992
  205MPD1    C5 3118   1.439   1.891  16.602 -0.5304  0.2322  0.0930
  205MPD1     H 3119   1.253   2.206  16.673 -0.4952  0.6905 -1.9364
  205MPD1    H1 3120   1.426   1.852  16.812  0.0472 -1.2660 -0.0685
  205MPD1    H2 3121   1.431   1.932  16.394  2.0740 -0.3468  0.2650
  205MPD1    H3 3122   1.489   1.799  16.576 -0.9967 -0.2729  0.9818
  205MPD1     N 3123   1.272   2.053  16.894 -0.0660 -0.0817  0.2131
  205MPD1    H5 3124   1.311   1.988  16.961  1.6892  0.0516 -0.6805
  205MPD1    N1 3125   1.307   2.161  16.406  0.0436  0.0282 -0.0104
  205MPD1    H6 3126   1.284   2.260  16.422 -2.1289 -0.7011  1.5127
  205MPD1    H7 3127   1.380   2.156  16.336 -1.0740  1.1924 -1.2828
  206MPD1     C 3128   1.542   1.007  16.842 -0.2707 -0.4968 -0.1428
  206MPD1    C1 3129   1.428   1.075  16.804  0.0461 -0.5661  0.9553
  206MPD1    C2 3130   1.372   1.037  16.686  0.7091  0.1972  0.1502
  206MPD1    C3 3131   1.433   0.945  16.604  0.5449 -0.1919  0.4278
  206MPD1    C4 3132   1.555   0.892  16.636  0.2493 -0.6892  0.3422
  206MPD1    C5 3133   1.603   0.930  16.754 -0.2226 -0.3957  0.2191
  206MPD1     H 3134   1.279   1.080  16.649  1.1365 -0.1188 -1.3035
  206MPD1    H1 3135   1.614   0.834  16.566 -1.3590 -0.4512 -1.2098
  206MPD1    H2 3136   1.590   1.025  16.937 -0.2304  2.8195 -0.7856
  206MPD1    H3 3137   1.697   0.888  16.789 -0.9059 -1.5390  0.6662
  206MPD1     N 3138   1.357   0.904  16.491 -0.2540  0.1936  0.4241
  206MPD1    H5 3139   1.279   0.965  16.468 -0.6822 -0.6566 -0.3520
  206MPD1    N1 3140   1.365   1.160  16.899 -0.2827 -0.4420 -0.5410
  206MPD1    H6 3141   1.430   1.206  16.963  1.0278 -1.9681 -0.7575
  206MPD1    H7 3142   1.323   1.230  16.839 -2.1700 -1.3662 -0.2917
  207MPD1     C 3143   3.242   4.073   9.515 -0.1387  0.2828  0.0585
  207MPD1    C1 3144   3.263   3.940   9.553  0.1061  0.1274  0.0845
  207MPD1    C2 3145   3.319   3.908   9.670 -0.0376  0.3390  0.1465
  207MPD1    C3 3146   3.353   4.006   9.762  0.3065 -0.0279  0.1269
  207MPD1    C4 3147   3.323   4.134   9.733 -0.0948  0.1251  0.3827
  207MPD1    C5 3148   3.264   4.169   9.613 -0.4501  0.1854  0.2110
  207MPD1     H 3149   3.340   3.808   9.708  0.8460 -0.2448 -1.9014
  207MPD1    H1 3150   3.347   4.212   9.805  2.1583  1.5312 -1.9154
  207MPD1    H2 3151   3.200   4.098   9.419 -2.1478 -0.3101  0.7873
  207MPD1    H3 3152   3.239   4.272   9.587  1.6513  0.7051  0.2803
  207MPD1     N 3153   3.416   3.980   9.890 -0.6984 -0.3953  0.1502
  207MPD1    H5 3154   3.422   4.057   9.955  1.0584 -0.8411  0.5133
  207MPD1    N1 3155   3.266   3.845   9.447 -0.2546  0.3520  0.1627
  207MPD1    H6 3156   3.245   3.748   9.467  1.8112 -0.0836  0.1922
  207MPD1    H7 3157   3.199   3.875   9.376  0.1023 -0.3642 -0.4674
  208MPD1     C 3158   2.613   2.043  17.427 -0.3962  0.6183  0.0021
  208MPD1    C1 3159   2.644   1.973  17.542 -0.1615 -0.0911 -0.8331
  208MPD1    C2 3160   2.542   1.930  17.623 -0.5258 -0.6210 -0.3145
  208MPD1    C3 3161   2.407   1.958  17.592  0.2222 -0.5295  0.5592
  208MPD1    C4 3162   2.384   2.033  17.481  0.2337 -0.0510  0.2675
  208MPD1    C5 3163   2.485   2.077  17.399  0.3845  0.3458 -0.0828
  208MPD1     H 3164   2.572   1.869   0.008 -0.2338  2.4816  1.8115
  208MPD1    H1 3165   2.288   2.061  17.440  1.3626 -0.7849 -2.8266
  208MPD1    H2 3166   2.693   2.083  17.366  0.6615 -2.5965 -0.7652
  208MPD1    H3 3167   2.468   2.133  17.308 -0.3494 -0.4422 -0.4348
  208MPD1     N 3168   2.308   1.898  17.674  0.1736  0.0885  0.5263
  208MPD1    H5 3169   2.347   1.848   0.054  0.1803  1.9651  1.7142
  208MPD1    N1 3170   2.776   1.955  17.578  0.2210 -0.1557  0.1564
  208MPD1    H6 3171   2.794   1.854  17.582  0.7820 -0.0197  1.1730
  208MPD1    H7 3172   2.841   1.990  17.508  0.5660  3.6363  2.3786
  209MPD1     C 3173   4.528   2.668  11.057 -0.1667  0.1795 -0.1698
  209MPD1    C1 3174   4.574   2.787  11.108  0.5928  0.1423 -0.8218
  209MPD1    C2 3175   4.513   2.906  11.075  0.6661  0.1766 -0.0942
  209MPD1    C3 3176   4.420   2.912  10.979 -0.0303  0.1460 -0.0674
  209MPD1    C4 3177   4.386   2.794  10.916 -0.4542 -0.8624  0.4604
  209MPD1    C5 3178   4.436   2.675  10.957  0.0723 -0.2676  0.1093
  209MPD1     H 3179   4.544   2.997  11.126  0.1669  0.3302 -0.0649
  209MPD1    H1 3180   4.314   2.783  10.835 -1.8968  2.6947  1.2616
  209MPD1    H2 3181   4.564   2.571  11.089 -1.7605 -0.7166 -1.1082
  209MPD1    H3 3182   4.394   2.582  10.921  1.5121  0.0021 -2.2622
  209MPD1     N 3183   4.371   3.042  10.935 -1.0426 -0.0820 -0.4276
  209MPD1    H5 3184   4.398   3.119  10.994  1.3353 -1.8581  0.7737
  209MPD1    N1 3185   4.656   2.780  11.224 -0.1639 -0.2321 -0.0793
  209MPD1    H6 3186   4.723   2.703  11.219 -0.4489 -0.4576 -0.4753
  209MPD1    H7 3187   4.710   2.865  11.239 -1.2506  0.1269  1.7392
  210MPD1     C 3188   4.713   3.681  11.318  0.2390 -0.7007 -1.1345
  210MPD1    C1 3189   4.677   3.747  11.201 -0.5086 -0.2709  0.3418
  210MPD1    C2 3190   4.591   3.678  11.110  0.3677  0.6257  0.2621
  210MPD1    C3 3191   4.528   3.558  11.138  0.7637  0.4048  0.0706
  210MPD1    C4 3192   4.560   3.497  11.261  0.5386 -0.3712 -0.0913
  210MPD1    C5 3193   4.653   3.558  11.341  0.2221 -0.5845 -0.3445
  210MPD1     H 3194   4.568   3.728  11.017 -0.5488  1.2465  0.8274
  210MPD1    H1 3195   4.523   3.398  11.284  1.0015 -0.7350 -0.9163
  210MPD1    H2 3196   0.055   3.718  11.394  0.7996  0.1785 -2.0521
  210MPD1    H3 3197   4.688   3.509  11.431  0.7070 -1.5068 -1.0350
  210MPD1     N 3198   4.437   3.489  11.050 -0.0350  0.1943 -0.1166
  210MPD1    H5 3199   4.404   3.399  11.083 -0.4805  0.7604  0.9981
  210MPD1    N1 3200   0.026   3.858  11.160 -0.4608 -0.5355 -0.4067
  210MPD1    H6 3201   0.047   3.917  11.240 -1.9973  0.7999 -0.9988
  210MPD1    H7 3202   4.713   3.901  11.075  0.2175  1.9689  0.5568
  211MPD1     C 3203   1.702   1.996  15.655 -0.5350  0.1036  0.9623
  211MPD1    C1 3204   1.575   1.946  15.642  0.3591  0.0039  0.1267
  211MPD1    C2 3205   1.468   2.005  15.715 -0.2020 -0.2530 -0.7272
  211MPD1    C3 3206   1.488   2.115  15.798  0.1421 -0.0239  0.8720
  211MPD1    C4 3207   1.621   2.165  15.805  0.6871  0.5928  0.0940
  211MPD1    C5 3208   1.717   2.110  15.732  0.1848 -0.2977 -0.0792
  211MPD1     H 3209   1.375   1.950  15.724 -1.2204  1.4930 -0.6207
  211MPD1    H1 3210   1.658   2.247  15.865 -0.4132  0.7306  0.5961
  211MPD1    H2 3211   1.789   1.957  15.604  0.3763  3.0638  0.2861
  211MPD1    H3 3212   1.813   2.158  15.747 -0.3548  0.3557  1.3686
  211MPD1     N 3213   1.392   2.167  15.886  0.1000  0.2287  1.0295
  211MPD1    H5 3214   1.306   2.112  15.887  1.3403 -1.8194 -3.0015
  211MPD1    N1 3215   1.565   1.831  15.556  0.2898 -0.2674  0.0896
  211MPD1    H6 3216   1.482   1.836  15.498  1.5698  1.4958 -1.6078
  211MPD1    H7 3217   1.646   1.821  15.495  1.0409  1.6569  0.7387
  212MPD1     C 3218   0.884   0.829  16.116 -0.4451 -0.3391  0.0177
  212MPD1    C1 3219   0.847   0.908  16.223  0.5940 -0.1225 -0.0625
  212MPD1    C2 3220   0.811   0.841  16.341 -0.4541 -0.6467  0.2365
  212MPD1    C3 3221   0.800   0.703  16.340 -0.8794  0.1858 -0.5705
  212MPD1    C4 3222   0.836   0.622  16.233 -0.1588  0.3445 -0.2202
  212MPD1    C5 3223   0.881   0.692  16.123 -0.5199  0.6577  0.0309
  212MPD1     H 3224   0.794   0.888  16.437  0.7592 -1.1790  0.7167
  212MPD1    H1 3225   0.826   0.514  16.227 -1.3549  0.5963 -2.7850
  212MPD1    H2 3226   0.928   0.868  16.025  0.4314 -0.2355  0.4784
  212MPD1    H3 3227   0.918   0.638  16.036 -1.5808  1.3481 -0.8623
  212MPD1     N 3228   0.740   0.627  16.446  0.0872  0.2082  0.2063
  212MPD1    H5 3229   0.743   0.526  16.434 -0.5681  0.2557 -0.3621
  212MPD1    N1 3230   0.879   1.045  16.230 -0.1966  0.3443 -0.7517
  212MPD1    H6 3231   0.822   1.098  16.296 -1.7801 -1.4183 -0.7116
  212MPD1    H7 3232   0.868   1.086  16.137  1.5828  3.1028  0.2435
  213MPD1     C 3233   4.102   1.167  15.816 -0.3647 -0.0848  0.4299
  213MPD1    C1 3234   3.977   1.153  15.869 -0.0623  0.3278 -0.0740
  213MPD1    C2 3235   3.886   1.227  15.801  0.6298 -0.2664  0.6934
  213MPD1    C3 3236   3.928   1.333  15.723 -0.6865  0.0886  0.0934
  213MPD1    C4 3237   4.056   1.363  15.692  1.5139  0.8456  0.6867
  213MPD1    C5 3238   4.142   1.267  15.730 -0.4024  0.0261 -0.0231
  213MPD1     H 3239   3.782   1.210  15.825  0.6878  0.3401  1.3867
  213MPD1    H1 3240   4.088   1.449  15.636  0.5262  2.0756  1.9946
  213MPD1    H2 3241   4.182   1.095  15.827 -1.1616 -1.2193 -1.2411
  213MPD1    H3 3242   4.247   1.286  15.711 -0.0887 -0.6706  0.9804
  213MPD1     N 3243   3.821   1.408  15.676 -0.2148 -0.3409 -0.0271
  213MPD1    H5 3244   3.727   1.393  15.712 -0.0499  2.8409  1.6592
  213MPD1    N1 3245   3.941   1.033  15.923  0.1076  0.2019 -0.2281
  213MPD1    H6 3246   3.857   1.026  15.981 -0.3049  1.3343 -0.6792
  213MPD1    H7 3247   4.017   0.986  15.971 -1.2364 -0.7486  0.9797
  214MPD1     C 3248   3.138   1.015  15.394 -0.0812  0.5980  0.3250
  214MPD1    C1 3249   3.141   1.114  15.298 -0.0259 -0.0659  0.6578
  214MPD1    C2 3250   3.217   1.224  15.318  0.1159 -1.0026 -0.4479
  214MPD1    C3 3251   3.305   1.225  15.428  1.1846  0.1388 -0.3402
  214MPD1    C4 3252   3.295   1.126  15.525  0.4363  0.3407 -0.2098
  214MPD1    C5 3253   3.208   1.017  15.510  0.4592  0.3357 -0.2956
  214MPD1     H 3254   3.215   1.292  15.233 -1.7253  1.1801  1.3257
  214MPD1    H1 3255   3.353   1.136  15.615  0.6761  1.1883 -0.4570
  214MPD1    H2 3256   3.090   0.918  15.383  1.5992 -0.2216  0.2238
  214MPD1    H3 3257   3.187   0.936  15.578  1.2455 -0.0937 -0.5607
  214MPD1     N 3258   3.395   1.328  15.447  0.7954 -0.3903 -0.1304
  214MPD1    H5 3259   3.442   1.337  15.536  2.3306  1.8833 -1.1557
  214MPD1    N1 3260   3.072   1.079  15.180  0.9396 -0.2586  0.3368
  214MPD1    H6 3261   3.115   0.998  15.136  1.5255 -1.1682  2.6275
  214MPD1    H7 3262   3.065   1.154  15.111  0.3081 -1.2165 -0.6468
  215MPD1     C 3263   3.689   2.085  10.883 -0.1293 -0.0304 -0.1102
  215MPD1    C1 3264   3.804   2.088  10.967 -0.6473  0.8438 -0.2373
  215MPD1    C2 3265   3.856   2.208  11.001 -0.1453  0.0727 -0.3895
  215MPD1    C3 3266   3.796   2.325  10.960 -0.2288  0.0433  0.0231
  215MPD1    C4 3267   3.678   2.321  10.889  0.4412 -0.3779  0.5854
  215MPD1    C5 3268   3.622   2.204  10.858  0.1613 -0.1232  0.5245
  215MPD1     H 3269   3.949   2.217  11.056 -0.0240 -0.7781 -0.4517
  215MPD1    H1 3270   3.628   2.413  10.860 -0.6245 -1.0502  0.2803
  215MPD1    H2 3271   3.649   1.992  10.843 -1.1853 -0.1381  1.1660
  215MPD1    H3 3272   3.534   2.205  10.794  0.1441 -2.0858  0.5207
  215MPD1     N 3273   3.867   2.448  10.991 -0.2062 -0.0521 -0.1660
  215MPD1    H5 3274   3.956   2.439  11.040 -0.8038 -0.3858  0.8698
  215MPD1    N1 3275   3.862   1.967  11.005  0.4742  0.1554 -0.8474
  215MPD1    H6 3276   3.794   1.894  11.025 -0.5380  1.7122  1.3712
  215MPD1    H7 3277   3.925   1.983  11.084 -1.7889  1.1896  0.7446
  216MPD1     C 3278   0.626   0.317  17.153 -0.3796 -0.0053 -0.0416
  216MPD1    C1 3279   0.748   0.304  17.210  0.1339  0.1052  0.4287
  216MPD1    C2 3280   0.800   0.182  17.240 -0.0210 -0.2241  0.1482
  216MPD1    C3 3281   0.730   0.071  17.203 -0.6907 -0.6140  0.5692
  216MPD1    C4 3282   0.614   0.080  17.135 -0.2696 -0.3775 -0.0393
  216MPD1    C5 3283   0.564   0.206  17.111  0.8294 -1.0018 -0.3652
  216MPD1     H 3284   0.887   0.174  17.303 -0.8279  0.5877  1.3590
  216MPD1    H1 3285   0.547   4.721  17.116  0.8430 -1.2248 -0.2993
  216MPD1    H2 3286   0.580   0.414  17.138  0.2252  0.4134  0.8056
  216MPD1    H3 3287   0.468   0.208  17.061  0.3072 -1.2316  0.6387
  216MPD1     N 3288   0.785   4.668  17.242 -0.0607  0.7495  0.5279
  216MPD1    H5 3289   0.874   4.673  17.289  0.1074 -0.2593  0.3200
  216MPD1    N1 3290   0.800   0.414  17.265 -0.3484 -0.3177 -0.1581
  216MPD1    H6 3291   0.768   0.497  17.216 -3.6495 -0.4445  1.7601
  216MPD1    H7 3292   0.902   0.413  17.270 -0.2705 -2.4816 -2.3160
  217MPD1     C 3293   1.592   2.870   8.029 -0.2533  0.1632 -0.7716
  217MPD1    C1 3294   1.461   2.855   8.067 -0.7380  0.1406  0.7097
  217MPD1    C2 3295   1.432   2.804   8.190 -0.0553 -0.7985  0.0411
  217MPD1    C3 3296   1.539   2.770   8.269 -0.3420 -0.2525  0.2255
  217MPD1    C4 3297   1.667   2.795   8.237  0.0340  0.5154  0.4501
  217MPD1    C5 3298   1.699   2.849   8.118  0.6752 -0.5883 -0.1608
  217MPD1     H 3299   1.333   2.769   8.216 -0.4651  1.1008  1.0855
  217MPD1    H1 3300   1.754   2.781   8.301  1.1071  1.7931 -0.7424
  217MPD1    H2 3301   1.626   2.915   7.937  4.1238  1.4639  1.4488
  217MPD1    H3 3302   1.802   2.871   8.088  0.4338  0.9845  0.1330
  217MPD1     N 3303   1.518   2.713   8.403 -0.0791 -0.2728  0.3088
  217MPD1    H5 3304   1.599   2.697   8.463  1.5280  0.3577 -1.6838
  217MPD1    N1 3305   1.361   2.858   7.967 -0.6084  0.9642  0.2547
  217MPD1    H6 3306   1.355   2.930   7.896  2.8765  0.3719 -0.6245
  217MPD1    H7 3307   1.277   2.875   8.022 -0.1989  0.6149  0.9894
  218MPD1     C 3308   2.655   3.236  12.899  0.3570 -0.2683 -0.1503
  218MPD1    C1 3309   2.786   3.223  12.915 -0.7615 -0.7435  0.3799
  218MPD1    C2 3310   2.858   3.143  12.830  0.0766 -0.6241 -0.9325
  218MPD1    C3 3311   2.794   3.078  12.723 -0.1799 -0.6711  0.7748
  218MPD1    C4 3312   2.660   3.094  12.706  0.2482 -0.6057 -0.3137
  218MPD1    C5 3313   2.590   3.173  12.798 -0.2611 -0.2558  0.3401
  218MPD1     H 3314   2.964   3.137  12.849 -0.2560  1.6567  1.6661
  218MPD1    H1 3315   2.608   3.056  12.619 -0.0283 -0.1164 -0.3587
  218MPD1    H2 3316   2.593   3.303  12.957  0.6267  0.7177 -0.9962
  218MPD1    H3 3317   2.484   3.192  12.784 -0.2168 -1.3587 -1.4221
  218MPD1     N 3318   2.878   2.991  12.644  0.1157 -0.1276 -0.3892
  218MPD1    H5 3319   2.974   2.974  12.672 -0.3135  2.1085  2.4988
  218MPD1    N1 3320   2.854   3.302  13.005  0.4903  0.1883 -0.3962
  218MPD1    H6 3321   2.795   3.352  13.071  0.7463 -2.7191  2.0223
  218MPD1    H7 3322   2.918   3.244  13.059 -0.6405 -2.0449 -1.4674
  219MPD1     C 3323   3.365   3.162  11.868  0.1666  0.1010 -0.9398
  219MPD1    C1 3324   3.448   3.110  11.965  0.1927 -0.2090  0.1881
  219MPD1    C2 3325   3.393   3.053  12.080 -0.3505 -0.1410  0.0542
  219MPD1    C3 3326   3.256   3.056  12.093  0.4200  0.4824  0.0864
  219MPD1    C4 3327   3.179   3.106  11.992  0.1041  0.2017 -0.8313
  219MPD1    C5 3328   3.234   3.164  11.889 -0.5257 -0.2769 -0.2466
  219MPD1     H 3329   3.453   3.009  12.159  0.4838  0.3837 -0.2888
  219MPD1    H1 3330   3.070   3.103  11.998  0.4239 -3.7883  2.8842
  219MPD1    H2 3331   3.399   3.219  11.782  1.1720  1.7944  0.5956
  219MPD1    H3 3332   3.166   3.210  11.818  0.1971 -1.9037 -1.9800
  219MPD1     N 3333   3.191   2.977  12.194 -0.1313  0.6229 -0.6445
  219MPD1    H5 3334   3.091   2.962  12.182 -0.4219  0.7129  1.7771
  219MPD1    N1 3335   3.586   3.121  11.945  0.3267  0.1519  0.1385
  219MPD1    H6 3336   3.615   3.155  11.854  1.4539  0.9413  0.7912
  219MPD1    H7 3337   3.642   3.039  11.969 -0.5697 -0.6902 -0.6606
  220MPD1     C 3338   2.942   3.554   9.770  0.1336  0.2431 -0.6255
  220MPD1    C1 3339   2.903   3.420   9.778 -0.0826  0.1127  0.7682
  220MPD1    C2 3340   2.987   3.338   9.852 -0.2979 -0.0755  0.4017
  220MPD1    C3 3341   3.093   3.375   9.925  0.4149  0.4580  0.0636
  220MPD1    C4 3342   3.134   3.506   9.920 -0.0140  0.2098  0.9076
  220MPD1    C5 3343   3.049   3.592   9.845 -0.4031  0.2983 -0.2370
  220MPD1     H 3344   2.961   3.234   9.867  0.7088  0.0524  3.1154
  220MPD1    H1 3345   3.207   3.558   9.981  1.1483  1.2744 -1.3886
  220MPD1    H2 3346   2.882   3.628   9.718  0.1109 -0.7207 -1.9734
  220MPD1    H3 3347   3.077   3.697   9.850 -0.7923  0.2595  2.6790
  220MPD1     N 3348   3.165   3.280  10.007 -0.6692 -0.3950  0.2138
  220MPD1    H5 3349   3.137   3.183  10.013 -0.0035 -0.5188  1.4749
  220MPD1    N1 3350   2.798   3.371   9.705 -0.3552  0.3983 -0.5744
  220MPD1    H6 3351   2.747   3.306   9.764 -0.3626 -2.8821 -4.2145
  220MPD1    H7 3352   2.728   3.441   9.681 -3.8574 -2.6930  0.5869
  221MPD1     C 3353   0.968   1.798  16.086  0.8472  0.3290 -0.3122
  221MPD1    C1 3354   1.091   1.773  16.127  0.6523  0.3403  0.4119
  221MPD1    C2 3355   1.174   1.682  16.061  0.0670 -1.1054  0.2107
  221MPD1    C3 3356   1.123   1.591  15.969 -0.2396 -0.2176  0.2703
  221MPD1    C4 3357   0.986   1.608  15.942  0.5985 -0.0066 -0.3571
  221MPD1    C5 3358   0.917   1.717  15.984  0.4065 -0.9210 -0.5654
  221MPD1     H 3359   1.278   1.682  16.093  0.1009  1.2574  0.1350
  221MPD1    H1 3360   0.941   1.556  15.858  2.6026 -1.0239 -0.7927
  221MPD1    H2 3361   0.911   1.881  16.125  1.0306  0.4677 -0.3421
  221MPD1    H3 3362   0.816   1.743  15.954  0.8262  2.1085  0.6013
  221MPD1     N 3363   1.192   1.491  15.900  0.6125 -0.0105  0.1744
  221MPD1    H5 3364   1.136   1.439  15.833  0.1282  0.1787  0.4261
  221MPD1    N1 3365   1.146   1.845  16.231  0.1354 -0.1213  0.0973
  221MPD1    H6 3366   1.217   1.792  16.280 -0.2586 -0.8366 -0.1136
  221MPD1    H7 3367   1.081   1.887  16.298  1.9850  1.7609  0.7140
  222MPD1     C 3368   0.949   0.462  16.721 -0.0434  1.2341 -0.0773
  222MPD1    C1 3369   0.872   0.430  16.830 -0.0667 -0.1523  0.0545
  222MPD1    C2 3370   0.819   0.527  16.914 -0.4726 -0.2699 -0.1026
  222MPD1    C3 3371   0.844   0.659  16.887  0.1413  0.4202 -0.1348
  222MPD1    C4 3372   0.915   0.691  16.775  0.3181  0.1729  0.5340
  222MPD1    C5 3373   0.963   0.595  16.695 -0.0983  0.4750 -0.4804
  222MPD1     H 3374   0.758   0.498  16.999  1.1935 -2.9931  0.1455
  222MPD1    H1 3375   0.937   0.791  16.741  0.3720 -0.2792 -0.7282
  222MPD1    H2 3376   1.004   0.398  16.653 -1.4389 -0.0281 -0.0175
  222MPD1    H3 3377   1.021   0.622  16.608  0.6363  1.4635  0.3238
  222MPD1     N 3378   0.796   0.765  16.967 -0.2219 -0.2023  0.3843
  222MPD1    H5 3379   0.793   0.856  16.922 -1.7193  0.4602  1.8433
  222MPD1    N1 3380   0.853   0.298  16.871 -0.6777  0.0766  0.2314
  222MPD1    H6 3381   0.775   0.288  16.935 -1.6590  2.5005 -0.5849
  222MPD1    H7 3382   0.846   0.233  16.794  1.9022  0.3301 -0.2280
  223MPD1     C 3383   0.302   1.052   0.097  0.1291  0.4610  0.0879
  223MPD1    C1 3384   0.411   0.973   0.084 -0.2656 -0.5680 -0.5414
  223MPD1    C2 3385   0.467   0.960  17.656  0.1625  0.7505  0.0921
  223MPD1    C3 3386   0.420   1.024  17.548  0.4535  0.0203 -1.1218
  223MPD1    C4 3387   0.312   1.105  17.562 -0.1053 -0.1351  0.1476
  223MPD1    C5 3388   0.256   1.115  17.687 -0.0106 -0.0346  0.1941
  223MPD1     H 3389   0.549   0.890  17.644 -1.0736 -0.6183 -0.3634
  223MPD1    H1 3390   0.274   1.164  17.479 -1.8171  0.3917  1.3026
  223MPD1    H2 3391   0.258   1.064   0.195 -0.7635  0.5947 -0.3255
  223MPD1    H3 3392   0.170   1.181  17.694  1.0973  1.2881  1.6112
  223MPD1     N 3393   0.478   0.992  17.415  0.2382  0.4974  0.3023
  223MPD1    H5 3394   0.539   0.912  17.410 -0.3919  0.0349 -0.0536
  223MPD1    N1 3395   0.478   0.921   0.196 -0.6893 -0.4699  0.7397
  223MPD1    H6 3396   0.539   0.843   0.173 -0.1467 -0.1751  1.1803
  223MPD1    H7 3397   0.415   0.886   0.267  1.0358  0.1338  2.5617
  224MPD1     C 3398   1.500   2.931   8.870  0.0821 -0.1929  0.8076
  224MPD1    C1 3399   1.403   2.960   8.969  0.6406 -0.0713 -0.4368
  224MPD1    C2 3400   1.402   2.888   9.085 -0.8748 -0.6558  0.3411
  224MPD1    C3 3401   1.510   2.808   9.121  0.6828 -0.0130 -0.1622
  224MPD1    C4 3402   1.609   2.782   9.028  0.1848 -0.3842 -0.0275
  224MPD1    C5 3403   1.604   2.845   8.901 -0.2090 -0.1502 -0.2675
  224MPD1     H 3404   1.316   2.886   9.151 -2.8372  0.9840 -2.2048
  224MPD1    H1 3405   1.684   2.707   9.048  1.5334  0.7539 -0.8960
  224MPD1    H2 3406   1.492   2.969   8.769  4.0232 -3.0186 -0.5654
  224MPD1    H3 3407   1.676   2.821   8.824  0.4749 -1.8360  0.8886
  224MPD1     N 3408   1.523   2.733   9.239 -0.0117  0.2438  0.4516
  224MPD1    H5 3409   1.608   2.679   9.249  1.3431  2.0283 -1.4762
  224MPD1    N1 3410   1.286   3.017   8.931 -0.0371  0.1886  0.0922
  224MPD1    H6 3411   1.231   3.038   9.014  0.7262  0.2215  0.5955
  224MPD1    H7 3412   1.318   3.104   8.889  0.0287 -0.2884 -0.8397
  225MPD1     C 3413   3.101   4.171  12.653  0.4048 -0.2503 -0.0941
  225MPD1    C1 3414   3.008   4.067  12.668 -0.2188 -0.3854  0.8609
  225MPD1    C2 3415   2.959   4.008  12.551  0.5272 -0.2208  0.0163
  225MPD1    C3 3416   3.017   4.035  12.424 -0.2878 -0.2156  0.0273
  225MPD1    C4 3417   3.114   4.137  12.416 -0.0309  0.1410 -0.5355
  225MPD1    C5 3418   3.149   4.206  12.530  0.4309  0.1903  0.4649
  225MPD1     H 3419   2.881   3.932  12.550 -0.4805  0.8495 -4.0722
  225MPD1    H1 3420   3.144   4.173  12.318  0.9292  1.7790  0.3705
  225MPD1    H2 3421   3.156   4.219  12.733 -0.1945 -1.6627  1.1703
  225MPD1    H3 3422   3.224   4.284  12.520 -0.4689  0.9122 -0.7114
  225MPD1     N 3423   2.984   3.980  12.300  0.2958  0.4617  0.5721
  225MPD1    H5 3424   3.018   4.022  12.214 -1.0566 -0.7987 -0.5830
  225MPD1    N1 3425   2.991   4.010  12.798  0.0789 -0.2248  0.4546
  225MPD1    H6 3426   2.999   4.080  12.871  2.3217 -1.8305  1.7332
  225MPD1    H7 3427   2.903   3.959  12.809  0.6331 -0.9504  1.4750
  226MPD1     C 3428   4.600   3.705   9.335 -0.4282 -0.1007  0.0741
  226MPD1    C1 3429   4.640   3.578   9.367  0.1941 -0.5636  0.8202
  226MPD1    C2 3430   0.044   3.552   9.409 -0.2183  0.0571 -0.2144
  226MPD1    C3 3431   0.142   3.650   9.414 -0.1410  0.1129  0.7698
  226MPD1    C4 3432   0.105   3.775   9.363 -0.0824  0.4635 -0.7197
  226MPD1    C5 3433   4.699   3.804   9.332  0.3927  0.2019 -0.5100
  226MPD1     H 3434   0.065   3.452   9.443 -0.7468 -0.2423 -0.7787
  226MPD1    H1 3435   0.169   3.863   9.358 -1.5811  1.6606  1.1062
  226MPD1    H2 3436   4.501   3.736   9.304 -0.1689  0.2501 -0.4067
  226MPD1    H3 3437   4.675   3.908   9.314 -0.1788  0.4901  1.9703
  226MPD1     N 3438   0.270   3.613   9.459 -0.3894  0.5276 -0.0704
  226MPD1    H5 3439   0.283   3.515   9.483  0.4472  0.6233 -0.1156
  226MPD1    N1 3440   4.561   3.474   9.316 -0.1601  0.1288 -0.2677
  226MPD1    H6 3441   4.594   3.398   9.375  1.5812 -0.3809 -1.9056
  226MPD1    H7 3442   4.463   3.493   9.334  0.4919  1.5010  1.9006
  227MPD1     C 3443   0.636   2.837   9.820 -0.1343 -0.3328  0.0548
  227MPD1    C1 3444   0.753   2.896   9.798 -0.1977  0.3090  0.1174
  227MPD1    C2 3445   0.766   3.035   9.769 -0.6218  0.2117  0.8890
  227MPD1    C3 3446   0.653   3.114   9.749 -0.0227  0.2544 -0.1633
  227MPD1    C4 3447   0.529   3.051   9.762 -0.3323  0.2536  0.5471
  227MPD1    C5 3448   0.523   2.913   9.799 -0.2606 -0.0132 -0.7185
  227MPD1     H 3449   0.863   3.081   9.755  0.0738 -0.7274  2.5735
  227MPD1    H1 3450   0.441   3.113   9.771  0.2913  1.3162 -0.6852
  227MPD1    H2 3451   0.623   2.732   9.843  1.7177  0.0143  2.7139
  227MPD1    H3 3452   0.423   2.873   9.807  0.1458 -1.1400 -1.2943
  227MPD1     N 3453   0.667   3.248   9.710 -0.2965  0.1663 -0.3274
  227MPD1    H5 3454   0.750   3.279   9.660  1.4804 -2.3015  1.1290
  227MPD1    N1 3455   0.867   2.814   9.787 -0.9328  0.2316  0.0456
  227MPD1    H6 3456   0.948   2.871   9.762 -1.1941  0.7432  0.3588
  227MPD1    H7 3457   0.849   2.753   9.708 -1.2774  0.4367 -0.0340
  228MPD1     C 3458   0.021   1.324  12.934  0.5645 -0.2473  0.2839
  228MPD1    C1 3459   4.637   1.412  12.935 -0.1522 -0.5488 -0.3393
  228MPD1    C2 3460   4.509   1.360  12.908  0.5605 -0.3374  0.3299
  228MPD1    C3 3461   4.490   1.221  12.915  0.8001  0.0427 -0.3772
  228MPD1    C4 3462   4.596   1.135  12.943  0.6027  0.0050 -0.0903
  228MPD1    C5 3463   0.002   1.188  12.951  0.1859  0.0023 -0.7670
  228MPD1     H 3464   4.421   1.423  12.895  0.6159 -0.5691 -1.1160
  228MPD1    H1 3465   4.574   1.029  12.953 -0.0128  0.0717 -0.7715
  228MPD1    H2 3466   0.119   1.371  12.935 -1.5385  4.0874  0.4550
  228MPD1    H3 3467   0.091   1.127  12.957  0.2151  0.4329  3.0812
  228MPD1     N 3468   4.358   1.166  12.899 -0.0599 -0.1549 -0.9887
  228MPD1    H5 3469   4.286   1.229  12.865 -0.8991 -0.0665  0.9420
  228MPD1    N1 3470   4.655   1.548  12.919 -0.5669 -0.4179 -0.8129
  228MPD1    H6 3471   4.564   1.590  12.940 -0.9433 -0.6623 -1.9457
  228MPD1    H7 3472   4.721   1.558  12.995  0.2338 -3.8816 -1.0399
  229MPD1     C 3473   4.097   4.596  14.784 -0.1564 -0.3755  0.2034
  229MPD1    C1 3474   4.047   4.521  14.889 -0.1831 -0.5568  0.7255
  229MPD1    C2 3475   4.129   4.423  14.943  0.2420  0.0530  0.3671
  229MPD1    C3 3476   4.252   4.383  14.889  0.4453  0.6000  0.8822
  229MPD1    C4 3477   4.284   4.445  14.769 -0.8829 -0.1855 -0.0817
  229MPD1    C5 3478   4.209   4.552  14.722 -0.0513 -0.3429 -0.1364
  229MPD1     H 3479   4.096   4.382  15.037 -0.9266  1.0715  0.3968
  229MPD1    H1 3480   4.364   4.403  14.709 -0.0422  2.0559 -0.5384
  229MPD1    H2 3481   4.044   4.677  14.734  0.1825  0.0019  0.4517
  229MPD1    H3 3482   4.243   4.609  14.636 -0.1898  0.0025  0.0390
  229MPD1     N 3483   4.351   4.302  14.949  0.3316 -0.4651 -0.0636
  229MPD1    H5 3484   4.428   4.274  14.889 -2.0153  0.6200 -3.5787
  229MPD1    N1 3485   3.926   4.566  14.943 -0.2242 -0.9634  0.3766
  229MPD1    H6 3486   3.864   4.596  14.869  1.4896  0.2955 -0.5617
  229MPD1    H7 3487   3.880   4.490  14.992 -1.0083 -0.6005  0.1918
  230MPD1     C 3488   0.265   3.953  15.763  0.5363 -1.1682  0.1391
  230MPD1    C1 3489   0.325   3.970  15.641 -0.4173  0.4753 -0.1719
  230MPD1    C2 3490   0.244   4.000  15.537 -0.0771 -0.1838 -0.6693
  230MPD1    C3 3491   0.112   4.021  15.554  0.3256  0.8269 -0.3811
  230MPD1    C4 3492   0.050   4.007  15.675  0.0149  0.0762  0.4538
  230MPD1    C5 3493   0.128   3.968  15.783  0.5729  0.0763 -0.4357
  230MPD1     H 3494   0.279   4.008  15.435  0.4437 -0.5636 -0.5185
  230MPD1    H1 3495   4.668   4.017  15.692  0.4768  2.3252  1.9497
  230MPD1    H2 3496   0.317   3.911  15.849  2.7354  4.2075  1.4082
  230MPD1    H3 3497   0.071   3.947  15.873  4.6599  0.3629  2.2187
  230MPD1     N 3498   0.043   4.071  15.439 -0.1241  0.5646  0.1249
  230MPD1    H5 3499   0.099   4.086  15.355 -0.0683 -0.2935  0.0005
  230MPD1    N1 3500   0.455   3.926  15.619 -0.3117  0.7021 -0.0313
  230MPD1    H6 3501   0.492   3.978  15.539  2.7168  3.3963  3.0918
  230MPD1    H7 3502   0.519   3.929  15.698 -1.6802  1.6838  1.0318
  231MPD1     C 3503   2.260   1.129  15.641  0.5735  0.2346  0.0418
  231MPD1    C1 3504   2.313   1.068  15.532  0.4530  0.0150  0.5060
  231MPD1    C2 3505   2.425   1.124  15.469  0.3639  0.2757 -0.4967
  231MPD1    C3 3506   2.486   1.238  15.524  0.2701  0.6757 -0.2767
  231MPD1    C4 3507   2.429   1.300  15.639  0.3575 -0.1758  0.0467
  231MPD1    C5 3508   2.315   1.242  15.695 -0.7570  0.1398  0.2183
  231MPD1     H 3509   2.463   1.072  15.382 -0.2114 -1.0769  0.0489
  231MPD1    H1 3510   2.474   1.390  15.678 -0.2413  0.5674 -0.9783
  231MPD1    H2 3511   2.173   1.086  15.688  0.5409 -1.8308 -1.9149
  231MPD1    H3 3512   2.263   1.302  15.770 -1.4772  0.4696 -0.5465
  231MPD1     N 3513   2.603   1.286  15.457 -0.1856  0.6474  0.0087
  231MPD1    H5 3514   2.647   1.231  15.384 -0.5942 -0.7606  0.8184
  231MPD1    N1 3515   2.236   0.971  15.473 -0.0556 -0.4708 -0.8224
  231MPD1    H6 3516   2.292   0.906  15.418  1.3035 -1.1792  1.4187
  231MPD1    H7 3517   2.185   0.919  15.544  1.3640 -2.3834 -1.1929
  232MPD1     C 3518   1.353   3.985   0.333 -0.4075 -0.1029 -0.1992
  232MPD1    C1 3519   1.269   3.915   0.417  0.0088 -0.0701 -0.3435
  232MPD1    C2 3520   1.152   3.978   0.474  0.8247  0.0838 -0.2419
  232MPD1    C3 3521   1.124   4.108   0.445 -0.4119  0.5655  0.1973
  232MPD1    C4 3522   1.217   4.174   0.370  0.7415  0.0467 -0.2791
  232MPD1    C5 3523   1.328   4.119   0.313  0.0893  0.2932  0.0438
  232MPD1     H 3524   1.074   3.921   0.525  0.7910  1.4491  1.2104
  232MPD1    H1 3525   1.211   4.277   0.340 -0.2477  0.0309 -0.1252
  232MPD1    H2 3526   1.441   3.939   0.291  1.1505  1.8293  0.9815
  232MPD1    H3 3527   1.385   4.193   0.258  0.6820  0.8071  1.3539
  232MPD1     N 3528   0.999   4.168   0.477  0.1590 -0.2324  0.0306
  232MPD1    H5 3529   0.952   4.123   0.554 -1.0986  2.3576  0.7885
  232MPD1    N1 3530   1.282   3.777   0.433 -0.3578  0.3447  0.3690
  232MPD1    H6 3531   1.252   3.754   0.527 -0.7692 -2.0036 -0.3375
  232MPD1    H7 3532   1.379   3.746   0.429 -0.8898 -1.2840  0.4896
  233MPD1     C 3533   1.017   1.433   2.025  0.4974 -0.9162  0.5527
  233MPD1    C1 3534   1.050   1.520   1.924  0.4857  0.4444 -0.2736
  233MPD1    C2 3535   1.182   1.550   1.914  0.0824  0.4324  0.1023
  233MPD1    C3 3536   1.277   1.491   1.992 -0.4191  0.8570 -0.4886
  233MPD1    C4 3537   1.236   1.405   2.091  0.2765  0.6634  0.1395
  233MPD1    C5 3538   1.106   1.379   2.111  0.8179 -0.2587  0.1030
  233MPD1     H 3539   1.215   1.624   1.842 -1.6223  2.6038  1.5284
  233MPD1    H1 3540   1.315   1.362   2.152 -0.4179 -3.9409 -2.2292
  233MPD1    H2 3541   0.913   1.404   2.036  0.1207  0.4266  0.5202
  233MPD1    H3 3542   1.066   1.312   2.186  1.8619 -0.7795  0.1854
  233MPD1     N 3543   1.421   1.504   1.976  0.3218  0.1662  0.1202
  233MPD1    H5 3544   1.489   1.459   2.036  0.7052  0.5469 -0.0228
  233MPD1    N1 3545   0.954   1.593   1.852  0.7478 -1.3883 -0.2375
  233MPD1    H6 3546   0.873   1.534   1.835 -1.2842  1.6896 -1.3404
  233MPD1    H7 3547   0.986   1.644   1.770 -0.4740 -0.7724 -0.3366
  234MPD1     C 3548   1.999   1.084   9.121  0.7507 -0.5333 -0.3170
  234MPD1    C1 3549   2.065   1.132   9.234 -0.3249  0.0043 -0.0732
  234MPD1    C2 3550   2.120   1.260   9.233 -0.1337  0.2132 -0.1416
  234MPD1    C3 3551   2.088   1.347   9.126 -0.0693  0.1539  0.5513
  234MPD1    C4 3552   2.020   1.297   9.009 -0.0788 -0.2151 -0.4369
  234MPD1    C5 3553   1.982   1.163   9.009 -0.0085 -0.0999  0.1122
  234MPD1     H 3554   2.173   1.294   9.321 -0.8536  0.8062  0.0610
  234MPD1    H1 3555   1.985   1.356   8.926  0.4823 -1.9523 -1.9203
  234MPD1    H2 3556   1.981   0.978   9.117  0.8256 -0.6067  1.2028
  234MPD1    H3 3557   1.952   1.119   8.915  0.1633 -0.0376  0.0273
  234MPD1     N 3558   2.102   1.485   9.142 -0.2668  0.1212 -0.0678
  234MPD1    H5 3559   2.140   1.517   9.230  2.5238 -0.6049 -1.0069
  234MPD1    N1 3560   2.106   1.046   9.338 -0.0601 -0.3401  0.1069
  234MPD1    H6 3561   2.127   1.085   9.429 -0.8259 -0.2257  0.2395
  234MPD1    H7 3562   2.025   0.985   9.346 -1.3217  1.2953 -0.1001
  235MPD1     C 3563   4.638   0.349  11.552  0.3838  0.1421  0.4975
  235MPD1    C1 3564   4.633   0.457  11.472  0.3938  0.2108  0.0243
  235MPD1    C2 3565   4.606   0.440  11.334  0.6560 -0.1104 -0.9189
  235MPD1    C3 3566   4.572   0.316  11.286  0.6500  0.3091  0.1845
  235MPD1    C4 3567   4.575   0.205  11.373  0.3288 -0.1698  0.0909
  235MPD1    C5 3568   4.617   0.224  11.501  0.0681  0.0461  0.6165
  235MPD1     H 3569   4.604   0.527  11.270 -4.6894  1.3366  1.2362
  235MPD1    H1 3570   4.553   0.105  11.337 -3.5221  0.7939 -0.2245
  235MPD1    H2 3571   4.671   0.358  11.655  0.4517 -2.3794  0.6956
  235MPD1    H3 3572   4.626   0.144  11.574  1.1116 -0.6608 -0.2950
  235MPD1     N 3573   4.543   0.298  11.147  0.5285  0.1935  0.4731
  235MPD1    H5 3574   4.547   0.379  11.086 -0.3236 -0.4760 -0.4724
  235MPD1    N1 3575   4.661   0.584  11.523  0.0727  0.1889 -0.5860
  235MPD1    H6 3576   4.624   0.583  11.618  0.9362  2.0779 -0.2222
  235MPD1    H7 3577   4.632   0.662  11.464  1.2496  1.3373  0.3647
  236MPD1     C 3578   3.628   0.990  10.026 -0.0134  0.6477  0.9404
  236MPD1    C1 3579   3.497   0.953  10.024 -0.2484 -0.4651 -0.0951
  236MPD1    C2 3580   3.459   0.861  10.115 -0.5184  0.2517  0.5644
  236MPD1    C3 3581   3.549   0.825  10.216  0.5189  0.7346 -0.4460
  236MPD1    C4 3582   3.679   0.851  10.206  0.0721 -0.5394 -0.3070
  236MPD1    C5 3583   3.717   0.935  10.106  0.1794 -0.1962 -0.2004
  236MPD1     H 3584   3.358   0.823  10.115 -0.0995 -0.8692  0.3984
  236MPD1    H1 3585   3.749   0.811  10.278 -3.1220 -0.4097  2.8787
  236MPD1    H2 3586   3.669   1.049   9.944 -2.7879  2.4522  0.8558
  236MPD1    H3 3587   3.820   0.967  10.096  0.4814 -1.6776 -1.8011
  236MPD1     N 3588   3.502   0.741  10.318 -0.0440 -0.0789 -0.6124
  236MPD1    H5 3589   3.572   0.699  10.378 -0.2842  1.4028  0.7122
  236MPD1    N1 3590   3.425   0.966   9.913  0.3382 -1.1960 -0.5996
  236MPD1    H6 3591   3.325   0.956   9.929  0.6572 -4.6836 -0.9268
  236MPD1    H7 3592   3.437   1.061   9.878  0.7762  0.0820  2.9609
  237MPD1     C 3593   2.983   3.434  15.667  0.4778 -0.5278  0.0823
  237MPD1    C1 3594   2.919   3.375  15.769 -0.7731 -0.1619  0.1799
  237MPD1    C2 3595   2.827   3.278  15.728 -0.0418 -0.3921 -0.6179
  237MPD1    C3 3596   2.815   3.233  15.597  0.5646  0.2795  0.1768
  237MPD1    C4 3597   2.879   3.297  15.505  0.1560 -0.3540  0.1152
  237MPD1    C5 3598   2.964   3.397  15.537  0.1458  0.4892  0.1299
  237MPD1     H 3599   2.767   3.229  15.804  0.1365 -1.5163 -1.2202
  237MPD1    H1 3600   2.867   3.275  15.400 -0.0388  0.1019  0.0381
  237MPD1    H2 3601   3.057   3.513  15.679  0.6559 -0.7185  0.2298
  237MPD1    H3 3602   3.002   3.456  15.455  0.7962  1.8336  1.4127
  237MPD1     N 3603   2.740   3.118  15.556 -0.1500  0.7717  0.1291
  237MPD1    H5 3604   2.740   3.105  15.455  1.4508  4.6689 -0.3785
  237MPD1    N1 3605   2.930   3.421  15.898  0.5775  0.5889  0.7468
  237MPD1    H6 3606   3.023   3.455  15.924  1.7915 -2.0785 -0.1239
  237MPD1    H7 3607   2.888   3.361  15.969 -3.5828  0.9715 -1.3956
  238MPD1     C 3608   4.608   1.986  14.592 -1.2518  0.5071  0.2153
  238MPD1    C1 3609   4.516   2.003  14.498  0.4707  0.3271 -0.2374
  238MPD1    C2 3610   4.434   1.896  14.460  0.3372 -0.5364  0.4546
  238MPD1    C3 3611   4.439   1.774  14.524  0.4942 -0.1126  0.3327
  238MPD1    C4 3612   4.521   1.762  14.635  0.7098  0.7032  0.4634
  238MPD1    C5 3613   4.602   1.870  14.660 -0.4667  0.3971  0.0163
  238MPD1     H 3614   4.355   1.903  14.387  0.9425  0.3575 -0.1145
  238MPD1    H1 3615   4.529   1.673  14.696  0.1424  0.0959 -0.3508
  238MPD1    H2 3616   4.675   2.062  14.630  0.9071 -1.9196  1.2475
  238MPD1    H3 3617   4.674   1.861  14.741 -1.4957 -0.8730  0.7870
  238MPD1     N 3618   4.361   1.658  14.502 -0.7081  0.0942 -0.4730
  238MPD1    H5 3619   4.374   1.576  14.560 -0.7947  0.3299 -0.1205
  238MPD1    N1 3620   4.514   2.114  14.416 -0.1089  0.9770 -0.0845
  238MPD1    H6 3621   4.422   2.122  14.374 -0.3528  0.2690  0.3165
  238MPD1    H7 3622   4.537   2.207  14.450  2.8195 -0.3054  1.4691
  239MPD1     C 3623   4.660   2.733  15.109 -0.0007 -0.2557  0.2597
  239MPD1    C1 3624   4.681   2.853  15.037 -0.0322 -0.1211  0.1773
  239MPD1    C2 3625   4.682   2.847  14.902  0.7298 -0.0193  0.5531
  239MPD1    C3 3626   4.663   2.720  14.838 -0.8598  0.5421 -0.1347
  239MPD1    C4 3627   4.648   2.606  14.914  0.1573  0.1504  0.5764
  239MPD1    C5 3628   4.649   2.608  15.047 -0.2130 -0.2594  0.0765
  239MPD1     H 3629   4.688   2.937  14.842  3.1062 -0.8985 -0.5415
  239MPD1    H1 3630   4.629   2.509  14.870 -0.0959  1.4365 -2.1535
  239MPD1    H2 3631   4.661   2.734  15.217  0.5296 -0.7951  0.2590
  239MPD1    H3 3632   4.634   2.523  15.112 -0.9894 -0.5405 -0.4729
  239MPD1     N 3633   4.658   2.694  14.694  0.0085 -0.1544  0.4761
  239MPD1    H5 3634   4.620   2.604  14.665 -1.6436  0.8767 -0.6087
  239MPD1    N1 3635   4.705   2.976  15.099  0.2076  0.1416 -0.0268
  239MPD1    H6 3636   4.690   3.000  15.197 -0.5934 -0.7100  0.0530
  239MPD1    H7 3637   4.713   3.059  15.041 -1.7501 -0.9974 -1.9228
  240MPD1     C 3638   4.271   2.224  14.718  0.4127 -0.0130  0.3299
  240MPD1    C1 3639   4.140   2.201  14.756 -0.1640  0.2423 -0.4532
  240MPD1    C2 3640   4.111   2.111  14.853  0.1399 -0.6923 -0.6663
  240MPD1    C3 3641   4.217   2.039  14.904  0.4838 -0.8048 -0.5608
  240MPD1    C4 3642   4.349   2.060  14.867  0.5437 -0.2559  0.1887
  240MPD1    C5 3643   4.367   2.146  14.766 -0.4761  1.0283 -0.4331
  240MPD1     H 3644   4.008   2.093  14.883  0.0114 -1.6525 -1.6665
  240MPD1    H1 3645   4.434   2.004  14.904 -0.2798 -1.6658 -0.0543
  240MPD1    H2 3646   4.292   2.313  14.660 -0.0715  0.7979  1.4061
  240MPD1    H3 3647   4.469   2.181  14.758 -0.3986  0.9217  0.1031
  240MPD1     N 3648   4.184   1.933  14.992 -0.0177  0.2871 -0.0018
  240MPD1    H5 3649   4.087   1.904  15.005 -0.8128  2.5588 -0.8924
  240MPD1    N1 3650   4.045   2.291  14.698 -0.4028 -0.7704 -0.1166
  240MPD1    H6 3651   4.061   2.302  14.598  1.5331 -1.2626  0.1409
  240MPD1    H7 3652   3.952   2.252  14.710  0.2028 -2.1775  0.0600
  241MPD1     C 3653   4.411   1.043  15.597 -0.7770  0.3285  0.4675
  241MPD1    C1 3654   4.506   1.138  15.559 -1.0895  0.0793 -0.2574
  241MPD1    C2 3655   4.454   1.240  15.480 -0.2557  0.7636 -0.2409
  241MPD1    C3 3656   4.323   1.225  15.430 -0.2086 -0.3610  0.1767
  241MPD1    C4 3657   4.242   1.117  15.457 -0.1273 -0.0330 -1.2157
  241MPD1    C5 3658   4.287   1.029  15.541  0.6597  0.1922 -0.5720
  241MPD1     H 3659   4.508   1.328  15.447 -0.3171  0.1811 -1.8890
  241MPD1    H1 3660   4.140   1.111  15.421  0.1665  1.1679 -2.2773
  241MPD1    H2 3661   4.439   0.966  15.669 -2.0664 -1.3242 -0.8163
  241MPD1    H3 3662   4.229   0.940  15.563  2.1726 -0.4969  0.6188
  241MPD1     N 3663   4.261   1.325  15.347  0.1297 -0.2919  0.4296
  241MPD1    H5 3664   4.171   1.293  15.310  1.0636 -2.9150  0.3830
  241MPD1    N1 3665   4.634   1.152  15.621 -0.2424 -0.3643  0.1442
  241MPD1    H6 3666   4.679   1.061  15.624 -2.9972 -1.8034 -1.7543
  241MPD1    H7 3667   4.692   1.208  15.559  0.7472  1.3840  2.6800
  242MPD1     C 3668   3.679   4.492  15.587 -0.6521 -0.8527  0.5191
  242MPD1    C1 3669   3.610   4.607  15.569  0.2186 -0.1106 -0.4667
  242MPD1    C2 3670   3.608   4.670  15.448 -0.1442  0.0435 -0.1879
  242MPD1    C3 3671   3.709   4.636  15.358 -0.0461 -0.5264 -0.1836
  242MPD1    C4 3672   3.777   4.524  15.380 -0.4370 -0.5807 -0.4700
  242MPD1    C5 3673   3.771   4.455  15.494  0.8625 -0.2844 -0.9308
  242MPD1     H 3674   3.538   0.029  15.444  0.8806  1.0298  2.5173
  242MPD1    H1 3675   3.860   4.493  15.317  0.9387  0.5892  0.7436
  242MPD1    H2 3676   3.679   4.429  15.675 -0.6286 -3.7316 -1.5417
  242MPD1    H3 3677   3.835   4.368  15.505 -0.3093 -1.1315 -0.7830
  242MPD1     N 3678   3.728   4.699  15.241 -0.5832 -0.5257 -0.1298
  242MPD1    H5 3679   3.813   4.673  15.193  1.4372  2.6089  1.7090
  242MPD1    N1 3680   3.531   4.652  15.676 -0.2151  0.3580  0.5022
  242MPD1    H6 3681   3.525   4.586  15.753  0.5251  1.7104  1.7176
  242MPD1    H7 3682   3.442   4.696  15.653  0.4032  0.1988 -2.2277
  243MPD1     C 3683   0.213   3.578   0.029  0.0649  0.1580  0.0960
  243MPD1    C1 3684   0.257   3.456   0.065 -0.1906 -0.3196 -0.9672
  243MPD1    C2 3685   0.368   3.401  17.692 -0.4273 -0.5164 -0.3025
  243MPD1    C3 3686   0.397   3.451  17.566 -0.0027 -0.4385 -0.0541
  243MPD1    C4 3687   0.332   3.564  17.522  0.1911 -0.0363  0.6746
  243MPD1    C5 3688   0.255   3.629  17.612 -0.7185  0.2611 -0.2851
  243MPD1     H 3689   0.429   3.319   0.028 -2.8318 -1.8285  0.8054
  243MPD1    H1 3690   0.342   3.604  17.422  0.5002 -0.6743  0.4512
  243MPD1    H2 3691   0.149   3.633   0.097 -1.7950 -1.5774 -0.2458
  243MPD1    H3 3692   0.213   3.724  17.579 -1.3900 -0.7955 -2.4738
  243MPD1     N 3693   0.502   3.377  17.504 -0.0766 -0.3604 -0.0989
  243MPD1    H5 3694   0.544   3.295  17.548  1.5398  0.6790  0.2800
  243MPD1    N1 3695   0.221   3.403   0.190  0.2118  0.2915 -0.0743
  243MPD1    H6 3696   0.129   3.442   0.211  0.5929  0.2844  1.6295
  243MPD1    H7 3697   0.211   3.302   0.193 -2.5842  0.5146 -1.0547
  244MPD1     C 3698   0.774   2.465  17.199 -0.5968 -0.4621  0.0648
  244MPD1    C1 3699   0.727   2.540  17.089  0.3793  0.0597  0.4448
  244MPD1    C2 3700   0.720   2.675  17.096  0.3856 -0.7076 -0.3324
  244MPD1    C3 3701   0.748   2.738  17.212 -0.0592 -0.6960 -0.0879
  244MPD1    C4 3702   0.793   2.673  17.323 -0.3125 -0.7949  0.1707
  244MPD1    C5 3703   0.801   2.534  17.317  0.4037  0.1507  0.1529
  244MPD1     H 3704   0.695   2.733  17.007 -2.3268  0.1962  1.0275
  244MPD1    H1 3705   0.834   2.719  17.412 -1.5756 -0.1550  0.4166
  244MPD1    H2 3706   0.777   2.357  17.207 -0.2323 -0.4334  0.3329
  244MPD1    H3 3707   0.838   2.484  17.406 -2.2787  2.4158  2.5836
  244MPD1     N 3708   0.735   2.883  17.220  0.0091  0.4415 -0.7460
  244MPD1    H5 3709   0.709   2.927  17.132 -0.1922  0.6761 -0.5693
  244MPD1    N1 3710   0.716   2.468  16.967 -0.4629  0.5386 -0.2340
  244MPD1    H6 3711   0.686   2.372  16.981 -0.9740  0.6459 -0.6130
  244MPD1    H7 3712   0.665   2.513  16.892 -0.4452 -1.0231 -1.1732
  245MPD1     C 3713   2.597   0.282  12.599 -0.2671 -0.2782  0.3388
  245MPD1    C1 3714   2.477   0.265  12.668  0.4250  0.2480  0.1750
  245MPD1    C2 3715   2.477   0.263  12.807  0.1685  0.5216 -0.6906
  245MPD1    C3 3716   2.595   0.243  12.873  0.2506  0.1040  0.5169
  245MPD1    C4 3717   2.714   0.234  12.809 -0.6385 -0.0012 -0.0550
  245MPD1    C5 3718   2.712   0.259  12.672 -0.3828  0.0870 -0.0485
  245MPD1     H 3719   2.382   0.251  12.858 -0.3095  1.7210 -1.2797
  245MPD1    H1 3720   2.813   0.212  12.849  0.2509  0.0911 -2.1891
  245MPD1    H2 3721   2.595   0.282  12.490  0.5607 -0.5261  0.3235
  245MPD1    H3 3722   2.809   0.256  12.624  0.9322  1.1614  2.5694
  245MPD1     N 3723   2.588   0.234  13.010 -0.3338 -0.2164  0.0036
  245MPD1    H5 3724   2.502   0.263  13.056 -1.4835 -2.5688 -0.6979
  245MPD1    N1 3725   2.361   0.275  12.588 -0.4415 -0.5278 -0.0054
  245MPD1    H6 3726   2.277   0.240  12.634 -0.4607 -2.0621 -1.2260
  245MPD1    H7 3727   2.378   0.245  12.493  0.1790  0.2319 -0.1358
  246MPD1     C 3728   3.933   2.375  10.011  0.5555  0.2314 -0.4228
  246MPD1    C1 3729   3.925   2.463   9.909 -0.0171  0.5186  0.4604
  246MPD1    C2 3730   3.894   2.419   9.783 -0.0020  0.7027 -0.4947
  246MPD1    C3 3731   3.862   2.284   9.762 -0.8809 -0.1817  0.2906
  246MPD1    C4 3732   3.867   2.197   9.867 -0.0786  0.3056 -0.1715
  246MPD1    C5 3733   3.903   2.238   9.994 -0.5799 -0.6653 -0.3860
  246MPD1     H 3734   3.905   2.490   9.702 -0.3889 -2.3392 -3.2213
  246MPD1    H1 3735   3.859   2.091   9.845 -1.1514 -0.0363  1.9366
  246MPD1    H2 3736   3.965   2.407  10.110 -0.4822  0.6279 -0.2122
  246MPD1    H3 3737   3.929   2.165  10.070 -0.1603  0.0770  0.1743
  246MPD1     N 3738   3.819   2.254   9.631 -0.0908 -0.1932 -0.8248
  246MPD1    H5 3739   3.833   2.319   9.554 -0.6780 -0.6611 -1.3215
  246MPD1    N1 3740   3.972   2.593   9.931 -0.4706  0.0517  0.3115
  246MPD1    H6 3741   3.953   2.628  10.024 -1.0088  0.0260  0.2138
  246MPD1    H7 3742   3.957   2.666   9.861  1.0808  0.0456 -0.0282
  247MPD1     C 3743   2.197   3.884  16.250 -0.5907 -0.2134 -0.4824
  247MPD1    C1 3744   2.243   3.759  16.286 -0.2777  0.1816  0.6156
  247MPD1    C2 3745   2.275   3.667  16.188  0.0648  0.2139 -0.2235
  247MPD1    C3 3746   2.284   3.707  16.051 -0.6800 -0.1161  0.1015
  247MPD1    C4 3747   2.257   3.835  16.026 -0.3015  0.4832 -0.5754
  247MPD1    C5 3748   2.208   3.920  16.118 -0.1115 -0.0163 -1.0048
  247MPD1     H 3749   2.304   3.570  16.226  0.7725  0.1923 -0.8140
  247MPD1    H1 3750   2.267   3.867  15.923  3.1617 -0.8278 -0.6613
  247MPD1    H2 3751   2.153   3.955  16.319 -0.2345 -0.5138  0.0488
  247MPD1    H3 3752   2.188   4.024  16.094  0.4819  0.3712  0.2048
  247MPD1     N 3753   2.329   3.625  15.945  0.1023 -0.1440 -0.3046
  247MPD1    H5 3754   2.348   3.662  15.852 -1.0960 -0.2131 -0.5784
  247MPD1    N1 3755   2.204   3.717  16.414  0.6679  0.0717 -0.7456
  247MPD1    H6 3756   2.191   3.791  16.482 -3.9046 -0.6556 -0.8441
  247MPD1    H7 3757   2.262   3.640  16.447  0.4589 -1.0743 -3.0030
  248MPD1     C 3758   2.978   2.816   1.196  0.0488 -0.0003 -0.3422
  248MPD1    C1 3759   2.991   2.752   1.070  0.0107  0.4066 -0.2300
  248MPD1    C2 3760   2.879   2.759   0.990 -0.0614 -0.5046  0.4615
  248MPD1    C3 3761   2.765   2.822   1.033  0.3522  0.7827 -0.4297
  248MPD1    C4 3762   2.755   2.864   1.162 -0.4254 -0.0694  0.0984
  248MPD1    C5 3763   2.860   2.861   1.242  0.5137  0.2796 -0.1303
  248MPD1     H 3764   2.877   2.722   0.888 -2.1542  0.6481  0.0767
  248MPD1    H1 3765   2.664   2.908   1.201  0.1500 -0.5893  2.0082
  248MPD1    H2 3766   3.064   2.816   1.262 -1.1196 -1.2802  1.1648
  248MPD1    H3 3767   2.850   2.883   1.348  2.2453  0.0659  0.0706
  248MPD1     N 3768   2.651   2.842   0.951 -0.4890  0.9733  0.1683
  248MPD1    H5 3769   2.661   2.804   0.857  2.3797  1.0933  0.4390
  248MPD1    N1 3770   3.114   2.714   1.014 -0.0188  0.2343  0.9238
  248MPD1    H6 3771   3.130   2.647   0.939 -0.7871  1.0066  0.0705
  248MPD1    H7 3772   3.169   2.674   1.090 -0.0363  1.8232  1.7634
  249MPD1     C 3773   3.675   2.795  10.037  0.1642 -0.9898 -0.4903
  249MPD1    C1 3774   3.549   2.802   9.988 -0.1574 -1.1775 -0.1616
  249MPD1    C2 3775   3.519   2.915   9.914  0.0688 -0.1003  0.3758
  249MPD1    C3 3776   3.601   3.026   9.911 -0.0605  0.1707  0.2541
  249MPD1    C4 3777   3.724   3.019   9.972 -0.0248 -0.4825  0.0746
  249MPD1    C5 3778   3.757   2.913  10.050  0.0157  0.1766  0.6974
  249MPD1     H 3779   3.423   2.920   9.864  1.0710  0.8214 -1.4734
  249MPD1    H1 3780   3.795   3.099   9.957 -0.3000 -0.5015 -1.3737
  249MPD1    H2 3781   3.710   2.708  10.092 -1.5258 -0.1080  1.9336
  249MPD1    H3 3782   3.851   2.911  10.104  0.0431  0.0024  0.6440
  249MPD1     N 3783   3.566   3.141   9.842  0.2685  0.1796 -0.4595
  249MPD1    H5 3784   3.633   3.217   9.843 -0.5464  0.8998  0.3785
  249MPD1    N1 3785   3.474   2.682   9.985  0.5931 -0.0965  0.3703
  249MPD1    H6 3786   3.493   2.620  10.063  2.4106 -0.8402 -0.6682
  249MPD1    H7 3787   3.372   2.686   9.984  0.6980  1.7373 -1.9256
  250MPD2     C 3788   0.858   2.896  13.602  0.6198 -0.4352 -0.4046
  250MPD2    C1 3789   0.865   2.926  13.464 -0.2205  0.5068 -0.4656
  250MPD2    C2 3790   0.788   2.854  13.380  0.0502  0.9101 -0.1682
  250MPD2    C3 3791   0.686   2.773  13.427  0.5284 -0.1316 -0.1681
  250MPD2    C4 3792   0.688   2.738  13.561  0.3304 -0.1926  0.1843
  250MPD2    C5 3793   0.775   2.799  13.648  0.0319  0.1707  0.2478
  250MPD2     H 3794   0.802   2.865  13.273  1.5700  1.1914  0.0551
  250MPD2    H1 3795   0.614   2.665  13.592  0.3677 -0.6316 -0.7520
  250MPD2    H2 3796   0.916   2.960  13.667  1.2699 -2.7266  1.2672
  250MPD2    H3 3797   0.777   2.767  13.752 -0.3920  0.7463  0.4309
  250MPD2     N 3798   0.585   2.715  13.342 -0.0905  0.4851  0.1107
  250MPD2    H5 3799   0.545   2.625  13.366  0.2457 -0.2989 -2.2904
  250MPD2    N1 3800   0.963   3.018  13.430 -0.0426  0.0629 -0.3888
  250MPD2    H7 3801   1.022   3.059  13.501  0.2555 -0.9564 -0.0430
  251TMC3    C1 3802   1.087   3.162  13.303  0.6078  0.8797  0.5098
  251TMC3    C2 3803   1.055   3.270  13.384 -0.4069  0.9122 -0.3093
  251TMC3    C3 3804   1.131   3.382  13.363 -0.3334 -0.3815  0.4787
  251TMC3    C4 3805   1.175   3.163  13.203  0.3294  0.1401 -0.0500
  251TMC3    C5 3806   1.258   3.266  13.197 -0.1863 -0.7119  0.1856
  251TMC3    C6 3807   1.238   3.374  13.279  0.1371 -0.3149  0.7692
  251TMC3     C 3808   1.005   3.041  13.303  0.5866 -0.5441 -0.5239
  251TMC3     O 3809   0.971   2.991  13.195  0.1868  0.0012  0.4914
  251TMC3     H 3810   0.966   3.265  13.445  1.2873 -1.9791  1.9232
  251TMC3    H1 3811   1.178   3.073  13.143  1.2107  0.6693 -0.7886
  251TMC3    H2 3812   1.306   3.458  13.284  0.3435 -0.4646  0.4174
  251TMC3    C7 3813   1.373   3.246  13.114  0.1370  0.3766 -0.0112
  251TMC3    C8 3814   1.074   3.512  13.408 -0.7756 -0.8258  0.4613
  251TMC3    O1 3815   1.408   3.128  13.090  0.3202 -0.4220 -0.3106
  251TMC3    O2 3816   0.978   3.512  13.481  0.0593  0.5306  0.2590
  252TMC3    C1 3817   0.564   0.211   9.419 -0.1009 -0.2951 -0.2501
  252TMC3    C2 3818   0.687   0.252   9.384  0.4650  0.1230  0.0935
  252TMC3    C3 3819   0.798   0.184   9.426  0.1336 -0.1519  0.0051
  252TMC3    C4 3820   0.549   0.101   9.500 -0.1160  0.1331 -0.5461
  252TMC3    C5 3821   0.662   0.029   9.529 -0.6108  0.5544  0.0736
  252TMC3    C6 3822   0.788   0.072   9.501 -0.3421 -0.4521  0.1557
  252TMC3     C 3823   0.458   0.305   9.412 -0.1861  0.9305  0.4879
  252TMC3     O 3824   0.496   0.422   9.398  0.0534 -0.2490  0.0509
  252TMC3     H 3825   0.682   0.334   9.313 -2.8287  1.8766  2.3735
  252TMC3    H1 3826   0.454   0.055   9.525  0.3913 -0.4261  0.3351
  252TMC3    H2 3827   0.880   0.020   9.527  1.4618  2.3022 -0.6159
  252TMC3    C7 3828   0.650   4.624   9.603 -0.1891  1.0213 -0.0309
  252TMC3    C8 3829   0.916   0.262   9.419  0.5445 -0.3838  0.1663
  252TMC3    O1 3830   0.536   4.595   9.644 -0.3586 -0.1083 -0.2994
  252TMC3    O2 3831   0.918   0.330   9.319  0.5198 -0.1259  0.5802
  253MPD2     C 3832   2.094   2.681  15.157 -0.0060  0.4887  0.2583
  253MPD2    C1 3833   1.956   2.700  15.183 -0.0854 -0.0267 -1.3690
  253MPD2    C2 3834   1.922   2.786  15.288  0.5157 -0.7271 -0.0919
  253MPD2    C3 3835   2.023   2.845  15.359  0.0342  0.0756 -0.3036
  253MPD2    C4 3836   2.156   2.836  15.324  0.0174  0.1030  0.3204
  253MPD2    C5 3837   2.194   2.750  15.222 -0.1916 -0.1559 -0.7311
  253MPD2     H 3838   1.816   2.789  15.311  0.5496 -0.7900  0.0707
  253MPD2    H1 3839   2.234   2.891  15.376 -0.4738  0.7233  0.3971
  253MPD2    H2 3840   2.130   2.615  15.079 -2.9113 -0.3406 -0.3880
  253MPD2    H3 3841   2.297   2.742  15.188 -0.0245  1.2732 -0.5604
  253MPD2     N 3842   1.990   2.917  15.478 -0.3155 -0.5573 -0.5774
  253MPD2    H5 3843   2.068   2.965  15.523 -0.8412 -2.3995  2.2937
  253MPD2    N1 3844   1.854   2.635  15.107  0.1880  0.1514 -0.0873
  253MPD2    H7 3845   1.757   2.646  15.132  0.3304  0.2160  0.4450
  254TMC3    C1 3846   1.871   3.028  15.643  0.5329 -0.0147 -0.2015
  254TMC3    C2 3847   1.757   3.092  15.684  0.3091  0.0114 -0.0196
  254TMC3    C3 3848   1.731   3.088  15.821  0.4866 -0.0783  0.2441
  254TMC3    C4 3849   1.956   2.958  15.733 -0.1667  0.1618 -0.3503
  254TMC3    C5 3850   1.915   2.960  15.868 -0.0575 -0.0088 -0.8034
  254TMC3    C6 3851   1.808   3.021  15.913  0.3564 -0.0096 -0.4531
  254TMC3     C 3852   1.864   2.956  15.517  0.1509  0.2929 -0.4968
  254TMC3     O 3853   1.750   2.924  15.484  0.1859 -0.5255 -0.4181
  254TMC3     H 3854   1.674   3.122  15.622  1.2537  2.8718  0.1156
  254TMC3    H1 3855   2.048   2.907  15.710  1.3446  1.8091  2.0229
  254TMC3    H2 3856   1.765   3.011  16.012  0.0129  0.0255 -0.5962
  254TMC3    C7 3857   1.995   2.915  15.986 -0.4889 -0.5792 -0.3415
  254TMC3    C8 3858   1.636   3.173  15.884 -0.2880  0.0427  0.1304
  254TMC3    O1 3859   1.938   2.884  16.091  0.6216  0.0172  0.1719
  254TMC3    O2 3860   1.596   3.143  15.992 -0.4108 -0.8834  0.2845
  255MPD2     C 3861   0.287   2.342   9.038 -0.7206  0.5333 -0.7190
  255MPD2    C1 3862   0.263   2.215   9.092  0.2275  0.0174 -0.6778
  255MPD2    C2 3863   0.354   2.115   9.101 -0.3475 -0.0454  0.0056
  255MPD2    C3 3864   0.485   2.130   9.047  0.5573  0.2513 -0.5084
  255MPD2    C4 3865   0.507   2.248   8.984 -0.5954  0.5567 -0.2458
  255MPD2    C5 3866   0.411   2.350   8.981  0.2970 -0.4988 -0.1114
  255MPD2     H 3867   0.327   2.020   9.147  1.6775  0.8265  2.9514
  255MPD2    H1 3868   0.600   2.271   8.934 -0.5854  0.7236 -0.1498
  255MPD2    H2 3869   0.217   2.425   9.031 -0.4511  0.6518 -2.0669
  255MPD2    H3 3870   0.440   2.446   8.939 -1.0055  0.4461  1.1889
  255MPD2     N 3871   0.586   2.029   9.052  0.0958  0.0053 -0.0960
  255MPD2    H5 3872   0.554   1.941   9.091  2.6922 -0.8912  0.0071
  255MPD2    N1 3873   0.134   2.207   9.157  0.0770  0.2788  0.5660
  255MPD2    H7 3874   0.087   2.294   9.181  1.9617  1.5678 -0.4486
  256TMC3    C1 3875   4.685   2.140   9.300  0.2314 -0.1943  0.0336
  256TMC3    C2 3876   4.701   2.251   9.378  0.3533 -0.8041 -0.4163
  256TMC3    C3 3877   4.613   2.270   9.482 -0.0542 -0.0577 -0.3647
  256TMC3    C4 3878   4.598   2.040   9.335 -0.3502 -0.2379  0.4047
  256TMC3    C5 3879   4.517   2.061   9.440  0.1362  0.6704 -0.3424
  256TMC3    C6 3880   4.516   2.181   9.511 -0.2002 -0.4145  0.0649
  256TMC3     C 3881   0.070   2.098   9.212  0.5769  0.0356 -0.6136
  256TMC3     O 3882   0.102   1.979   9.199 -0.0279 -0.0115 -0.2239
  256TMC3     H 3883   0.065   2.313   9.365  0.5936 -0.3342  3.7216
  256TMC3    H1 3884   4.603   1.951   9.274 -0.6172 -1.8554  2.7457
  256TMC3    H2 3885   4.455   2.200   9.598  3.1135 -1.3184  2.5832
  256TMC3    C7 3886   4.442   1.949   9.484  0.0517 -0.8117 -0.4207
  256TMC3    C8 3887   4.626   2.390   9.563  0.1914 -0.0828 -0.0855
  256TMC3    O1 3888   4.434   1.863   9.397 -0.2235 -0.0931 -0.1049
  256TMC3    O2 3889   4.525   2.432   9.615 -0.1378 -0.4764  0.0123
  257MPD2     C 3890   4.682   3.395  13.320  0.7933 -0.0787  0.3280
  257MPD2    C1 3891   4.631   3.313  13.222  0.4215 -0.1423 -0.1374
  257MPD2    C2 3892   4.582   3.182  13.259  0.1017 -0.1620 -0.5683
  257MPD2    C3 3893   4.585   3.143  13.389 -0.1941  0.1595  0.0514
  257MPD2    C4 3894   4.632   3.226  13.480 -0.5566  0.3111  0.7296
  257MPD2    C5 3895   4.685   3.353  13.451 -0.1362  0.5887 -0.7178
  257MPD2     H 3896   4.553   3.115  13.179  0.3887 -0.0435 -0.7727
  257MPD2    H1 3897   4.644   3.194  13.583 -0.5471  0.1896  0.6908
  257MPD2    H2 3898   0.001   3.493  13.303  2.4417 -0.8663 -0.0360
  257MPD2    H3 3899   0.011   3.415  13.524 -0.2356 -0.4472  0.2300
  257MPD2     N 3900   4.527   3.016  13.411 -0.0893  0.7203  0.0291
  257MPD2    H5 3901   4.496   2.973  13.325  1.0149 -0.1089  0.0537
  257MPD2    N1 3902   4.633   3.364  13.091 -0.2385 -0.1156 -0.8786
  257MPD2    H7 3903   4.665   3.459  13.075 -0.1896 -0.0878 -0.6267
  258TMC3    C1 3904   4.484   2.804  13.515 -0.7841  0.0346  0.4193
  258TMC3    C2 3905   4.523   2.746  13.402 -0.2669  0.7377 -0.4232
  258TMC3    C3 3906   4.563   2.615  13.395 -0.3871  0.1898  0.3415
  258TMC3    C4 3907   4.496   2.734  13.633 -0.5083 -0.0457  0.3335
  258TMC3    C5 3908   4.513   2.597  13.616 -0.1958 -0.7003  0.5477
  258TMC3    C6 3909   4.553   2.536  13.503 -0.6413 -0.2713 -0.0419
  258TMC3     C 3910   4.519   2.949  13.532  0.2571 -0.4941 -0.3353
  258TMC3     O 3911   4.547   2.990  13.645 -0.1607 -0.1332  0.6260
  258TMC3     H 3912   4.541   2.795  13.307 -1.3998  2.1983  0.1356
  258TMC3    H1 3913   4.505   2.787  13.727 -1.6320  0.7648 -0.0240
  258TMC3    H2 3914   4.569   2.429  13.508 -1.3320 -0.4101 -0.8575
  258TMC3    C7 3915   4.545   2.521  13.735  0.0280  0.2324 -0.0912
  258TMC3    C8 3916   4.568   2.547  13.272 -0.3491  1.0488  0.4483
  258TMC3    O1 3917   4.643   2.445  13.729 -0.1313  0.6461  0.0934
  258TMC3    O2 3918   4.500   2.595  13.181 -0.1712  0.1776  0.3033
  259MPD2     C 3919   4.560   3.781   1.155  0.4437  0.3844  0.8636
  259MPD2    C1 3920   4.443   3.847   1.125  0.5479 -0.0712 -0.0891
  259MPD2    C2 3921   4.404   3.857   0.995 -0.2986 -0.1185  1.3903
  259MPD2    C3 3922   4.489   3.811   0.894 -0.2970 -0.1695 -0.1969
  259MPD2    C4 3923   4.598   3.733   0.921 -0.0392 -0.2685  0.3531
  259MPD2    C5 3924   4.635   3.724   1.060 -0.0820 -0.1782  0.1471
  259MPD2     H 3925   4.309   3.899   0.965  1.0582  1.0372 -1.2530
  259MPD2    H1 3926   4.652   3.675   0.847 -0.4129  0.1100 -0.2152
  259MPD2    H2 3927   4.591   3.771   1.259  2.3436  1.5392  0.3890
  259MPD2    H3 3928   4.716   3.660   1.092 -0.3558 -0.7134 -0.2206
  259MPD2     N 3929   4.459   3.839   0.756  0.0270 -0.4516  0.5886
  259MPD2    H5 3930   4.363   3.871   0.748  0.4023  0.5814  0.2290
  259MPD2    N1 3931   4.360   3.892   1.232 -0.6417 -0.1925 -0.0148
  259MPD2    H7 3932   4.394   3.877   1.327  0.8308 -1.6488 -0.7700
  260TMC3    C1 3933   4.502   3.893   0.533  0.3263  0.5723  0.5125
  260TMC3    C2 3934   4.599   3.953   0.454  0.3792  0.1469  0.6255
  260TMC3    C3 3935   4.575   3.974   0.323 -0.3597 -0.1250 -0.3052
  260TMC3    C4 3936   4.388   3.837   0.476  0.2333  0.5380 -0.1481
  260TMC3    C5 3937   4.374   3.860   0.340  0.3101  0.7089 -0.1716
  260TMC3    C6 3938   4.459   3.937   0.260 -0.1100  0.8971 -0.1582
  260TMC3     C 3939   4.553   3.838   0.656  0.2761 -0.4843  0.9755
  260TMC3     O 3940   4.675   3.815   0.654  0.2272  0.1580  1.0087
  260TMC3     H 3941   4.689   3.992   0.502  2.4038 -3.8997  0.1030
  260TMC3    H1 3942   4.325   3.775   0.537 -0.1252 -0.6307 -1.7069
  260TMC3    H2 3943   4.437   3.955   0.155  1.2133  0.7684 -0.4563
  260TMC3    C7 3944   4.235   3.876   0.296 -0.5235  0.1394 -1.1827
  260TMC3    C8 3945   4.650   4.073   0.248 -1.2807  0.0142 -0.1002
  260TMC3    O1 3946   4.215   3.885   0.177  0.4553  0.0286  0.1913
  260TMC3    O2 3947   4.622   4.069   0.129  0.4332 -0.2381 -0.3363
  261MPD2     C 3948   0.390   2.881  12.558 -0.3531  0.0843  0.6891
  261MPD2    C1 3949   0.435   2.912  12.683 -0.8053 -0.5004 -0.0517
  261MPD2    C2 3950   0.497   3.038  12.710 -0.1477  0.2244  0.8416
  261MPD2    C3 3951   0.508   3.124  12.601 -0.0463  0.1378  0.1961
  261MPD2    C4 3952   0.453   3.090  12.480 -0.3070 -0.3114 -0.5831
  261MPD2    C5 3953   0.398   2.966  12.458  0.1237 -0.0320 -0.7671
  261MPD2     H 3954   0.565   3.049  12.794  0.7707  1.3558 -0.0643
  261MPD2    H1 3955   0.459   3.149  12.389 -0.7423  0.4180 -0.1478
  261MPD2    H2 3956   0.349   2.782  12.542  0.7966 -0.6513  2.3677
  261MPD2    H3 3957   0.370   2.942  12.355  0.7787  1.7013 -1.3438
  261MPD2     N 3958   0.562   3.247  12.633 -0.5841 -0.6016  0.1211
  261MPD2    H5 3959   0.594   3.256  12.729 -1.0705  0.9067  0.1280
  261MPD2    N1 3960   0.432   2.821  12.788 -0.1035 -0.0040  0.4943
  261MPD2    H7 3961   0.478   2.858  12.870 -0.1139 -2.1932  1.5031
  262TMC3    C1 3962   0.635   3.472  12.590 -0.4203 -0.1438  0.3310
  262TMC3    C2 3963   0.641   3.565  12.492  0.1830  0.0432  1.2398
  262TMC3    C3 3964   0.763   3.600  12.445 -0.3402  0.4855 -1.1921
  262TMC3    C4 3965   0.754   3.424  12.650  0.5257 -0.4525  0.1864
  262TMC3    C5 3966   0.877   3.449  12.592 -0.3313  0.6111 -0.3738
  262TMC3    C6 3967   0.878   3.541  12.492 -0.1012  0.1694  0.4254
  262TMC3     C 3968   0.550   3.364  12.556 -0.1700  0.3321  0.1498
  262TMC3     O 3969   0.504   3.367  12.446 -0.0048  0.4948 -0.2913
  262TMC3     H 3970   0.549   3.600  12.447  0.7551 -1.7585 -1.3764
  262TMC3    H1 3971   0.753   3.350  12.730 -0.1792  0.4078  0.9856
  262TMC3    H2 3972   0.969   3.581  12.448 -0.9916 -0.6737 -2.1661
  262TMC3    C7 3973   0.941   3.330  12.537  0.0099  0.0834  0.1050
  262TMC3    C8 3974   0.774   3.606  12.296 -0.4959  1.2714 -0.5530
  262TMC3    O1 3975   0.919   3.226  12.600  0.4312  0.1128  0.2113
  262TMC3    O2 3976   0.874   3.656  12.246 -0.5675  0.2203  0.0051
  263MPD2     C 3977   1.319   2.430  11.143  0.5664 -0.3276  0.1182
  263MPD2    C1 3978   1.394   2.535  11.191 -0.9562  0.0710 -0.2422
  263MPD2    C2 3979   1.405   2.644  11.109  0.0437  0.4568  0.2290
  263MPD2    C3 3980   1.361   2.643  10.980  0.2933  0.1127  0.4368
  263MPD2    C4 3981   1.290   2.538  10.929  0.1883  0.0085 -0.5789
  263MPD2    C5 3982   1.267   2.436  11.016  0.1336 -0.2095 -0.4158
  263MPD2     H 3983   1.464   2.730  11.138  0.0394  1.4968 -2.8777
  263MPD2    H1 3984   1.244   2.545  10.831 -1.6229  1.2664  0.3592
  263MPD2    H2 3985   1.299   2.347  11.209  2.0825 -1.0745 -0.3735
  263MPD2    H3 3986   1.193   2.359  10.998 -0.8936  0.6430  0.2082
  263MPD2     N 3987   1.398   2.756  10.903 -0.8768  0.4481 -0.0544
  263MPD2    H5 3988   1.437   2.836  10.952  1.3232 -0.7775  0.1992
  263MPD2    N1 3989   1.468   2.507  11.306 -1.3156 -0.6124  0.2390
  263MPD2    H7 3990   1.428   2.430  11.357  0.8580  0.8743  4.1337
  264TMC3    C1 3991   1.438   2.887  10.717  0.5316 -0.3043 -0.4173
  264TMC3    C2 3992   1.431   3.007  10.790  0.8827  0.1466  0.5505
  264TMC3    C3 3993   1.539   3.086  10.768 -0.1256  0.0441  0.3671
  264TMC3    C4 3994   1.544   2.861  10.629 -0.2472  0.2704 -0.7058
  264TMC3    C5 3995   1.647   2.951  10.615 -0.3080  0.3929  0.3844
  264TMC3    C6 3996   1.650   3.058  10.694 -0.2940 -0.6978 -0.0770
  264TMC3     C 3997   1.376   2.764  10.766  0.2348 -0.3572  0.4627
  264TMC3     O 3998   1.374   2.679  10.681  0.2565 -0.0939 -0.2094
  264TMC3     H 3999   1.348   3.030  10.856 -1.4027  1.3455 -2.6908
  264TMC3    H1 4000   1.550   2.764  10.581  0.1016  0.7014 -1.5282
  264TMC3    H2 4001   1.733   3.127  10.698 -1.4040  0.5441  1.4120
  264TMC3    C7 4002   1.758   2.914  10.526 -0.4355  0.9357 -0.0432
  264TMC3    C8 4003   1.536   3.227  10.805 -0.3033 -0.0201  0.1023
  264TMC3    O1 4004   1.777   2.799  10.491  0.1316  0.2762 -1.2845
  264TMC3    O2 4005   1.630   3.293  10.761 -0.3174  0.3383 -0.2582
  265MPD2     C 4006   3.279   2.570  15.540 -0.3744  0.6883 -0.2893
  265MPD2    C1 4007   3.328   2.689  15.481 -0.5368 -0.1064  0.1054
  265MPD2    C2 4008   3.388   2.676  15.357 -0.0801  0.2846  0.2676
  265MPD2    C3 4009   3.402   2.556  15.285  0.1683 -0.4153 -0.6628
  265MPD2    C4 4010   3.351   2.447  15.347 -1.0224  0.4559 -0.2094
  265MPD2    C5 4011   3.291   2.453  15.472  0.0187  0.1741  0.2015
  265MPD2     H 4012   3.421   2.761  15.300 -0.4663 -0.2012 -0.6856
  265MPD2    H1 4013   3.333   2.353  15.295  0.1975  1.3503 -2.2288
  265MPD2    H2 4014   3.216   2.559  15.627 -0.4463  4.2491  0.1242
  265MPD2    H3 4015   3.245   2.365  15.516 -0.2111  0.8967  1.4055
  265MPD2     N 4016   3.460   2.536  15.155  0.4491  0.5554  0.1260
  265MPD2    H5 4017   3.456   2.443  15.116  1.3689  0.1666  0.9746
  265MPD2    N1 4018   3.310   2.818  15.547  0.1518  0.4042  0.8404
  265MPD2    H7 4019   3.362   2.898  15.512  0.2333 -0.0894 -0.1589
  266TMC3    C1 4020   3.256   2.972  15.703 -0.0743  0.1595  0.2192
  266TMC3    C2 4021   3.284   3.001  15.828 -0.4309  0.1810 -0.1645
  266TMC3    C3 4022   3.299   3.134  15.855 -0.4040  0.3674 -0.4630
  266TMC3    C4 4023   3.242   3.060  15.603  0.0461 -0.5684  0.3636
  266TMC3    C5 4024   3.271   3.191  15.628  0.6696  1.0333  0.0883
  266TMC3    C6 4025   3.279   3.234  15.763 -0.6650 -0.7137  0.4188
  266TMC3     C 4026   3.250   2.835  15.667 -0.5730 -0.7545 -0.5356
  266TMC3     O 4027   3.223   2.752  15.749 -1.2222  0.0844  0.1651
  266TMC3     H 4028   3.326   2.927  15.895  1.0512  1.4819  0.3382
  266TMC3    H1 4029   3.212   3.026  15.504 -0.5776  0.6949  0.1248
  266TMC3    H2 4030   3.304   3.336  15.792  1.3325 -1.2741  0.6247
  266TMC3    C7 4031   3.268   3.283  15.516 -0.0803  0.4131  0.5828
  266TMC3    C8 4032   3.397   3.163  15.953 -0.7054 -0.2087  0.0450
  266TMC3    O1 4033   3.227   3.238  15.409 -0.4009 -0.4492 -0.2999
  266TMC3    O2 4034   3.491   3.082  15.962 -0.1973  0.2209  0.0357
  267MPD2     C 4035   1.632   4.141  17.319 -0.2657 -0.3294  0.2372
  267MPD2    C1 4036   1.596   4.270  17.331 -0.1649 -0.4220 -0.0201
  267MPD2    C2 4037   1.468   4.306  17.305 -0.2150 -0.5636 -0.0647
  267MPD2    C3 4038   1.382   4.213  17.245  0.2591 -0.2359 -0.0369
  267MPD2    C4 4039   1.417   4.080  17.223 -0.2722  0.7109  0.6818
  267MPD2    C5 4040   1.543   4.045  17.270 -0.4431  0.5555  0.5195
  267MPD2     H 4041   1.436   4.407  17.325  1.9236  0.0225  0.4045
  267MPD2    H1 4042   1.356   4.002  17.180 -0.5991  1.0291  0.5646
  267MPD2    H2 4043   1.738   4.121  17.320  0.0975  1.6712  0.7066
  267MPD2    H3 4044   1.583   3.945  17.256  1.7794  1.4571  0.3653
  267MPD2     N 4045   1.248   4.245  17.216 -0.5094  0.0671  0.0703
  267MPD2    H5 4046   1.188   4.180  17.166  1.7010 -2.1774  0.3162
  267MPD2    N1 4047   1.700   4.363  17.375 -0.2088 -0.2671 -0.5927
  267MPD2    H7 4048   1.790   4.320  17.396 -1.0940 -1.2036  1.2567
  268TMC3    C1 4049   1.817   4.562  17.401  0.4548  0.2314 -0.3719
  268TMC3    C2 4050   1.818   4.700  17.371 -0.4601  0.1729 -0.1061
  268TMC3    C3 4051   1.922   0.048  17.413 -0.5369  0.1503  0.3952
  268TMC3    C4 4052   1.923   4.498  17.452  0.2057 -0.8017 -0.0916
  268TMC3    C5 4053   2.030   4.575  17.487  0.1107 -0.2481  0.0535
  268TMC3    C6 4054   2.035   4.712  17.467 -0.1777  0.0371 -0.1719
  268TMC3     C 4055   1.691   4.497  17.372  0.2838 -1.0554  0.3577
  268TMC3     O 4056   1.594   4.574  17.351  0.7095 -0.2571  0.5922
  268TMC3     H 4057   1.725   0.028  17.352  1.2368  2.2442 -2.6556
  268TMC3    H1 4058   1.921   4.393  17.478 -1.6736 -1.3051 -2.2721
  268TMC3    H2 4059   2.127   0.042  17.480 -0.3914  0.5175 -0.6592
  268TMC3    C7 4060   2.091   4.544  17.622 -0.5801  0.4311 -0.4468
  268TMC3    C8 4061   1.945   0.175  17.354  0.5621  0.7593 -0.0629
  268TMC3    O1 4062   2.178   4.621  17.654  0.1922  0.8855 -0.0177
  268TMC3    O2 4063   2.045   0.245  17.389  0.4124 -0.0969 -0.3594
  269MPD2     C 4064   1.218   2.895  15.649 -0.8708  0.3278  0.1027
  269MPD2    C1 4065   1.107   2.953  15.696  0.4287 -0.2155 -0.1698
  269MPD2    C2 4066   1.098   3.086  15.678 -0.3095  0.6256  0.0146
  269MPD2    C3 4067   1.197   3.170  15.623  0.4950  0.2699 -0.4650
  269MPD2    C4 4068   1.313   3.108  15.570 -0.2515  0.3801 -0.9185
  269MPD2    C5 4069   1.320   2.968  15.584 -0.0125  0.8911 -0.6219
  269MPD2     H 4070   1.013   3.141  15.718 -1.1833 -3.3115  3.5164
  269MPD2    H1 4071   1.390   3.164  15.518  0.0177 -0.3218 -1.2802
  269MPD2    H2 4072   1.223   2.786  15.648 -1.0554  0.3079  2.2915
  269MPD2    H3 4073   1.408   2.920  15.542  0.0201 -0.0602  0.5111
  269MPD2     N 4074   1.173   3.308  15.624 -0.4079  0.2297 -0.0144
  269MPD2    H5 4075   1.112   3.339  15.699 -0.6922 -0.7878  0.1640
  269MPD2    N1 4076   1.001   2.865  15.735  0.1901  0.9761  0.1409
  269MPD2    H7 4077   1.016   2.765  15.733 -0.1104  0.9326  0.0080
  270TMC3    C1 4078   0.780   2.796  15.775 -0.0214  0.5240  0.0681
  270TMC3    C2 4079   0.697   2.776  15.675  0.3445 -0.4554  0.2072
  270TMC3    C3 4080   0.661   2.649  15.640  0.1666  0.2950 -0.7905
  270TMC3    C4 4081   0.818   2.700  15.864  0.2915 -0.5906 -0.2165
  270TMC3    C5 4082   0.793   2.570  15.824  0.0343  0.1224 -0.3035
  270TMC3    C6 4083   0.712   2.543  15.714 -0.4112  0.5973  0.3503
  270TMC3     C 4084   0.871   2.907  15.748 -0.0969  0.0348  0.6229
  270TMC3     O 4085   0.823   3.012  15.709  0.4396 -0.3721 -0.5279
  270TMC3     H 4086   0.672   2.859  15.610 -1.7681  0.2634  1.9369
  270TMC3    H1 4087   0.897   2.720  15.936  0.7651 -0.1923 -0.8408
  270TMC3    H2 4088   0.690   2.443  15.678  0.1468  0.5085  0.2582
  270TMC3    C7 4089   0.911   2.484  15.839  0.5819 -0.5692  0.0536
  270TMC3    C8 4090   0.673   2.636  15.497 -0.6763  0.0440  0.3727
  270TMC3    O1 4091   1.016   2.546  15.818  1.1489 -0.5291 -0.4759
  270TMC3    O2 4092   0.739   2.719  15.440  0.4531 -0.0244 -0.0717
  271MPD2     C 4093   0.388   3.086  13.951 -0.9851  0.1074  0.1634
  271MPD2    C1 4094   0.296   3.031  14.034  0.5301 -0.6598  0.7027
  271MPD2    C2 4095   0.166   3.078  14.034 -0.2138  0.6830  0.0765
  271MPD2    C3 4096   0.125   3.164  13.933  0.1717 -1.1787 -0.1255
  271MPD2    C4 4097   0.212   3.224  13.846 -0.6586  0.1019  0.8196
  271MPD2    C5 4098   0.343   3.179  13.857  0.4013 -0.2325 -0.1234
  271MPD2     H 4099   0.102   3.040  14.113  0.4373 -1.6095 -0.4936
  271MPD2    H1 4100   0.187   3.295  13.769 -1.7364 -0.8693  0.2725
  271MPD2    H2 4101   0.493   3.059  13.946 -1.2940 -1.0834  0.0801
  271MPD2    H3 4102   0.417   3.220  13.789  1.0661 -1.8368 -0.3499
  271MPD2     N 4103   4.715   3.200  13.914  0.7084  0.6526 -0.0778
  271MPD2    H5 4104   4.689   3.292  13.880 -0.3179  1.1614  2.1110
  271MPD2    N1 4105   0.330   2.934  14.128  0.8392 -0.1762 -0.3903
  271MPD2    H7 4106   0.266   2.909  14.202  1.0128 -1.1321 -0.5602
  272TMC3    C1 4107   0.448   2.747  14.224 -0.0338  0.6566  0.2634
  272TMC3    C2 4108   0.552   2.660  14.205 -0.0143  0.8404 -0.1188
  272TMC3    C3 4109   0.603   2.585  14.311  0.0744  0.6330 -0.1544
  272TMC3    C4 4110   0.404   2.775  14.350 -0.1027 -0.1848 -0.4477
  272TMC3    C5 4111   0.457   2.706  14.452 -0.2620 -0.3975  0.0444
  272TMC3    C6 4112   0.560   2.613  14.434  0.1756 -0.2449  0.0507
  272TMC3     C 4113   0.437   2.845  14.118  0.2069  0.0247 -0.4892
  272TMC3     O 4114   0.506   2.842  14.018 -0.0329 -0.2514  0.0530
  272TMC3     H 4115   0.590   2.627  14.109 -1.1503 -3.5362  0.9579
  272TMC3    H1 4116   0.312   2.830  14.363  0.3539  1.2927 -3.5388
  272TMC3    H2 4117   0.605   2.580  14.527 -0.6950  0.4998  0.7481
  272TMC3    C7 4118   0.398   2.715  14.580  0.3637  0.3151 -0.1932
  272TMC3    C8 4119   0.734   2.528  14.296  0.0170  0.4201  0.2077
  272TMC3    O1 4120   0.274   2.722  14.588  0.2375  0.5795  0.4457
  272TMC3    O2 4121   0.793   2.541  14.194  0.1269 -0.0186  0.0956
  273MPD2     C 4122   2.334   1.150  11.876 -0.4989  0.1851  0.1513
  273MPD2    C1 4123   2.364   1.283  11.847 -0.1897 -0.2577 -0.5134
  273MPD2    C2 4124   2.301   1.349  11.744 -0.0565 -0.1287  0.0957
  273MPD2    C3 4125   2.206   1.288  11.671 -0.1358 -0.1777  0.2849
  273MPD2    C4 4126   2.159   1.167  11.716 -0.6872 -0.1965 -0.4360
  273MPD2    C5 4127   2.228   1.089  11.808  0.7821  0.0172 -0.6063
  273MPD2     H 4128   2.313   1.454  11.718 -1.2764  0.3894  1.6303
  273MPD2    H1 4129   2.068   1.126  11.674 -2.0043 -0.4524  2.6706
  273MPD2    H2 4130   2.379   1.097  11.959 -0.6995 -1.0699 -0.5502
  273MPD2    H3 4131   2.184   0.994  11.834 -1.4297  0.8530 -1.3163
  273MPD2     N 4132   2.138   1.334  11.558 -0.4999  0.2038  0.3630
  273MPD2    H5 4133   2.052   1.284  11.537 -0.0643 -0.6079  0.5280
  273MPD2    N1 4134   2.442   1.357  11.936  0.2842 -0.0279  0.1821
  273MPD2    H7 4135   2.458   1.304  12.021  3.5675 -1.0995 -1.0880
  274TMC3    C1 4136   2.086   1.530  11.422  0.3539  0.2299 -0.4411
  274TMC3    C2 4137   1.990   1.484  11.341  0.3622  0.2974 -0.1428
  274TMC3    C3 4138   1.961   1.564  11.234 -0.2065  0.0700  0.4968
  274TMC3    C4 4139   2.137   1.652  11.402 -0.5122  0.7838  0.1517
  274TMC3    C5 4140   2.104   1.729  11.287  0.2154 -0.6404 -0.2058
  274TMC3    C6 4141   2.024   1.675  11.193 -0.2812  0.3764 -0.4702
  274TMC3     C 4142   2.183   1.448  11.497 -0.4175 -0.2524 -0.1767
  274TMC3     O 4143   2.297   1.465  11.463  0.2656 -0.3456 -0.3519
  274TMC3     H 4144   1.955   1.382  11.346  1.1297  0.1107  1.6116
  274TMC3    H1 4145   2.208   1.693  11.472 -1.2053  2.7426 -0.3037
  274TMC3    H2 4146   1.966   1.742  11.130  2.1369  1.8990 -1.0687
  274TMC3    C7 4147   2.122   1.871  11.297 -0.6042  0.1648  0.4367
  274TMC3    C8 4148   1.843   1.534  11.155  0.4565  0.3899 -0.3062
  274TMC3    O1 4149   2.153   1.913  11.408 -0.6122 -0.1009  0.1019
  274TMC3    O2 4150   1.739   1.507  11.217  0.0321 -0.3525 -0.0065
  275MPD2     C 4151   1.877   3.634  14.125 -0.3803 -0.9130  0.4359
  275MPD2    C1 4152   1.831   3.617  14.256 -0.2266  0.1678 -0.0057
  275MPD2    C2 4153   1.697   3.628  14.292  0.3852 -0.6297  0.1079
  275MPD2    C3 4154   1.608   3.659  14.195 -0.0777  0.9225  0.4002
  275MPD2    C4 4155   1.647   3.674  14.061 -0.3746 -0.4965  0.0438
  275MPD2    C5 4156   1.782   3.661  14.035  0.6843 -0.0930  0.1144
  275MPD2     H 4157   1.663   3.608  14.392  1.9329 -0.1311  0.7377
  275MPD2    H1 4158   1.587   3.691  13.972 -0.9761 -1.7426  0.2053
  275MPD2    H2 4159   1.980   3.630  14.093 -0.0306  0.2051  1.4330
  275MPD2    H3 4160   1.813   3.676  13.932 -0.0073  2.2264  0.2299
  275MPD2     N 4161   1.467   3.640  14.216 -0.2983 -0.2534 -0.4005
  275MPD2    H5 4162   1.406   3.622  14.137 -1.8165 -0.3826  0.7940
  275MPD2    N1 4163   1.921   3.587  14.360 -0.0408  0.6073  0.5793
  275MPD2    H7 4164   1.878   3.573  14.451 -0.2590 -0.3228  0.3300
  276TMC3    C1 4165   2.099   3.538  14.489  0.0670  0.5057 -0.3523
  276TMC3    C2 4166   2.025   3.465  14.573  0.7015 -0.3433 -0.1814
  276TMC3    C3 4167   2.057   3.473  14.711  0.7962  0.0420 -0.4552
  276TMC3    C4 4168   2.199   3.619  14.536 -0.2782 -0.0320  0.0473
  276TMC3    C5 4169   2.207   3.643  14.669 -0.2584 -0.1941  0.4914
  276TMC3    C6 4170   2.138   3.570  14.759  0.1233 -0.3265 -1.1214
  276TMC3     C 4171   2.058   3.574  14.352 -0.0862 -0.0346 -0.4352
  276TMC3     O 4172   2.134   3.591  14.255  0.3504  0.7380 -0.7935
  276TMC3     H 4173   1.953   3.394  14.533 -0.0783 -0.0429  0.6634
  276TMC3    H1 4174   2.247   3.678  14.459  2.2678 -0.4284  1.3424
  276TMC3    H2 4175   2.145   3.594  14.864 -0.6274 -1.5057 -0.7998
  276TMC3    C7 4176   2.306   3.743  14.716  0.3263 -0.2055 -0.2834
  276TMC3    C8 4177   1.945   3.437  14.801  0.0590 -1.7906  0.4950
  276TMC3    O1 4178   2.337   3.732  14.834 -0.5674  0.4531  0.6049
  276TMC3    O2 4179   1.910   3.527  14.875 -0.2770 -0.6321 -0.2689
  277MPD2     C 4180   3.803   2.633  13.212 -0.0679  1.3134  0.0133
  277MPD2    C1 4181   3.670   2.640  13.175 -0.5956 -0.3419  0.0652
  277MPD2    C2 4182   3.571   2.612  13.267 -0.1448 -0.0168 -0.3564
  277MPD2    C3 4183   3.612   2.580  13.395  0.2251  0.1480 -0.7280
  277MPD2    C4 4184   3.740   2.565  13.433  0.2123  0.2943 -0.2436
  277MPD2    C5 4185   3.841   2.588  13.343 -0.5015  0.1139  0.3314
  277MPD2     H 4186   3.465   2.609  13.248 -0.1922 -3.9635  0.5415
  277MPD2    H1 4187   3.769   2.538  13.533 -2.9781 -0.6594  0.4332
  277MPD2    H2 4188   3.888   2.643  13.146 -0.1118  1.3169 -0.0437
  277MPD2    H3 4189   3.947   2.574  13.360 -0.5364  1.6831  1.8100
  277MPD2     N 4190   3.501   2.564  13.486 -0.1079  0.0354  0.7660
  277MPD2    H5 4191   3.407   2.595  13.467 -0.6677 -0.1007  3.3765
  277MPD2    N1 4192   3.635   2.656  13.035 -0.2024  0.3777 -0.1393
  277MPD2    H7 4193   3.704   2.704  12.977  0.4258 -0.5247 -0.1486
  278TMC3    C1 4194   3.394   2.520  13.684  0.5662 -0.3193 -0.2412
  278TMC3    C2 4195   3.369   2.420  13.773 -0.2642  0.5787 -0.3538
  278TMC3    C3 4196   3.260   2.439  13.852 -0.6527 -0.7514  0.0716
  278TMC3    C4 4197   3.317   2.631  13.664 -0.1814  0.4296 -0.6218
  278TMC3    C5 4198   3.200   2.634  13.730 -0.6826 -0.0217 -0.0012
  278TMC3    C6 4199   3.175   2.545  13.832 -0.5682  0.0991 -0.2942
  278TMC3     C 4200   3.514   2.500  13.605 -0.3869 -1.2014 -0.5657
  278TMC3     O 4201   3.606   2.431  13.652 -0.2207 -0.1849 -0.7268
  278TMC3     H 4202   3.432   2.338  13.805  0.4983  1.5241  0.5739
  278TMC3    H1 4203   3.348   2.721  13.612  0.5257  0.9249  0.6614
  278TMC3    H2 4204   3.087   2.555  13.894  0.7387  0.2427  1.5349
  278TMC3    C7 4205   3.088   2.708  13.650  0.2919  0.5035  0.2035
  278TMC3    C8 4206   3.179   2.324  13.899 -0.1184  0.2974 -0.4465
  278TMC3    O1 4207   3.121   2.730  13.536 -0.2498  0.3224  0.3177
  278TMC3    O2 4208   3.167   2.312  14.023  0.2576  0.1569  0.0283
  279MPD2     C 4209   2.979   2.870   0.319 -0.1420 -0.1570 -0.3886
  279MPD2    C1 4210   2.870   2.863   0.234 -0.2408 -0.5697  0.6560
  279MPD2    C2 4211   2.890   2.865   0.100 -0.1947 -0.4347 -0.2619
  279MPD2    C3 4212   3.013   2.869   0.045  0.9892 -0.4467  0.9455
  279MPD2    C4 4213   3.127   2.883   0.132 -0.1871  0.6324 -0.0767
  279MPD2    C5 4214   3.105   2.877   0.265 -0.0200  0.1296 -0.5286
  279MPD2     H 4215   2.804   2.873   0.035 -0.2836  0.8186  0.0143
  279MPD2    H1 4216   3.221   2.905   0.082  0.1218 -0.6806 -0.0516
  279MPD2    H2 4217   2.977   2.853   0.426  1.9771  0.2275 -0.2838
  279MPD2    H3 4218   3.193   2.887   0.328 -2.1389 -0.7181  2.6154
  279MPD2     N 4219   3.021   2.880  17.600 -0.5376  0.5808  0.5985
  279MPD2    H5 4220   2.930   2.878  17.556 -0.4492 -0.7472  0.4732
  279MPD2    N1 4221   2.736   2.865   0.273  0.0464 -0.2428  0.1268
  279MPD2    H7 4222   2.660   2.844   0.209  0.9939 -0.2276 -0.9857
  280TMC3    C1 4223   2.567   2.932   0.401 -0.8624  0.1979  0.7549
  280TMC3    C2 4224   2.489   2.835   0.353 -0.1503  0.4782 -0.5339
  280TMC3    C3 4225   2.364   2.870   0.302  0.9986  0.1528 -0.0162
  280TMC3    C4 4226   2.536   3.064   0.403 -0.4986 -0.2247  0.3885
  280TMC3    C5 4227   2.406   3.092   0.369  0.0680 -0.1833 -0.2868
  280TMC3    C6 4228   2.322   2.997   0.321 -0.1744  0.2564  0.2822
  280TMC3     C 4229   2.703   2.902   0.397  0.3073 -0.1383  0.3072
  280TMC3     O 4230   2.771   2.931   0.496  0.5133 -0.0290 -0.3875
  280TMC3     H 4231   2.533   2.736   0.347 -1.6576 -0.2104 -0.2589
  280TMC3    H1 4232   2.608   3.143   0.416 -1.5377  0.6363  0.9715
  280TMC3    H2 4233   2.225   3.026   0.282 -0.3413  0.7321  1.0754
  280TMC3    C7 4234   2.375   3.224   0.338 -0.4317 -0.0389 -0.6079
  280TMC3    C8 4235   2.297   2.781   0.210 -0.0295  0.4967  0.1306
  280TMC3    O1 4236   2.335   3.243   0.224 -0.5901 -0.0826  0.1407
  280TMC3    O2 4237   2.221   2.835   0.124 -0.3778 -0.7136  0.1780
  281TMC3    C1 4238   1.731   3.021  13.249  0.2014 -0.6367  0.9292
  281TMC3    C2 4239   1.789   3.079  13.142  0.0838 -0.3393  0.1998
  281TMC3    C3 4240   1.771   3.000  13.027  0.4144 -0.0610 -0.6388
  281TMC3    C4 4241   1.641   2.918  13.242 -0.0028  0.2320 -0.5767
  281TMC3    C5 4242   1.608   2.869  13.120  0.3956 -0.2817 -0.0983
  281TMC3    C6 4243   1.686   2.893  13.013  0.1848 -0.6219 -0.6500
  281TMC3     C 4244   1.707   3.091  13.368 -0.6395 -0.0779  0.6767
  281TMC3     O 4245   1.708   3.021  13.473  0.0639 -0.5839 -1.0375
  281TMC3     H 4246   1.874   3.147  13.148 -0.3910  0.3133 -0.4142
  281TMC3    H1 4247   1.591   2.882  13.332  0.2880 -1.4280 -1.0814
  281TMC3    H2 4248   1.676   2.854  12.912  0.4138  0.2681 -1.0213
  281TMC3    C7 4249   1.486   2.804  13.106  0.3072 -0.0346 -0.1615
  281TMC3    C8 4250   1.835   3.045  12.901  0.1550 -0.9057  0.1750
  281TMC3    O1 4251   1.470   2.752  12.997 -0.0123 -0.2207  0.5766
  281TMC3    O2 4252   1.895   2.951  12.854 -0.2025 -0.4533  0.3350
  282MPD2     C 4253   3.443   4.506  14.840 -0.5271 -0.8652 -0.1752
  282MPD2    C1 4254   3.326   4.554  14.898  0.0755  0.1602 -0.3260
  282MPD2    C2 4255   3.230   4.616  14.815  0.4954 -0.4766  0.0162
  282MPD2    C3 4256   3.245   4.615  14.678 -0.0844 -0.0502  0.0125
  282MPD2    C4 4257   3.352   4.551  14.624 -0.3408  0.3601  0.4943
  282MPD2    C5 4258   3.454   4.505  14.703  0.4040  0.4384  0.2672
  282MPD2     H 4259   3.145   4.669  14.857  0.6760 -1.0848  1.1435
  282MPD2    H1 4260   3.363   4.521  14.520 -0.4088 -0.6804  0.7935
  282MPD2    H2 4261   3.526   4.458  14.890  0.0370 -1.7181 -1.9317
  282MPD2    H3 4262   3.546   4.467  14.660 -0.0414 -2.4407  1.9024
  282MPD2     N 4263   3.140   4.678  14.601  0.3831  0.0290 -0.0391
  282MPD2    H5 4264   3.062   4.716  14.654 -0.6243 -1.7366 -0.2335
  282MPD2    N1 4265   3.310   4.548  15.038 -0.0988 -0.6242 -0.2836
  282MPD2    H7 4266   3.233   4.600  15.080  1.8454  0.9268  1.3652
  283TMC3    C1 4267   3.335   4.485  15.266 -1.2622 -0.0265  0.2775
  283TMC3    C2 4268   3.314   4.612  15.316  0.6283  0.0772 -0.3397
  283TMC3    C3 4269   3.259   4.623  15.440 -0.0852 -0.0379 -0.5016
  283TMC3    C4 4270   3.324   4.380  15.351  0.1951  0.5575 -0.4387
  283TMC3    C5 4271   3.263   4.396  15.471 -0.3004 -0.3559 -0.0607
  283TMC3    C6 4272   3.222   4.517  15.518 -0.3486  0.2889  0.7130
  283TMC3     C 4273   3.375   4.463  15.127 -0.0962 -0.6793 -0.2211
  283TMC3     O 4274   3.437   4.363  15.098  0.1613 -0.0626 -0.5674
  283TMC3     H 4275   3.317   4.699  15.252  0.6376 -0.0506 -0.5125
  283TMC3    H1 4276   3.359   4.281  15.325 -1.1217 -0.2378  0.8350
  283TMC3    H2 4277   3.209   4.538  15.624 -0.5351  0.6111  0.6231
  283TMC3    C7 4278   3.231   4.286  15.552  0.6960 -0.0265  0.4933
  283TMC3    C8 4279   3.268   0.034  15.504 -0.2042  0.5261  0.6434
  283TMC3    O1 4280   3.181   4.314  15.662  0.0851  0.0916 -0.0663
  283TMC3    O2 4281   3.258   0.044  15.628  0.5335  0.3053  0.6301
  284MPD2     C 4282   1.414   4.107  11.988  0.0333  0.5388 -0.7489
  284MPD2    C1 4283   1.449   4.081  11.855  0.0899 -0.0324  0.1849
  284MPD2    C2 4284   1.438   3.952  11.803  0.8646  0.4950  0.2560
  284MPD2    C3 4285   1.375   3.856  11.877 -0.0473  0.0972 -0.4903
  284MPD2    C4 4286   1.339   3.885  12.007 -0.5425 -0.4186  0.4444
  284MPD2    C5 4287   1.351   4.010  12.059  0.6844  0.4162 -0.0573
  284MPD2     H 4288   1.478   3.943  11.702 -2.3416 -0.1407 -0.9551
  284MPD2    H1 4289   1.291   3.799  12.050 -0.7149  0.0646  1.2161
  284MPD2    H2 4290   1.416   4.202  12.040 -1.4205 -0.0497  0.3777
  284MPD2    H3 4291   1.322   4.026  12.162 -1.5303  1.1508 -0.7932
  284MPD2     N 4292   1.336   3.730  11.815 -0.1650 -0.0852  1.0085
  284MPD2    H5 4293   1.281   3.662  11.867 -0.6097 -0.0666  0.5655
  284MPD2    N1 4294   1.513   4.170  11.766 -0.6738 -0.4246 -0.4303
  284MPD2    H7 4295   1.554   4.126  11.685 -0.4061 -1.5574  0.3173
  285TMC3    C1 4296   1.630   4.351  11.693 -0.2227 -0.5129 -0.1013
  285TMC3    C2 4297   1.738   4.284  11.680 -0.2800 -0.1313  0.4243
  285TMC3    C3 4298   1.831   4.333  11.587  0.0131  0.4640  0.0612
  285TMC3    C4 4299   1.596   4.468  11.627  0.2356 -0.9402  0.0663
  285TMC3    C5 4300   1.691   4.514  11.538  0.4749 -0.3717 -0.0862
  285TMC3    C6 4301   1.809   4.445  11.513  0.0601  0.4857  0.2899
  285TMC3     C 4302   1.537   4.298  11.786  0.3147  0.4879 -0.0072
  285TMC3     O 4303   1.482   4.370  11.866  0.0410 -0.3238 -0.5659
  285TMC3     H 4304   1.745   4.185  11.723  1.6546  0.3008  1.1130
  285TMC3    H1 4305   1.499   4.510  11.649  0.5598  0.7796 -1.8815
  285TMC3    H2 4306   1.864   4.467  11.422 -2.0744 -1.5294 -1.4772
  285TMC3    C7 4307   1.646   4.626  11.452  0.3696 -0.5110 -0.0833
  285TMC3    C8 4308   1.914   4.227  11.531  0.0668 -0.5228  0.0330
  285TMC3    O1 4309   1.736   4.704  11.426  0.6104  0.8287  0.1009
  285TMC3    O2 4310   1.903   4.114  11.574  0.1704 -0.0786 -0.0059
  286MPD2     C 4311   2.561   2.207   1.651  0.0683 -0.6874  0.0940
  286MPD2    C1 4312   2.493   2.217   1.528 -0.9905 -0.4585  0.8022
  286MPD2    C2 4313   2.574   2.209   1.414 -0.4693 -0.1113 -0.1537
  286MPD2    C3 4314   2.704   2.164   1.427  0.4437 -0.3500  0.1600
  286MPD2    C4 4315   2.770   2.179   1.552  0.6033  0.5023  0.7069
  286MPD2    C5 4316   2.695   2.208   1.664  0.6774 -0.6636  0.2267
  286MPD2     H 4317   2.541   2.222   1.312  2.3873  2.5523 -0.7177
  286MPD2    H1 4318   2.874   2.153   1.566  0.5242  0.0893  0.5273
  286MPD2    H2 4319   2.513   2.220   1.747 -1.1483 -0.0207 -0.6037
  286MPD2    H3 4320   2.733   2.218   1.765 -1.1457  0.7925  0.7551
  286MPD2     N 4321   2.786   2.127   1.312 -0.5407 -0.2729 -0.2099
  286MPD2    H5 4322   2.885   2.118   1.329 -0.4794 -2.7430 -1.8811
  286MPD2    N1 4323   2.356   2.249   1.520 -0.4634 -0.1714  1.1343
  286MPD2    H7 4324   2.319   2.250   1.426 -0.7319 -0.0610  1.2422
  287TMC3    C1 4325   2.832   2.044   1.094  0.5459  0.4397 -0.8506
  287TMC3    C2 4326   2.775   2.020   0.975  0.0813 -0.5407  0.1581
  287TMC3    C3 4327   2.815   1.912   0.904  0.0957 -0.2235  0.5841
  287TMC3    C4 4328   2.944   1.971   1.134 -0.1540 -0.1738 -0.1901
  287TMC3    C5 4329   2.980   1.862   1.054  0.7605 -0.6528  0.0257
  287TMC3    C6 4330   2.916   1.830   0.940 -0.4633  0.2215  0.8207
  287TMC3     C 4331   2.742   2.108   1.186  0.5663  0.0472  0.6254
  287TMC3     O 4332   2.627   2.127   1.149 -0.0417  0.5722  0.2155
  287TMC3     H 4333   2.686   2.073   0.941  1.2227  0.2773 -1.6168
  287TMC3    H1 4334   3.003   2.000   1.219  0.8205 -2.4826 -0.0922
  287TMC3    H2 4335   2.940   1.745   0.878  1.5404  1.4411 -0.1035
  287TMC3    C7 4336   3.107   1.798   1.064 -0.2927  0.5900  0.0476
  287TMC3    C8 4337   2.732   1.871   0.787 -0.5592 -0.6709 -0.0001
  287TMC3    O1 4338   3.129   1.699   0.995 -0.0083 -0.6195 -0.2929
  287TMC3    O2 4339   2.712   1.749   0.775  0.0726  0.4092 -0.8125
  288TMC3    C1 4340   3.439   2.103  14.614  1.1206  0.3461 -0.2326
  288TMC3    C2 4341   3.442   2.077  14.748  0.3147  0.0974  0.7512
  288TMC3    C3 4342   3.404   2.172  14.840  0.6482  0.3865  0.9730
  288TMC3    C4 4343   3.411   2.232  14.567 -0.1570 -0.8256  0.0191
  288TMC3    C5 4344   3.383   2.329  14.660  0.0612  0.6807 -0.3151
  288TMC3    C6 4345   3.367   2.296  14.792 -0.3341  0.1486 -0.5061
  288TMC3     C 4346   3.479   1.997  14.529  0.1036 -0.5297  0.3224
  288TMC3     O 4347   3.513   1.893  14.587 -0.3853 -0.0746  0.0121
  288TMC3     H 4348   3.461   1.976  14.781 -0.2344  0.1771  1.3158
  288TMC3    H1 4349   3.409   2.267  14.465  0.1490  1.2757  0.7231
  288TMC3    H2 4350   3.325   2.367  14.862 -0.8768 -0.3621 -0.3179
  288TMC3    C7 4351   3.342   2.457  14.615  0.1296 -0.3062 -0.2859
  288TMC3    C8 4352   3.394   2.155  14.985  0.4156  0.3055  0.5011
  288TMC3    O1 4353   3.242   2.493  14.675  0.6602  0.0820 -0.1448
  288TMC3    O2 4354   3.411   2.259  15.052 -0.6435  0.2218  0.2979
  289MPD2     C 4355   3.677   1.277  15.182 -0.0698  0.7708  0.0588
  289MPD2    C1 4356   3.723   1.375  15.099  0.2618  0.2090 -0.1384
  289MPD2    C2 4357   3.644   1.403  14.989 -0.7756  0.2500 -0.0572
  289MPD2    C3 4358   3.530   1.332  14.952 -0.3351  0.1591 -0.6097
  289MPD2    C4 4359   3.490   1.238  15.043  0.6141  0.2736 -0.0533
  289MPD2    C5 4360   3.562   1.209  15.153 -0.0733 -0.2855  0.1291
  289MPD2     H 4361   3.672   1.482  14.921 -0.1595 -0.9585 -1.2150
  289MPD2    H1 4362   3.404   1.175  15.022  0.8746  0.5783 -2.0693
  289MPD2    H2 4363   3.731   1.262  15.275 -0.6835 -1.4996  0.0400
  289MPD2    H3 4364   3.516   1.149  15.231  2.0656  0.0693  1.6863
  289MPD2     N 4365   3.455   1.351  14.834  0.0159 -0.3560  0.2923
  289MPD2    H5 4366   3.367   1.302  14.823 -1.1300  2.0319 -1.1692
  289MPD2    N1 4367   3.845   1.442  15.130 -0.1448 -0.3904  0.0115
  289MPD2    H7 4368   3.886   1.431  15.222  0.9469  2.0477 -0.1714
  290TMC3    C1 4369   3.372   1.458  14.640 -0.6005  0.6288  0.2926
  290TMC3    C2 4370   3.333   1.580  14.602 -0.0198 -0.0989 -0.3523
  290TMC3    C3 4371   3.220   1.588  14.525 -0.0636 -0.8593  0.3322
  290TMC3    C4 4372   3.303   1.343  14.601  0.0271 -0.1757  0.0296
  290TMC3    C5 4373   3.198   1.358  14.515 -0.5929  0.0811  0.0772
  290TMC3    C6 4374   3.156   1.481  14.466 -0.2846  0.2118 -0.3266
  290TMC3     C 4375   3.475   1.455  14.742 -0.9932  0.9294  0.5595
  290TMC3     O 4376   3.555   1.547  14.742  0.5386 -0.0600  0.4450
  290TMC3     H 4377   3.390   1.666  14.635 -0.7318  0.5058 -0.6814
  290TMC3    H1 4378   3.325   1.245  14.642  3.6866  0.9056  0.6375
  290TMC3    H2 4379   3.071   1.491  14.399 -0.4264 -0.5593 -0.2626
  290TMC3    C7 4380   3.097   1.253  14.509  0.1503  0.0964  0.3786
  290TMC3    C8 4381   3.157   1.719  14.512 -1.1565 -0.6638  0.2126
  290TMC3    O1 4382   2.986   1.296  14.493 -0.4086  0.3376  0.3441
  290TMC3    O2 4383   3.084   1.734  14.412 -0.0561  0.4726 -0.2995
  291MPD2     C 4384   3.489   0.829   0.834 -0.0599  0.2099  0.4073
  291MPD2    C1 4385   3.401   0.752   0.763  0.0828  0.2244  0.1190
  291MPD2    C2 4386   3.383   0.769   0.625  0.8439  0.2028  0.0508
  291MPD2    C3 4387   3.462   0.865   0.555  0.2924  0.0213 -0.4052
  291MPD2    C4 4388   3.550   0.949   0.630 -0.3265 -0.3849  0.3911
  291MPD2    C5 4389   3.554   0.931   0.766 -0.2371  0.8272 -0.3807
  291MPD2     H 4390   3.316   0.707   0.566  0.1706  1.4103 -0.4497
  291MPD2    H1 4391   3.596   1.039   0.589 -0.8228 -0.1401  0.3683
  291MPD2    H2 4392   3.492   0.831   0.942  0.9600 -0.4385  0.3932
  291MPD2    H3 4393   3.618   0.996   0.823  0.0718 -1.3121  1.6932
  291MPD2     N 4394   3.451   0.895   0.419 -0.1158  0.3373 -0.4771
  291MPD2    H5 4395   3.513   0.962   0.375  1.2970 -0.5642  0.1393
  291MPD2    N1 4396   3.316   0.655   0.829 -0.3396 -0.0397  0.5680
  291MPD2    H7 4397   3.248   0.614   0.766 -0.1984  0.0937  0.3291
  292TMC3    C1 4398   3.206   0.525   0.994  0.7255  0.5137 -0.3743
  292TMC3    C2 4399   3.159   0.524   1.122 -0.6809 -0.4203 -0.8089
  292TMC3    C3 4400   3.039   0.460   1.143 -0.2247 -0.0502 -0.6922
  292TMC3    C4 4401   3.141   0.468   0.883 -0.2698  1.1931 -0.0954
  292TMC3    C5 4402   3.035   0.389   0.920 -0.4190 -0.3335 -0.1008
  292TMC3    C6 4403   2.983   0.383   1.042 -0.4086 -0.1190 -0.2934
  292TMC3     C 4404   3.322   0.613   0.963  0.0559  0.0040  0.2127
  292TMC3     O 4405   3.403   0.636   1.050 -0.1567 -0.3260  0.5066
  292TMC3     H 4406   3.210   0.567   1.208 -1.2761 -2.0402  0.3576
  292TMC3    H1 4407   3.176   0.460   0.781  0.4878  1.3760  0.1550
  292TMC3    H2 4408   2.882   0.346   1.053 -0.4219 -0.3782 -1.3591
  292TMC3    C7 4409   2.972   0.307   0.815 -0.3577  0.5283 -0.0809
  292TMC3    C8 4410   2.965   0.500   1.261  0.2810  0.0541  0.4302
  292TMC3    O1 4411   3.000   0.341   0.703 -0.7931 -0.2216 -0.1368
  292TMC3    O2 4412   3.010   0.596   1.322  0.2906 -0.4009 -0.5634
  293MPD2     C 4413   0.054   3.191  12.546 -0.4904  0.7731  0.2161
  293MPD2    C1 4414   4.695   3.104  12.613 -0.2826 -0.0338  0.2046
  293MPD2    C2 4415   0.011   3.071  12.740 -0.1214  0.2375 -0.3906
  293MPD2    C3 4416   0.127   3.126  12.795 -0.1243  0.5661 -0.1965
  293MPD2    C4 4417   0.206   3.218  12.728  0.5914 -0.7754 -0.0672
  293MPD2    C5 4418   0.165   3.250  12.601  0.2123 -0.9342 -0.6201
  293MPD2     H 4419   4.672   2.998  12.790  1.2738 -0.5367  0.2442
  293MPD2    H1 4420   0.298   3.257  12.769  1.5344 -3.0597 -0.0069
  293MPD2    H2 4421   0.021   3.233  12.451 -1.9495  1.2290  0.9239
  293MPD2    H3 4422   0.234   3.305  12.538 -0.0865  2.4052  1.9164
  293MPD2     N 4423   0.144   3.090  12.931  0.5491 -0.2426  0.0585
  293MPD2    H5 4424   0.054   3.075  12.976  0.5047 -0.3446 -0.0638
  293MPD2    N1 4425   4.576   3.058  12.554 -0.9205  0.1550  0.6864
  293MPD2    H7 4426   4.556   3.076  12.456  0.1629  1.8153  0.7817
  294TMC3    C1 4427   4.373   2.934  12.533  0.1845 -0.1376 -0.3513
  294TMC3    C2 4428   4.278   2.860  12.597  0.3746 -0.1993  0.3968
  294TMC3    C3 4429   4.180   2.801  12.524  0.0635 -0.3565 -0.2509
  294TMC3    C4 4430   4.364   2.947  12.396  0.3357  0.0980 -0.1889
  294TMC3    C5 4431   4.266   2.891  12.331  0.1078 -0.3238  0.4055
  294TMC3    C6 4432   4.169   2.813  12.386  0.3023  0.4363 -0.2642
  294TMC3     C 4433   4.482   2.979  12.618 -0.1074  0.0273 -0.4347
  294TMC3     O 4434   4.472   2.952  12.735 -0.3816  0.3595 -0.0279
  294TMC3     H 4435   4.281   2.837  12.703 -2.6392 -1.5661  0.2036
  294TMC3    H1 4436   4.429   3.022  12.351  0.7451 -0.9625 -1.3575
  294TMC3    H2 4437   4.089   2.767  12.328  0.4783  2.4207 -2.0837
  294TMC3    C7 4438   4.268   2.904  12.187  0.6293 -0.5211 -0.0712
  294TMC3    C8 4439   4.102   2.703  12.600  0.5033 -0.5043 -0.2041
  294TMC3    O1 4440   4.172   2.855  12.124  0.4447  0.3034  0.4901
  294TMC3    O2 4441   4.086   2.721  12.719  0.4692  1.1340  0.1106
  295MPD2     C 4442   1.333   1.729   0.282  0.9457 -0.4168  0.4303
  295MPD2    C1 4443   1.214   1.668   0.245  0.3814  0.8215 -0.4380
  295MPD2    C2 4444   1.186   1.541   0.298 -0.0228  0.3737 -0.0165
  295MPD2    C3 4445   1.276   1.486   0.393  0.2444  0.3107 -0.3982
  295MPD2    C4 4446   1.400   1.544   0.413  0.1665 -0.5505  0.3128
  295MPD2    C5 4447   1.429   1.664   0.357  0.0409  0.0269 -0.0625
  295MPD2     H 4448   1.102   1.482   0.263 -0.8134  2.7494 -2.0889
  295MPD2    H1 4449   1.477   1.487   0.464 -0.8699 -0.2003  2.2713
  295MPD2    H2 4450   1.368   1.824   0.242  0.9681 -0.6822 -0.1792
  295MPD2    H3 4451   1.525   1.712   0.373 -0.8287  2.3612 -1.7552
  295MPD2     N 4452   1.253   1.376   0.471  0.3795 -0.3171  0.5562
  295MPD2    H5 4453   1.327   1.365   0.540 -0.8911 -3.9399  1.3527
  295MPD2    N1 4454   1.127   1.720   0.152  0.0892  0.0436 -0.6037
  295MPD2    H7 4455   1.050   1.659   0.125 -0.1338 -0.2379  0.6656
  296TMC3    C1 4456   1.146   1.203   0.590  0.0745 -0.5552 -0.2666
  296TMC3    C2 4457   1.240   1.221   0.693 -0.4438  0.2711 -0.4828
  296TMC3    C3 4458   1.220   1.156   0.806  0.0247 -0.1867 -0.6617
  296TMC3    C4 4459   1.045   1.115   0.603  0.3207 -0.4161  0.5552
  296TMC3    C5 4460   1.021   1.051   0.721  0.2373  0.2665  0.3283
  296TMC3    C6 4461   1.112   1.064   0.822 -0.6288 -0.2510 -0.3374
  296TMC3     C 4462   1.140   1.295   0.479 -0.1889 -0.1425  0.4011
  296TMC3     O 4463   1.040   1.292   0.407  0.0654  0.9866 -0.7975
  296TMC3     H 4464   1.331   1.277   0.677 -0.3780  0.4852  0.6508
  296TMC3    H1 4465   0.978   1.116   0.518  0.2558 -2.4998  0.5783
  296TMC3    H2 4466   1.101   1.006   0.913 -0.4592  0.8612  0.3927
  296TMC3    C7 4467   0.899   0.980   0.740  0.1311  0.1324 -0.1080
  296TMC3    C8 4468   1.319   1.181   0.913  0.1610  0.4929 -0.2341
  296TMC3    O1 4469   0.807   1.005   0.667  0.3011 -0.2303 -0.6339
  296TMC3    O2 4470   1.428   1.228   0.876  0.1568 -0.7239 -0.7278
  297MPD2     C 4471   2.402   3.186  16.475 -0.2192 -0.1548  0.5235
  297MPD2    C1 4472   2.399   3.259  16.355  0.1474  0.2526  0.1272
  297MPD2    C2 4473   2.514   3.290  16.290 -0.3170  0.1106 -0.0491
  297MPD2    C3 4474   2.630   3.288  16.360  0.7434 -0.0536  0.1958
  297MPD2    C4 4475   2.633   3.228  16.488  0.4869 -0.2464  0.5229
  297MPD2    C5 4476   2.523   3.170  16.538  0.3979  0.4221 -0.9249
  297MPD2     H 4477   2.523   3.324  16.188  0.2395 -1.0458 -0.3921
  297MPD2    H1 4478   2.715   3.222  16.558  0.7681  1.8847  0.3727
  297MPD2    H2 4479   2.311   3.150  16.521 -0.1543 -1.7148 -0.5631
  297MPD2    H3 4480   2.526   3.126  16.637  1.3325  0.2531 -1.0329
  297MPD2     N 4481   2.738   3.358  16.304 -0.6243 -0.1159 -0.7280
  297MPD2    H5 4482   2.732   3.414  16.219 -1.6482  0.3755 -0.3275
  297MPD2    N1 4483   2.278   3.287  16.291 -0.4317  0.6109 -0.2762
  297MPD2    H7 4484   2.290   3.327  16.199 -0.8695  0.9505 -0.1866
  298TMC3    C1 4485   2.056   3.352  16.275 -0.3331  0.6286 -0.2846
  298TMC3    C2 4486   2.032   3.306  16.155 -0.6350  0.0648 -0.2822
  298TMC3    C3 4487   1.932   3.359  16.078 -0.2280  0.2126 -0.1196
  298TMC3    C4 4488   1.992   3.456  16.333 -0.7312 -0.3351 -0.0754
  298TMC3    C5 4489   1.893   3.517  16.254 -0.0894  0.4820  0.3822
  298TMC3    C6 4490   1.859   3.468  16.129 -0.5604 -0.0488  0.2327
  298TMC3     C 4491   2.156   3.294  16.357 -0.2798 -0.0738  0.0951
  298TMC3     O 4492   2.137   3.283  16.477 -0.5037 -0.8265  0.0627
  298TMC3     H 4493   2.102   3.237  16.109 -0.1898  0.9332 -0.9373
  298TMC3    H1 4494   2.020   3.490  16.432 -0.2042 -3.0261  0.6972
  298TMC3    H2 4495   1.771   3.496  16.073 -2.1845 -3.0076  1.3084
  298TMC3    C7 4496   1.827   3.630  16.318 -0.2240 -0.6599  1.0285
  298TMC3    C8 4497   1.955   3.345  15.935  1.0961 -0.1317 -0.3792
  298TMC3    O1 4498   1.841   3.623  16.441  0.2789 -0.3962 -0.1746
  298TMC3    O2 4499   2.009   3.243  15.903 -0.0485 -0.0768  0.2480
  299MPD2     C 4500   3.274   3.531  10.541  0.2049  0.0157  0.3327
  299MPD2    C1 4501   3.235   3.619  10.442  0.0133  0.4557  0.5213
  299MPD2    C2 4502   3.138   3.575  10.347  0.4583  0.0661  0.3305
  299MPD2    C3 4503   3.077   3.451  10.360 -0.1160  0.3913  0.1801
  299MPD2    C4 4504   3.136   3.352  10.446  0.9062  0.1656 -0.0641
  299MPD2    C5 4505   3.230   3.400  10.542 -0.7421  0.6901 -0.2140
  299MPD2     H 4506   3.099   3.644  10.273 -1.6216 -0.3377  1.0718
  299MPD2    H1 4507   3.110   3.247  10.441 -0.5913  0.4596  1.2941
  299MPD2    H2 4508   3.350   3.556  10.614 -0.3237 -0.9881  1.2095
  299MPD2    H3 4509   3.279   3.335  10.614  0.5356  1.2142 -0.6128
  299MPD2     N 4510   2.968   3.403  10.276  0.4698 -0.6295 -0.3854
  299MPD2    H5 4511   2.929   3.310  10.293 -0.6306 -0.1188 -0.0852
  299MPD2    N1 4512   3.268   3.753  10.459 -0.1823  0.4842 -0.4887
  299MPD2    H7 4513   3.298   3.774  10.554 -0.7267  1.0516 -0.4440
  300TMC3    C1 4514   2.767   3.414  10.146 -0.4243 -0.6512  0.2712
  300TMC3    C2 4515   2.696   3.495  10.068 -0.5749  0.3352 -0.8040
  300TMC3    C3 4516   2.561   3.496  10.069  0.3298 -0.5611 -0.0802
  300TMC3    C4 4517   2.700   3.339  10.240  0.4721  0.6273  0.1650
  300TMC3    C5 4518   2.567   3.350  10.252 -0.7356  0.7325 -0.1544
  300TMC3    C6 4519   2.495   3.431  10.171 -0.4455  0.1313  0.1514
  300TMC3     C 4520   2.893   3.477  10.183 -0.5040 -0.0570  0.7872
  300TMC3     O 4521   2.904   3.600  10.168  0.9330 -0.8647  0.6238
  300TMC3     H 4522   2.749   3.565  10.004  1.4104  0.7594  1.3334
  300TMC3    H1 4523   2.751   3.285  10.320 -1.0359 -1.5242 -0.3240
  300TMC3    H2 4524   2.387   3.423  10.167 -0.4731  0.9477 -0.8674
  300TMC3    C7 4525   2.517   3.312  10.385  0.3614  0.6153 -0.2537
  300TMC3    C8 4526   2.502   3.615  10.018 -0.5802  0.9277 -0.1809
  300TMC3    O1 4527   2.576   3.218  10.440 -0.1967  0.1858 -0.1768
  300TMC3    O2 4528   2.420   3.607   9.922 -0.2924 -0.0523  0.4735
  301MPD2     C 4529   1.147   4.265   1.842 -0.8498 -0.3195 -0.8510
  301MPD2    C1 4530   1.167   4.333   1.724  0.3409 -0.2326 -0.4233
  301MPD2    C2 4531   1.200   4.258   1.616 -0.3474  0.3268  0.6553
  301MPD2    C3 4532   1.217   4.119   1.621 -0.3188 -0.5794 -0.3049
  301MPD2    C4 4533   1.202   4.052   1.740  0.3861 -0.5271 -0.4836
  301MPD2    C5 4534   1.156   4.128   1.845  0.7656 -0.8049 -0.8505
  301MPD2     H 4535   1.204   4.308   1.520  0.4056  0.2340  0.6412
  301MPD2    H1 4536   1.221   3.945   1.750  1.3462 -0.1503  1.6570
  301MPD2    H2 4537   1.130   4.318   1.934 -1.0419  0.0136 -1.0780
  301MPD2    H3 4538   1.151   4.082   1.943  0.7502  0.5175 -0.2333
  301MPD2     N 4539   1.247   4.044   1.509 -0.4494 -0.1710 -0.2751
  301MPD2    H5 4540   1.257   3.945   1.526 -1.1254  0.1968  2.2217
  301MPD2    N1 4541   1.147   4.479   1.723  0.6722  0.0568  0.1113
  301MPD2    H7 4542   1.090   4.515   1.799 -1.0536  0.6582 -1.4745
  302TMC3    C1 4543   1.271   4.008   1.289  0.6151 -0.7543  0.4963
  302TMC3    C2 4544   1.317   3.879   1.294  0.3626 -0.0723  0.2811
  302TMC3    C3 4545   1.320   3.814   1.169 -0.3554  0.3454  0.4082
  302TMC3    C4 4546   1.244   4.074   1.175 -0.2309 -0.3875  0.1301
  302TMC3    C5 4547   1.244   4.004   1.060  0.1673  0.4493 -0.4972
  302TMC3    C6 4548   1.286   3.875   1.055  0.5758 -0.7174  0.7477
  302TMC3     C 4549   1.301   4.093   1.399  0.2531 -0.1938 -0.6454
  302TMC3     O 4550   1.349   4.206   1.386  0.0853  0.1539 -0.0615
  302TMC3     H 4551   1.341   3.823   1.384 -1.8022 -1.0519  0.2582
  302TMC3    H1 4552   1.207   4.176   1.175 -0.8906 -0.6238  1.9605
  302TMC3    H2 4553   1.285   3.819   0.963  0.4159 -1.2844  1.0934
  302TMC3    C7 4554   1.240   4.065   0.927 -0.2688  0.0124 -0.4567
  302TMC3    C8 4555   1.295   3.667   1.160 -0.0102 -1.1109 -0.0448
  302TMC3    O1 4556   1.286   3.999   0.837  0.5195 -0.6547  0.8786
  302TMC3    O2 4557   1.292   3.614   1.048 -0.1884  0.9047  0.6325
  303MPD2     C 4558   0.410   2.674  10.209 -0.0552 -0.1971  0.0346
  303MPD2    C1 4559   0.340   2.778  10.253  0.1155 -0.0778 -0.0607
  303MPD2    C2 4560   0.394   2.904  10.250 -0.3609  0.8798 -0.2255
  303MPD2    C3 4561   0.518   2.935  10.198  0.2361  0.4111 -0.2526
  303MPD2    C4 4562   0.590   2.827  10.165 -0.2607 -0.5063 -0.8477
  303MPD2    C5 4563   0.545   2.693  10.173 -0.3184 -0.0552 -0.5089
  303MPD2     H 4564   0.326   2.986  10.266 -2.0104 -0.9447  2.1918
  303MPD2    H1 4565   0.688   2.841  10.121  0.6231  0.2891  1.4055
  303MPD2    H2 4566   0.373   2.573  10.221  0.1089 -0.3771 -0.9648
  303MPD2    H3 4567   0.607   2.611  10.137  1.7512  1.6536 -0.8638
  303MPD2     N 4568   0.565   3.068  10.173  0.1808 -0.0395  0.1373
  303MPD2    H5 4569   0.663   3.074  10.148  0.2527  2.3984  1.0435
  303MPD2    N1 4570   0.209   2.752  10.305  0.1297  0.1572 -0.5035
  303MPD2    H7 4571   0.180   2.655  10.306  1.6571 -0.2669  0.9904
  304TMC3    C1 4572   0.025   2.761  10.446  0.2831  0.0659  0.4397
  304TMC3    C2 4573   4.702   2.816  10.562 -0.2002 -0.5262 -0.2179
  304TMC3    C3 4574   4.569   2.821  10.583 -0.0756  0.2671  0.5749
  304TMC3    C4 4575   4.661   2.705  10.355 -0.6068 -0.2361 -0.6541
  304TMC3    C5 4576   4.529   2.698  10.392 -0.1661  0.0637  0.0829
  304TMC3    C6 4577   4.485   2.756  10.505 -0.0031 -0.3645  0.4042
  304TMC3     C 4578   0.135   2.834  10.389  0.6030  0.4692 -0.0251
  304TMC3     O 4579   0.152   2.949  10.436  0.1851  0.2642  0.1086
  304TMC3     H 4580   0.054   2.863  10.623  0.4967  0.9690 -2.2659
  304TMC3    H1 4581   4.695   2.679  10.256 -2.8596  1.8348 -1.9692
  304TMC3    H2 4582   4.378   2.747  10.520 -0.1338 -0.0572 -0.3316
  304TMC3    C7 4583   4.437   2.712  10.281 -0.0996  0.0424  0.1858
  304TMC3    C8 4584   4.529   2.960  10.599 -0.1162  0.1598 -0.6831
  304TMC3    O1 4585   4.463   2.649  10.182  0.1142 -0.3881  0.0272
  304TMC3    O2 4586   4.429   2.984  10.533  0.2888 -0.2655 -0.6054
  305MPD2     C 4587   2.913   4.492  13.758 -0.4604 -0.1736 -0.3277
  305MPD2    C1 4588   3.043   4.483  13.750  0.5196 -0.1203 -0.8987
  305MPD2    C2 4589   3.105   4.463  13.633  0.5253 -0.4068  0.3183
  305MPD2    C3 4590   3.031   4.457  13.517  0.9740  0.0033 -0.9255
  305MPD2    C4 4591   2.896   4.469  13.517  0.4524 -0.3956  0.1235
  305MPD2    C5 4592   2.845   4.501  13.641 -0.5282  0.0680  0.7264
  305MPD2     H 4593   3.214   4.463  13.634  0.5174  1.4425  0.7004
  305MPD2    H1 4594   2.836   4.480  13.428  1.8432 -1.5888 -0.9518
  305MPD2    H2 4595   2.861   4.504  13.853 -1.5212 -2.4841 -0.6141
  305MPD2    H3 4596   2.739   4.521  13.650 -0.6439 -0.1991 -0.0531
  305MPD2     N 4597   3.102   4.437  13.393  0.3842  0.4478 -0.1641
  305MPD2    H5 4598   3.051   4.455  13.307  1.1516  1.4743 -0.4160
  305MPD2    N1 4599   3.118   4.512  13.867  1.1044  0.2691  0.0665
  305MPD2    H7 4600   3.058   4.533  13.947  0.7370 -0.4649 -0.0217
  306TMC3    C1 4601   3.296   4.535  14.020 -0.1093 -0.3149  0.0592
  306TMC3    C2 4602   3.398   4.462  14.083 -0.0324 -0.2930 -0.2941
  306TMC3    C3 4603   3.485   4.529  14.165 -0.6127 -0.2102 -0.3524
  306TMC3    C4 4604   3.284   4.677  14.028  0.7959 -0.5220  0.0078
  306TMC3    C5 4605   3.380   0.012  14.116 -0.0587 -0.2935  0.6400
  306TMC3    C6 4606   3.482   4.666  14.176  0.6593  0.1863  0.0921
  306TMC3     C 4607   3.246   4.469  13.901  0.4930  0.5121  0.0492
  306TMC3     O 4608   3.328   4.407  13.834 -0.4504 -0.4623  0.4580
  306TMC3     H 4609   3.406   4.355  14.065  0.5614 -0.3142  0.1106
  306TMC3    H1 4610   3.211   0.004  13.967 -0.7425 -1.0708  1.3702
  306TMC3    H2 4611   3.556   4.720  14.234 -1.1075  2.7902 -0.1019
  306TMC3    C7 4612   3.325   0.129  14.174  0.6654 -0.1040 -0.7060
  306TMC3    C8 4613   3.546   4.454  14.275  0.1838 -0.0457  0.0980
  306TMC3    O1 4614   3.218   0.174  14.137 -0.4121  0.5021 -0.2940
  306TMC3    O2 4615   3.638   4.511  14.333 -0.0886  0.0916 -0.3087
  307MPD2     C 4616   1.515   2.153   0.285  0.7010  0.9302  0.2386
  307MPD2    C1 4617   1.481   2.286   0.303 -0.2836  0.9689 -0.7127
  307MPD2    C2 4618   1.406   2.324   0.411 -0.0070 -0.0826 -0.0206
  307MPD2    C3 4619   1.356   2.229   0.492  0.3108 -0.0788  0.3897
  307MPD2    C4 4620   1.398   2.100   0.476 -0.2562 -0.9600  0.2141
  307MPD2    C5 4621   1.480   2.060   0.381  0.0442 -0.0924  0.3199
  307MPD2     H 4622   1.395   2.431   0.424 -0.0137  0.0257 -0.9023
  307MPD2    H1 4623   1.374   2.027   0.552 -1.7678  0.4448  1.0835
  307MPD2    H2 4624   1.584   2.118   0.209  0.2659  1.6110 -0.4705
  307MPD2    H3 4625   1.533   1.967   0.370 -0.1441 -0.1426 -0.1629
  307MPD2     N 4626   1.250   2.261   0.585  0.6876  0.4020  0.5222
  307MPD2    H5 4627   1.221   2.182   0.641  1.3178 -0.1787  0.0235
  307MPD2    N1 4628   1.514   2.377   0.209 -0.6381 -0.0131  0.1849
  307MPD2    H7 4629   1.486   2.472   0.229 -1.2689  0.1838 -1.6383
  308TMC3    C1 4630   0.857   2.386   0.709 -0.2291 -0.1392 -1.3845
  308TMC3    C2 4631   0.855   2.480   0.808 -0.1072  0.0243  0.6084
  308TMC3    C3 4632   0.970   2.539   0.852 -0.6937  0.4165  0.9874
  308TMC3    C4 4633   0.974   2.341   0.662 -0.3689 -0.2101 -0.4363
  308TMC3    C5 4634   1.087   2.390   0.710  0.7697 -0.4417  0.1813
  308TMC3    C6 4635   1.093   2.498   0.796  0.2604  0.2647  0.2642
  308TMC3     C 4636   0.743   2.343   0.636  0.4652 -0.2782 -0.3129
  308TMC3     O 4637   0.756   2.235   0.579 -0.0776  0.1318 -0.0875
  308TMC3     H 4638   0.754   2.507   0.839 -0.6079  1.1160 -1.9912
  308TMC3    H1 4639   0.971   2.275   0.576 -1.8460  0.5403 -0.9627
  308TMC3    H2 4640   1.190   2.544   0.814  0.4454  0.3129 -0.8616
  308TMC3    C7 4641   1.208   2.384   0.622  0.2359  0.3523  0.1166
  308TMC3    C8 4642   0.967   2.655   0.931 -0.0826 -0.2239 -0.5193
  308TMC3    O1 4643   1.233   2.492   0.568  0.5997 -0.3620 -0.0928
  308TMC3    O2 4644   0.911   2.654   1.040  0.1432  0.2490  0.1926
  309MPD2     C 4645   0.430   3.047  17.228  0.6091 -0.7479 -0.7393
  309MPD2    C1 4646   0.386   3.145  17.144 -0.1354 -0.1230 -0.2577
  309MPD2    C2 4647   0.292   3.226  17.188 -0.3726 -0.6234 -1.0086
  309MPD2    C3 4648   0.243   3.223  17.315  0.8132  0.1532 -0.3647
  309MPD2    C4 4649   0.289   3.128  17.405  0.1506 -0.4389  0.2308
  309MPD2    C5 4650   0.392   3.047  17.357 -0.1772  0.1446  0.0292
  309MPD2     H 4651   0.254   3.296  17.115  2.2517  0.7500 -1.0695
  309MPD2    H1 4652   0.253   3.126  17.507 -0.8755  0.0509 -0.1249
  309MPD2    H2 4653   0.483   2.957  17.199 -0.1711 -1.1507 -0.8938
  309MPD2    H3 4654   0.431   2.970  17.422  2.7937 -1.1935 -3.3226
  309MPD2     N 4655   0.139   3.308  17.360 -0.2087 -0.0674  0.1454
  309MPD2    H5 4656   0.095   3.279  17.447  1.5407  1.9195  1.6830
  309MPD2    N1 4657   0.427   3.143  17.009  0.4952  0.3170 -0.1386
  309MPD2    H7 4658   0.379   3.210  16.950  0.0689  0.8889  0.8540
  310TMC3    C1 4659   0.531   3.091  16.811  1.1635 -0.4067 -0.4092
  310TMC3    C2 4660   0.461   3.193  16.754  0.3209 -0.2271  0.2343
  310TMC3    C3 4661   0.484   3.228  16.627  0.3177 -0.6303 -0.3584
  310TMC3    C4 4662   0.614   3.014  16.733  0.0677  0.0068 -0.2130
  310TMC3    C5 4663   0.631   3.050  16.605 -0.1857  0.3885 -0.8315
  310TMC3    C6 4664   0.570   3.158  16.550 -0.5599  0.9261 -0.1580
  310TMC3     C 4665   0.528   3.071  16.952  1.3384 -0.2789  0.3547
  310TMC3     O 4666   0.598   2.980  16.996 -0.2862  0.2123 -0.1141
  310TMC3     H 4667   0.408   3.265  16.814 -2.6198  0.2808 -2.9948
  310TMC3    H1 4668   0.651   2.924  16.781  2.1747  1.6140  1.1804
  310TMC3    H2 4669   0.580   3.170  16.442 -2.5325 -1.4187 -0.6283
  310TMC3    C7 4670   0.694   2.948  16.520 -0.1691  0.6777 -0.4159
  310TMC3    C8 4671   0.406   3.322  16.562  0.4880 -0.2612 -0.6931
  310TMC3    O1 4672   0.708   2.833  16.565 -0.1311  0.5712  0.7074
  310TMC3    O2 4673   0.434   3.325  16.440  0.0615 -0.3270 -0.1710
  311MPD2     C 4674   2.338   0.658  12.017 -0.2837  0.0805 -0.3716
  311MPD2    C1 4675   2.450   0.578  12.028 -0.5289 -0.6514 -0.6105
  311MPD2    C2 4676   2.435   0.454  12.087  0.2354 -0.2377 -0.2494
  311MPD2    C3 4677   2.321   0.416  12.147  0.6191 -0.4940  0.0315
  311MPD2    C4 4678   2.208   0.500  12.151 -0.1285  0.4232 -0.0106
  311MPD2    C5 4679   2.219   0.619  12.074 -0.6368  0.5950 -0.3447
  311MPD2     H 4680   2.519   0.386  12.087  0.1918 -0.2921  0.7557
  311MPD2    H1 4681   2.114   0.462  12.189  0.2686 -0.0062  0.5470
  311MPD2    H2 4682   2.341   0.756  11.971  0.2060  0.2139 -0.0521
  311MPD2    H3 4683   2.133   0.686  12.074 -0.0550  1.3480 -0.1474
  311MPD2     N 4684   2.327   0.286  12.207 -0.3452  0.2333  0.0972
  311MPD2    H5 4685   2.410   0.233  12.184 -0.5772 -1.1431  2.3915
  311MPD2    N1 4686   2.567   0.633  11.984  0.0625 -0.0631  0.1497
  311MPD2    H7 4687   2.558   0.726  11.943  0.4229  0.2551  0.7950
  312TMC3    C1 4688   2.238   0.086  12.294  0.4754 -0.3402  0.0466
  312TMC3    C2 4689   2.123   0.020  12.323  0.2982 -0.1817  0.7858
  312TMC3    C3 4690   2.119   4.645  12.418  0.1491 -0.2713 -0.5419
  312TMC3    C4 4691   2.351   0.050  12.364  0.7403  0.1154  0.2339
  312TMC3    C5 4692   2.346   4.672  12.454  0.2723  0.8875  0.2660
  312TMC3    C6 4693   2.229   4.603  12.481  0.1095  0.6872 -0.8511
  312TMC3     C 4694   2.219   0.226  12.266 -0.1699 -0.7348 -0.0079
  312TMC3     O 4695   2.110   0.279  12.298  0.7701  0.3137 -0.3389
  312TMC3     H 4696   2.033   0.061  12.279 -0.4186 -2.4630  0.1072
  312TMC3    H1 4697   2.443   0.107  12.365  0.0044  1.2885  0.9240
  312TMC3    H2 4698   2.238   4.509  12.534 -3.0484  0.3893 -0.8638
  312TMC3    C7 4699   2.466   4.645  12.538  0.7512 -0.5984 -0.5492
  312TMC3    C8 4700   1.987   4.593  12.454  0.0549  0.1532 -0.0501
  312TMC3    O1 4701   2.578   4.656  12.490  0.4165 -0.3772  0.0433
  312TMC3    O2 4702   1.896   4.636  12.385 -0.0361  0.6758 -0.3333
  313MPD2     C 4703   2.326   3.941  10.670  0.8251 -0.1755  0.3388
  313MPD2    C1 4704   2.230   4.017  10.600 -0.0457  0.2798  0.9653
  313MPD2    C2 4705   2.195   3.984  10.475  0.2863 -0.2529 -0.5054
  313MPD2    C3 4706   2.251   3.868  10.420 -0.5896 -0.1701 -0.2382
  313MPD2    C4 4707   2.360   3.803  10.480  0.2621  0.1559 -0.2467
  313MPD2    C5 4708   2.395   3.847  10.604  0.4831  0.1170  0.0808
  313MPD2     H 4709   2.110   4.037  10.432  2.0009  0.6033 -2.8560
  313MPD2    H1 4710   2.402   3.709  10.448 -1.1120 -1.4521  2.6494
  313MPD2    H2 4711   2.343   3.960  10.776  1.9550  2.4339 -0.3066
  313MPD2    H3 4712   2.483   3.801  10.647  1.2966  2.0884  0.5205
  313MPD2     N 4713   2.181   3.810  10.310 -0.1523  0.0994  0.1727
  313MPD2    H5 4714   2.108   3.871  10.275  0.1778  1.4063  1.7523
  313MPD2    N1 4715   2.154   4.124  10.659  0.0829  0.8802  0.5556
  313MPD2    H7 4716   2.095   4.183  10.600 -0.6442 -0.3018  0.1074
  314TMC3    C1 4717   2.111   4.290  10.809  0.1319  0.2378  0.4959
  314TMC3    C2 4718   2.193   4.385  10.867  0.0914 -0.1206  0.1851
  314TMC3    C3 4719   2.146   4.517  10.885 -0.5793 -0.1975  0.0826
  314TMC3    C4 4720   1.991   4.319  10.760  0.4009  0.5855 -0.5499
  314TMC3    C5 4721   1.950   4.447  10.765 -0.4563  0.4204 -0.1825
  314TMC3    C6 4722   2.027   4.544  10.829  0.0648 -0.3191 -0.3273
  314TMC3     C 4723   2.169   4.163  10.788  0.0519 -0.2870 -0.1179
  314TMC3     O 4724   2.229   4.113  10.882  0.3425 -0.3341 -0.0188
  314TMC3     H 4725   2.296   4.359  10.887  0.5751  0.2325 -1.7990
  314TMC3    H1 4726   1.936   4.246  10.702  1.3375 -1.8128  1.5752
  314TMC3    H2 4727   1.989   4.645  10.838 -0.9742 -0.8237  0.8742
  314TMC3    C7 4728   1.886   4.490  10.647 -0.3477  0.0913  0.8829
  314TMC3    C8 4729   2.248   4.612  10.854 -0.1136  0.6394  0.5157
  314TMC3    O1 4730   1.940   4.578  10.581 -0.0306 -0.0167 -0.9227
  314TMC3    O2 4731   2.327   4.651  10.940 -0.0200 -0.0712 -0.1736
  315MPD2     C 4732   1.859   3.189  17.371 -0.0986  0.5945  0.2096
  315MPD2    C1 4733   1.923   3.191  17.492  0.5283  1.1576  0.0654
  315MPD2    C2 4734   2.004   3.301  17.527 -0.2573 -0.5058 -0.0143
  315MPD2    C3 4735   2.015   3.405  17.436  0.4497  0.2717  0.0233
  315MPD2    C4 4736   1.940   3.406  17.321  0.7009  0.1410 -0.4413
  315MPD2    C5 4737   1.860   3.297  17.289 -0.8407 -0.1945 -0.3493
  315MPD2     H 4738   2.059   3.310  17.620  0.6275 -0.9048 -0.5038
  315MPD2    H1 4739   1.935   3.493  17.256  1.0711 -0.8361 -1.7713
  315MPD2    H2 4740   1.798   3.102  17.345 -1.2035  1.0442  1.3069
  315MPD2    H3 4741   1.811   3.288  17.193 -0.9141  1.7467 -0.4907
  315MPD2     N 4742   2.093   3.516  17.476  0.0230 -0.1943  1.3397
  315MPD2    H5 4743   2.121   3.523  17.573 -0.4721  1.2874  1.3726
  315MPD2    N1 4744   1.921   3.082  17.583  0.0687 -0.2486  0.2137
  315MPD2    H7 4745   1.981   3.090  17.664 -0.3323  0.1900  0.4606
  316TMC3    C1 4746   2.179   3.745  17.486  0.1399 -0.8011  0.1870
  316TMC3    C2 4747   2.227   3.731  17.612  0.1838 -0.1193 -0.0255
  316TMC3    C3 4748   2.263   3.843  17.684 -1.1672  0.5960 -0.2664
  316TMC3    C4 4749   2.177   3.864  17.424 -0.1782 -0.0067  0.3428
  316TMC3    C5 4750   2.208   3.979  17.509 -0.3104  0.3961  0.1654
  316TMC3    C6 4751   2.263   3.974  17.635  0.0536 -0.4109  0.6435
  316TMC3     C 4752   2.110   3.636  17.410  0.0180  0.4300  0.0851
  316TMC3     O 4753   2.083   3.656  17.292  0.2573  0.0550 -0.6570
  316TMC3     H 4754   2.240   3.627  17.642 -0.0268  0.3911  1.8235
  316TMC3    H1 4755   2.141   3.877  17.322  1.5369  1.7256 -0.0500
  316TMC3    H2 4756   2.294   4.061  17.692  2.7075  0.1456 -1.6581
  316TMC3    C7 4757   2.199   4.109  17.446  0.1459 -0.2822 -0.2510
  316TMC3    C8 4758   2.313   3.827   0.125  0.9269  0.2612  0.4801
  316TMC3    O1 4759   2.269   4.203  17.478  0.0815  0.5271 -0.0418
  316TMC3    O2 4760   2.346   3.930   0.184  0.1337 -0.4267 -0.4084
  317MPD2     C 4761   3.176   1.603  13.009  1.0565  0.0932  0.2807
  317MPD2    C1 4762   3.305   1.590  12.979 -0.0739 -0.2609  0.0101
  317MPD2    C2 4763   3.391   1.535  13.074 -0.3235  0.4253  0.2002
  317MPD2    C3 4764   3.345   1.509  13.197 -0.8469 -0.3369 -0.0333
  317MPD2    C4 4765   3.210   1.528  13.231  0.0179 -0.3124 -0.2333
  317MPD2    C5 4766   3.128   1.577  13.132  0.5685 -1.1929 -0.6097
  317MPD2     H 4767   3.498   1.525  13.068 -0.7232 -2.5547 -1.7463
  317MPD2    H1 4768   3.170   1.514  13.330  1.0470  0.6294  0.3157
  317MPD2    H2 4769   3.105   1.652  12.942  0.6681 -2.5703 -1.2531
  317MPD2    H3 4770   3.025   1.605  13.149  1.0436  0.6105 -0.6445
  317MPD2     N 4771   3.437   1.455  13.291  0.3721  0.4040  0.5331
  317MPD2    H5 4772   3.527   1.427  13.255 -0.1656 -2.2990  1.3169
  317MPD2    N1 4773   3.344   1.638  12.850  0.2438  0.0208 -0.1634
  317MPD2    H7 4774   3.436   1.613  12.815  1.0886  1.0055  1.3438
  318TMC3    C1 4775   3.511   1.317  13.467  0.1478  0.1062 -0.3830
  318TMC3    C2 4776   3.471   1.183  13.439  0.0098 -0.0053 -0.0287
  318TMC3    C3 4777   3.560   1.104  13.380 -0.6945 -0.0346 -0.7048
  318TMC3    C4 4778   3.639   1.367  13.454 -0.0839 -0.0915  0.1727
  318TMC3    C5 4779   3.730   1.267  13.424 -0.5318  0.2344  0.0484
  318TMC3    C6 4780   3.692   1.150  13.366 -0.6757 -0.0779  1.0184
  318TMC3     C 4781   3.407   1.408  13.418 -0.0426 -0.0911  0.3064
  318TMC3     O 4782   3.298   1.382  13.464  0.4979 -0.0282 -0.2761
  318TMC3     H 4783   3.364   1.165  13.443  0.2484 -1.1065  1.4690
  318TMC3    H1 4784   3.648   1.472  13.480  1.5261 -0.4670  1.1517
  318TMC3    H2 4785   3.773   1.091  13.324 -1.8320 -1.0540  0.1562
  318TMC3    C7 4786   3.869   1.315  13.410 -0.1932  0.4831  0.7520
  318TMC3    C8 4787   3.506   1.040  13.263  0.6521  0.1479 -0.0783
  318TMC3    O1 4788   3.873   1.434  13.406  0.4370  0.2452 -0.5714
  318TMC3    O2 4789   3.567   0.941  13.223  0.1261 -0.5207 -0.2747
  319MPD2     C 4790   3.699   3.033  16.847 -0.2432 -0.2799 -0.0511
  319MPD2    C1 4791   3.764   2.913  16.813 -0.2251 -0.5342 -0.0559
  319MPD2    C2 4792   3.694   2.814  16.741 -0.9886  1.0452  0.2834
  319MPD2    C3 4793   3.560   2.835  16.717  0.1826 -0.6583 -0.9618
  319MPD2    C4 4794   3.498   2.948  16.755  0.1175  0.9102 -0.0828
  319MPD2    C5 4795   3.564   3.046  16.818 -0.3247  0.1488 -0.6756
  319MPD2     H 4796   3.746   2.737  16.685 -2.2390  1.6979 -1.7453
  319MPD2    H1 4797   3.392   2.957  16.730 -0.4529  1.6529  2.5786
  319MPD2    H2 4798   3.755   3.115  16.890  1.2800 -0.9305 -0.8040
  319MPD2    H3 4799   3.505   3.134  16.840 -2.5064 -0.9955 -1.9213
  319MPD2     N 4800   3.482   2.753  16.635 -0.4161 -0.6439 -0.7586
  319MPD2    H5 4801   3.382   2.765  16.650  0.0971  1.7772  0.6970
  319MPD2    N1 4802   3.901   2.883  16.840  0.3464 -0.2094 -0.4921
  319MPD2    H7 4803   3.948   2.806  16.793  0.4229  1.5130 -3.2561
  320TMC3    C1 4804   3.421   2.571  16.510  0.4385 -0.3287 -0.1059
  320TMC3    C2 4805   3.380   2.647  16.398  1.3710  0.2419 -0.2860
  320TMC3    C3 4806   3.391   2.583  16.276 -0.0212  0.0124 -0.0983
  320TMC3    C4 4807   3.436   2.436  16.505  0.3575 -0.3913 -0.1570
  320TMC3    C5 4808   3.446   2.383  16.374  0.4121  0.4093 -0.2069
  320TMC3    C6 4809   3.430   2.451  16.256  0.2869  0.6860  0.3529
  320TMC3     C 4810   3.522   2.633  16.590 -0.2459 -0.2096 -0.2582
  320TMC3     O 4811   3.623   2.570  16.594  0.5308  0.5965 -0.3623
  320TMC3     H 4812   3.373   2.755  16.397 -1.2740  0.0813  0.2988
  320TMC3    H1 4813   3.453   2.376  16.593  0.5993 -1.3349 -0.8508
  320TMC3    H2 4814   3.431   2.407  16.157 -0.7742  0.2002  0.5594
  320TMC3    C7 4815   3.513   2.262  16.368 -0.1936  0.8353 -0.1247
  320TMC3    C8 4816   3.457   2.673  16.185  0.6464 -0.3701  0.6729
  320TMC3    O1 4817   3.466   2.173  16.297  0.1077 -0.0445 -0.5009
  320TMC3    O2 4818   3.418   2.788  16.170  0.0867 -0.0312  0.1247
  321TMC3    C1 4819   4.127   2.942  16.880 -0.1051  0.8234 -0.6268
  321TMC3    C2 4820   4.174   2.832  16.816  0.4672 -0.7514 -0.1787
  321TMC3    C3 4821   4.300   2.824  16.772 -0.3120  0.6644 -0.2369
  321TMC3    C4 4822   4.203   3.054  16.886  0.0444  0.3937  0.5536
  321TMC3    C5 4823   4.334   3.051  16.840 -1.4444  0.0711  0.4934
  321TMC3    C6 4824   4.373   2.938  16.766  0.2702  0.1864 -0.0929
  321TMC3     C 4825   3.982   2.953  16.921 -0.3251 -0.4331 -0.0159
  321TMC3     O 4826   3.949   3.035  17.005 -0.2335 -0.7401 -0.2044
  321TMC3     H 4827   4.119   2.740  16.805 -1.5637  0.7683 -2.7796
  321TMC3    H1 4828   4.155   3.140  16.932 -0.5721  0.1879  0.2977
  321TMC3    H2 4829   4.477   2.928  16.737  0.7480 -0.1770  1.7646
  321TMC3    C7 4830   4.429   3.072  16.944 -0.7024 -0.2073 -0.2700
  321TMC3    C8 4831   4.373   2.722  16.842 -0.3615  0.4821 -0.2535
  321TMC3    O1 4832   4.551   3.045  16.919  0.0097  0.2166 -0.6837
  321TMC3    O2 4833   4.357   2.717  16.965 -0.6553  0.1911 -0.0206
  322MPD2     C 4834   3.210   3.814  13.989 -0.7408  0.0588 -0.6673
  322MPD2    C1 4835   3.290   3.767  14.089 -0.0422  0.3820  0.2145
  322MPD2    C2 4836   3.287   3.633  14.110 -0.1224  0.5307 -0.7838
  322MPD2    C3 4837   3.218   3.545  14.034 -0.0287  0.5484 -0.3941
  322MPD2    C4 4838   3.133   3.598  13.938  0.2597  0.1769 -0.4502
  322MPD2    C5 4839   3.131   3.734  13.916  0.0220  0.0908  0.5793
  322MPD2     H 4840   3.345   3.588  14.190 -0.6833 -2.6911 -2.2310
  322MPD2    H1 4841   3.056   3.534  13.896 -1.7505  2.4820 -0.2807
  322MPD2    H2 4842   3.196   3.921  13.982 -1.0418 -0.0111 -1.1022
  322MPD2    H3 4843   3.063   3.775  13.842 -2.2949 -0.5305  2.3601
  322MPD2     N 4844   3.209   3.412  14.085 -0.5450 -0.3473  0.4597
  322MPD2    H5 4845   3.275   3.391  14.160 -0.7794 -0.0562  0.7444
  322MPD2    N1 4846   3.371   3.857  14.164  0.2438 -0.4899  0.1458
  322MPD2    H7 4847   3.388   3.948  14.123 -2.6990  0.7763  1.7530
  323TMC3    C1 4848   3.540   3.917  14.332  0.1634 -0.9164  0.5367
  323TMC3    C2 4849   3.610   3.998  14.248 -0.1814 -0.1445 -0.1048
  323TMC3    C3 4850   3.737   4.032  14.293 -0.1863  0.2706  0.3377
  323TMC3    C4 4851   3.580   3.883  14.457  0.4749 -0.3198 -0.0160
  323TMC3    C5 4852   3.700   3.924  14.500 -0.6399  0.7289 -0.6502
  323TMC3    C6 4853   3.786   3.996  14.414 -0.0633 -0.1907 -0.6534
  323TMC3     C 4854   3.444   3.816  14.278  0.0688 -0.2288 -0.0029
  323TMC3     O 4855   3.425   3.717  14.350 -0.1934  0.0353  0.2052
  323TMC3     H 4856   3.571   4.010  14.148 -0.4412 -1.9204 -0.2244
  323TMC3    H1 4857   3.520   3.813  14.514  0.5573 -2.0658 -2.0748
  323TMC3    H2 4858   3.893   4.007  14.429  0.0274 -0.9949 -0.7433
  323TMC3    C7 4859   3.770   3.825  14.579  0.4203 -0.0697 -0.7558
  323TMC3    C8 4860   3.822   4.121  14.215 -0.5206 -0.5824 -0.5602
  323TMC3    O1 4861   3.687   3.762  14.643  0.0528 -0.7013 -0.4783
  323TMC3    O2 4862   3.931   4.153  14.257 -0.2478  0.7842 -0.1977
  324MPD2     C 4863   4.671   0.227  14.292  0.2709 -0.4209  0.8071
  324MPD2    C1 4864   0.035   0.304  14.218 -0.1833  0.2197  1.0683
  324MPD2    C2 4865   4.700   0.367  14.112 -0.0625 -0.2387 -0.3179
  324MPD2    C3 4866   4.566   0.372  14.083 -0.1760 -0.1991  0.9931
  324MPD2    C4 4867   4.482   0.305  14.173 -0.1112  0.3861 -0.1304
  324MPD2    C5 4868   4.536   0.229  14.277  0.0438 -0.0117  0.5993
  324MPD2     H 4869   0.050   0.401  14.041 -1.3142  1.1349 -0.9850
  324MPD2    H1 4870   4.374   0.309  14.164 -0.1619  0.7911  0.6720
  324MPD2    H2 4871   4.712   0.161  14.368 -0.4679 -2.4404 -0.5544
  324MPD2    H3 4872   4.467   0.171  14.338  2.2938 -0.6831  2.5260
  324MPD2     N 4873   4.514   0.433  13.964  0.4072 -0.2722  0.1000
  324MPD2    H5 4874   4.416   0.412  13.948  0.9665 -2.0966 -0.9760
  324MPD2    N1 4875   0.176   0.299  14.232 -0.0433 -0.1658 -0.1068
  324MPD2    H7 4876   0.230   0.333  14.154  1.4557 -2.5997 -0.1063
  325TMC3    C1 4877   4.525   0.523  13.749  0.2922  0.1668 -0.2439
  325TMC3    C2 4878   4.436   0.439  13.692 -0.0397 -0.0893  0.0609
  325TMC3    C3 4879   4.392   0.480  13.563  0.2217  0.6218  0.1504
  325TMC3    C4 4880   4.565   0.637  13.696 -0.5875  0.0993  0.0318
  325TMC3    C5 4881   4.514   0.679  13.579  0.7639  0.4583 -0.0283
  325TMC3    C6 4882   4.417   0.605  13.515 -0.0498 -0.2433  0.0271
  325TMC3     C 4883   4.591   0.497  13.875 -0.5000 -0.3300  0.0405
  325TMC3     O 4884   4.710   0.533  13.886  0.3624 -0.3316  0.5404
  325TMC3     H 4885   4.421   0.338  13.728  0.1079 -0.5371 -1.1230
  325TMC3    H1 4886   4.629   0.696  13.761 -1.6107 -1.5320  2.5315
  325TMC3    H2 4887   4.383   0.632  13.415  0.0474  0.9191  0.3135
  325TMC3    C7 4888   4.492   0.823  13.567 -0.4036  0.4288  0.0686
  325TMC3    C8 4889   4.308   0.383  13.493 -0.3593  0.0290 -0.4307
  325TMC3    O1 4890   4.594   0.889  13.586  0.3115 -0.5409 -0.4191
  325TMC3    O2 4891   4.276   0.403  13.376 -0.3126 -0.4830  0.8357
  326MPD2     C 4892   1.336   1.681  11.412 -0.5050 -0.0664 -0.5606
  326MPD2    C1 4893   1.350   1.681  11.271 -0.0163 -0.7407  0.2664
  326MPD2    C2 4894   1.454   1.748  11.212 -0.1849  0.0918 -0.3309
  326MPD2    C3 4895   1.548   1.810  11.294 -0.0045  0.3604  0.3298
  326MPD2    C4 4896   1.541   1.802  11.429 -0.3912  0.0628  0.3009
  326MPD2    C5 4897   1.429   1.739  11.488 -0.5647 -0.7612 -0.5494
  326MPD2     H 4898   1.458   1.756  11.104  0.9277  1.7943 -0.1665
  326MPD2    H1 4899   1.615   1.847  11.493 -0.5332 -0.4071  0.7929
  326MPD2    H2 4900   1.241   1.641  11.445 -1.2216  1.8743 -0.2680
  326MPD2    H3 4901   1.412   1.747  11.595 -2.4224  3.5957 -1.1815
  326MPD2     N 4902   1.649   1.892  11.242 -0.2685 -0.2443  0.3588
  326MPD2    H5 4903   1.709   1.938  11.310  0.0841 -1.2039  0.7089
  326MPD2    N1 4904   1.260   1.629  11.177  0.5522  0.2953 -0.2338
  326MPD2    H7 4905   1.305   1.624  11.086 -1.2882  0.0336 -1.1328
  327TMC3    C1 4906   1.073   1.576  11.070 -0.4804  0.2007 -0.2627
  327TMC3    C2 4907   1.009   1.681  11.016  0.1718 -0.5467  0.4211
  327TMC3    C3 4908   1.011   1.704  10.882 -0.6330  0.4890  0.2373
  327TMC3    C4 4909   1.153   1.498  10.989  0.1265 -0.0155 -0.3442
  327TMC3    C5 4910   1.164   1.524  10.857  0.1404  0.6917  0.0036
  327TMC3    C6 4911   1.083   1.624  10.800  0.0940 -0.0132  0.2281
  327TMC3     C 4912   1.127   1.613  11.191  0.1110  0.4943  0.2357
  327TMC3     O 4913   1.053   1.633  11.285 -0.2725 -0.1405 -0.0645
  327TMC3     H 4914   0.968   1.752  11.086 -1.0790  0.0945 -0.9678
  327TMC3    H1 4915   1.224   1.434  11.038  0.0308 -0.1286 -0.3538
  327TMC3    H2 4916   1.100   1.652  10.696  1.1254  0.0406  0.4044
  327TMC3    C7 4917   1.288   1.503  10.785 -0.0379 -0.2781 -0.2737
  327TMC3    C8 4918   1.000   1.842  10.833  0.3451  0.2541 -0.1005
  327TMC3    O1 4919   1.285   1.526  10.666 -0.2012 -0.0929 -0.4249
  327TMC3    O2 4920   1.069   1.876  10.738 -0.0589 -0.0163 -0.1946
  328MPD2     C 4921   4.116   1.296  17.136  0.4182 -0.2677  0.4950
  328MPD2    C1 4922   4.014   1.263  17.048 -1.4419  0.5750  0.1556
  328MPD2    C2 4923   3.952   1.367  16.980  0.0619 -0.3294 -0.6564
  328MPD2    C3 4924   3.982   1.502  17.019  0.0735  0.3134 -0.4377
  328MPD2    C4 4925   4.078   1.527  17.118  0.1527 -0.6437  0.2523
  328MPD2    C5 4926   4.152   1.422  17.157 -0.3646 -0.5921 -0.8831
  328MPD2     H 4927   3.881   1.341  16.903 -1.4561 -1.3916  1.1208
  328MPD2    H1 4928   4.091   1.629  17.153 -0.7330 -0.5849  0.4331
  328MPD2    H2 4929   4.175   1.224  17.190 -0.8671  0.0600  2.3134
  328MPD2    H3 4930   4.236   1.444  17.222  0.0274 -1.4133 -1.1063
  328MPD2     N 4931   3.918   1.619  16.962 -0.2033 -0.4022  0.2630
  328MPD2    H5 4932   3.958   1.706  16.996 -1.4653  0.3045 -0.0406
  328MPD2    N1 4933   3.987   1.129  17.008  0.5669 -0.2984 -0.4271
  328MPD2    H7 4934   3.915   1.110  16.939 -0.4870  0.0088  0.5919
  329TMC3    C1 4935   3.991   0.896  17.005 -0.3166 -0.6188  0.7376
  329TMC3    C2 4936   3.957   0.787  17.080  0.0670 -0.1493  0.0902
  329TMC3    C3 4937   3.931   0.671  17.012 -0.4289  0.3837 -0.6148
  329TMC3    C4 4938   4.021   0.889  16.871 -0.7214 -0.0969  0.7051
  329TMC3    C5 4939   4.010   0.766  16.813  0.9943 -0.0082 -0.1269
  329TMC3    C6 4940   3.960   0.655  16.881  0.0699 -0.8380 -0.2404
  329TMC3     C 4941   4.031   1.015  17.072  0.1452  0.2047  0.0356
  329TMC3     O 4942   4.085   1.003  17.180  0.0538 -0.5453  0.4115
  329TMC3     H 4943   3.941   0.793  17.188  1.8934 -0.0198  0.3544
  329TMC3    H1 4944   4.072   0.972  16.824 -0.7266 -1.0276 -0.9292
  329TMC3    H2 4945   3.932   0.565  16.826 -0.6394 -0.6392 -0.2021
  329TMC3    C7 4946   4.059   0.755  16.676 -0.1388 -0.3153  0.5316
  329TMC3    C8 4947   3.834   0.576  17.065 -0.1538  0.1764  0.1645
  329TMC3    O1 4948   4.111   0.855  16.625  0.0158  0.2824 -0.0792
  329TMC3    O2 4949   3.826   0.464  17.012  0.0592 -0.0162 -0.4723
  330TMC3    C1 4950   1.664   1.547   9.170 -0.3761 -0.0517 -0.7724
  330TMC3    C2 4951   1.582   1.452   9.129 -0.0128 -0.4147 -0.3663
  330TMC3    C3 4952   1.608   1.326   9.180  0.2367 -0.5783  1.0496
  330TMC3    C4 4953   1.760   1.521   9.264  0.0586 -0.3282  0.5160
  330TMC3    C5 4954   1.775   1.395   9.317  0.3655  0.5875 -0.3967
  330TMC3    C6 4955   1.697   1.294   9.277  0.1392 -0.3562 -0.0906
  330TMC3     C 4956   1.676   1.671   9.095  0.4164  0.2875  0.6315
  330TMC3     O 4957   1.778   1.739   9.099 -0.3207  0.3835 -0.8748
  330TMC3     H 4958   1.495   1.474   9.067 -0.4250  0.0042  0.3600
  330TMC3    H1 4959   1.823   1.603   9.299 -1.0502  0.2207  1.2192
  330TMC3    H2 4960   1.711   1.193   9.312  3.4697 -0.1104 -0.6627
  330TMC3    C7 4961   1.882   1.381   9.414  0.1252  0.0620  0.7382
  330TMC3    C8 4962   1.511   1.232   9.135 -0.7507 -0.1598  0.2423
  330TMC3    O1 4963   1.971   1.466   9.424 -0.3029  0.0396  0.0773
  330TMC3    O2 4964   1.474   1.245   9.018  0.7555  0.3810  0.6741
  331MPD2     C 4965   4.371   0.105  12.455  0.1442  0.7316  0.0133
  331MPD2    C1 4966   4.478   0.102  12.366  0.4441 -0.6283  0.2990
  331MPD2    C2 4967   4.535   4.703  12.342  0.0234 -0.0263  0.1900
  331MPD2    C3 4968   4.498   4.590  12.402 -0.0765  0.4878  0.3414
  331MPD2    C4 4969   4.388   4.590  12.479  0.7272 -0.1047  0.4667
  331MPD2    C5 4970   4.324   4.711  12.510  0.4504 -0.1759  0.7275
  331MPD2     H 4971   4.614   4.698  12.267  0.2241  2.5866  0.2474
  331MPD2    H1 4972   4.343   4.505  12.529 -0.5829  0.7288  0.6948
  331MPD2    H2 4973   4.319   0.197  12.478  0.5965  1.1678 -0.6910
  331MPD2    H3 4974   4.226   4.708  12.557 -0.1221  2.7919 -0.2654
  331MPD2     N 4975   4.587   4.481  12.375 -0.2336  0.2653 -0.5351
  331MPD2    H5 4976   4.670   4.501  12.320  0.3755  2.8617  1.3607
  331MPD2    N1 4977   4.536   0.217  12.313 -0.1206 -0.0265  0.7841
  331MPD2    H7 4978   4.476   0.298  12.327 -1.7158 -0.8912 -1.0586
  332TMC3    C1 4979   4.690   4.276  12.385 -0.4047  0.1017 -0.2868
  332TMC3    C2 4980   4.724   4.275  12.252 -0.2464 -0.8802  0.0958
  332TMC3    C3 4981   0.137   4.251  12.226 -0.2679  0.0635 -0.8108
  332TMC3    C4 4982   0.056   4.262  12.486  0.0242  0.4106 -0.5213
  332TMC3    C5 4983   0.187   4.233  12.461  0.6176  0.3592 -0.9273
  332TMC3    C6 4984   0.225   4.235  12.330 -0.1691  0.1700 -0.5303
  332TMC3     C 4985   4.577   4.357  12.428 -0.3292 -0.6697 -0.0405
  332TMC3     O 4986   4.493   4.312  12.498  0.2101  0.4870  0.0553
  332TMC3     H 4987   4.652   4.307  12.177  0.2573 -0.2754 -0.1343
  332TMC3    H1 4988   0.008   4.256  12.583  0.5239 -1.7389 -0.4094
  332TMC3    H2 4989   0.326   4.201  12.309  0.1540  0.7443  0.1016
  332TMC3    C7 4990   0.271   4.229  12.577 -0.2090  0.2592  0.3177
  332TMC3    C8 4991   0.173   4.218  12.091  0.3332 -0.4450  0.1651
  332TMC3    O1 4992   0.215   4.230  12.681 -0.8490  0.1972 -0.0298
  332TMC3    O2 4993   0.124   4.123  12.038  0.2356  0.1034  0.0526
  333MPD2     C 4994   0.443   0.168  11.563  0.2877 -0.5636 -0.0672
  333MPD2    C1 4995   0.460   0.063  11.475 -0.4869 -0.4888  0.5409
  333MPD2    C2 4996   0.381   4.675  11.486 -0.0828 -0.2658  0.1033
  333MPD2    C3 4997   0.281   4.668  11.580  1.0087  0.3780  0.0689
  333MPD2    C4 4998   0.249   0.061  11.658  0.1449  0.0889  0.4280
  333MPD2    C5 4999   0.337   0.166  11.649  1.1741  0.3843 -0.4355
  333MPD2     H 5000   0.394   4.592  11.417  2.9277  1.5768 -1.5644
  333MPD2    H1 5001   0.174   0.059  11.736  1.0607  0.3980  1.3109
  333MPD2    H2 5002   0.507   0.256  11.564  1.3755 -1.3399 -0.8038
  333MPD2    H3 5003   0.316   0.257  11.704  1.2791  0.1699 -0.0458
  333MPD2     N 5004   0.222   4.546  11.603  0.2056  0.5146 -0.2666
  333MPD2    H5 5005   0.271   4.465  11.565  1.7089  1.1467  0.3175
  333MPD2    N1 5006   0.569   0.075  11.387 -0.1553  0.7009  0.1962
  333MPD2    H7 5007   0.628   0.156  11.402  0.9942 -0.3182  1.2334
  334TMC3    C1 5008   0.745   0.018  11.242 -0.4853 -1.0279 -0.4439
  334TMC3    C2 5009   0.831   4.642  11.203  0.3895 -0.3224  0.3411
  334TMC3    C3 5010   0.883   4.645  11.079  0.6818  0.4433  1.2921
  334TMC3    C4 5011   0.723   0.125  11.156 -0.0206 -0.1341  0.1540
  334TMC3    C5 5012   0.778   0.119  11.031 -0.2056  0.5414  0.1020
  334TMC3    C6 5013   0.854   0.016  10.985  0.1307 -0.0456 -0.2962
  334TMC3     C 5014   0.627   4.698  11.316 -0.2789  1.2063  0.0592
  334TMC3     O 5015   0.586   4.586  11.293 -0.6214 -0.2092  0.2601
  334TMC3     H 5016   0.837   4.553  11.265 -0.0619  0.8719  2.1222
  334TMC3    H1 5017   0.647   0.200  11.173 -1.1646 -1.3420  0.3302
  334TMC3    H2 5018   0.904   0.014  10.888  0.2091  0.3260 -0.2666
  334TMC3    C7 5019   0.771   0.243  10.953 -0.1547 -0.4810 -0.4912
  334TMC3    C8 5020   1.003   4.563  11.065 -0.0734 -0.1527  0.0195
  334TMC3    O1 5021   0.739   0.343  11.011 -0.5205 -0.0619 -0.2802
  334TMC3    O2 5022   1.008   4.468  11.140 -0.2049 -0.3177  0.5567
  335TMC3    C1 5023   0.182   1.553  17.359  0.2045  0.6251  0.4416
  335TMC3    C2 5024   0.084   1.496  17.286 -0.0527  0.2819 -0.0873
  335TMC3    C3 5025   0.089   1.507  17.151 -0.9280 -0.0140 -0.0197
  335TMC3    C4 5026   0.298   1.604  17.311  0.1398 -0.2233  1.2296
  335TMC3    C5 5027   0.299   1.602  17.176  0.2752 -0.1336 -0.6202
  335TMC3    C6 5028   0.201   1.556  17.095  0.0939  0.2409  0.9392
  335TMC3     C 5029   0.172   1.518  17.497 -0.0248  0.5382 -0.3185
  335TMC3     O 5030   0.102   1.421  17.523 -0.2710  0.2539 -0.0080
  335TMC3     H 5031   0.010   1.444  17.345 -1.8105  0.5372 -2.0890
  335TMC3    H1 5032   0.387   1.626  17.369  0.0907 -0.4013  1.3699
  335TMC3    H2 5033   0.207   1.556  16.987 -0.3074 -1.2379  0.9218
  335TMC3    C7 5034   0.422   1.634  17.113 -0.7447 -0.2527 -0.0087
  335TMC3    C8 5035   4.708   1.446  17.074  0.4147  0.8711  0.4762
  335TMC3    O1 5036   0.452   1.575  17.011 -0.1550  0.0783  0.2219
  335TMC3    O2 5037   4.699   1.477  16.953  0.0548 -0.5297  0.8439
  336MPD2     C 5038   4.433   3.649  16.306 -0.1762 -0.6335  0.5891
  336MPD2    C1 5039   4.405   3.636  16.171  0.1400  0.2734 -0.1486
  336MPD2    C2 5040   4.405   3.505  16.126 -0.2282  0.1050 -0.4698
  336MPD2    C3 5041   4.426   3.400  16.208 -0.4657 -0.4149 -0.1335
  336MPD2    C4 5042   4.441   3.414  16.345 -0.4847 -0.0177 -0.6627
  336MPD2    C5 5043   4.444   3.540  16.393  0.6407  0.9420 -0.4865
  336MPD2     H 5044   4.368   3.492  16.025 -2.7136 -0.9658  0.5621
  336MPD2    H1 5045   4.433   3.332  16.415  0.8573  1.0426  0.7436
  336MPD2    H2 5046   4.431   3.747  16.352 -0.4256 -1.4513  2.3074
  336MPD2    H3 5047   4.469   3.558  16.497  1.2550  3.3246 -1.0513
  336MPD2     N 5048   4.444   3.272  16.158 -0.6435 -0.0786 -0.3778
  336MPD2    H5 5049   4.450   3.196  16.226  0.4164  0.7843  0.4842
  336MPD2    N1 5050   4.376   3.750  16.083 -0.1616 -0.2934  0.0011
  336MPD2    H7 5051   4.348   3.731  15.987  2.2372 -2.8009 -0.2160
  337TMC3    C1 5052   4.354   3.964  16.001  0.2686  0.4605 -0.3019
  337TMC3    C2 5053   4.237   3.932  15.943 -0.6108 -0.1728 -1.2196
  337TMC3    C3 5054   4.205   4.003  15.829 -0.1500  0.5867  0.0880
  337TMC3    C4 5055   4.435   4.064  15.959 -0.6761  0.8833  0.4859
  337TMC3    C5 5056   4.399   4.125  15.839 -0.3184 -1.3480 -0.4223
  337TMC3    C6 5057   4.282   4.099  15.772  0.3057  0.2123  0.5509
  337TMC3     C 5058   4.388   3.887  16.118 -0.0370 -0.0047  0.2221
  337TMC3     O 5059   4.447   3.945  16.207  0.4946  0.1672 -0.5839
  337TMC3     H 5060   4.167   3.857  15.976 -0.7390  1.1050  1.3655
  337TMC3    H1 5061   4.530   4.087  16.004  0.6914  0.2312 -2.0449
  337TMC3    H2 5062   4.245   4.157  15.688 -1.3083  1.5950  2.1880
  337TMC3    C7 5063   4.493   4.214  15.781 -0.4373 -0.4916  0.2384
  337TMC3    C8 5064   4.062   4.021  15.810  0.2696 -0.3543  0.3707
  337TMC3    O1 5065   4.598   4.223  15.848 -0.4128  0.1916  0.3976
  337TMC3    O2 5066   3.990   3.993  15.906  0.4811 -0.1126  0.3603
  338MPD2     C 5067   0.584   3.032   0.720  0.9049  0.2826  0.1779
  338MPD2    C1 5068   0.494   3.092   0.802  0.3592  0.4452  0.2013
  338MPD2    C2 5069   0.537   3.185   0.889 -0.1397 -0.7093  0.5910
  338MPD2    C3 5070   0.675   3.218   0.897 -0.8699  0.9625  0.2569
  338MPD2    C4 5071   0.765   3.165   0.806 -0.1004  0.3064 -0.0378
  338MPD2    C5 5072   0.715   3.069   0.723 -1.1851 -0.5648 -0.9936
  338MPD2     H 5073   0.473   3.246   0.952 -0.3066  0.4045 -0.6495
  338MPD2    H1 5074   0.870   3.189   0.802 -0.3566  1.5401  0.8530
  338MPD2    H2 5075   0.547   2.970   0.639 -0.0688  0.8736  0.1619
  338MPD2    H3 5076   0.789   3.016   0.666  0.5049 -1.2845  1.8926
  338MPD2     N 5077   0.713   3.309   1.002 -0.2248  0.4451  0.1095
  338MPD2    H5 5078   0.642   3.330   1.071 -0.5462  0.8444 -0.3461
  338MPD2    N1 5079   0.358   3.064   0.790 -0.1996 -0.2435 -0.1342
  338MPD2    H7 5080   0.296   3.128   0.839 -2.7461 -1.5951 -1.5895
  339TMC3    C1 5081   0.857   3.446   1.130 -0.7658  0.1263  0.4533
  339TMC3    C2 5082   0.774   3.414   1.233 -0.4297 -0.7839 -0.0815
  339TMC3    C3 5083   0.758   3.514   1.327 -0.1105 -0.3339 -0.0766
  339TMC3    C4 5084   0.942   3.550   1.122 -0.2956 -0.4513 -0.1306
  339TMC3    C5 5085   0.916   3.647   1.214  0.6732 -0.0553 -1.0117
  339TMC3    C6 5086   0.824   3.632   1.319 -0.0081 -0.4488  0.0446
  339TMC3     C 5087   0.840   3.364   1.013  0.3927 -0.2279 -0.5626
  339TMC3     O 5088   0.926   3.379   0.927 -0.1556  0.4132  0.2567
  339TMC3     H 5089   0.721   3.320   1.236 -1.0157 -0.4430  0.4324
  339TMC3    H1 5090   1.006   3.566   1.036 -0.0052 -1.1926 -0.0602
  339TMC3    H2 5091   0.804   3.708   1.394 -1.0100 -2.3687  1.7273
  339TMC3    C7 5092   0.941   3.781   1.157  0.5685 -0.0017 -0.0626
  339TMC3    C8 5093   0.713   3.471   1.457 -0.4922  0.6030  0.3657
  339TMC3    O1 5094   0.961   3.790   1.034 -0.0851  0.0603 -0.6181
  339TMC3    O2 5095   0.765   3.523   1.558 -0.4268  0.1282  0.0825
  340MPD2     C 5096   4.316   1.602   9.836 -0.2790 -0.6142  0.0976
  340MPD2    C1 5097   4.282   1.610   9.703  0.3153  0.3704  0.0794
  340MPD2    C2 5098   4.322   1.719   9.627 -0.0066  0.0971  1.2920
  340MPD2    C3 5099   4.384   1.828   9.681 -0.3726 -0.0659  0.5541
  340MPD2    C4 5100   4.403   1.825   9.816  0.3427 -0.4030 -0.2355
  340MPD2    C5 5101   4.374   1.714   9.888 -0.2741 -0.0963 -0.0311
  340MPD2     H 5102   4.291   1.723   9.523 -2.2480 -0.7045  1.9414
  340MPD2    H1 5103   4.457   1.901   9.870 -1.1575 -2.6974  4.4809
  340MPD2    H2 5104   4.297   1.520   9.904 -0.1205 -0.5385  0.2333
  340MPD2    H3 5105   4.400   1.703   9.992 -0.5627 -0.3212  0.0194
  340MPD2     N 5106   4.429   1.940   9.616  0.3533  0.1426  0.2776
  340MPD2    H5 5107   4.489   2.006   9.664  1.8794  0.6133 -2.2677
  340MPD2    N1 5108   4.221   1.498   9.642 -0.0945 -0.1899 -0.7858
  340MPD2    H7 5109   4.221   1.415   9.701  0.1037  0.2019 -0.2274
  341TMC3    C1 5110   4.139   1.359   9.470 -0.9117  0.2087  0.6224
  341TMC3    C2 5111   4.137   1.256   9.557 -0.6965  0.0390 -0.7389
  341TMC3    C3 5112   4.130   1.124   9.504  0.0127  0.8155  0.1552
  341TMC3    C4 5113   4.164   1.333   9.334 -1.0806  0.1149 -0.3923
  341TMC3    C5 5114   4.165   1.206   9.285  0.1251  0.1458  0.2020
  341TMC3    C6 5115   4.151   1.098   9.370 -0.0571 -0.5867 -0.1100
  341TMC3     C 5116   4.176   1.492   9.511  0.0187 -0.0027 -0.4088
  341TMC3     O 5117   4.157   1.577   9.426 -0.4778  0.1447 -0.4705
  341TMC3     H 5118   4.108   1.261   9.661  0.0211 -0.5625 -0.5143
  341TMC3    H1 5119   4.184   1.414   9.265 -0.8571  0.7285  0.3975
  341TMC3    H2 5120   4.131   1.003   9.320 -1.8565 -0.5896  0.6136
  341TMC3    C7 5121   4.222   1.180   9.152 -0.3434  0.3152 -0.1799
  341TMC3    C8 5122   4.146   1.008   9.588 -0.8857  0.4203 -0.6807
  341TMC3    O1 5123   4.313   1.251   9.113 -0.0910  0.3787 -0.0301
  341TMC3    O2 5124   4.135   0.903   9.530  0.4681 -0.2312  0.1131
  342MPD2     C 5125   2.793   4.172  17.182 -0.2189  0.0013  0.3095
  342MPD2    C1 5126   2.843   4.142  17.310  0.2017 -1.2072 -0.8512
  342MPD2    C2 5127   2.851   4.239  17.402 -0.0250  0.1564  0.5230
  342MPD2    C3 5128   2.825   4.373  17.368 -0.1055  0.2249 -0.2988
  342MPD2    C4 5129   2.789   4.401  17.237 -0.4844 -0.0633  0.1979
  342MPD2    C5 5130   2.771   4.303  17.143 -0.1048  0.3671  0.3939
  342MPD2     H 5131   2.891   4.210  17.498  4.1388  0.4847 -1.1288
  342MPD2    H1 5132   2.754   4.497  17.200  1.5471  0.2866 -0.8051
  342MPD2    H2 5133   2.764   4.100  17.107 -1.1797 -1.8910  2.5186
  342MPD2    H3 5134   2.746   4.326  17.040 -0.5319 -0.1482  0.3765
  342MPD2     N 5135   2.837   4.474  17.465 -0.3212  0.1082  0.2534
  342MPD2    H5 5136   2.823   4.569  17.432  0.1289 -0.1642 -0.7104
  342MPD2    N1 5137   2.878   4.011  17.350  0.2560 -0.5598 -0.1077
  342MPD2    H7 5138   2.928   4.000  17.437 -0.4818 -0.4723  0.3286
  343TMC3    C1 5139   2.960   3.797  17.324 -0.2388  0.5105  0.2714
  343TMC3    C2 5140   3.074   3.829  17.263 -0.2753  0.2862  0.6343
  343TMC3    C3 5141   3.154   3.727  17.215 -0.6286  0.2998 -0.6953
  343TMC3    C4 5142   2.912   3.670  17.327 -0.1916  0.7249  0.7840
  343TMC3    C5 5143   2.992   3.573  17.275  0.4325 -0.5204 -0.0054
  343TMC3    C6 5144   3.119   3.599  17.221  0.7034 -0.6922  0.3552
  343TMC3     C 5145   2.860   3.890  17.279 -0.0963  0.0367 -0.4184
  343TMC3     O 5146   2.799   3.869  17.173  0.1089 -0.6774 -0.0393
  343TMC3     H 5147   3.106   3.931  17.243 -1.5969  0.6733  0.4253
  343TMC3    H1 5148   2.826   3.641  17.385 -1.8489  0.8105 -1.6473
  343TMC3    H2 5149   3.172   3.517  17.173  0.8667  0.3845 -1.2837
  343TMC3    C7 5150   2.941   3.441  17.297  0.2810 -0.1356  0.0646
  343TMC3    C8 5151   3.269   3.767  17.125  0.2760 -0.3017 -1.0907
  343TMC3    O1 5152   2.898   3.384  17.194  0.3992 -0.2719 -0.0337
  343TMC3    O2 5153   3.336   3.859  17.163  0.0323 -0.1151  0.1398
  344MPD2     C 5154   3.625   4.487  10.705 -0.0637  0.6145 -0.3238
  344MPD2    C1 5155   3.601   4.437  10.580 -0.3542 -0.3840 -0.5255
  344MPD2    C2 5156   3.610   4.520  10.475  0.5230  0.0213 -0.5737
  344MPD2    C3 5157   3.646   4.651  10.493 -0.2439  0.1790  0.2005
  344MPD2    C4 5158   3.675   4.696  10.616  0.2615 -0.0809  0.3243
  344MPD2    C5 5159   3.662   4.616  10.724  0.2846  0.4724 -0.2351
  344MPD2     H 5160   3.581   4.479  10.378  0.7307  0.1450 -0.6885
  344MPD2    H1 5161   3.699   0.077  10.624  0.3656 -0.0996  0.2430
  344MPD2    H2 5162   3.600   4.424  10.790  1.3418  0.4609 -0.0178
  344MPD2    H3 5163   3.669   4.652  10.826  2.8698  0.2875 -0.3515
  344MPD2     N 5164   3.653   0.026  10.393  0.0826  0.5182  0.0774
  344MPD2    H5 5165   3.698   0.116  10.406  2.4551 -0.8044  1.0222
  344MPD2    N1 5166   3.547   4.313  10.578  0.1717 -0.5072  0.0462
  344MPD2    H7 5167   3.544   4.264  10.667 -3.0091 -0.0546  0.1918
  345TMC3    C1 5168   3.644   0.139  10.189  0.5700  0.5581  0.4060
  345TMC3    C2 5169   3.769   0.183  10.217 -0.1906 -0.3844  0.8550
  345TMC3    C3 5170   3.792   0.315  10.199 -0.3043 -1.1387  0.3335
  345TMC3    C4 5171   3.549   0.223  10.146  0.3547  1.0394 -0.5402
  345TMC3    C5 5172   3.579   0.353  10.125 -0.2327 -0.3003 -0.3869
  345TMC3    C6 5173   3.705   0.399  10.140  0.0840 -0.2028  0.1635
  345TMC3     C 5174   3.597   0.021  10.268  1.2515 -0.3947 -0.1079
  345TMC3     O 5175   3.508   4.676  10.228 -0.2213  0.2172 -0.6484
  345TMC3     H 5176   3.846   0.120  10.261 -1.0263 -1.2186  1.1364
  345TMC3    H1 5177   3.444   0.194  10.145  0.1485  1.7499  0.1173
  345TMC3    H2 5178   3.728   0.504  10.133 -0.5884 -0.1281 -0.8651
  345TMC3    C7 5179   3.504   0.442  10.031  0.2746 -0.3046 -0.0024
  345TMC3    C8 5180   3.909   0.373  10.270  0.5828 -0.4161 -0.2364
  345TMC3    O1 5181   3.571   0.521   9.965 -0.3771 -0.0655  0.0443
  345TMC3    O2 5182   3.982   0.289  10.322 -0.1961  0.1350 -0.6522
  346MPD2     C 5183   3.119   0.651  13.796 -0.0886  0.0979 -0.1835
  346MPD2    C1 5184   3.239   0.613  13.737  0.2293  0.2320  0.0025
  346MPD2    C2 5185   3.355   0.664  13.792  0.4519 -0.2270  0.0620
  346MPD2    C3 5186   3.360   0.748  13.898  0.2157 -0.5903  0.2183
  346MPD2    C4 5187   3.238   0.777  13.958  0.8212 -0.1167 -0.2272
  346MPD2    C5 5188   3.121   0.718  13.916 -0.2569  0.3830 -0.0168
  346MPD2     H 5189   3.450   0.627  13.756  1.0623  0.2656  1.1613
  346MPD2    H1 5190   3.231   0.840  14.046  0.5100 -3.0111  1.8177
  346MPD2    H2 5191   3.021   0.627  13.756  0.4801  0.6821 -1.9483
  346MPD2    H3 5192   3.026   0.745  13.961  1.0501  0.0873  2.8816
  346MPD2     N 5193   3.481   0.805  13.934 -0.3177  0.0270  0.5503
  346MPD2    H5 5194   3.561   0.786  13.875 -0.5002 -1.4821  0.7815
  346MPD2    N1 5195   3.258   0.533  13.616  0.3883 -0.2488 -0.3185
  346MPD2    H7 5196   3.341   0.536  13.557 -0.6206 -0.3571 -1.7419
  347TMC3    C1 5197   3.642   0.914  14.060  0.5560  0.1626  0.1636
  347TMC3    C2 5198   3.722   0.937  13.951 -0.2419  0.5794  0.3280
  347TMC3    C3 5199   3.849   0.979  13.971 -0.5612 -0.6744  0.0030
  347TMC3    C4 5200   3.693   0.933  14.186  0.3169 -0.0934 -0.3814
  347TMC3    C5 5201   3.823   0.959  14.203 -0.2634  0.2139  0.1299
  347TMC3    C6 5202   3.903   0.982  14.096  0.3143 -0.4879  0.0591
  347TMC3     C 5203   3.501   0.882  14.043  0.5587 -0.2509  0.1017
  347TMC3     O 5204   3.430   0.914  14.140  0.1273 -0.6392  0.2045
  347TMC3     H 5205   3.692   0.927  13.848  0.6602  1.3626 -0.0060
  347TMC3    H1 5206   3.624   0.938  14.270  0.0587 -1.1096 -0.5354
  347TMC3    H2 5207   4.010   0.999  14.098  0.2416 -0.1242  0.8065
  347TMC3    C7 5208   3.880   0.945  14.340 -0.5322  0.2046  0.5616
  347TMC3    C8 5209   3.929   1.000  13.854  0.2266  0.7600  0.6042
  347TMC3    O1 5210   3.797   0.917  14.430 -0.3746 -0.0499 -0.3229
  347TMC3    O2 5211   3.892   0.957  13.747 -0.0423  0.1972 -0.4474
  348MPD2     C 5212   2.027   0.750  11.638  0.1035  0.4260  0.2473
  348MPD2    C1 5213   2.162   0.744  11.601 -0.4239 -0.6630 -0.2484
  348MPD2    C2 5214   2.206   0.809  11.492 -0.2841 -0.7541 -0.5246
  348MPD2    C3 5215   2.119   0.885  11.418 -0.7072  0.0730  0.2339
  348MPD2    C4 5216   1.990   0.910  11.471  0.3617 -0.4928  0.5508
  348MPD2    C5 5217   1.942   0.841  11.576 -0.3802 -0.0168 -0.3235
  348MPD2     H 5218   2.310   0.805  11.459 -0.1287 -0.2986 -0.0808
  348MPD2    H1 5219   1.923   0.985  11.430  0.5213  0.0605  1.3009
  348MPD2    H2 5220   1.994   0.696  11.726  1.0953 -1.1321 -0.3361
  348MPD2    H3 5221   1.841   0.852  11.614 -0.8771 -1.7110 -1.1801
  348MPD2     N 5222   2.164   0.933  11.293  0.4561 -0.7202  0.1187
  348MPD2    H5 5223   2.256   0.898  11.268  0.6908 -1.5589  2.1556
  348MPD2    N1 5224   2.251   0.651  11.664 -0.4436 -0.1411 -0.6333
  348MPD2    H7 5225   2.339   0.650  11.614  0.3661 -0.5492  0.7937
  349TMC3    C1 5226   2.311   0.433  11.673 -0.4448  0.2627 -0.2446
  349TMC3    C2 5227   2.298   0.318  11.735  0.1610 -0.1058  0.3821
  349TMC3    C3 5228   2.348   0.208  11.668 -0.3862  0.1282 -0.5743
  349TMC3    C4 5229   2.365   0.440  11.544 -0.1631 -0.2942  0.5905
  349TMC3    C5 5230   2.396   0.325  11.476  1.0524 -0.2844 -0.0427
  349TMC3    C6 5231   2.391   0.204  11.537 -0.0226 -0.8580 -0.2483
  349TMC3     C 5232   2.218   0.535  11.715  0.1170  0.2091 -0.2176
  349TMC3     O 5233   2.116   0.506  11.779 -0.5397  0.1724  0.1151
  349TMC3     H 5234   2.260   0.308  11.836 -0.0045  0.5758  0.3860
  349TMC3    H1 5235   2.356   0.536  11.494 -0.2682 -0.8724 -0.5100
  349TMC3    H2 5236   2.441   0.118  11.493  0.3238  0.8532 -3.2412
  349TMC3    C7 5237   2.363   0.333  11.335 -0.0191 -0.8567 -0.2084
  349TMC3    C8 5238   2.342   0.079  11.739  0.2108  0.0081  0.3105
  349TMC3    O1 5239   2.279   0.253  11.290  0.4662  0.3738  0.4007
  349TMC3    O2 5240   2.433   4.722  11.717  0.3337  0.0475  0.1531
  350MPD2     C 5241   1.303   3.784  10.214 -0.3277 -0.1974  0.9250
  350MPD2    C1 5242   1.355   3.657  10.207  0.3243  0.1997 -0.8091
  350MPD2    C2 5243   1.485   3.626  10.173 -0.4787  0.0847  0.0561
  350MPD2    C3 5244   1.575   3.730  10.146  0.0551  0.1134  0.4608
  350MPD2    C4 5245   1.526   3.856  10.150  0.0631 -0.5099  0.3872
  350MPD2    C5 5246   1.393   3.879  10.175  0.9845 -0.2270 -0.3629
  350MPD2     H 5247   1.512   3.521  10.174  1.4269  0.5784  0.2082
  350MPD2    H1 5248   1.587   3.945  10.140 -2.6660  1.4024  0.6607
  350MPD2    H2 5249   1.201   3.819  10.230 -1.3229 -2.9311  0.4607
  350MPD2    H3 5250   1.361   3.980  10.199 -1.6295 -1.1820  0.2035
  350MPD2     N 5251   1.705   3.697  10.112 -0.0409  0.1683  0.6123
  350MPD2    H5 5252   1.723   3.597  10.112 -0.9456  0.0059 -0.2604
  350MPD2    N1 5253   1.271   3.544  10.226  0.0599 -0.6917 -0.6113
  350MPD2    H7 5254   1.316   3.458  10.199  0.1786 -0.9425  0.3807
  351TMC3    C1 5255   1.086   3.410  10.274  0.7134  0.2541  0.2821
  351TMC3    C2 5256   1.156   3.314  10.198 -0.3035 -0.0012  1.0833
  351TMC3    C3 5257   1.137   3.185  10.232 -0.0148  0.0074  0.1729
  351TMC3    C4 5258   0.997   3.380  10.370 -0.4687  0.1140  0.0158
  351TMC3    C5 5259   0.967   3.247  10.381  0.4548  1.0709  0.0404
  351TMC3    C6 5260   1.039   3.153  10.318  0.0000 -0.3458 -0.4801
  351TMC3     C 5261   1.131   3.544  10.267  0.0071 -0.4709  0.6770
  351TMC3     O 5262   1.061   3.634  10.311  0.2768  0.6557 -0.4664
  351TMC3     H 5263   1.218   3.341  10.113 -2.4862  1.4749 -0.0407
  351TMC3    H1 5264   0.945   3.454  10.430 -4.5843 -2.3967 -0.4800
  351TMC3    H2 5265   1.000   3.052  10.326 -0.1279 -0.1473  1.3375
  351TMC3    C7 5266   0.844   3.205  10.448  0.0311 -0.3490  0.6744
  351TMC3    C8 5267   1.215   3.080  10.173  0.4654  0.4867  0.6438
  351TMC3    O1 5268   0.835   3.088  10.486 -0.2404 -0.1346 -0.4572
  351TMC3    O2 5269   1.258   3.095  10.060  0.2846  0.1977 -0.1627
  352MPD2     C 5270   1.166   0.159   0.893  0.1535  0.8427 -0.2898
  352MPD2    C1 5271   1.071   0.219   0.980  0.4801  0.5247  0.4525
  352MPD2    C2 5272   1.099   0.214   1.117  0.4605  0.3370 -0.0400
  352MPD2    C3 5273   1.217   0.173   1.170 -0.4011 -0.1781  0.9461
  352MPD2    C4 5274   1.304   0.104   1.089  0.6248 -0.5648 -0.1531
  352MPD2    C5 5275   1.271   0.098   0.953 -0.2497  0.3926 -0.9654
  352MPD2     H 5276   1.027   0.256   1.186  0.8281 -0.4818  0.8357
  352MPD2    H1 5277   1.399   0.071   1.130  0.7921 -2.6967 -2.2983
  352MPD2    H2 5278   1.149   0.148   0.787 -2.0260 -0.0296  0.1425
  352MPD2    H3 5279   1.345   0.041   0.898 -0.3023 -1.0051  0.4195
  352MPD2     N 5280   1.250   0.173   1.311  0.0959  0.7240  0.4434
  352MPD2    H5 5281   1.321   0.112   1.349 -1.2277 -0.6852  0.6728
  352MPD2    N1 5282   0.962   0.283   0.920 -0.3018 -0.3475  0.3342
  352MPD2    H7 5283   0.948   0.282   0.819 -0.9988  2.0783  0.4029
  353TMC3    C1 5284   1.161   0.192   1.532  0.4016  0.3425 -0.1121
  353TMC3    C2 5285   1.213   0.062   1.543  0.3381 -0.1388 -0.7922
  353TMC3    C3 5286   1.151   4.700   1.632  0.4316  0.2453  0.0531
  353TMC3    C4 5287   1.029   0.215   1.570 -0.0923  0.1025  0.5531
  353TMC3    C5 5288   0.966   0.118   1.643 -0.0465  0.7840 -0.1630
  353TMC3    C6 5289   1.023   0.001   1.671  0.4577  0.2203  0.2983
  353TMC3     C 5290   1.188   0.259   1.405  0.6606  0.2804  0.2573
  353TMC3     O 5291   1.116   0.355   1.370 -0.5628 -0.0260  0.0862
  353TMC3     H 5292   1.314   0.035   1.517  0.3371 -0.7809 -0.1322
  353TMC3    H1 5293   0.989   0.315   1.561 -0.5979 -0.1716 -0.1944
  353TMC3    H2 5294   0.962   4.642   1.705 -0.3835  0.9976  0.7061
  353TMC3    C7 5295   0.821   0.105   1.603 -0.3034 -1.2564  0.3035
  353TMC3    C8 5296   1.186   4.560   1.620 -0.0718  0.0738 -0.0114
  353TMC3    O1 5297   0.741   0.041   1.671  0.2197 -0.2040  0.2608
  353TMC3    O2 5298   1.244   4.527   1.520 -0.4606 -0.3283 -0.3658
  354TMC3    C1 5299   1.500   1.633  13.368  0.5403  0.1390 -0.4246
  354TMC3    C2 5300   1.460   1.765  13.361 -0.2790  0.1941 -0.0350
  354TMC3    C3 5301   1.456   1.821  13.237 -0.0779  0.3673  0.1146
  354TMC3    C4 5302   1.535   1.569  13.257  0.7022 -0.2290 -0.5753
  354TMC3    C5 5303   1.501   1.622  13.134  0.5814 -0.9117  0.8378
  354TMC3    C6 5304   1.464   1.754  13.119 -0.5940  0.5456 -0.2997
  354TMC3     C 5305   1.471   1.549  13.484  0.9760  0.0962 -0.3107
  354TMC3     O 5306   1.428   1.435  13.460 -0.8102 -0.2593  0.3292
  354TMC3     H 5307   1.447   1.816  13.456  2.2480  1.6686 -0.4700
  354TMC3    H1 5308   1.539   1.461  13.264  0.6143 -0.2639 -1.0506
  354TMC3    H2 5309   1.441   1.802  13.025 -2.1628 -2.3503 -1.3884
  354TMC3    C7 5310   1.566   1.556  13.026  0.5793  0.8342 -0.0275
  354TMC3    C8 5311   1.398   1.953  13.238  0.3066  0.0938 -0.2129
  354TMC3    O1 5312   1.600   1.439  13.048 -0.4470  0.4998 -0.0131
  354TMC3    O2 5313   1.349   1.990  13.343  0.5486 -0.0043 -0.1383
  355MPD2     C 5314   1.670   2.682  11.754 -0.6093 -0.6975 -0.7443
  355MPD2    C1 5315   1.660   2.764  11.638 -0.2286  0.6883  0.2434
  355MPD2    C2 5316   1.782   2.803  11.574  0.3490  0.1409  0.1710
  355MPD2    C3 5317   1.909   2.756  11.630  0.3791  0.6824  0.3059
  355MPD2    C4 5318   1.909   2.678  11.744 -0.6598 -0.7407  0.6507
  355MPD2    C5 5319   1.791   2.642  11.799  0.4628 -0.7730  0.1842
  355MPD2     H 5320   1.791   2.864  11.485 -3.0194 -0.4024 -0.5530
  355MPD2    H1 5321   2.005   2.645  11.782 -0.8414 -3.5566 -1.3185
  355MPD2    H2 5322   1.581   2.647  11.805 -0.5639  0.1387 -0.1036
  355MPD2    H3 5323   1.791   2.592  11.896 -0.6265  1.8724  1.5348
  355MPD2     N 5324   2.035   2.795  11.589 -0.2433  0.4343  0.7162
  355MPD2    H5 5325   2.121   2.778  11.641  1.0410  0.1238 -1.4852
  355MPD2    N1 5326   1.524   2.786  11.594 -0.1715  0.1401 -0.3089
  355MPD2    H7 5327   1.460   2.743  11.659  0.5175 -1.1885 -0.5028
  356TMC3    C1 5328   2.160   2.976  11.494  1.0935  0.0933  0.6055
  356TMC3    C2 5329   2.204   3.050  11.384  0.0203 -0.0543  0.1532
  356TMC3    C3 5330   2.295   3.154  11.397  0.1634  0.1789  0.7026
  356TMC3    C4 5331   2.197   3.009  11.627  0.3691 -0.1635  0.1356
  356TMC3    C5 5332   2.283   3.114  11.637 -0.2124  0.3851 -0.1687
  356TMC3    C6 5333   2.331   3.181  11.527 -0.1814 -0.1690 -0.3066
  356TMC3     C 5334   2.052   2.878  11.479 -0.2745  0.1195 -0.5550
  356TMC3     O 5335   1.988   2.873  11.377 -0.5938 -0.2847 -0.2745
  356TMC3     H 5336   2.167   3.022  11.287  2.6210 -3.0280  0.0050
  356TMC3    H1 5337   2.159   2.952  11.711  2.1723  1.4666  2.0472
  356TMC3    H2 5338   2.420   3.242  11.542  0.3963 -0.3068 -3.2084
  356TMC3    C7 5339   2.312   3.154  11.775  0.2297  0.2276 -0.2739
  356TMC3    C8 5340   2.371   3.202  11.281  0.0168 -0.1031 -0.7986
  356TMC3    O1 5341   2.252   3.090  11.861 -0.3960  0.3974 -0.6032
  356TMC3    O2 5342   2.341   3.150  11.177  0.2396  0.1298  0.1867
  357MPD2     C 5343   1.973   2.074   1.332 -0.0825  0.6593  0.9374
  357MPD2    C1 5344   2.072   1.988   1.389 -0.2950  0.0656 -0.1433
  357MPD2    C2 5345   2.021   1.905   1.491 -0.1563  0.5375 -0.4026
  357MPD2    C3 5346   1.887   1.904   1.528  0.5275 -0.2126  0.2457
  357MPD2    C4 5347   1.797   1.992   1.472  0.8430  0.0315  0.3609
  357MPD2    C5 5348   1.840   2.076   1.373  0.1251  0.7871 -0.1593
  357MPD2     H 5349   2.096   1.846   1.542 -0.9177  0.6182  0.8069
  357MPD2    H1 5350   1.691   1.984   1.494  1.1231  0.9442  1.9938
  357MPD2    H2 5351   2.008   2.141   1.254 -0.6220 -0.3522 -0.1751
  357MPD2    H3 5352   1.767   2.127   1.312 -0.5618  1.2330  1.0374
  357MPD2     N 5353   1.836   1.810   1.618  0.2409 -0.8946  0.5408
  357MPD2    H5 5354   1.738   1.809   1.642  0.1529  0.3555  0.2453
  357MPD2    N1 5355   2.211   1.994   1.347 -0.0035 -0.2896  0.0098
  357MPD2    H7 5356   2.237   2.066   1.280 -0.9346 -0.3330 -0.4029
  358TMC3    C1 5357   2.416   1.895   1.290 -1.0613 -0.0046  0.3938
  358TMC3    C2 5358   2.391   1.912   1.152  0.5921 -1.1891  0.4969
  358TMC3    C3 5359   2.461   1.853   1.051  0.3294  0.1157 -0.1102
  358TMC3    C4 5360   2.514   1.810   1.322 -0.9547 -0.5977 -0.0205
  358TMC3    C5 5361   2.577   1.740   1.222  0.2236 -0.1888 -0.1994
  358TMC3    C6 5362   2.552   1.761   1.086  1.1461 -0.5299  0.3464
  358TMC3     C 5363   2.316   1.925   1.393 -1.0067  0.6785  0.2197
  358TMC3     O 5364   2.327   1.863   1.497 -0.4796 -0.3181  0.0033
  358TMC3     H 5365   2.314   1.984   1.125 -0.5210 -2.9133 -0.9121
  358TMC3    H1 5366   2.539   1.798   1.427 -1.1764 -1.7443 -0.0999
  358TMC3    H2 5367   2.615   1.717   1.010  0.1221 -1.9429  0.3108
  358TMC3    C7 5368   2.700   1.677   1.264  0.1856  0.4982  0.3812
  358TMC3    C8 5369   2.395   1.822   0.923  0.1213 -0.6686 -0.2724
  358TMC3    O1 5370   2.732   1.693   1.382  0.6352  0.0533  0.1869
  358TMC3    O2 5371   2.329   1.914   0.873 -0.7082 -0.6678  0.5967
  359MPD2     C 5372   2.437   1.397  12.639 -0.2096 -0.3562 -0.2251
  359MPD2    C1 5373   2.360   1.410  12.521 -0.8722 -0.7848 -0.1918
  359MPD2    C2 5374   2.240   1.343  12.506  0.4295 -0.8384  0.3195
  359MPD2    C3 5375   2.184   1.272  12.608  0.6810  0.0121  0.0018
  359MPD2    C4 5376   2.250   1.272  12.728  0.3253 -0.2151  0.8810
  359MPD2    C5 5377   2.371   1.334  12.742  0.5447 -0.2831 -0.0934
  359MPD2     H 5378   2.204   1.353  12.404 -0.3866 -0.5775  0.6377
  359MPD2    H1 5379   2.221   1.212  12.814  1.5214 -2.2298 -0.1335
  359MPD2    H2 5380   2.534   1.445  12.648 -0.4162  0.0315 -0.0645
  359MPD2    H3 5381   2.429   1.328  12.833  0.4584  2.8819  0.1870
  359MPD2     N 5382   2.066   1.194  12.589  0.4573 -0.4100  0.1998
  359MPD2    H5 5383   2.042   1.126  12.661  2.1222 -0.5836  0.5780
  359MPD2    N1 5384   2.404   1.481  12.406  0.8729 -0.3042 -0.0101
  359MPD2    H7 5385   2.344   1.480  12.324  0.1716 -0.3429  0.5096
  360TMC3    C1 5386   2.557   1.580  12.256 -0.7115  0.6407  0.0691
  360TMC3    C2 5387   2.634   1.693  12.233  0.2105 -0.2489  0.2924
  360TMC3    C3 5388   2.683   1.716  12.107 -0.0525  0.0714 -0.1855
  360TMC3    C4 5389   2.518   1.497  12.158  0.8615 -0.0605 -0.2109
  360TMC3    C5 5390   2.564   1.524  12.031 -0.2910  0.3866 -0.7525
  360TMC3    C6 5391   2.642   1.631  12.004 -0.0890 -0.1001 -0.2235
  360TMC3     C 5392   2.523   1.547  12.394  0.2718  0.1165 -0.4748
  360TMC3     O 5393   2.593   1.591  12.485 -0.7093 -0.4061  0.4172
  360TMC3     H 5394   2.680   1.745  12.317  0.7269 -1.0266  0.4863
  360TMC3    H1 5395   2.464   1.406  12.179  0.7517  0.0059 -0.2095
  360TMC3    H2 5396   2.681   1.649  11.905 -2.1086 -0.6314 -1.1069
  360TMC3    C7 5397   2.500   1.476  11.918  0.2311  0.1721 -0.0219
  360TMC3    C8 5398   2.807   1.798  12.102 -0.9725  0.5304 -0.6880
  360TMC3    O1 5399   2.508   1.547  11.818  0.2357 -0.3629  0.1247
  360TMC3    O2 5400   2.819   1.893  12.180  0.2870  0.1903 -0.0203
  361MPD2     C 5401   3.656   4.529  16.913 -0.0970  0.9929 -0.4040
  361MPD2    C1 5402   3.690   4.665  16.917 -0.4729 -0.0395 -0.5088
  361MPD2    C2 5403   3.825   4.692  16.936  0.7499  0.1658 -0.4967
  361MPD2    C3 5404   3.920   4.584  16.950 -0.5760  0.5580  0.6040
  361MPD2    C4 5405   3.879   4.449  16.933  0.2874  0.4620  0.2710
  361MPD2    C5 5406   3.744   4.420  16.915 -0.0563  0.0645 -0.2091
  361MPD2     H 5407   3.844   0.073  16.953 -1.1367  0.4946 -0.4609
  361MPD2    H1 5408   3.949   4.366  16.930 -1.1102 -0.6947 -0.3489
  361MPD2    H2 5409   3.554   4.496  16.899  0.1382 -0.9971  2.6465
  361MPD2    H3 5410   3.709   4.320  16.895 -0.2905  0.0043  0.5202
  361MPD2     N 5411   4.057   4.601  16.977 -0.0307 -0.3348 -0.1955
  361MPD2    H5 5412   4.119   4.521  16.989  0.3829 -0.1426 -1.0810
  361MPD2    N1 5413   3.599   0.045  16.923 -0.7512  0.3340  0.0352
  361MPD2    H7 5414   3.623   0.138  16.888 -2.4964  0.3241 -1.1785
  362TMC3    C1 5415   3.393   0.137  16.996 -0.4673  0.0238 -0.0858
  362TMC3    C2 5416   3.303   0.142  17.093  0.0495  0.2276  0.2693
  362TMC3    C3 5417   3.232   0.257  17.096 -0.4549 -0.3229 -0.2152
  362TMC3    C4 5418   3.415   0.242  16.906  0.3258  0.5777 -0.7009
  362TMC3    C5 5419   3.353   0.361  16.926 -0.0154  0.7662 -0.5019
  362TMC3    C6 5420   3.265   0.369  17.028  0.5004  0.0742 -0.7688
  362TMC3     C 5421   3.477   0.020  16.988 -0.1311 -0.6978  0.4531
  362TMC3     O 5422   3.446   4.650  17.055  0.1514 -0.5044 -0.2429
  362TMC3     H 5423   3.269   0.056  17.149  1.1715  0.9158  2.0351
  362TMC3    H1 5424   3.460   0.219  16.810 -0.1484  2.2466 -1.3214
  362TMC3    H2 5425   3.218   0.465  17.043  2.0149  0.5546  0.8211
  362TMC3    C7 5426   3.358   0.465  16.822 -0.0218 -0.0223  0.4635
  362TMC3    C8 5427   3.142   0.268  17.213 -1.2787 -0.4839  0.4690
  362TMC3    O1 5428   3.256   0.528  16.799 -0.0036 -0.3745  0.1421
  362TMC3    O2 5429   3.128   0.178  17.292  0.1793  0.0282 -0.0514
  363TMC3    C1 5430   1.684   3.101   9.433 -0.0338 -0.6026 -0.1726
  363TMC3    C2 5431   1.697   3.006   9.530 -0.1480 -0.1870 -0.3664
  363TMC3    C3 5432   1.604   3.004   9.629 -0.1804 -0.5470 -0.3714
  363TMC3    C4 5433   1.579   3.191   9.425 -1.0746 -0.1434  0.5083
  363TMC3    C5 5434   1.489   3.177   9.524 -0.1663  0.0994  0.5592
  363TMC3    C6 5435   1.495   3.088   9.624  0.4907  0.4498  0.0320
  363TMC3     C 5436   1.786   3.123   9.332  0.5897  0.3647  0.2772
  363TMC3     O 5437   1.788   3.239   9.286 -0.0606  0.0907 -0.1989
  363TMC3     H 5438   1.791   2.952   9.539  0.4659  1.0012  0.3496
  363TMC3    H1 5439   1.565   3.265   9.347  2.2643 -0.8205 -0.7397
  363TMC3    H2 5440   1.417   3.089   9.699 -0.2492 -2.6591 -0.7025
  363TMC3    C7 5441   1.370   3.265   9.519  0.0747  0.2016  0.5317
  363TMC3    C8 5442   1.645   2.926   9.748 -0.6223  0.2962  0.6639
  363TMC3    O1 5443   1.269   3.216   9.563 -0.0949 -1.2147  0.0495
  363TMC3    O2 5444   1.637   2.995   9.847  0.0219 -0.1043  0.1417
  364MPD2     C 5445   0.812   2.305  10.889 -0.0268 -0.1079 -0.2051
  364MPD2    C1 5446   0.915   2.262  10.809  0.2730 -1.0392 -0.9108
  364MPD2    C2 5447   0.953   2.132  10.817 -0.1903 -0.4619  0.3987
  364MPD2    C3 5448   0.865   2.043  10.884 -0.2867  1.0203  0.2092
  364MPD2    C4 5449   0.759   2.082  10.957 -0.3764 -0.3477 -0.5829
  364MPD2    C5 5450   0.741   2.216  10.967 -0.3775  0.5302  0.1222
  364MPD2     H 5451   1.038   2.090  10.764  0.9157  1.3643  0.7257
  364MPD2    H1 5452   0.705   2.018  11.026  1.3348  0.1047  1.1871
  364MPD2    H2 5453   0.782   2.409  10.893  3.1765  0.7181  1.6510
  364MPD2    H3 5454   0.670   2.257  11.038  1.5165 -1.2323  3.0364
  364MPD2     N 5455   0.903   1.908  10.898  0.4382  0.3703 -0.5370
  364MPD2    H5 5456   0.838   1.851  10.950  0.3369 -0.1982 -1.2774
  364MPD2    N1 5457   0.973   2.369  10.731  0.5864 -0.1558  0.1434
  364MPD2    H7 5458   0.919   2.454  10.721  1.3640  0.1188 -1.8163
  365TMC3    C1 5459   1.094   2.455  10.547 -0.0366  0.5772  0.2021
  365TMC3    C2 5460   1.073   2.437  10.412  0.2861  0.1924 -0.8491
  365TMC3    C3 5461   1.064   2.554  10.340  0.0800  0.4289 -0.4166
  365TMC3    C4 5462   1.079   2.579  10.609 -1.1057  0.2923  0.2806
  365TMC3    C5 5463   1.063   2.690  10.533  1.0293 -0.2048 -0.0962
  365TMC3    C6 5464   1.050   2.680  10.395  1.2347 -0.1941 -1.0546
  365TMC3     C 5465   1.070   2.343  10.638  0.0641  0.1189 -0.3833
  365TMC3     O 5466   1.126   2.238  10.608  0.1047 -0.5029  0.2536
  365TMC3     H 5467   1.078   2.343  10.359 -2.4845 -0.6575  0.4089
  365TMC3    H1 5468   1.087   2.574  10.717 -2.6043  0.3903  0.3910
  365TMC3    H2 5469   1.025   2.762  10.328  1.6665  0.3155 -0.5899
  365TMC3    C7 5470   1.088   2.821  10.601  0.4167  0.6136  0.3888
  365TMC3    C8 5471   1.062   2.553  10.195  0.8497 -0.2263 -0.6034
  365TMC3    O1 5472   1.131   2.915  10.539  0.0712 -0.0204  0.2386
  365TMC3    O2 5473   1.000   2.642  10.137  0.2979  0.6119  0.0100
  366MPD2     C 5474   3.910   2.603  15.609 -0.8605  0.0267  0.0937
  366MPD2    C1 5475   4.030   2.647  15.555  0.4358 -0.2480  0.0793
  366MPD2    C2 5476   4.129   2.554  15.525 -0.2347  0.4003  0.3148
  366MPD2    C3 5477   4.107   2.420  15.544  0.4379  0.3789  0.0803
  366MPD2    C4 5478   3.988   2.378  15.596 -0.2112 -0.2493  0.8851
  366MPD2    C5 5479   3.888   2.467  15.627 -0.1568  0.4037 -0.0631
  366MPD2     H 5480   4.226   2.588  15.490  0.0308  0.1324  0.8022
  366MPD2    H1 5481   3.964   2.273  15.602  1.4306 -0.7068 -0.6309
  366MPD2    H2 5482   3.831   2.667  15.648 -0.7810  0.2167 -0.0574
  366MPD2    H3 5483   3.793   2.439  15.672 -0.5927 -1.1460 -1.9756
  366MPD2     N 5484   4.201   2.326  15.503 -0.2068  0.1774  0.3739
  366MPD2    H5 5485   4.290   2.375  15.495  0.8709 -2.1481 -1.7642
  366MPD2    N1 5486   4.051   2.790  15.527 -0.8618  0.3745 -0.7737
  366MPD2    H7 5487   4.145   2.816  15.500 -0.5354  0.0848  0.0643
  367TMC3    C1 5488   3.996   3.008  15.463  0.1758  0.2183 -0.1493
  367TMC3    C2 5489   4.108   3.064  15.522 -0.5893  0.2338  0.5188
  367TMC3    C3 5490   4.141   3.187  15.475  0.7486  0.1742 -0.6647
  367TMC3    C4 5491   3.931   3.060  15.349 -0.6019 -0.0271 -0.3465
  367TMC3    C5 5492   3.982   3.176  15.298 -0.2011  0.4070 -0.0252
  367TMC3    C6 5493   4.084   3.248  15.362 -0.7002  0.5976  0.6466
  367TMC3     C 5494   3.951   2.878  15.505 -0.0216 -0.3611 -0.8218
  367TMC3     O 5495   3.833   2.852  15.476  0.5596 -0.3332  0.5465
  367TMC3     H 5496   4.151   3.036  15.618  1.7683 -0.3435 -0.7085
  367TMC3    H1 5497   3.845   3.015  15.300 -0.1938  0.2183 -1.2853
  367TMC3    H2 5498   4.109   3.345  15.319  0.5976 -0.7418 -1.6594
  367TMC3    C7 5499   3.914   3.252  15.197 -0.5895 -0.0860 -0.3500
  367TMC3    C8 5500   4.213   3.271  15.570 -0.4290  0.6256 -0.0092
  367TMC3    O1 5501   3.978   3.333  15.143  0.1655 -0.0300 -0.3456
  367TMC3    O2 5502   4.292   3.220  15.644 -0.1104  0.8883  0.1592
  368MPD2     C 5503   0.242   0.625  12.869  0.5105 -0.1818  0.7845
  368MPD2    C1 5504   0.240   0.741  12.796 -0.0282  0.9179 -0.0448
  368MPD2    C2 5505   0.355   0.807  12.770  0.3587  0.5641  0.5234
  368MPD2    C3 5506   0.470   0.754  12.819 -0.0742  0.1133 -0.3672
  368MPD2    C4 5507   0.471   0.636  12.894  0.4050 -0.5463  0.0160
  368MPD2    C5 5508   0.355   0.571  12.909  0.3612  0.6537  0.0422
  368MPD2     H 5509   0.364   0.888  12.698  4.3731 -0.8410 -0.5795
  368MPD2    H1 5510   0.566   0.604  12.936  0.2704 -1.1603 -0.1437
  368MPD2    H2 5511   0.146   0.581  12.895  1.0618 -1.8184  0.0684
  368MPD2    H3 5512   0.346   0.479  12.966 -0.0790  1.9886  2.1268
  368MPD2     N 5513   0.598   0.803  12.794  0.0294  0.2055 -0.9661
  368MPD2    H5 5514   0.680   0.757  12.833  0.4494  1.3088 -0.5506
  368MPD2    N1 5515   0.118   0.778  12.739 -0.0412 -0.8142 -0.5871
  368MPD2    H7 5516   0.047   0.706  12.752  1.1580 -2.0788 -1.0549
  369TMC3    C1 5517   4.656   0.913  12.669  0.4683  0.0197 -0.2574
  369TMC3    C2 5518   4.612   1.034  12.620  0.7552 -0.2364 -0.0751
  369TMC3    C3 5519   4.482   1.045  12.582  0.3697  0.2824 -0.0464
  369TMC3    C4 5520   4.563   0.810  12.692 -0.3535 -0.3862  0.8291
  369TMC3    C5 5521   4.436   0.826  12.660  0.0609  0.2752  0.4451
  369TMC3    C6 5522   4.393   0.945  12.604  0.2361 -0.2904 -0.4656
  369TMC3     C 5523   0.079   0.899  12.679 -0.2786 -0.6289 -0.2366
  369TMC3     O 5524   0.150   0.988  12.632  0.3565  0.2692 -0.1391
  369TMC3     H 5525   4.682   1.110  12.589 -0.3253 -0.8890 -4.1530
  369TMC3    H1 5526   4.596   0.714  12.731 -0.1114 -0.1218  1.2700
  369TMC3    H2 5527   4.289   0.948  12.574 -0.0974 -0.0534  0.7249
  369TMC3    C7 5528   4.342   0.725  12.699 -0.5925 -0.3042 -0.4005
  369TMC3    C8 5529   4.428   1.168  12.528 -0.0392  0.0448  0.7108
  369TMC3    O1 5530   4.362   0.660  12.796  0.6376 -0.5021  0.1497
  369TMC3    O2 5531   4.309   1.166  12.496  0.3243 -0.4874  0.6693
  370TMC3    C1 5532   0.012   0.789  16.048  0.1171  0.5880 -0.0090
  370TMC3    C2 5533   4.685   0.802  16.172  0.8267  0.2815  0.2102
  370TMC3    C3 5534   4.582   0.717  16.204  0.2292 -0.3273  0.1547
  370TMC3    C4 5535   4.708   0.682  15.970  0.7119 -0.2114  0.2917
  370TMC3    C5 5536   4.609   0.596  16.003 -0.2614  0.2003 -0.3815
  370TMC3    C6 5537   4.550   0.612  16.122  0.6605 -0.3355 -0.0980
  370TMC3     C 5538   0.118   0.869  16.003  0.1304  0.4137  0.0416
  370TMC3     O 5539   0.196   0.829  15.915 -0.1804 -0.3770  0.4673
  370TMC3     H 5540   4.717   0.876  16.245 -1.5754 -1.9446  3.5488
  370TMC3    H1 5541   0.029   0.676  15.872  0.5772 -0.5233  0.2475
  370TMC3    H2 5542   4.487   0.535  16.163 -0.2015 -0.4877 -1.7188
  370TMC3    C7 5543   4.603   0.467  15.937  0.5772  0.7259 -0.2425
  370TMC3    C8 5544   4.573   0.685  16.346 -0.0841  0.3443  0.1307
  370TMC3    O1 5545   4.502   0.401  15.935  0.1831  0.6958  0.0088
  370TMC3    O2 5546   4.546   0.571  16.377  0.3226  0.1750  0.9557
  371TMC3    C1 5547   1.176   3.545  15.563  0.5613 -0.7576 -0.1485
  371TMC3    C2 5548   1.070   3.561  15.658  0.8890  0.5136  0.0827
  371TMC3    C3 5549   1.020   3.685  15.681 -0.5078 -0.2272 -0.4909
  371TMC3    C4 5550   1.221   3.651  15.483 -0.0793  0.1456  0.1338
  371TMC3    C5 5551   1.157   3.770  15.504  0.2627 -0.1538  0.6286
  371TMC3    C6 5552   1.053   3.795  15.599  0.2829  0.1526 -0.4451
  371TMC3     C 5553   1.233   3.404  15.548  0.0052 -0.3640  0.4708
  371TMC3     O 5554   1.324   3.388  15.468 -0.1063 -0.1098 -0.1363
  371TMC3     H 5555   1.051   3.488  15.736 -2.3060  0.3741 -0.8305
  371TMC3    H1 5556   1.290   3.632  15.402 -1.1510  0.6746 -0.9018
  371TMC3    H2 5557   1.031   3.898  15.626 -1.7305 -0.4574  0.2752
  371TMC3    C7 5558   1.193   3.882  15.427 -0.4455 -0.0282  0.3042
  371TMC3    C8 5559   0.907   3.698  15.773  0.3799  0.2061 -0.1512
  371TMC3    O1 5560   1.152   3.990  15.455 -0.0098  0.2519 -0.3728
  371TMC3    O2 5561   0.907   3.627  15.870 -0.0757  0.3648 -0.1769
  372MPD2     C 5562   1.108   0.510  13.243  0.4170  0.4691 -0.2476
  372MPD2    C1 5563   1.169   0.473  13.366 -0.6849  0.0267  0.0264
  372MPD2    C2 5564   1.089   0.394  13.449 -0.1467  0.3854  0.1339
  372MPD2    C3 5565   0.967   0.356  13.417  0.4687 -0.0028  0.2512
  372MPD2    C4 5566   0.906   0.405  13.308 -0.1086  0.6874 -0.6415
  372MPD2    C5 5567   0.975   0.489  13.223 -0.4208 -0.2400 -0.8085
  372MPD2     H 5568   1.134   0.361  13.542  3.0652  1.1602 -1.1385
  372MPD2    H1 5569   0.807   0.370  13.278 -0.2052  0.5180 -0.1218
  372MPD2    H2 5570   1.158   0.556  13.159 -0.5574  2.7052  0.3929
  372MPD2    H3 5571   0.931   0.512  13.126 -1.2650  0.3525 -0.2839
  372MPD2     N 5572   0.894   0.262  13.496 -0.2511 -0.3126 -0.7130
  372MPD2    H5 5573   0.803   0.241  13.454 -0.6809  2.0111 -0.9399
  372MPD2    N1 5574   1.300   0.495  13.410 -0.3961  0.1372  0.5291
  372MPD2    H7 5575   1.321   0.458  13.502  0.4453 -0.1810  0.2033
  373TMC3    C1 5576   0.844   0.094  13.647  0.3603  0.5309  0.5815
  373TMC3    C2 5577   0.709   0.128  13.643 -0.3350  0.3552  0.2900
  373TMC3    C3 5578   0.622   0.044  13.709 -0.8526 -0.1237  0.1943
  373TMC3    C4 5579   0.894   4.708  13.712 -0.1155  0.1326 -0.0489
  373TMC3    C5 5580   0.803   4.624  13.759 -1.1156 -0.2023 -0.4191
  373TMC3    C6 5581   0.665   4.647  13.748 -0.5422 -0.7832 -0.2129
  373TMC3     C 5582   0.938   0.184  13.605 -0.2435  0.5311 -0.0739
  373TMC3     O 5583   1.052   0.186  13.656  0.0994 -0.2270 -0.0317
  373TMC3     H 5584   0.674   0.228  13.618  0.5950  0.1664 -1.8192
  373TMC3    H1 5585   1.001   4.692  13.711 -0.2617 -0.8765  0.1262
  373TMC3    H2 5586   0.589   4.578  13.784 -0.0074 -2.2609 -1.9234
  373TMC3    C7 5587   0.855   4.503  13.811 -0.4337  0.1856 -0.2894
  373TMC3    C8 5588   0.487   0.089  13.724  0.6228  0.0560 -0.1230
  373TMC3    O1 5589   0.806   4.447  13.903 -0.0385 -0.4692 -0.0904
  373TMC3    O2 5590   0.453   0.159  13.632 -0.0533 -0.3792  0.7277
  374TMC3    C1 5591   0.997   1.267   9.329  0.3454  0.7646 -0.4524
  374TMC3    C2 5592   1.081   1.369   9.374  0.3798 -0.4276 -0.3067
  374TMC3    C3 5593   1.131   1.456   9.281  0.0856  0.0378 -0.6523
  374TMC3    C4 5594   0.960   1.251   9.195  0.0530  0.0211  0.1736
  374TMC3    C5 5595   1.025   1.339   9.106 -0.9352  0.1185 -0.0870
  374TMC3    C6 5596   1.108   1.439   9.150  0.0105 -0.6262 -0.4196
  374TMC3     C 5597   0.922   1.190   9.424 -0.3359 -0.4104 -1.0440
  374TMC3     O 5598   0.811   1.153   9.388 -0.1625  0.1297  0.0916
  374TMC3     H 5599   1.113   1.375   9.477 -1.7276  0.2770  0.2988
  374TMC3    H1 5600   0.890   1.175   9.163 -1.0632  2.5053 -3.2077
  374TMC3    H2 5601   1.151   1.514   9.084  1.8011  0.2378  1.7630
  374TMC3    C7 5602   0.998   1.341   8.965  0.9654 -0.5641  0.0419
  374TMC3    C8 5603   1.233   1.561   9.318  0.2829  0.3069 -0.6319
  374TMC3    O1 5604   1.091   1.386   8.900 -0.0143  0.2162  0.3311
  374TMC3    O2 5605   1.251   1.655   9.242 -0.4620  1.0118  0.0695
  375MPD2     C 5606   1.625   1.327  16.652  1.0530  0.9357 -0.6870
  375MPD2    C1 5607   1.526   1.314  16.551 -1.3292  0.2982  0.2448
  375MPD2    C2 5608   1.551   1.231  16.443 -0.4430  0.4403  0.4609
  375MPD2    C3 5609   1.670   1.157  16.426 -0.0120 -0.0228 -1.0529
  375MPD2    C4 5610   1.757   1.164  16.536  0.5028 -0.1838  0.4370
  375MPD2    C5 5611   1.737   1.250  16.645  0.3783 -0.3577 -0.5974
  375MPD2     H 5612   1.468   1.232  16.372 -2.8670 -0.4045  3.2821
  375MPD2    H1 5613   1.846   1.103  16.544 -0.8473 -2.3347 -1.0326
  375MPD2    H2 5614   1.624   1.393  16.738 -1.1819 -0.9666  0.7293
  375MPD2    H3 5615   1.808   1.259  16.726 -0.5907 -0.7948  0.3158
  375MPD2     N 5616   1.689   1.077  16.316  0.6809  0.1804 -0.5113
  375MPD2    H5 5617   1.767   1.012  16.313  0.9623  0.5165 -0.3365
  375MPD2    N1 5618   1.405   1.375  16.572  0.3128  0.2276 -0.0962
  375MPD2    H7 5619   1.329   1.348  16.510  0.1725  1.5672 -0.5055
  376TMC3    C1 5620   1.611   0.943  16.148 -0.3952  0.1971  0.1154
  376TMC3    C2 5621   1.635   0.828  16.215  0.0113 -0.5743  0.4206
  376TMC3    C3 5622   1.647   0.712  16.143  0.3872  0.2947 -0.3683
  376TMC3    C4 5623   1.612   0.956  16.012  0.0944  0.0510 -0.7575
  376TMC3    C5 5624   1.629   0.839  15.939  0.0712  0.9670 -0.4545
  376TMC3    C6 5625   1.658   0.720  16.005  0.1938 -0.8227  0.2396
  376TMC3     C 5626   1.605   1.065  16.216 -0.1165  0.9306 -0.5914
  376TMC3     O 5627   1.534   1.151  16.173 -0.0121  0.1325 -0.3710
  376TMC3     H 5628   1.641   0.827  16.323  1.8341  0.1205  0.3401
  376TMC3    H1 5629   1.582   1.044  15.958  2.6941  1.1982 -0.3270
  376TMC3    H2 5630   1.688   0.639  15.940  0.9582 -0.3466  0.0041
  376TMC3    C7 5631   1.612   0.838  15.793  0.9476 -0.0220 -0.7910
  376TMC3    C8 5632   1.734   0.614  16.200  0.4116  0.3063  0.1210
  376TMC3    O1 5633   1.626   0.948  15.738 -0.2102  0.3189 -0.0788
  376TMC3    O2 5634   1.831   0.566  16.139 -0.2127  0.4392 -0.8053
  377MPD2     C 5635   3.848   1.212  12.226 -0.2993 -0.6916  0.8549
  377MPD2    C1 5636   3.921   1.106  12.280  0.1129  0.5248 -0.0679
  377MPD2    C2 5637   3.845   1.013  12.350  0.0219  0.0357  0.3310
  377MPD2    C3 5638   3.710   1.043  12.376 -0.8636 -0.5208  0.7097
  377MPD2    C4 5639   3.646   1.150  12.330 -0.3321 -1.2946 -0.3596
  377MPD2    C5 5640   3.713   1.235  12.255 -0.2423 -0.2746 -0.4414
  377MPD2     H 5641   3.893   0.920  12.379  0.7146 -0.0075 -0.9813
  377MPD2    H1 5642   3.543   1.174  12.353  0.3308 -0.7013  1.9617
  377MPD2    H2 5643   3.903   1.283  12.165 -1.3771  1.0471  1.9172
  377MPD2    H3 5644   3.665   1.322  12.212 -2.6097 -1.4583 -0.2062
  377MPD2     N 5645   3.628   0.964  12.459  0.6109 -0.0968  0.4820
  377MPD2    H5 5646   3.536   0.998  12.484  0.8080 -0.6267  1.9495
  377MPD2    N1 5647   4.060   1.079  12.238 -0.2289 -0.6451  0.0459
  377MPD2    H7 5648   4.105   1.124  12.160  0.1753  1.7266  1.6590
  378TMC3    C1 5649   4.455   1.051  12.130  0.7203  0.6066  0.0889
  378TMC3    C2 5650   4.325   1.070  12.179  0.8799 -0.0537 -0.6133
  378TMC3    C3 5651   4.265   0.966  12.255 -0.5100 -0.1322 -0.1794
  378TMC3    C4 5652   4.523   0.936  12.164 -0.2085 -0.5952 -0.1559
  378TMC3    C5 5653   4.466   0.848  12.252  0.7388  0.4065 -0.1320
  378TMC3    C6 5654   4.337   0.859  12.298 -0.6590 -0.2094 -0.1352
  378TMC3     C 5655   4.490   1.114  12.003  0.1061  0.3995  0.3341
  378TMC3     O 5656   4.395   1.157  11.939  0.9057  0.7573 -0.4195
  378TMC3     H 5657   4.271   1.160  12.152 -1.8401 -1.9822 -1.6091
  378TMC3    H1 5658   4.619   0.924  12.115  0.9617 -1.3942  2.3044
  378TMC3    H2 5659   4.299   0.786  12.368 -2.0694  1.3682  0.7456
  378TMC3    C7 5660   4.550   0.758  12.328  0.1165 -0.5614  0.0547
  378TMC3    C8 5661   4.136   0.988  12.315 -0.6910 -0.4404 -0.1404
  378TMC3    O1 5662   4.493   0.660  12.377  0.0656 -0.1029 -0.3904
  378TMC3    O2 5663   4.117   0.929  12.417  0.3577  0.4051 -0.6949
  379MPD2     C 5664   0.002   3.632  16.503 -0.6018 -0.1756 -1.5636
  379MPD2    C1 5665   0.103   3.593  16.417 -0.5046  0.4383 -0.0235
  379MPD2    C2 5666   0.196   3.498  16.456 -0.3491  0.1943 -0.0902
  379MPD2    C3 5667   0.199   3.455  16.585  0.2415 -0.1433 -0.1497
  379MPD2    C4 5668   0.109   3.508  16.680 -0.1913 -0.1057  0.1193
  379MPD2    C5 5669   0.009   3.595  16.636 -0.1841  0.1843  0.8613
  379MPD2     H 5670   0.274   3.468  16.386  1.0715 -0.1671  1.6356
  379MPD2    H1 5671   0.124   3.494  16.786  1.2221 -0.8960 -0.1904
  379MPD2    H2 5672   4.642   3.688  16.467 -1.6830 -0.3819  0.6280
  379MPD2    H3 5673   4.650   3.622  16.699  0.0320 -0.7330  1.5447
  379MPD2     N 5674   0.299   3.374  16.631  0.3597 -0.0671  0.0624
  379MPD2    H5 5675   0.278   3.332  16.721  0.9608 -0.0711  0.1949
  379MPD2    N1 5676   0.120   3.661  16.290 -0.2121 -0.7546  0.7272
  379MPD2    H7 5677   0.043   3.719  16.260 -0.8281 -0.9665  1.9035
  380TMC3    C1 5678   0.196   3.683  16.062 -0.1380 -0.5508 -0.2117
  380TMC3    C2 5679   0.295   3.631  15.986 -0.2169 -0.1731 -0.2955
  380TMC3    C3 5680   0.249   3.591  15.862  0.0173 -0.4577 -0.0027
  380TMC3    C4 5681   0.065   3.699  16.033 -0.3702 -0.0039  0.3448
  380TMC3    C5 5682   0.023   3.651  15.910 -0.4914 -0.8617 -0.4113
  380TMC3    C6 5683   0.119   3.599  15.819  0.6398 -0.2771  0.2802
  380TMC3     C 5684   0.228   3.652  16.201  0.0551 -0.3404  0.2127
  380TMC3     O 5685   0.338   3.606  16.225  0.3241 -0.4334  0.1842
  380TMC3     H 5686   0.400   3.645  16.009 -0.0646 -2.2422  0.2981
  380TMC3    H1 5687   4.720   3.752  16.097 -0.5988  1.8220 -1.4171
  380TMC3    H2 5688   0.093   3.581  15.715  1.2617 -0.1681  0.1102
  380TMC3    C7 5689   4.622   3.706  15.853  0.2770 -0.2400  0.3886
  380TMC3    C8 5690   0.346   3.558  15.763  0.5320 -0.0148  0.5911
  380TMC3    O1 5691   4.593   3.818  15.897 -0.4268  0.1761 -0.3086
  380TMC3    O2 5692   0.318   3.578  15.640 -0.3276 -0.8687 -0.0983
  381TMC3    C1 5693   4.579   0.032  16.211  0.0090 -0.0184 -0.6347
  381TMC3    C2 5694   4.625   0.153  16.165  0.1156 -0.3895 -0.1789
  381TMC3    C3 5695   4.670   0.238  16.263  0.4804 -0.3312 -0.1231
  381TMC3    C4 5696   4.584   4.717  16.343  0.0079 -0.0658 -0.6049
  381TMC3    C5 5697   4.631   0.089  16.434  0.7087  0.9226  0.0260
  381TMC3    C6 5698   4.666   0.211  16.396  0.3353 -0.0692  0.1297
  381TMC3     C 5699   4.481   4.693  16.126  0.5233  0.2342 -0.3787
  381TMC3     O 5700   4.434   4.591  16.177  0.4711  0.1342  0.3206
  381TMC3     H 5701   4.634   0.179  16.060  1.3761 -0.2130 -0.0258
  381TMC3    H1 5702   4.543   4.621  16.372  1.3336  0.0483  1.6191
  381TMC3    H2 5703   4.709   0.284  16.463 -0.1825 -0.7573  1.2141
  381TMC3    C7 5704   4.632   0.036  16.568 -0.3359  0.9106  0.2391
  381TMC3    C8 5705   0.055   0.320  16.224  0.5214  0.5534  0.5076
  381TMC3    O1 5706   4.636   4.639  16.576  0.8346 -0.0381  0.3907
  381TMC3    O2 5707   0.125   0.268  16.134  0.0148 -0.2180  0.3908
  382MPD2     C 5708   4.330   2.758  17.535 -0.2709  0.1399 -0.4489
  382MPD2    C1 5709   4.193   2.775  17.523  0.4929 -1.0324  0.0462
  382MPD2    C2 5710   4.116   2.661  17.488  0.2189 -0.2111  0.4660
  382MPD2    C3 5711   4.168   2.535  17.498 -0.1756 -0.4291  0.2178
  382MPD2    C4 5712   4.307   2.524  17.509 -0.1535 -0.4400 -0.3593
  382MPD2    C5 5713   4.385   2.636  17.534  0.3870  0.0017 -0.4386
  382MPD2     H 5714   4.009   2.668  17.477  0.2549 -0.7146 -0.1929
  382MPD2    H1 5715   4.356   2.427  17.512 -1.1924 -1.0417 -2.9093
  382MPD2    H2 5716   4.394   2.839  17.567  0.0595 -0.3555  0.1410
  382MPD2    H3 5717   4.490   2.628  17.559  0.5160  2.3421 -0.2245
  382MPD2     N 5718   4.094   2.417  17.508  0.3006 -0.8759  0.5916
  382MPD2    H5 5719   4.144   2.331  17.528 -0.2936 -0.9867  1.5779
  382MPD2    N1 5720   4.131   2.908  17.528 -0.5012 -0.6839  0.1134
  382MPD2    H7 5721   4.044   2.921  17.478 -0.3972 -2.2154 -0.4940
  383TMC3    C1 5722   3.918   2.269  17.505  0.1810 -0.3232  0.2827
  383TMC3    C2 5723   3.809   2.229  17.436  0.3926 -0.1596 -0.6302
  383TMC3    C3 5724   3.773   2.098  17.446 -0.3237 -0.6185 -0.5577
  383TMC3    C4 5725   3.992   2.193  17.591 -0.2627 -0.1559  0.1924
  383TMC3    C5 5726   3.946   2.062  17.605  0.1017 -0.4366  0.0268
  383TMC3    C6 5727   3.839   2.015  17.528  0.2840 -0.4221 -1.0430
  383TMC3     C 5728   3.960   2.407  17.490  0.4374  0.1235 -0.0039
  383TMC3     O 5729   3.881   2.492  17.446  0.3137 -0.1277 -0.4070
  383TMC3     H 5730   3.757   2.301  17.373 -1.1915  1.3298  2.3561
  383TMC3    H1 5731   4.064   2.239  17.658  0.1117  0.3392 -0.5530
  383TMC3    H2 5732   3.811   1.911  17.541 -1.2387  0.1464  0.1369
  383TMC3    C7 5733   4.020   1.971  17.686 -0.1629 -0.0576 -0.4366
  383TMC3    C8 5734   3.678   2.046  17.348  0.2777  0.4036 -0.0578
  383TMC3    O1 5735   3.999   1.851  17.676  0.2316  0.1887  0.3364
  383TMC3    O2 5736   3.611   2.129  17.291 -0.8893 -0.5264  0.0187
  384MPD2     C 5737   1.383   4.007  12.504  0.3329  0.1506  0.3767
  384MPD2    C1 5738   1.278   3.925  12.506 -0.3337  0.8712  0.1648
  384MPD2    C2 5739   1.283   3.809  12.426 -0.2657  0.0813 -0.0595
  384MPD2    C3 5740   1.397   3.778  12.356 -0.0995  0.3387  0.1161
  384MPD2    C4 5741   1.514   3.851  12.363  0.9437 -0.4065 -0.3701
  384MPD2    C5 5742   1.499   3.964  12.439 -0.5140  0.3777 -0.9593
  384MPD2     H 5743   1.196   3.745  12.420 -2.3227  3.0456 -1.4610
  384MPD2    H1 5744   1.605   3.834  12.307  2.0136  0.5389  1.0766
  384MPD2    H2 5745   1.383   4.100  12.560 -3.1694  1.0927 -1.1657
  384MPD2    H3 5746   1.582   4.031  12.456 -0.0358 -0.2259 -0.8855
  384MPD2     N 5747   1.413   3.653  12.293  0.1808  0.6123  0.1524
  384MPD2    H5 5748   1.509   3.620  12.292  0.4794  1.4617  1.1713
  384MPD2    N1 5749   1.164   3.962  12.579 -0.2200 -0.0843  0.5490
  384MPD2    H7 5750   1.189   4.013  12.663  0.0532  1.0331 -0.2048
  385TMC3    C1 5751   1.339   3.440  12.359  0.9364  0.5164 -0.1181
  385TMC3    C2 5752   1.284   3.321  12.300 -0.2094 -0.3092 -0.3578
  385TMC3    C3 5753   1.262   3.219  12.392 -0.6295  0.3526  0.4556
  385TMC3    C4 5754   1.372   3.449  12.491 -0.0502 -0.2772  0.9300
  385TMC3    C5 5755   1.337   3.347  12.581 -0.2218  0.1845  0.0275
  385TMC3    C6 5756   1.276   3.239  12.525 -0.1904  0.5164  1.0316
  385TMC3     C 5757   1.315   3.560  12.288  0.1880  0.1083 -0.5166
  385TMC3     O 5758   1.195   3.578  12.268  0.7784 -0.1315 -0.2175
  385TMC3     H 5759   1.272   3.319  12.192 -1.1851  0.5671 -0.2661
  385TMC3    H1 5760   1.413   3.542  12.527 -0.5500  0.6933 -0.9962
  385TMC3    H2 5761   1.261   3.148  12.582 -0.8017 -0.5282 -0.7926
  385TMC3    C7 5762   1.286   3.398  12.703 -0.2940  0.2034  0.3554
  385TMC3    C8 5763   1.243   3.083  12.335 -0.0847 -0.6958  0.4749
  385TMC3    O1 5764   1.279   3.520  12.716  0.0216  0.8373 -0.3211
  385TMC3    O2 5765   1.241   2.993  12.417  0.1511  0.4040 -0.6247
  386TMC3    C1 5766   0.644   1.459  11.798  0.1382 -0.4079 -0.1734
  386TMC3    C2 5767   0.698   1.407  11.685  0.4287  0.7244 -0.0288
  386TMC3    C3 5768   0.664   1.464  11.567 -0.1869  0.1942 -0.0003
  386TMC3    C4 5769   0.559   1.566  11.794 -0.7145 -0.7111 -0.1042
  386TMC3    C5 5770   0.526   1.618  11.669  0.2036 -0.1675 -0.1890
  386TMC3    C6 5771   0.573   1.567  11.552 -0.1648 -0.4102 -0.4535
  386TMC3     C 5772   0.665   1.397  11.927  0.1685  0.1252 -0.1036
  386TMC3     O 5773   0.578   1.401  12.012  0.1217 -0.2067 -0.4890
  386TMC3     H 5774   0.755   1.316  11.693  1.2123  1.3853  1.8022
  386TMC3    H1 5775   0.506   1.601  11.882  0.0610  1.1103 -0.3457
  386TMC3    H2 5776   0.540   1.600  11.454  0.6340  1.5409 -0.0591
  386TMC3    C7 5777   0.400   1.693  11.674  0.1013  0.1400  0.5100
  386TMC3    C8 5778   0.723   1.417  11.440  0.0287  0.5099  0.7394
  386TMC3    O1 5779   0.342   1.691  11.782  0.0747 -0.0571 -0.1975
  386TMC3    O2 5780   0.656   1.419  11.338  0.1453 -0.4475  0.4081
  387MPD2     C 5781   3.202   1.766   9.652 -0.3207 -0.2372  0.6750
  387MPD2    C1 5782   3.330   1.729   9.630  0.2410  0.2728  0.6927
  387MPD2    C2 5783   3.362   1.612   9.566  0.0594  0.2511  0.2770
  387MPD2    C3 5784   3.263   1.526   9.524 -0.6127  0.0587 -0.4847
  387MPD2    C4 5785   3.134   1.574   9.530  0.4922 -0.3570 -0.3069
  387MPD2    C5 5786   3.105   1.698   9.582 -0.1760  0.0256  0.4159
  387MPD2     H 5787   3.467   1.584   9.554  0.1552 -0.0246  1.7360
  387MPD2    H1 5788   3.055   1.518   9.482 -1.5626  1.7445  0.6179
  387MPD2    H2 5789   3.172   1.847   9.717  1.5706 -0.1992  1.4953
  387MPD2    H3 5790   3.004   1.733   9.571 -0.2375 -0.2753  0.0300
  387MPD2     N 5791   3.306   1.398   9.473 -0.5978  0.2369  0.5733
  387MPD2    H5 5792   3.405   1.382   9.457 -0.4854  0.4188  1.0837
  387MPD2    N1 5793   3.437   1.793   9.694 -0.5318  0.4368 -0.0969
  387MPD2    H7 5794   3.529   1.757   9.670 -0.8776 -0.4932 -0.0400
  388TMC3    C1 5795   3.556   1.912   9.864 -0.9102 -0.1540  0.0759
  388TMC3    C2 5796   3.551   1.994   9.971  0.7775  0.5181 -0.0311
  388TMC3    C3 5797   3.642   1.971  10.076 -0.5775 -0.4726  0.1782
  388TMC3    C4 5798   3.649   1.809   9.856 -0.0631  0.2376 -0.2950
  388TMC3    C5 5799   3.728   1.784   9.966 -0.3426  0.8644 -0.1106
  388TMC3    C6 5800   3.732   1.869  10.066 -0.1084  0.1766 -0.8375
  388TMC3     C 5801   3.428   1.889   9.800  0.5694 -0.3243 -0.4556
  388TMC3     O 5802   3.330   1.952   9.836 -0.0174  0.0003  0.2215
  388TMC3     H 5803   3.477   2.073   9.976 -1.8668 -2.1002  1.9928
  388TMC3    H1 5804   3.654   1.741   9.772  2.1773  1.4333 -1.1271
  388TMC3    H2 5805   3.820   1.859  10.129 -0.8353 -0.5892  0.0524
  388TMC3    C7 5806   3.804   1.660   9.977 -0.4187  0.4055  1.0583
  388TMC3    C8 5807   3.668   2.084  10.173 -0.3053 -0.1197 -0.3854
  388TMC3    O1 5808   3.916   1.656  10.032  0.1181 -0.2129 -0.0454
  388TMC3    O2 5809   3.605   2.188  10.146 -0.3355 -0.2600 -0.2792
  389MPD2     C 5810   2.760   4.271  11.121  0.4125  0.2903 -0.4401
  389MPD2    C1 5811   2.684   4.191  11.035  0.4529  0.0925 -0.1062
  389MPD2    C2 5812   2.625   4.075  11.082  0.1630  0.1199 -0.0599
  389MPD2    C3 5813   2.636   4.042  11.216  0.0093  0.1358 -0.1997
  389MPD2    C4 5814   2.708   4.124  11.295 -0.2903  0.7978  0.2652
  389MPD2    C5 5815   2.774   4.235  11.250 -0.2282  0.6913  0.3140
  389MPD2     H 5816   2.562   4.009  11.023  0.5402 -0.9961  0.7739
  389MPD2    H1 5817   2.726   4.111  11.401 -0.4087  0.0275  0.1900
  389MPD2    H2 5818   2.820   4.358  11.098  1.2828 -0.4992 -1.1914
  389MPD2    H3 5819   2.837   4.292  11.317 -0.1245 -0.1257  0.9216
  389MPD2     N 5820   2.569   3.929  11.272 -0.3526  0.2898  0.8140
  389MPD2    H5 5821   2.574   3.909  11.372 -1.9929 -0.4776  0.7324
  389MPD2    N1 5822   2.669   4.230  10.902  0.4586 -0.3463  0.5987
  389MPD2    H7 5823   2.719   4.315  10.877 -0.3419  0.5925  2.1913
  390TMC3    C1 5824   2.418   3.745  11.256  0.2209  0.6359  0.4418
  390TMC3    C2 5825   2.424   3.724  11.399  0.0359  0.0888  0.3400
  390TMC3    C3 5826   2.309   3.686  11.463  0.2536 -0.0839 -0.3611
  390TMC3    C4 5827   2.308   3.740  11.170  0.3601  0.3689  0.3968
  390TMC3    C5 5828   2.199   3.696  11.244 -0.3184 -0.2640  0.0629
  390TMC3    C6 5829   2.205   3.665  11.378 -0.4013 -0.0671  0.5236
  390TMC3     C 5830   2.530   3.823  11.195 -0.1653 -0.4018  0.9077
  390TMC3     O 5831   2.542   3.802  11.078  0.1339 -0.0031 -0.1458
  390TMC3     H 5832   2.519   3.734  11.449 -0.0755 -1.3272  0.8498
  390TMC3    H1 5833   2.311   3.762  11.063 -0.9075 -1.2350  0.0362
  390TMC3    H2 5834   2.132   3.592  11.409 -1.6012  0.8815 -0.0557
  390TMC3    C7 5835   2.086   3.648  11.167 -0.1160  0.9138 -0.3178
  390TMC3    C8 5836   2.312   3.579  11.558 -0.8746  0.1362 -0.8343
  390TMC3    O1 5837   2.100   3.613  11.050  0.2925 -0.0873 -0.1952
  390TMC3    O2 5838   2.346   3.470  11.516 -0.1877 -0.2372  0.2111
  391MPD2     C 5839   1.778   0.879  10.592  0.6709  0.0576  0.2087
  391MPD2    C1 5840   1.897   0.953  10.586  0.6543  0.1090 -0.3975
  391MPD2    C2 5841   1.927   1.017  10.462 -0.4105  0.4602  0.2879
  391MPD2    C3 5842   1.839   1.025  10.360  0.2513 -0.3654  0.2100
  391MPD2    C4 5843   1.717   0.969  10.375 -0.7417 -0.5557 -0.3994
  391MPD2    C5 5844   1.693   0.889  10.487  0.5805 -0.6479 -0.3986
  391MPD2     H 5845   2.021   1.068  10.442  0.0305  0.1725  1.6638
  391MPD2    H1 5846   1.636   0.969  10.303  0.7628 -2.2712 -2.0771
  391MPD2    H2 5847   1.746   0.811  10.671 -2.8762  2.6218  0.9591
  391MPD2    H3 5848   1.589   0.859  10.490 -0.1866  2.1415  0.9641
  391MPD2     N 5849   1.874   1.113  10.253  0.0124 -0.3027  0.8696
  391MPD2    H5 5850   1.965   1.158  10.256 -0.8178  1.3092  2.4544
  391MPD2    N1 5851   1.981   0.954  10.704  0.7397  0.6172  0.3876
  391MPD2    H7 5852   1.963   0.885  10.776 -1.3950 -0.8643 -1.5350
  392TMC3    C1 5853   1.853   1.220  10.036 -0.1991 -0.0470 -0.0242
  392TMC3    C2 5854   1.762   1.261   9.947 -0.1786 -0.0562  0.4990
  392TMC3    C3 5855   1.783   1.375   9.879 -0.5913 -0.7464 -0.0888
  392TMC3    C4 5856   1.965   1.295  10.061 -0.6508 -0.0304  0.4687
  392TMC3    C5 5857   1.984   1.409   9.991  0.0306  0.0166 -0.3624
  392TMC3    C6 5858   1.895   1.449   9.897 -0.2098  0.8962 -0.0090
  392TMC3     C 5859   1.794   1.135  10.139  0.4751 -0.7517 -0.9967
  392TMC3     O 5860   1.678   1.096  10.119  0.7116  0.1465  0.1767
  392TMC3     H 5861   1.671   1.206   9.929 -0.7291 -0.2152  3.7789
  392TMC3    H1 5862   2.028   1.286  10.149  0.8667  0.0380 -0.6068
  392TMC3    H2 5863   1.896   1.549   9.856  1.1437  0.7844 -0.2351
  392TMC3    C7 5864   2.104   1.485  10.022  0.6756 -0.5436 -0.3989
  392TMC3    C8 5865   1.680   1.415   9.781  0.3130 -0.1405 -1.5582
  392TMC3    O1 5866   2.171   1.463  10.123  0.4374 -0.1133  0.0311
  392TMC3    O2 5867   1.598   1.328   9.758 -0.1990  0.3227  0.0523
  393TMC3    C1 5868   1.251   3.781  10.613 -0.3967 -0.2133 -0.2662
  393TMC3    C2 5869   1.127   3.782  10.663  0.4597 -0.5390  0.0375
  393TMC3    C3 5870   1.069   3.662  10.694 -0.2679  0.1321 -0.5527
  393TMC3    C4 5871   1.325   3.670  10.611 -0.2300 -0.0559 -0.2290
  393TMC3    C5 5872   1.268   3.549  10.634 -0.2626  0.1333 -0.8833
  393TMC3    C6 5873   1.139   3.541  10.671 -0.4091  0.1547 -0.1771
  393TMC3     C 5874   1.301   3.906  10.556 -0.1922 -0.1163 -0.4967
  393TMC3     O 5875   1.422   3.915  10.543 -0.1399  0.6911  0.2386
  393TMC3     H 5876   1.070   3.872  10.683  0.3854 -0.5110 -0.2935
  393TMC3    H1 5877   1.422   3.680  10.564  0.7904  3.6073  2.7638
  393TMC3    H2 5878   1.096   3.442  10.680  1.2851 -0.5707 -0.0642
  393TMC3    C7 5879   1.326   3.426  10.577  1.0407  0.8909 -0.7543
  393TMC3    C8 5880   0.926   3.665  10.697  0.4420 -0.2246 -0.1116
  393TMC3    O1 5881   1.261   3.329  10.539  0.0101 -0.7645  0.7386
  393TMC3    O2 5882   0.862   3.768  10.674  0.2875  0.0391  0.1259
  394TMC3    C1 5883   2.620   4.253  10.678 -1.1914 -0.1004  0.4119
  394TMC3    C2 5884   2.538   4.215  10.571  0.2210 -0.1233 -0.3421
  394TMC3    C3 5885   2.514   4.308  10.471 -0.4061 -0.1641  0.1409
  394TMC3    C4 5886   2.686   4.376  10.676 -0.2110 -0.1770  0.6442
  394TMC3    C5 5887   2.669   4.457  10.560  0.0613 -0.1681 -0.1284
  394TMC3    C6 5888   2.575   4.427  10.460  0.0779 -0.6377  0.1060
  394TMC3     C 5889   2.616   4.171  10.797 -0.1030 -0.9543  0.0678
  394TMC3     O 5890   2.581   4.055  10.783  0.0569  0.1051  0.3590
  394TMC3     H 5891   2.490   4.119  10.576  1.7885 -0.8586  0.6190
  394TMC3    H1 5892   2.770   4.387  10.743  0.4375  1.7287 -0.4900
  394TMC3    H2 5893   2.552   4.475  10.366  1.7771 -1.2355 -0.6048
  394TMC3    C7 5894   2.776   4.547  10.528 -0.3878  0.4950  0.3953
  394TMC3    C8 5895   2.453   4.264  10.349 -0.2082  0.0290 -0.5163
  394TMC3    O1 5896   2.838   4.596  10.621  0.3074 -0.0271  0.5143
  394TMC3    O2 5897   2.383   4.343  10.286 -0.1400  0.0614 -0.8329
  395TMC3    C1 5898   2.205   0.783  14.912 -0.2931 -0.0013 -0.8578
  395TMC3    C2 5899   2.159   0.717  14.806  0.3997 -0.4194  0.1863
  395TMC3    C3 5900   2.172   0.786  14.681 -1.0094  0.3070 -0.1807
  395TMC3    C4 5901   2.258   0.904  14.908  0.8380  0.6981 -0.1223
  395TMC3    C5 5902   2.282   0.962  14.785 -0.5075 -0.6051  0.1154
  395TMC3    C6 5903   2.234   0.903  14.676 -0.1022 -0.2640  0.2094
  395TMC3     C 5904   2.193   0.715  15.034  0.0747  0.1838  0.5649
  395TMC3     O 5905   2.103   0.633  15.042 -0.0089  0.6742  0.3963
  395TMC3     H 5906   2.105   0.624  14.816 -0.1068 -0.4406 -2.5653
  395TMC3    H1 5907   2.299   0.947  14.999  1.5028 -0.5527  0.1640
  395TMC3    H2 5908   2.249   0.956  14.582  0.2351  0.2888  0.5700
  395TMC3    C7 5909   2.345   1.091  14.785  0.1006  0.4294  0.7345
  395TMC3    C8 5910   2.118   0.730  14.561  0.3035 -0.0587  0.0180
  395TMC3    O1 5911   2.314   1.166  14.875 -0.3371 -0.5943 -0.2884
  395TMC3    O2 5912   2.109   0.801  14.458  0.1321  0.1139 -0.3081
  396MPD2     C 5913   2.066   2.078  17.063  0.2762 -0.1459  0.7438
  396MPD2    C1 5914   2.199   2.114  17.043  0.0811  0.7449 -0.0351
  396MPD2    C2 5915   2.218   2.244  16.997  0.7966 -0.8662 -0.2747
  396MPD2    C3 5916   2.120   2.333  16.960  0.1313  0.5564  0.3908
  396MPD2    C4 5917   1.993   2.290  16.982  0.5187 -0.0298 -0.0925
  396MPD2    C5 5918   1.971   2.170  17.036 -0.5108  0.5528 -0.3455
  396MPD2     H 5919   2.317   2.288  16.993  0.3916  0.0351 -0.4335
  396MPD2    H1 5920   1.911   2.358  16.959  0.2040  0.4634  2.5150
  396MPD2    H2 5921   2.042   1.977  17.095  1.6452 -0.2444  1.4195
  396MPD2    H3 5922   1.874   2.128  17.058  0.1730 -0.1530  1.2734
  396MPD2     N 5923   2.160   2.459  16.912  0.0491  0.1821  0.2901
  396MPD2    H5 5924   2.253   2.490  16.936 -0.8343  2.3211  0.9519
  396MPD2    N1 5925   2.303   2.017  17.070  0.9290 -0.6729 -0.3117
  396MPD2    H7 5926   2.278   1.929  17.114 -0.9304 -0.0081 -0.0296
  397TMC3    C1 5927   2.486   1.919  16.980  0.7199  0.2717 -0.2951
  397TMC3    C2 5928   2.465   1.941  16.848  0.5828 -0.0021 -0.0894
  397TMC3    C3 5929   2.406   1.839  16.774  0.1185 -0.5603  0.1898
  397TMC3    C4 5930   2.444   1.802  17.034  0.1303  0.2309  0.0886
  397TMC3    C5 5931   2.394   1.700  16.958 -0.7060  0.5898  0.6883
  397TMC3    C6 5932   2.374   1.715  16.822 -0.2022 -0.7448 -0.7518
  397TMC3     C 5933   2.439   2.037  17.048 -0.5448  0.2879 -0.5629
  397TMC3     O 5934   2.491   2.140  17.020 -0.0561 -0.0544  0.1240
  397TMC3     H 5935   2.447   2.045  16.822  1.4830 -0.7624 -3.6876
  397TMC3    H1 5936   2.466   1.800  17.140 -2.9737  2.0263  0.7735
  397TMC3    H2 5937   2.340   1.635  16.758 -2.6393 -0.9564  0.7935
  397TMC3    C7 5938   2.356   1.571  17.011 -0.6599  0.0491 -0.0266
  397TMC3    C8 5939   2.393   1.861  16.634 -0.8762  0.1271 -0.3142
  397TMC3    O1 5940   2.285   1.501  16.940  0.1725 -0.1168 -0.8939
  397TMC3    O2 5941   2.309   1.804  16.569 -0.1027 -0.0007  0.9212
  398MPD2     C 5942   0.402   3.191   0.406 -0.1791 -0.1551 -0.6754
  398MPD2    C1 5943   0.509   3.105   0.384 -0.4302  0.7242 -0.0540
  398MPD2    C2 5944   0.636   3.164   0.386  0.7367 -0.2043  0.6126
  398MPD2    C3 5945   0.656   3.295   0.430 -0.2170 -0.4643 -0.0892
  398MPD2    C4 5946   0.549   3.374   0.447 -0.2914  0.0086 -0.6397
  398MPD2    C5 5947   0.422   3.325   0.440  0.2976 -0.3605  0.2753
  398MPD2     H 5948   0.722   3.103   0.361 -0.2538  0.1914 -3.7486
  398MPD2    H1 5949   0.566   3.480   0.461 -3.6275  0.5280 -0.4705
  398MPD2    H2 5950   0.299   3.158   0.393 -0.6765  0.8434  0.7630
  398MPD2    H3 5951   0.338   3.391   0.461 -1.4581 -2.3975 -0.3139
  398MPD2     N 5952   0.787   3.344   0.437 -0.2092  0.1659  0.1785
  398MPD2    H5 5953   0.859   3.276   0.412  0.2680  0.6347  0.2709
  398MPD2    N1 5954   0.499   2.970   0.342  0.0209  0.0599  0.5201
  398MPD2    H7 5955   0.590   2.932   0.320  0.6717  0.5701  2.3363
  399TMC3    C1 5956   0.413   2.745   0.329 -0.2749 -0.0996 -0.0788
  399TMC3    C2 5957   0.541   2.702   0.349  0.0644  0.2237  0.7852
  399TMC3    C3 5958   0.570   2.575   0.297  0.1520 -0.1071  0.0028
  399TMC3    C4 5959   0.307   2.668   0.275 -0.1945  0.6098 -0.3957
  399TMC3    C5 5960   0.343   2.544   0.220 -0.1513 -0.0847 -0.0989
  399TMC3    C6 5961   0.479   2.504   0.218  0.6402 -0.3854 -0.8226
  399TMC3     C 5962   0.386   2.884   0.339  0.6555 -0.1626 -0.1299
  399TMC3     O 5963   0.269   2.922   0.350  0.6411  0.1291  0.2401
  399TMC3     H 5964   0.617   2.760   0.398 -0.3625 -0.3327  2.1094
  399TMC3    H1 5965   0.204   2.699   0.286 -0.2750  1.0124 -2.2410
  399TMC3    H2 5966   0.498   2.416   0.159  0.2353  0.0452 -1.5949
  399TMC3    C7 5967   0.243   2.459   0.159 -0.0378 -0.1697  0.4386
  399TMC3    C8 5968   0.705   2.526   0.302 -0.1309 -0.8270  0.2618
  399TMC3    O1 5969   0.282   2.354   0.114  0.6180 -0.3981 -0.1400
  399TMC3    O2 5970   0.796   2.602   0.333  0.4138 -0.3724  0.9173
  400TMC3    C1 5971   3.743   1.721  16.813  0.4553 -0.0748  0.9766
  400TMC3    C2 5972   3.637   1.693  16.727  0.3874  0.3452  0.5742
  400TMC3    C3 5973   3.555   1.801  16.696 -0.0503  0.3291  0.2393
  400TMC3    C4 5974   3.760   1.833  16.881  0.0979 -0.3734  0.8266
  400TMC3    C5 5975   3.669   1.931  16.853  0.1422 -0.7284  0.1839
  400TMC3    C6 5976   3.570   1.923  16.758 -0.3912 -0.4716 -0.4100
  400TMC3     C 5977   3.806   1.603  16.876  0.3853  0.1862  0.6307
  400TMC3     O 5978   3.762   1.495  16.834  0.1347 -0.1621  0.8130
  400TMC3     H 5979   3.622   1.597  16.680  2.0818  0.5397 -0.3769
  400TMC3    H1 5980   3.826   1.836  16.966 -1.8188  0.8445  2.2916
  400TMC3    H2 5981   3.509   2.007  16.725  1.1674  0.2676 -1.3945
  400TMC3    C7 5982   3.708   2.068  16.895 -0.9467 -1.0874 -0.5013
  400TMC3    C8 5983   3.417   1.777  16.646 -0.4191  0.1100  0.0335
  400TMC3    O1 5984   3.822   2.097  16.922  0.3748 -0.0661  0.2505
  400TMC3    O2 5985   3.341   1.872  16.663 -0.5345  0.1561 -0.6068
  401MPD2     C 5986   2.194   4.182   1.402  0.1424  0.2521 -0.4053
  401MPD2    C1 5987   2.266   4.276   1.331  0.1258  0.1435  0.4450
  401MPD2    C2 5988   2.256   4.285   1.196  0.5373 -0.8600  0.7590
  401MPD2    C3 5989   2.172   4.200   1.122  0.1682 -0.0046 -0.2050
  401MPD2    C4 5990   2.106   4.100   1.193  0.0706  0.7161 -0.0580
  401MPD2    C5 5991   2.116   4.097   1.328 -0.5082 -0.0072  0.2068
  401MPD2     H 5992   2.316   4.355   1.139 -1.3138  1.1986  1.3504
  401MPD2    H1 5993   2.046   4.027   1.139  2.4200  0.3785 -2.2370
  401MPD2    H2 5994   2.199   4.175   1.510  0.2005  2.6657 -0.2540
  401MPD2    H3 5995   2.065   4.011   1.369 -4.2538  0.2249 -3.9878
  401MPD2     N 5996   2.184   4.202   0.986  0.3453 -0.0760 -0.0720
  401MPD2    H5 5997   2.248   4.268   0.944  0.4623  0.6939  1.2998
  401MPD2    N1 5998   2.357   4.367   1.398  0.5054 -0.2621  0.0497
  401MPD2    H7 5999   2.411   4.440   1.353 -1.5470  0.4695 -1.2113
  402TMC3    C1 6000   2.163   4.107   0.768  0.2679 -0.1090  0.4934
  402TMC3    C2 6001   2.301   4.108   0.774 -0.2939 -0.1181  0.2850
  402TMC3    C3 6002   2.376   4.011   0.711 -0.7038  0.8068 -0.3653
  402TMC3    C4 6003   2.107   4.002   0.695 -0.2056 -0.5876  0.2080
  402TMC3    C5 6004   2.185   3.904   0.645 -0.3736  0.4065  0.2370
  402TMC3    C6 6005   2.323   3.904   0.645  0.6605 -0.3997 -0.6340
  402TMC3     C 6006   2.109   4.124   0.903 -0.4051 -0.0593 -0.6207
  402TMC3     O 6007   2.013   4.050   0.923  0.0042 -0.5889  0.3230
  402TMC3     H 6008   2.356   4.191   0.817  1.0412 -1.3940  1.0231
  402TMC3    H1 6009   2.002   3.982   0.712 -0.3022  0.7078  1.0825
  402TMC3    H2 6010   2.387   3.819   0.628  1.3203  0.4539 -2.3805
  402TMC3    C7 6011   2.106   3.793   0.590  0.2198 -0.4453 -0.3636
  402TMC3    C8 6012   2.519   4.010   0.749  0.3452  0.2867 -0.2504
  402TMC3    O1 6013   1.992   3.821   0.561  0.2898 -0.1085  0.1082
  402TMC3    O2 6014   2.572   3.899   0.761  0.1747  0.0110  0.6543
  403MPD2     C 6015   0.394   3.689  13.414  0.6172  0.7511  0.1030
  403MPD2    C1 6016   0.417   3.556  13.439  0.1873 -0.4631 -0.1663
  403MPD2    C2 6017   0.517   3.519  13.521  0.0157 -0.0031 -0.0055
  403MPD2    C3 6018   0.595   3.607  13.588 -0.1819  0.1578  0.7442
  403MPD2    C4 6019   0.573   3.742  13.566 -0.2075  0.1875  0.0896
  403MPD2    C5 6020   0.474   3.778  13.480 -0.6401 -0.6794  0.2939
  403MPD2     H 6021   0.527   3.413  13.541  1.6891  0.5831  2.2070
  403MPD2    H1 6022   0.622   3.818  13.626  0.1296 -0.6144  0.8381
  403MPD2    H2 6023   0.325   3.729  13.342  0.6669  1.3036  0.3663
  403MPD2    H3 6024   0.457   3.882  13.456  0.8691 -0.2316  1.1575
  403MPD2     N 6025   0.695   3.558  13.677 -0.5334 -0.0348 -0.1497
  403MPD2    H5 6026   0.715   3.459  13.674  0.6720  0.2601 -2.1373
  403MPD2    N1 6027   0.336   3.455  13.382 -0.1781  0.7897  0.2669
  403MPD2    H7 6028   0.285   3.470  13.296  0.6341  3.0572  0.1795
  404TMC3    C1 6029   0.244   3.226  13.353 -0.4200 -0.2974 -0.0828
  404TMC3    C2 6030   0.221   3.109  13.419 -0.4955  0.5048  0.0813
  404TMC3    C3 6031   0.179   2.999  13.351  0.7607 -0.2789 -0.5662
  404TMC3    C4 6032   0.257   3.232  13.215 -0.5076 -0.0030  0.3180
  404TMC3    C5 6033   0.229   3.112  13.151 -0.0982  0.1189 -0.5641
  404TMC3    C6 6034   0.193   2.999  13.214 -0.2319  0.4228  0.0315
  404TMC3     C 6035   0.317   3.330  13.435 -0.6154  0.9783 -0.6206
  404TMC3     O 6036   0.323   3.312  13.557  0.6092 -0.6806  0.0688
  404TMC3     H 6037   0.225   3.099  13.527  2.2247 -0.4840 -0.1212
  404TMC3    H1 6038   0.283   3.323  13.164  0.3485 -1.0099 -1.0356
  404TMC3    H2 6039   0.156   2.917  13.154  0.3359  0.4278 -0.3189
  404TMC3    C7 6040   0.255   3.112  13.010  0.1301 -0.2631 -0.2160
  404TMC3    C8 6041   0.152   2.869  13.422 -0.3861 -0.2099 -0.4071
  404TMC3    O1 6042   0.358   3.169  12.978  0.0094  0.6458  0.4204
  404TMC3    O2 6043   0.165   2.766  13.359  0.1705  0.2204  0.1789
  405MPD2     C 6044   0.637   3.601  14.644  0.7249 -0.0886 -0.6325
  405MPD2    C1 6045   0.560   3.505  14.579  0.2377  0.2491 -0.2209
  405MPD2    C2 6046   0.491   3.531  14.462  0.0228 -0.5130 -0.1143
  405MPD2    C3 6047   0.500   3.653  14.400  0.2001  0.0569  0.3870
  405MPD2    C4 6048   0.590   3.745  14.450 -0.7846 -0.3295 -0.4359
  405MPD2    C5 6049   0.645   3.724  14.582 -0.0717 -0.4729 -0.5912
  405MPD2     H 6050   0.424   3.459  14.416  0.3133 -1.5095  1.0167
  405MPD2    H1 6051   0.598   3.841  14.402  0.9156 -0.3136 -0.0943
  405MPD2    H2 6052   0.696   3.578  14.732 -0.4996  0.8284  0.4237
  405MPD2    H3 6053   0.709   3.800  14.625  0.8867 -1.6520  0.0654
  405MPD2     N 6054   0.416   3.683  14.289 -0.1262  0.2350 -0.2417
  405MPD2    H5 6055   0.354   3.606  14.265  2.1106 -1.8448  0.7096
  405MPD2    N1 6056   0.536   3.379  14.638 -0.4591 -0.6069 -0.2634
  405MPD2    H7 6057   0.496   3.304  14.584 -0.6959 -0.2033 -0.6505
  406TMC3    C1 6058   0.068   3.908  14.207 -0.5962 -0.6502  0.2249
  406TMC3    C2 6059   0.003   3.794  14.185 -1.4816  0.4221  0.1445
  406TMC3    C3 6060   0.075   3.677  14.140 -0.6073 -1.0225  0.1661
  406TMC3    C4 6061   0.205   3.915  14.199 -1.2645  0.4272  1.1908
  406TMC3    C5 6062   0.271   3.798  14.166  0.2591  0.4253  0.6756
  406TMC3    C6 6063   0.211   3.680  14.144  0.1413  0.0186 -0.0441
  406TMC3     C 6064   4.724   4.029  14.228 -1.1422  0.0444  0.6427
  406TMC3     O 6065   0.062   4.135  14.223  0.2228  0.3548  0.1351
  406TMC3     H 6066   4.619   3.797  14.188 -1.4172  1.8809  1.0431
  406TMC3    H1 6067   0.265   4.002  14.220  0.9741 -0.8697  0.1288
  406TMC3    H2 6068   0.264   3.595  14.101  0.1545  0.7091 -1.4168
  406TMC3    C7 6069   0.406   3.797  14.212 -0.6377 -0.6044  0.0834
  406TMC3    C8 6070   0.004   3.559  14.175  0.3796  0.0798  0.2362
  406TMC3    O1 6071   0.464   3.904  14.224 -0.5411 -0.7750  0.3187
  406TMC3    O2 6072   4.607   3.562  14.180 -0.2365 -0.6479 -0.2300
  407MPD2     C 6073   2.736   1.158   9.715  0.0381 -0.1281  0.3500
  407MPD2    C1 6074   2.786   1.277   9.664  0.0584  0.1088  0.2624
  407MPD2    C2 6075   2.824   1.374   9.754  0.1086  0.5224  0.4069
  407MPD2    C3 6076   2.828   1.353   9.889 -0.2978  0.0693  0.0384
  407MPD2    C4 6077   2.782   1.230   9.934 -0.2287  0.5854 -0.6197
  407MPD2    C5 6078   2.729   1.140   9.846  0.2748 -0.1466 -0.2016
  407MPD2     H 6079   2.844   1.476   9.723  0.1344  0.1965 -0.6707
  407MPD2    H1 6080   2.808   1.200  10.035 -2.0298 -0.8110 -0.5775
  407MPD2    H2 6081   2.704   1.082   9.646 -2.4414 -1.5715  3.0752
  407MPD2    H3 6082   2.694   1.045   9.884 -1.7508  0.3239 -0.9211
  407MPD2     N 6083   2.865   1.461   9.969  0.0711 -0.0913  0.2514
  407MPD2    H5 6084   2.886   1.551   9.927 -1.7377  0.3013  0.1557
  407MPD2    N1 6085   2.786   1.289   9.525  0.5597 -0.0822 -0.0538
  407MPD2    H7 6086   2.785   1.198   9.481 -0.0300 -0.7183  1.2745
  408TMC3    C1 6087   2.829   1.404   9.318  0.8880 -0.2675  0.0893
  408TMC3    C2 6088   2.913   1.302   9.269 -0.6110  0.0350 -0.9659
  408TMC3    C3 6089   2.986   1.322   9.158  0.4954  0.0072  0.5948
  408TMC3    C4 6090   2.819   1.520   9.252 -0.3224 -0.1646 -0.5404
  408TMC3    C5 6091   2.899   1.539   9.143  0.6345 -0.1683  0.0419
  408TMC3    C6 6092   2.977   1.442   9.092  0.1028  0.3216  0.2584
  408TMC3     C 6093   2.808   1.411   9.458 -0.3773  1.0806 -0.4741
  408TMC3     O 6094   2.800   1.521   9.511  0.5869  0.3010  0.0902
  408TMC3     H 6095   2.914   1.207   9.322  1.4017  1.8089  2.1363
  408TMC3    H1 6096   2.774   1.606   9.300 -0.3512 -1.5454  1.9273
  408TMC3    H2 6097   3.038   1.449   9.003 -2.4381  1.5815 -1.3788
  408TMC3    C7 6098   2.986   1.650   9.159  0.1198  0.2861  0.1234
  408TMC3    C8 6099   3.123   1.265   9.157 -0.3327  0.5214  0.5132
  408TMC3    O1 6100   3.102   1.629   9.127 -0.4379 -0.2312  0.6918
  408TMC3    O2 6101   3.139   1.147   9.189  0.3485 -0.2588  0.2336
  409MPD2     C 6102   2.658   1.396  16.836  0.6289  0.1464  0.8348
  409MPD2    C1 6103   2.675   1.433  16.970  0.1588  0.0910 -0.2925
  409MPD2    C2 6104   2.718   1.561  17.007 -0.0880  0.3674  0.5360
  409MPD2    C3 6105   2.731   1.657  16.903  0.5111 -0.6966  0.3553
  409MPD2    C4 6106   2.717   1.618  16.774 -0.0072  0.1277 -1.3320
  409MPD2    C5 6107   2.677   1.496  16.743  0.2149 -0.2080  0.2798
  409MPD2     H 6108   2.723   1.579  17.113  0.1931 -0.8683  0.7321
  409MPD2    H1 6109   2.737   1.686  16.693  0.0982 -0.5436 -1.8713
  409MPD2    H2 6110   2.628   1.299  16.799  0.0964  1.2642 -1.6613
  409MPD2    H3 6111   2.667   1.476  16.636 -2.0946 -2.2421  0.8671
  409MPD2     N 6112   2.772   1.790  16.923  0.5053 -0.0353  0.3127
  409MPD2    H5 6113   2.799   1.843  16.841  1.6757  1.0230  1.3687
  409MPD2    N1 6114   2.672   1.337  17.071 -0.0320  0.3480 -0.3841
  409MPD2    H7 6115   2.717   1.360  17.159 -0.3784 -1.8451  0.3419
  410TMC3    C1 6116   2.907   1.957  17.030  0.0501  0.6666 -0.4592
  410TMC3    C2 6117   3.037   1.940  17.059  0.3767  0.4356 -0.0036
  410TMC3    C3 6118   3.133   1.951  16.962 -0.0728 -0.6317  0.1710
  410TMC3    C4 6119   2.863   2.008  16.916 -0.7320 -0.1317 -0.7427
  410TMC3    C5 6120   2.967   2.037  16.827  0.1880  0.0168 -0.5470
  410TMC3    C6 6121   3.102   2.005  16.840 -0.1696 -0.0728  0.9360
  410TMC3     C 6122   2.820   1.836  17.049  0.1820 -0.2578 -0.1393
  410TMC3     O 6123   2.820   1.782  17.158 -0.0524 -0.4338 -0.1823
  410TMC3     H 6124   3.066   1.874  17.140 -0.2210  0.2000  0.0210
  410TMC3    H1 6125   2.760   2.032  16.892 -0.5033  1.4558 -0.1654
  410TMC3    H2 6126   3.177   2.011  16.761 -0.4390 -1.4081  0.5771
  410TMC3    C7 6127   2.915   2.013  16.700  0.5652  1.1551 -0.4112
  410TMC3    C8 6128   3.274   1.939  16.990 -0.1394  0.0397  0.1782
  410TMC3    O1 6129   2.821   1.932  16.688  0.2319 -0.0756 -0.4249
  410TMC3    O2 6130   3.342   2.031  16.953 -0.1684  0.4088  0.1377
  411MPD2     C 6131   2.989   1.727  14.873  0.4631 -0.1431  0.4079
  411MPD2    C1 6132   2.879   1.773  14.806 -0.0169 -0.4868 -0.0239
  411MPD2    C2 6133   2.807   1.683  14.725  0.0967 -0.4950 -0.3241
  411MPD2    C3 6134   2.849   1.556  14.698 -0.0296  0.3256 -0.5184
  411MPD2    C4 6135   2.966   1.521  14.759  0.1778  0.1727 -1.4143
  411MPD2    C5 6136   3.032   1.602  14.844 -0.2424 -0.6780  0.3740
  411MPD2     H 6137   2.711   1.713  14.683 -0.8779 -2.6001  0.3662
  411MPD2    H1 6138   2.997   1.417  14.765  0.9391  0.4636 -0.3367
  411MPD2    H2 6139   3.041   1.782  14.950  0.1070 -0.8241  1.1366
  411MPD2    H3 6140   3.109   1.557  14.905  0.5575  2.1558  1.4285
  411MPD2     N 6141   2.784   1.464  14.615  0.2136 -0.1219  0.0948
  411MPD2    H5 6142   2.830   1.382  14.578 -0.4693 -0.0294 -0.9447
  411MPD2    N1 6143   2.851   1.908  14.815 -0.1005 -0.5902 -0.0786
  411MPD2    H7 6144   2.902   1.965  14.880 -1.1686  1.5329 -1.0918
  412TMC3    C1 6145   2.601   1.377  14.495  0.0427  0.1032 -0.2591
  412TMC3    C2 6146   2.466   1.361  14.480 -0.6001 -0.3912  0.2049
  412TMC3    C3 6147   2.416   1.291  14.367  0.3594 -0.1680 -0.2906
  412TMC3    C4 6148   2.693   1.325  14.407  0.3851  0.1514 -0.5635
  412TMC3    C5 6149   2.643   1.259  14.296  0.1434 -0.4530 -0.1688
  412TMC3    C6 6150   2.507   1.243  14.275 -0.6728 -0.0715  0.8769
  412TMC3     C 6151   2.645   1.461  14.605 -0.0232  0.4189  0.0972
  412TMC3     O 6152   2.561   1.524  14.667 -0.2003 -0.3643 -0.9129
  412TMC3     H 6153   2.402   1.415  14.549  0.9606 -0.2825  1.5548
  412TMC3    H1 6154   2.796   1.358  14.407  0.8600 -1.3385  2.8271
  412TMC3    H2 6155   2.470   1.207  14.180 -0.5747  0.5243  0.6139
  412TMC3    C7 6156   2.704   1.314  14.181 -0.2776  0.6176  0.2717
  412TMC3    C8 6157   2.324   1.376  14.304  0.0241 -0.5680  0.0585
  412TMC3    O1 6158   2.812   1.265  14.147  0.4191 -0.4144  0.1019
  412TMC3    O2 6159   2.343   1.407  14.183  0.2575 -0.2059 -0.1571
  413MPD2     C 6160   4.324   0.249  15.048  0.6685  0.0139  0.1508
  413MPD2    C1 6161   4.271   0.133  15.002  0.0368 -0.1589  0.1756
  413MPD2    C2 6162   4.346   0.019  14.985  0.0543  0.5479  0.3850
  413MPD2    C3 6163   4.481   0.026  15.022 -0.2535  1.0415 -0.2101
  413MPD2    C4 6164   4.541   0.149  15.061 -0.1457  0.1717 -0.2162
  413MPD2    C5 6165   4.461   0.257  15.077 -0.5875 -0.2543 -0.0527
  413MPD2     H 6166   4.305   4.650  14.947 -2.4798  1.5738  0.5579
  413MPD2    H1 6167   4.646   0.170  15.080  0.4082 -1.3584 -1.6075
  413MPD2    H2 6168   4.265   0.338  15.067  0.5208  0.3593 -1.9201
  413MPD2    H3 6169   4.502   0.351  15.111  1.4620 -1.0904 -0.2315
  413MPD2     N 6170   4.547   4.630  15.024 -0.5546 -0.6232  0.0841
  413MPD2    H5 6171   4.497   4.549  14.990 -1.1595 -0.9202  1.6718
  413MPD2    N1 6172   4.133   0.122  14.972 -0.7416  0.2836  0.3452
  413MPD2    H7 6173   4.092   0.030  14.963 -0.1972  0.1155 -0.4426
  414TMC3    C1 6174   4.719   4.474  15.039 -0.0052  0.0362 -0.6509
  414TMC3    C2 6175   0.089   4.417  15.120 -0.1972  0.2929  0.9599
  414TMC3    C3 6176   0.116   4.289  15.091  0.1240 -0.0792  0.9523
  414TMC3    C4 6177   4.681   4.412  14.916 -0.1742 -0.3248 -0.0722
  414TMC3    C5 6178   0.011   4.301  14.882  0.6007  0.0101 -0.1400
  414TMC3    C6 6179   0.079   4.228  14.976  0.1968 -0.3685 -0.2387
  414TMC3     C 6180   4.670   4.608  15.066  0.2845 -0.4834 -0.5892
  414TMC3     O 6181   0.014   4.675  15.139  0.0610 -0.4663 -0.3136
  414TMC3     H 6182   0.110   4.465  15.214  0.2891 -0.2287  1.1188
  414TMC3    H1 6183   4.610   4.450  14.843 -1.2476  0.0439  1.1649
  414TMC3    H2 6184   0.118   4.132  14.944 -0.8550 -1.3886  1.5095
  414TMC3    C7 6185   4.678   4.232  14.763  0.0623  0.2275 -0.3462
  414TMC3    C8 6186   0.210   4.217  15.168 -0.1910 -0.5583  0.7747
  414TMC3    O1 6187   4.558   4.237  14.758 -0.0183 -0.2095 -0.3103
  414TMC3    O2 6188   0.205   4.096  15.158 -0.3472 -0.1168  1.0225
  415TMC3    C1 6189   0.573   3.302  10.145  0.1704  0.4423  0.3265
  415TMC3    C2 6190   0.699   3.294  10.105  0.5828 -0.5521  0.5236
  415TMC3    C3 6191   0.757   3.389  10.029 -0.5543  0.3789 -0.1438
  415TMC3    C4 6192   0.506   3.417  10.124 -0.1054  0.0153  0.1306
  415TMC3    C5 6193   0.560   3.515  10.048  0.2736  0.0295 -0.3948
  415TMC3    C6 6194   0.686   3.502   9.988  0.2836 -0.6871 -0.9146
  415TMC3     C 6195   0.493   3.182  10.172 -0.2916 -0.4797  0.0587
  415TMC3     O 6196   0.372   3.200  10.179 -0.1705  0.2129  0.2541
  415TMC3     H 6197   0.759   3.212  10.142  1.2484  0.2715  1.2623
  415TMC3    H1 6198   0.411   3.418  10.176  0.2790 -0.1804  0.8380
  415TMC3    H2 6199   0.711   3.570   9.908  1.3953 -0.0855 -0.0551
  415TMC3    C7 6200   0.475   3.616   9.981  0.6585  1.2069 -0.8084
  415TMC3    C8 6201   0.891   3.372   9.980  0.1372 -0.3078 -0.2636
  415TMC3    O1 6202   0.513   3.672   9.882 -0.3017 -0.4575  0.1300
  415TMC3    O2 6203   0.948   3.266   9.990  0.2720 -0.0250  0.0777
  416MPD2     C 6204   2.133   2.343  11.132 -0.4993 -0.7669  0.9135
  416MPD2    C1 6205   2.070   2.288  11.245 -0.3297  1.1762 -0.3004
  416MPD2    C2 6206   2.078   2.150  11.267 -0.2525  0.0435 -0.3376
  416MPD2    C3 6207   2.139   2.077  11.175 -0.4267  0.1200 -0.1681
  416MPD2    C4 6208   2.207   2.132  11.067 -0.1404  0.3880 -0.2432
  416MPD2    C5 6209   2.204   2.263  11.046 -0.3562  0.1254  0.3175
  416MPD2     H 6210   2.024   2.104  11.349  0.4716  0.6109  0.4576
  416MPD2    H1 6211   2.271   2.085  10.993 -1.3647  1.1310 -1.7808
  416MPD2    H2 6212   2.125   2.449  11.108  0.4532 -1.3310 -1.9540
  416MPD2    H3 6213   2.254   2.301  10.958  2.0843 -3.1985  0.2631
  416MPD2     N 6214   2.133   1.936  11.181  0.3955  0.5269 -0.9971
  416MPD2    H5 6215   2.137   1.878  11.098  0.5325  0.0878 -0.6838
  416MPD2    N1 6216   2.016   2.381  11.345  0.2933 -0.0508  0.7105
  416MPD2    H7 6217   1.984   2.473  11.317 -0.6322 -0.5650  0.0901
  417TMC3    C1 6218   1.845   2.410  11.513 -0.6763  0.0378 -0.1152
  417TMC3    C2 6219   1.774   2.337  11.601  0.0127  0.1597  0.1307
  417TMC3    C3 6220   1.641   2.361  11.619  0.4159  0.6692 -0.6967
  417TMC3    C4 6221   1.782   2.496  11.425  0.1339  0.1989  0.6104
  417TMC3    C5 6222   1.652   2.517  11.449  0.2078  0.2833 -0.8551
  417TMC3    C6 6223   1.574   2.451  11.542 -0.2404 -0.0116  0.6019
  417TMC3     C 6224   1.975   2.349  11.471 -0.2554  0.1816 -0.0431
  417TMC3     O 6225   1.997   2.237  11.524  0.1379 -0.1801  0.1527
  417TMC3     H 6226   1.822   2.273  11.674  0.4370 -0.2315 -0.4926
  417TMC3    H1 6227   1.833   2.558  11.351  2.1979 -1.5899  0.5425
  417TMC3    H2 6228   1.470   2.477  11.562 -0.4028  0.8638 -1.4426
  417TMC3    C7 6229   1.581   2.572  11.343 -0.5024 -0.0425 -0.2352
  417TMC3    C8 6230   1.587   2.346  11.752  0.6952 -0.0215 -0.5097
  417TMC3    O1 6231   1.642   2.665  11.288 -0.3569  0.3476 -0.0540
  417TMC3    O2 6232   1.663   2.336  11.849  0.7445 -0.0865 -0.0104
  418TMC3    C1 6233   1.143   3.395   0.332  0.5649 -0.3127  0.0802
  418TMC3    C2 6234   1.029   3.466   0.352  0.3942  0.4088 -0.1346
  418TMC3    C3 6235   0.978   3.474   0.475  0.5184 -0.5137  0.1735
  418TMC3    C4 6236   1.207   3.324   0.427 -0.3649 -0.6328 -0.1146
  418TMC3    C5 6237   1.149   3.329   0.553 -0.7207 -0.1393 -1.2082
  418TMC3    C6 6238   1.035   3.402   0.574  0.0669  0.7135  0.5584
  418TMC3     C 6239   1.195   3.392   0.198 -0.1069 -0.5199  0.4665
  418TMC3     O 6240   1.180   3.491   0.132 -0.1391 -0.0702  0.5953
  418TMC3     H 6241   0.976   3.528   0.281  0.4904 -1.1716 -1.6031
  418TMC3    H1 6242   1.284   3.252   0.401 -1.0581 -1.4249  0.0474
  418TMC3    H2 6243   0.987   3.396   0.671  0.2648 -1.5204  0.5257
  418TMC3    C7 6244   1.162   3.212   0.628 -0.5551 -0.0312  0.3571
  418TMC3    C8 6245   0.834   3.462   0.486  0.3014  0.0755  0.8711
  418TMC3    O1 6246   1.174   3.110   0.565 -0.1404  0.7094 -0.2067
  418TMC3    O2 6247   0.774   3.541   0.563 -0.4371  0.2248 -0.0005
  419MPD2     C 6248   4.110   1.878  12.750 -0.5117 -0.0397  0.1162
  419MPD2    C1 6249   3.990   1.870  12.678 -0.7029  0.4083 -0.6883
  419MPD2    C2 6250   3.869   1.893  12.732 -0.0534 -0.6575 -0.0019
  419MPD2    C3 6251   3.860   1.928  12.865 -0.0038  0.4958  0.6108
  419MPD2    C4 6252   3.969   1.917  12.951 -0.1868 -0.3217  0.4876
  419MPD2    C5 6253   4.090   1.898  12.886  0.2879 -0.0428  0.2158
  419MPD2     H 6254   3.783   1.882  12.666  0.1536 -1.2679 -0.1755
  419MPD2    H1 6255   3.963   1.953  13.053 -3.6926  0.5266 -0.0231
  419MPD2    H2 6256   4.209   1.875  12.707 -1.1069  0.3912 -1.2733
  419MPD2    H3 6257   4.180   1.919  12.943 -0.4358  0.2914  1.2171
  419MPD2     N 6258   3.728   1.960  12.916  0.2016  0.5071  0.7007
  419MPD2    H5 6259   3.655   1.972  12.847 -0.2490  0.1169  1.1073
  419MPD2    N1 6260   3.985   1.844  12.543  0.1300  0.3170  0.1479
  419MPD2    H7 6261   3.891   1.827  12.508  0.5727 -0.5364 -0.6507
  420TMC3    C1 6262   3.547   1.994  13.064 -0.4056 -0.4737 -0.3787
  420TMC3    C2 6263   3.470   2.045  12.961  0.0690 -0.6701  0.6395
  420TMC3    C3 6264   3.338   2.041  12.970 -0.3066 -0.6266  0.1787
  420TMC3    C4 6265   3.492   1.937  13.171 -0.9098 -0.4032 -0.1805
  420TMC3    C5 6266   3.358   1.940  13.180  0.7154 -0.4633 -0.7732
  420TMC3    C6 6267   3.280   1.995  13.084 -0.3017 -0.1366  0.1348
  420TMC3     C 6268   3.694   1.983  13.046  0.5790 -0.7084  0.6387
  420TMC3     O 6269   3.756   1.959  13.147  0.0497 -0.8229  0.4162
  420TMC3     H 6270   3.518   2.109  12.888 -1.6287  0.6941  0.7083
  420TMC3    H1 6271   3.556   1.891  13.246 -1.3767  0.9396  1.0338
  420TMC3    H2 6272   3.173   1.998  13.101 -0.2769 -1.2351  0.4775
  420TMC3    C7 6273   3.304   1.885  13.304 -0.1749 -0.7860  0.2175
  420TMC3    C8 6274   3.264   2.118  12.871  0.0470  0.4675 -0.3524
  420TMC3    O1 6275   3.387   1.823  13.375 -0.8019  0.4253 -0.1728
  420TMC3    O2 6276   3.314   2.225  12.847 -0.0706  0.4688  0.3402
  421TMC3    C1 6277   0.887   3.573  13.823  0.4634  0.0332  0.2545
  421TMC3    C2 6278   0.973   3.657  13.888 -0.5962 -0.4171 -0.0794
  421TMC3    C3 6279   1.102   3.614  13.912  0.2125  0.1060 -0.4647
  421TMC3    C4 6280   0.922   3.447  13.793  0.3234  0.0003 -0.0497
  421TMC3    C5 6281   1.052   3.408  13.813 -0.1134 -0.1975 -0.7024
  421TMC3    C6 6282   1.145   3.495  13.861  0.3313  0.5668 -0.0924
  421TMC3     C 6283   0.784   3.640  13.745  0.6665  0.6548  0.3610
  421TMC3     O 6284   0.804   3.759  13.734 -0.7434  0.6630 -0.1081
  421TMC3     H 6285   0.946   3.762  13.896 -0.8118 -0.5891  1.5276
  421TMC3    H1 6286   0.866   3.385  13.724  1.7004  0.7954 -1.8826
  421TMC3    H2 6287   1.251   3.472  13.862  0.4630  1.2022  1.7021
  421TMC3    C7 6288   1.088   3.266  13.842 -0.1839 -0.3857  0.3385
  421TMC3    C8 6289   1.195   3.705  13.972 -0.1983 -0.3308  0.2411
  421TMC3    O1 6290   1.206   3.241  13.838  0.2883  0.0231 -0.0591
  421TMC3    O2 6291   1.315   3.689  13.953  0.2733  0.0421  0.3960
  422TMC3    C1 6292   3.015   0.711  11.923  0.4494 -0.2019 -0.0621
  422TMC3    C2 6293   3.001   0.846  11.929 -0.3088  0.1378  0.1999
  422TMC3    C3 6294   2.872   0.886  11.966  0.0679  0.3678 -0.0504
  422TMC3    C4 6295   2.908   0.630  11.917 -0.4314 -0.0992  0.6157
  422TMC3    C5 6296   2.784   0.679  11.950  0.0046  0.5640 -0.6541
  422TMC3    C6 6297   2.768   0.805  11.989 -0.1942 -0.4640  0.1904
  422TMC3     C 6298   3.148   0.667  11.905  0.0485 -0.4982  1.0138
  422TMC3     O 6299   3.224   0.751  11.859 -0.2226  0.0182  0.1573
  422TMC3     H 6300   3.087   0.912  11.936 -0.7639  0.6429  1.0534
  422TMC3    H1 6301   2.917   0.525  11.890 -1.3573 -0.0699  0.1952
  422TMC3    H2 6302   2.672   0.844  12.022  0.0172 -0.2935  0.5994
  422TMC3    C7 6303   2.691   0.580  11.984  0.1560 -0.6130  0.7807
  422TMC3    C8 6304   2.850   1.017  12.021 -0.5467  0.4626  0.4130
  422TMC3    O1 6305   2.722   0.466  12.011  0.3469  0.1295  0.0763
  422TMC3    O2 6306   2.796   1.023  12.127 -0.4542  0.0802 -0.4447
  423MPD2     C 6307   0.705   0.515   0.247 -0.4686  1.1190 -0.4741
  423MPD2    C1 6308   0.605   0.549   0.324  0.2371 -0.7934  0.0687
  423MPD2    C2 6309   0.490   0.603   0.270 -0.2923  0.5065  0.0964
  423MPD2    C3 6310   0.470   0.615   0.136  0.6630  0.6699 -0.3969
  423MPD2    C4 6311   0.569   0.570   0.054 -0.0190  0.6594  0.8624
  423MPD2    C5 6312   0.692   0.529   0.109 -0.3853 -0.0330  0.0991
  423MPD2     H 6313   0.424   0.646   0.344  0.9066  1.0032  0.8877
  423MPD2    H1 6314   0.570   0.572  17.645 -0.2707 -0.9179  0.8235
  423MPD2    H2 6315   0.794   0.467   0.285 -1.2477  0.7747  0.9092
  423MPD2    H3 6316   0.759   0.496   0.030 -0.1914  2.1317 -0.6235
  423MPD2     N 6317   0.349   0.659   0.075  0.5469 -0.1438 -0.1505
  423MPD2    H5 6318   0.339   0.658  17.673 -2.1846 -1.6808  0.1144
  423MPD2    N1 6319   0.615   0.538   0.470 -0.7915 -0.3177  0.2214
  423MPD2    H7 6320   0.532   0.558   0.525 -0.9942  0.3989 -0.3503
  424TMC3    C1 6321   0.693   0.486   0.687  0.0249 -0.5991 -0.0940
  424TMC3    C2 6322   0.795   0.445   0.773 -0.0200 -0.5195  0.2258
  424TMC3    C3 6323   0.754   0.397   0.890  0.0596  0.1555 -0.5618
  424TMC3    C4 6324   0.562   0.463   0.716  0.0313 -0.5681  0.1803
  424TMC3    C5 6325   0.536   0.415   0.839  0.3471  0.1394  0.3830
  424TMC3    C6 6326   0.627   0.383   0.937 -0.5011 -0.3396  0.3858
  424TMC3     C 6327   0.730   0.505   0.541 -0.5177  0.0287 -0.3590
  424TMC3     O 6328   0.851   0.499   0.515 -0.9882 -0.2387  0.0607
  424TMC3     H 6329   0.901   0.452   0.748 -0.1462  0.3639 -0.0928
  424TMC3    H1 6330   0.475   0.488   0.657  1.4927  0.8527 -1.3757
  424TMC3    H2 6331   0.602   0.336   1.031  0.2157  1.4541  1.4556
  424TMC3    C7 6332   0.395   0.362   0.851  0.6021 -0.2883  0.1056
  424TMC3    C8 6333   0.853   0.343   0.982 -0.4427 -0.0297  0.0827
  424TMC3    O1 6334   0.349   0.315   0.747 -0.2261  0.9054 -0.3426
  424TMC3    O2 6335   0.812   0.316   1.094  0.3786 -0.3273  0.4412
  425MPD2     C 6336   3.527   0.209  17.505 -0.0373 -0.5837  0.3158
  425MPD2    C1 6337   3.489   0.075  17.481  0.1621  0.8133 -0.3595
  425MPD2    C2 6338   3.357   0.033  17.520 -0.2677  0.1145  0.1812
  425MPD2    C3 6339   3.276   0.117  17.598  0.0358 -0.2061 -0.4933
  425MPD2    C4 6340   3.320   0.246  17.626  0.0314  0.4238 -0.4921
  425MPD2    C5 6341   3.439   0.289  17.574  0.4681  0.0660  0.9784
  425MPD2     H 6342   3.324   4.656  17.497 -3.1913  0.8146  1.3546
  425MPD2    H1 6343   3.259   0.317  17.681 -0.9898 -1.3157  0.6190
  425MPD2    H2 6344   3.621   0.250  17.468  0.0004 -0.0590  1.0021
  425MPD2    H3 6345   3.471   0.392  17.586 -2.9367  1.3474 -0.9224
  425MPD2     N 6346   3.150   0.066  17.636  0.0124  0.3732  0.1755
  425MPD2    H5 6347   3.127   4.700  17.598 -0.1348  0.8444 -0.8670
  425MPD2    N1 6348   3.569   4.694  17.426 -0.1187 -0.5621  0.0149
  425MPD2    H7 6349   3.523   4.603  17.429  2.2094 -1.7598  0.1483
  426TMC3    C1 6350   3.766   4.553  17.390 -0.1255 -0.4330  0.0660
  426TMC3    C2 6351   3.696   4.480  17.295 -0.5139 -0.2533 -0.2385
  426TMC3    C3 6352   3.744   4.351  17.276  0.3953  0.4296 -0.3459
  426TMC3    C4 6353   3.879   4.509  17.446  0.0503 -0.5743 -0.1522
  426TMC3    C5 6354   3.923   4.390  17.408 -0.5343  0.5314 -0.5703
  426TMC3    C6 6355   3.865   4.306  17.323 -0.2852 -0.1744 -0.1546
  426TMC3     C 6356   3.713   4.685  17.431 -0.6591  0.0541  0.1066
  426TMC3     O 6357   3.789   0.048  17.463  0.2568  0.3995  0.2250
  426TMC3     H 6358   3.610   4.524  17.245  0.0487  0.0734 -0.9148
  426TMC3    H1 6359   3.947   4.569  17.505  1.2322 -0.7269 -1.3447
  426TMC3    H2 6360   3.896   4.202  17.310  1.9129  0.4001  0.4812
  426TMC3    C7 6361   4.003   4.318  17.501  0.8572  0.0169  0.3746
  426TMC3    C8 6362   3.683   4.266  17.178  0.3305  0.2541 -0.5333
  426TMC3    O1 6363   4.091   4.245  17.457 -0.1034  0.3174 -0.1682
  426TMC3    O2 6364   3.736   4.167  17.142 -0.2338  0.1524  0.4865
  427MPD2     C 6365   1.902   2.076  14.836  0.6187  0.0539 -0.2488
  427MPD2    C1 6366   1.848   1.967  14.903  0.0383  0.6652 -0.2761
  427MPD2    C2 6367   1.711   1.981  14.940 -0.2629 -0.2556 -0.3426
  427MPD2    C3 6368   1.638   2.095  14.896 -0.2900 -0.6522  0.1109
  427MPD2    C4 6369   1.694   2.191  14.823  0.1252  0.1579  0.2648
  427MPD2    C5 6370   1.825   2.182  14.796  0.4390  0.5812  1.0831
  427MPD2     H 6371   1.668   1.901  15.000  3.3086 -0.8952  1.3271
  427MPD2    H1 6372   1.638   2.274  14.781 -3.0535 -3.1046 -1.8717
  427MPD2    H2 6373   2.009   2.083  14.826  0.4517  0.0842 -1.9065
  427MPD2    H3 6374   1.869   2.272  14.755  1.5544 -1.5829 -2.4941
  427MPD2     N 6375   1.508   2.114  14.941 -0.2895 -0.3040 -1.0106
  427MPD2    H5 6376   1.461   2.201  14.919 -0.3123  0.3601  1.6905
  427MPD2    N1 6377   1.919   1.861  14.967 -0.3206 -0.6727  0.0163
  427MPD2    H7 6378   1.864   1.797  15.024 -1.7891 -2.5297 -3.4755
  428TMC3    C1 6379   2.104   1.724  15.045  0.4348 -0.6065 -0.2642
  428TMC3    C2 6380   2.033   1.606  15.051  0.4120 -0.1751  0.2204
  428TMC3    C3 6381   2.085   1.511  15.139  0.5352 -0.3236 -0.7323
  428TMC3    C4 6382   2.220   1.743  15.121 -0.1070 -0.4137 -0.3510
  428TMC3    C5 6383   2.260   1.650  15.209 -0.4109  0.4703 -0.2612
  428TMC3    C6 6384   2.190   1.534  15.225  0.1135 -0.5508  0.0521
  428TMC3     C 6385   2.054   1.840  14.967  0.0431  0.4437  0.3640
  428TMC3     O 6386   2.143   1.904  14.911 -0.0990  0.1302 -0.3065
  428TMC3     H 6387   1.955   1.591  14.978 -0.8564 -2.8929  2.1487
  428TMC3    H1 6388   2.265   1.841  15.115  0.8671 -0.7768  1.1616
  428TMC3    H2 6389   2.213   1.457  15.297  1.5896 -1.2435 -1.1605
  428TMC3    C7 6390   2.382   1.678  15.281  0.0835 -0.0889 -0.2967
  428TMC3    C8 6391   2.057   1.369  15.112  0.6039 -0.5398  0.3823
  428TMC3    O1 6392   2.384   1.643  15.397  0.0489 -0.3765  0.7186
  428TMC3    O2 6393   2.071   1.306  15.217 -0.1975 -0.0843  0.4851
  429MPD2     C 6394   2.744   2.340   0.149  0.0479  0.0645 -0.5987
  429MPD2    C1 6395   2.803   2.255   0.070 -0.2896 -0.0957 -0.5495
  429MPD2    C2 6396   2.843   2.282  17.638  0.0713 -0.0720 -0.0712
  429MPD2    C3 6397   2.829   2.407  17.589  0.4300 -1.1755 -0.2279
  429MPD2    C4 6398   2.761   2.500  17.675  0.5410 -0.6736  0.9116
  429MPD2    C5 6399   2.727   2.470   0.105  0.0170  0.4118 -0.2755
  429MPD2     H 6400   2.891   2.204  17.580  2.1057  1.0750  0.1044
  429MPD2    H1 6401   2.752   2.602  17.641  1.7400 -1.5177 -1.9881
  429MPD2    H2 6402   2.712   2.325   0.251 -2.5991  1.4105 -1.2391
  429MPD2    H3 6403   2.679   2.548   0.162 -0.7667 -1.7374  2.0084
  429MPD2     N 6404   2.875   2.443  17.464  0.2340  0.4276  0.0713
  429MPD2    H5 6405   2.923   2.371  17.410  0.4360  0.2743  0.4564
  429MPD2    N1 6406   2.842   2.128   0.112  0.0459 -0.4261 -0.2385
  429MPD2    H7 6407   2.862   2.054   0.045  0.2940 -0.7688  0.2137
  430TMC3    C1 6408   2.946   2.568  17.273 -0.2708 -0.2182 -0.3877
  430TMC3    C2 6409   2.888   2.652  17.177 -0.0696  0.0698 -0.4351
  430TMC3    C3 6410   2.952   2.683  17.062  0.8363 -0.9987 -0.3857
  430TMC3    C4 6411   3.068   2.523  17.257 -0.0955  0.1566  0.6386
  430TMC3    C5 6412   3.139   2.574  17.156  0.1633 -0.3580 -0.2569
  430TMC3    C6 6413   3.081   2.647  17.050 -0.0335 -0.1893  0.2007
  430TMC3     C 6414   2.877   2.566  17.402 -0.5582  0.9700  0.3244
  430TMC3     O 6415   2.815   2.667  17.436  0.0628 -0.4302  0.1323
  430TMC3     H 6416   2.784   2.679  17.194  0.3726 -0.2826  2.7288
  430TMC3    H1 6417   3.124   2.458  17.322 -0.8874 -0.2913  0.8782
  430TMC3    H2 6418   3.147   2.677  16.969 -0.0724  0.1240  0.2848
  430TMC3    C7 6419   3.244   2.487  17.116  0.1442 -0.4325  0.0834
  430TMC3    C8 6420   2.883   2.694  16.932  0.4046  0.7121 -0.1508
  430TMC3    O1 6421   3.238   2.370  17.151  0.4569 -0.6910 -0.0937
  430TMC3    O2 6422   2.954   2.735  16.842 -0.3532  0.1507 -0.0095
  431MPD2     C 6423   3.981   2.438  12.689 -0.0412 -1.0960  0.2665
  431MPD2    C1 6424   4.036   2.466  12.563  0.0148  0.3350 -0.1723
  431MPD2    C2 6425   4.035   2.369  12.465  0.1336 -0.0763  0.6691
  431MPD2    C3 6426   3.968   2.250  12.488  0.8083 -0.2394  0.3232
  431MPD2    C4 6427   3.914   2.223  12.612  0.1773  0.2473  0.0240
  431MPD2    C5 6428   3.917   2.317  12.710 -0.0908 -0.9573  0.0237
  431MPD2     H 6429   4.083   2.390  12.370  0.4636 -0.0035  0.8508
  431MPD2    H1 6430   3.871   2.124  12.622 -0.1093  0.2842 -0.8118
  431MPD2    H2 6431   3.973   2.509  12.770 -0.6760 -2.3767  1.3323
  431MPD2    H3 6432   3.858   2.308  12.801 -1.8940 -0.0941 -1.0562
  431MPD2     N 6433   3.942   2.153  12.391 -0.2222 -0.0514  0.3429
  431MPD2    H5 6434   3.887   2.072  12.420 -0.1201 -0.0171  0.6291
  431MPD2    N1 6435   4.080   2.592  12.529 -0.1036 -0.2939 -0.3259
  431MPD2    H7 6436   4.121   2.593  12.436  0.3459 -1.5770 -0.1380
  432TMC3    C1 6437   3.977   2.029  12.195  0.2181 -0.1141  0.6416
  432TMC3    C2 6438   4.081   2.011  12.107 -0.0106  0.4987  0.0345
  432TMC3    C3 6439   4.168   1.909  12.122 -0.5683 -0.7500  0.4296
  432TMC3    C4 6440   3.955   1.931  12.287  0.0154 -0.0755 -0.2202
  432TMC3    C5 6441   4.057   1.844  12.318 -0.3724  0.1326 -0.3994
  432TMC3    C6 6442   4.160   1.829  12.233  0.8425  0.0401 -0.1089
  432TMC3     C 6443   3.985   2.159  12.262 -0.2617  0.4296  0.3962
  432TMC3     O 6444   4.039   2.252  12.201  0.3577 -0.0589 -0.1055
  432TMC3     H 6445   4.101   2.101  12.050 -1.7693  0.7100 -0.2436
  432TMC3    H1 6446   3.861   1.927  12.341  1.2380  4.7059  2.2731
  432TMC3    H2 6447   4.233   1.753  12.259 -0.6981 -0.4804  2.6934
  432TMC3    C7 6448   4.092   1.839  12.455  0.6613 -0.0412  0.5777
  432TMC3    C8 6449   4.299   1.913  12.058 -0.5082  0.3239  0.5041
  432TMC3    O1 6450   4.214   1.847  12.475 -0.1979 -0.2523 -0.1975
  432TMC3    O2 6451   4.382   1.828  12.091 -0.1266  0.2537 -1.0843
  433MPD2     C 6452   2.935   1.580  10.731 -0.5404 -0.4346  0.4222
  433MPD2    C1 6453   3.027   1.484  10.759 -0.0468 -0.2756 -0.7144
  433MPD2    C2 6454   3.115   1.513  10.858  0.5098  0.3529 -0.7158
  433MPD2    C3 6455   3.098   1.623  10.941 -0.0313 -0.2581  0.3713
  433MPD2    C4 6456   3.000   1.713  10.914  0.2918 -0.3534 -0.0261
  433MPD2    C5 6457   2.922   1.698  10.807 -0.1720  0.5306  0.1586
  433MPD2     H 6458   3.202   1.452  10.882  1.1268  2.1145  1.4503
  433MPD2    H1 6459   2.991   1.797  10.983  0.5081  0.2336 -0.7177
  433MPD2    H2 6460   2.878   1.583  10.639 -0.4766 -0.8369  0.3704
  433MPD2    H3 6461   2.847   1.774  10.787 -2.4227 -0.9933  2.8812
  433MPD2     N 6462   3.184   1.631  11.050 -0.0723 -0.0567 -0.4016
  433MPD2    H5 6463   3.230   1.541  11.062  0.3980  0.3397  0.7633
  433MPD2    N1 6464   3.048   1.374  10.668  0.3358  0.0461 -0.0866
  433MPD2    H7 6465   2.988   1.376  10.586  0.4254  1.4756 -0.1100
  434TMC3    C1 6466   3.119   1.176  10.578 -0.1618  0.1874  0.1358
  434TMC3    C2 6467   3.177   1.056  10.610  0.1200  0.0575  0.1929
  434TMC3    C3 6468   3.288   1.006  10.546 -0.1091 -0.7639 -0.3166
  434TMC3    C4 6469   3.159   1.241  10.464 -0.4879 -0.4742  0.7279
  434TMC3    C5 6470   3.264   1.182  10.396  0.7915 -0.6694 -0.4780
  434TMC3    C6 6471   3.335   1.069  10.432  0.1731 -0.2256  0.3112
  434TMC3     C 6472   3.115   1.254  10.700 -0.1096 -0.9758  0.0200
  434TMC3     O 6473   3.147   1.204  10.807 -0.0084  0.0116 -0.6116
  434TMC3     H 6474   3.136   0.995  10.690 -1.4462  2.8954  1.5205
  434TMC3    H1 6475   3.115   1.332  10.427  0.2005 -0.6739 -0.5845
  434TMC3    H2 6476   3.397   1.017  10.361 -0.3719  0.1851 -0.4652
  434TMC3    C7 6477   3.253   1.201  10.256 -0.3384 -0.2351 -0.2102
  434TMC3    C8 6478   3.383   0.940  10.634 -0.1498 -0.2987 -0.0778
  434TMC3    O1 6479   3.251   1.310  10.207  0.2449  0.0250  0.2830
  434TMC3    O2 6480   3.330   0.885  10.733  0.0508 -0.3627  0.0143
  435MPD2     C 6481   4.546   0.244  15.403 -0.0036  0.6013  0.4204
  435MPD2    C1 6482   4.533   0.355  15.489  0.3263  0.4997  0.1933
  435MPD2    C2 6483   4.659   0.418  15.524 -0.6119  0.2294  0.5121
  435MPD2    C3 6484   0.053   0.384  15.468  0.4077  0.1495 -0.4069
  435MPD2    C4 6485   0.056   0.281  15.371 -0.3301  0.1538 -0.5059
  435MPD2    C5 6486   4.666   0.217  15.342  0.0338 -0.1704  1.3352
  435MPD2     H 6487   4.657   0.497  15.598 -1.9182  1.7052 -1.1078
  435MPD2    H1 6488   0.146   0.243  15.325  0.7130  0.4828  1.2538
  435MPD2    H2 6489   4.456   0.192  15.372 -0.2468  1.5127 -0.4069
  435MPD2    H3 6490   4.658   0.130  15.278 -0.6877  0.4486  0.5673
  435MPD2     N 6491   0.170   0.446  15.513 -0.0870 -0.4086 -0.0012
  435MPD2    H5 6492   0.168   0.496  15.602 -0.3738  1.2782 -0.9716
  435MPD2    N1 6493   4.413   0.396  15.553  0.0836  0.6521 -0.0698
  435MPD2    H7 6494   4.414   0.479  15.611 -2.9830  0.8302 -0.2662
  436TMC3    C1 6495   4.191   0.551  15.817 -0.5307  0.2302  0.5830
  436TMC3    C2 6496   4.238   0.516  15.688 -0.0712 -0.1573  0.4378
  436TMC3    C3 6497   4.203   0.395  15.639 -0.7543 -0.5380  0.0833
  436TMC3    C4 6498   4.115   0.467  15.892 -0.2137 -1.2699  0.1035
  436TMC3    C5 6499   4.081   0.346  15.836 -0.6962 -0.7185  0.5112
  436TMC3    C6 6500   4.121   0.309  15.707 -0.3142  0.3254  0.1625
  436TMC3     C 6501   4.230   0.683  15.869  0.2760  0.3455 -0.5832
  436TMC3     O 6502   4.319   0.735  15.800 -0.0947 -0.0844 -0.3970
  436TMC3     H 6503   4.297   0.587  15.632  0.2523 -1.4748 -0.8843
  436TMC3    H1 6504   4.083   0.489  15.993 -1.1549  0.3886 -0.5466
  436TMC3    H2 6505   4.130   0.205  15.679  0.8197  0.5759 -0.3987
  436TMC3    C7 6506   4.048   0.235  15.931  0.0385 -0.2339 -0.1280
  436TMC3    C8 6507   4.299   0.334  15.549 -0.2886  0.2251  0.0246
  436TMC3    O1 6508   4.038   0.279  16.045 -0.6730 -0.8138 -0.1241
  436TMC3    O2 6509   4.267   0.229  15.498  0.0842  0.5272 -0.2999
  437TMC3    C1 6510   3.760   3.008  12.315 -0.5987 -0.2366  0.4531
  437TMC3    C2 6511   3.652   3.085  12.331 -0.3965 -0.3889  0.2339
  437TMC3    C3 6512   3.659   3.217  12.292 -0.6591 -0.1195  0.0642
  437TMC3    C4 6513   3.885   3.057  12.268  0.2064 -0.0270 -0.1347
  437TMC3    C5 6514   3.884   3.193  12.240  0.4376 -0.6106  1.0596
  437TMC3    C6 6515   3.774   3.277  12.251  0.2715 -0.0544  0.2528
  437TMC3     C 6516   3.770   2.877  12.372  0.2294 -0.4122 -0.3349
  437TMC3     O 6517   3.875   2.841  12.425 -0.4971  0.3588 -0.0020
  437TMC3     H 6518   3.563   3.036  12.370  0.2916  0.6862  3.0988
  437TMC3    H1 6519   3.967   2.988  12.250 -0.1778 -0.1447 -1.3964
  437TMC3    H2 6520   3.777   3.384  12.235  0.7504 -0.0825  0.1362
  437TMC3    C7 6521   4.005   3.264  12.246  0.1242 -0.6129  0.1974
  437TMC3    C8 6522   3.542   3.304  12.310  0.3502  0.0337  0.3976
  437TMC3    O1 6523   3.997   3.376  12.295 -0.0333 -0.2868 -0.2089
  437TMC3    O2 6524   3.543   3.412  12.250 -0.5545  0.1394  0.1846
  438MPD2     C 6525   1.046   3.657  16.862  0.2331 -0.1811  0.0012
  438MPD2    C1 6526   1.154   3.575  16.886  0.9404  0.1886 -0.5268
  438MPD2    C2 6527   1.157   3.512  17.002  0.7405 -0.5687  0.0173
  438MPD2    C3 6528   1.055   3.512  17.093 -0.6445 -0.4546 -0.1452
  438MPD2    C4 6529   0.942   3.591  17.068  0.2406  0.5351 -0.3755
  438MPD2    C5 6530   0.942   3.664  16.951 -0.0089 -0.2710 -0.7774
  438MPD2     H 6531   1.244   3.460  17.041  1.1859  0.3329  0.2224
  438MPD2    H1 6532   0.855   3.609  17.131 -1.7345 -0.3674 -2.8319
  438MPD2    H2 6533   1.040   3.714  16.770 -0.5337 -0.2194  0.0286
  438MPD2    H3 6534   0.862   3.735  16.933 -0.9709 -1.0459  0.4520
  438MPD2     N 6535   1.066   3.447  17.218 -0.6068  0.1354  0.3943
  438MPD2    H5 6536   0.993   3.465  17.286 -0.4099 -0.6906  0.8302
  438MPD2    N1 6537   1.266   3.565  16.803  0.0120  0.0142  0.0391
  438MPD2    H7 6538   1.336   3.500  16.837 -0.0799 -0.3982 -0.5461
  439TMC3    C1 6539   1.398   3.574  16.616  0.6084  0.3805 -0.0276
  439TMC3    C2 6540   1.402   3.556  16.477 -0.3867  0.0719 -0.8987
  439TMC3    C3 6541   1.512   3.497  16.440  0.4338 -0.4626 -0.0924
  439TMC3    C4 6542   1.503   3.554  16.705  0.1390  0.9417 -0.1457
  439TMC3    C5 6543   1.606   3.496  16.652 -0.6095 -0.0192  0.4039
  439TMC3    C6 6544   1.615   3.461  16.520  0.4070  0.3389 -0.1008
  439TMC3     C 6545   1.270   3.600  16.670  0.1875 -0.1397 -0.7596
  439TMC3     O 6546   1.185   3.648  16.602 -0.1837 -0.2564  0.0254
  439TMC3     H 6547   1.310   3.552  16.420 -1.6093 -1.8241  1.2209
  439TMC3    H1 6548   1.502   3.573  16.812 -0.1851  2.4548 -0.4192
  439TMC3    H2 6549   1.703   3.408  16.485 -1.6883 -2.9994 -0.3953
  439TMC3    C7 6550   1.721   3.467  16.734  0.1078  0.0520  0.6490
  439TMC3    C8 6551   1.529   3.463  16.300  0.7577  0.2527 -0.1488
  439TMC3    O1 6552   1.704   3.391  16.830  0.3764 -0.2182  0.2838
  439TMC3    O2 6553   1.621   3.385  16.281 -0.4342  0.2304 -0.2318
  440MPD2     C 6554   0.085   3.669  14.888 -0.3525 -0.8220 -0.2626
  440MPD2    C1 6555   0.141   3.787  14.935  0.3584  0.0097 -0.3520
  440MPD2    C2 6556   0.279   3.794  14.948  0.2455  0.4057 -0.4376
  440MPD2    C3 6557   0.357   3.679  14.914 -0.3212  0.2317  0.6948
  440MPD2    C4 6558   0.296   3.573  14.853 -0.1377 -0.3476  0.3675
  440MPD2    C5 6559   0.158   3.561  14.848 -0.3033  0.1855  0.0958
  440MPD2     H 6560   0.320   3.888  14.982  0.6484 -0.7932  2.4293
  440MPD2    H1 6561   0.355   3.490  14.817 -0.4402  0.0205 -0.9636
  440MPD2    H2 6562   4.701   3.660  14.881 -0.1493 -2.3597 -1.5119
  440MPD2    H3 6563   0.108   3.482  14.794  2.5633 -0.6473 -1.3317
  440MPD2     N 6564   0.498   3.659  14.945 -0.0274  0.4878  0.2669
  440MPD2    H5 6565   0.542   3.570  14.925  0.7579  1.1317 -0.9180
  440MPD2    N1 6566   0.066   3.879  15.009 -0.6281  0.4154 -0.1273
  440MPD2    H7 6567   0.122   3.953  15.049  0.1786 -0.9138  1.2245
  441TMC3    C1 6568   0.693   3.697  15.074 -0.5811  0.0597 -0.5588
  441TMC3    C2 6569   0.733   3.802  15.141 -0.2245  0.2380 -0.0773
  441TMC3    C3 6570   0.790   3.795  15.267  0.1701 -0.2129  0.3159
  441TMC3    C4 6571   0.688   3.575  15.135  0.6999 -0.2849 -0.5090
  441TMC3    C5 6572   0.740   3.571  15.265 -0.0968  0.9037  0.0666
  441TMC3    C6 6573   0.807   3.672  15.331 -0.0934  0.3874 -0.0990
  441TMC3     C 6574   0.566   3.745  15.021 -0.2091 -0.2732  0.5794
  441TMC3     O 6575   0.529   3.855  15.056  0.3042 -0.4034 -0.3723
  441TMC3     H 6576   0.750   3.889  15.078  0.4686 -0.3861 -0.7526
  441TMC3    H1 6577   0.608   3.507  15.109  2.9785 -2.9095 -0.6522
  441TMC3    H2 6578   0.837   3.680  15.435  1.6408  1.6915 -0.6882
  441TMC3    C7 6579   0.677   3.482  15.360 -0.0319  0.0047  0.0553
  441TMC3    C8 6580   0.753   3.902  15.356  0.0172  0.3680  0.2201
  441TMC3    O1 6581   0.561   3.450  15.338 -0.0010 -0.3032  0.1240
  441TMC3    O2 6582   0.809   3.918  15.466  0.3224  0.1239 -0.6660
  442MPD2     C 6583   2.927   4.134  16.825  0.2398 -0.0947 -0.1073
  442MPD2    C1 6584   2.920   4.178  16.695  0.6980 -0.3604  0.0258
  442MPD2    C2 6585   2.908   4.081  16.591  0.4825  0.2393  0.2174
  442MPD2    C3 6586   2.890   3.948  16.619  0.5279  0.1898 -0.0260
  442MPD2    C4 6587   2.886   3.914  16.753 -0.2235 -0.6439 -0.4437
  442MPD2    C5 6588   2.911   4.008  16.851 -0.2791  0.0678 -0.3895
  442MPD2     H 6589   2.900   4.119  16.490  0.7524  0.6455  0.3490
  442MPD2    H1 6590   2.877   3.810  16.781  2.7966 -0.8946 -0.3823
  442MPD2    H2 6591   2.949   4.202  16.906 -1.0015  3.2091 -2.5555
  442MPD2    H3 6592   2.924   3.972  16.952 -2.3102  0.9409  0.1774
  442MPD2     N 6593   2.902   3.845  16.527  0.5940 -0.3503  0.7230
  442MPD2    H5 6594   2.906   3.754  16.571 -3.4319 -0.2389  1.3019
  442MPD2    N1 6595   2.935   4.316  16.662  0.7767 -0.9182 -0.5918
  442MPD2    H7 6596   2.937   4.327  16.561 -0.0349  2.0864 -0.2729
  443TMC3    C1 6597   2.913   4.551  16.695  0.6852  0.8456  0.8401
  443TMC3    C2 6598   2.914   4.563  16.556 -0.2637  0.1108 -0.3447
  443TMC3    C3 6599   2.820   4.641  16.495 -0.1952 -0.5390  0.1428
  443TMC3    C4 6600   2.825   4.618  16.767  0.6207  0.0576  1.8494
  443TMC3    C5 6601   2.719   4.684  16.699  0.2508  0.6178 -0.7167
  443TMC3    C6 6602   2.716   4.700  16.564  0.5033 -0.4116  0.5923
  443TMC3     C 6603   2.943   4.424  16.747  0.1993  0.5532 -0.0638
  443TMC3     O 6604   2.941   4.419  16.869  0.0572  0.7981 -0.0271
  443TMC3     H 6605   2.990   4.510  16.500 -0.4807  0.4984 -1.0191
  443TMC3    H1 6606   2.833   4.610  16.874  1.5335  1.1256  1.8628
  443TMC3    H2 6607   2.643   0.046  16.525  1.0080 -0.0700  0.2688
  443TMC3    C7 6608   2.597   4.674  16.778 -0.4266  0.4491 -0.1369
  443TMC3    C8 6609   2.774   4.582  16.378 -0.2273  0.1228  0.0543
  443TMC3    O1 6610   2.614   4.657  16.899 -0.0671 -0.2582 -0.8427
  443TMC3    O2 6611   2.798   4.462  16.369 -1.0818 -0.0663 -0.1978
  444MPD2     C 6612   3.501   3.721  16.942  0.1001  0.3145 -0.5557
  444MPD2    C1 6613   3.377   3.658  16.930  0.2950  0.6865  0.3709
  444MPD2    C2 6614   3.369   3.541  16.851 -0.1494 -0.2969 -0.0599
  444MPD2    C3 6615   3.472   3.501  16.777 -0.6703  0.0302 -0.0790
  444MPD2    C4 6616   3.596   3.571  16.777 -0.3837  0.0063 -0.3710
  444MPD2    C5 6617   3.605   3.674  16.863  0.0025  0.7451  0.0238
  444MPD2     H 6618   3.288   3.471  16.864 -0.9792  0.6922  0.1111
  444MPD2    H1 6619   3.684   3.550  16.718 -0.7956 -0.3033 -0.8656
  444MPD2    H2 6620   3.519   3.801  17.013 -3.7755 -0.8041  1.6628
  444MPD2    H3 6621   3.704   3.716  16.879  0.8420 -1.2598  0.2356
  444MPD2     N 6622   3.460   3.394  16.688 -0.1076  0.4808  0.3178
  444MPD2    H5 6623   3.366   3.360  16.671  0.2275  0.8137 -2.1683
  444MPD2    N1 6624   3.264   3.684  17.013 -0.6403  0.0332  0.4575
  444MPD2    H7 6625   3.183   3.624  16.999 -0.3732  0.0827 -1.2161
  445TMC3    C1 6626   3.533   3.214  16.555  0.5707 -0.3025 -0.0645
  445TMC3    C2 6627   3.407   3.186  16.501 -0.2550  0.2428  0.6225
  445TMC3    C3 6628   3.397   3.104  16.391 -0.0646 -0.5654  0.6373
  445TMC3    C4 6629   3.644   3.139  16.514  0.6258  0.3631 -0.0144
  445TMC3    C5 6630   3.626   3.056  16.405  0.9292  0.6492  0.4268
  445TMC3    C6 6631   3.505   3.037  16.344 -0.6647  0.6079 -0.8793
  445TMC3     C 6632   3.570   3.341  16.615  0.1790  0.5424  0.0528
  445TMC3     O 6633   3.691   3.360  16.608 -0.3120  0.0921 -0.2378
  445TMC3     H 6634   3.322   3.244  16.533  2.1208  3.6151  0.8210
  445TMC3    H1 6635   3.743   3.156  16.555  0.5399  1.0765 -0.1124
  445TMC3    H2 6636   3.495   2.981  16.252 -0.1810  0.0346 -0.5741
  445TMC3    C7 6637   3.755   3.013  16.351 -0.6932 -0.0697  0.0626
  445TMC3    C8 6638   3.273   3.112  16.318 -0.3311  0.4186  0.1926
  445TMC3    O1 6639   3.850   3.094  16.350 -0.3025  0.1007  0.2624
  445TMC3    O2 6640   3.205   3.214  16.349 -0.1371  0.3603 -0.0735
  446MPD2     C 6641   2.992   0.805  11.188  0.2683  0.1260 -0.1479
  446MPD2    C1 6642   3.004   0.803  11.049  0.3855 -0.0333 -0.7085
  446MPD2    C2 6643   3.103   0.873  10.985  0.1023 -0.1340 -0.0026
  446MPD2    C3 6644   3.199   0.940  11.060 -0.3833 -0.0404  0.3432
  446MPD2    C4 6645   3.181   0.944  11.197 -0.0790  0.4663  0.2839
  446MPD2    C5 6646   3.082   0.881  11.259 -0.4825  0.5050 -0.0610
  446MPD2     H 6647   3.105   0.872  10.877 -2.3005  1.5645 -0.0567
  446MPD2    H1 6648   3.255   1.003  11.251  1.3143 -1.1468  0.1209
  446MPD2    H2 6649   2.911   0.767  11.249 -0.3650  0.2491 -0.9116
  446MPD2    H3 6650   3.065   0.904  11.363 -1.5484  2.1720 -0.6004
  446MPD2     N 6651   3.297   1.018  10.994 -0.7802  0.4002 -0.2971
  446MPD2    H5 6652   3.301   1.039  10.894  1.8939 -2.0434 -0.7053
  446MPD2    N1 6653   2.911   0.725  10.969  0.4787  0.0352 -0.5892
  446MPD2    H7 6654   2.897   0.755  10.872 -1.5177 -0.6314 -0.5069
  447TMC3    C1 6655   3.510   1.144  10.991 -0.7362 -0.1600  0.2185
  447TMC3    C2 6656   3.471   1.196  10.872  0.0325 -0.0778 -0.6059
  447TMC3    C3 6657   3.565   1.261  10.801  0.4810 -0.2751 -0.2728
  447TMC3    C4 6658   3.640   1.158  11.035  0.1133  0.5768  1.0754
  447TMC3    C5 6659   3.721   1.248  10.972  0.4203 -0.2088 -0.2701
  447TMC3    C6 6660   3.692   1.289  10.842 -0.8747  0.3644 -0.7155
  447TMC3     C 6661   3.421   1.042  11.059  0.2223  0.0284 -0.8486
  447TMC3     O 6662   3.470   0.990  11.159 -0.4668 -0.2419  0.1258
  447TMC3     H 6663   3.369   1.191  10.837 -0.1954  2.5601 -0.2827
  447TMC3    H1 6664   3.679   1.106  11.122 -0.9819  2.3665  2.6562
  447TMC3    H2 6665   3.760   1.351  10.784  0.1577 -1.1603 -1.1398
  447TMC3    C7 6666   3.862   1.254  11.008  0.7944 -0.3111  0.5853
  447TMC3    C8 6667   3.514   1.331  10.682  0.0155  0.5590 -0.1088
  447TMC3    O1 6668   3.941   1.262  10.916  0.1900 -0.3544 -0.2224
  447TMC3    O2 6669   3.398   1.361  10.682 -0.6633  0.5835  0.3471
  448TMC3    C1 6670   1.150   0.548  17.042 -0.0279 -0.1969 -0.2664
  448TMC3    C2 6671   1.122   0.414  17.016 -0.2636 -1.1083  0.9406
  448TMC3    C3 6672   1.209   0.347  16.936 -0.2974  0.2309  0.7716
  448TMC3    C4 6673   1.269   0.600  16.998  0.5416  0.1808 -0.5102
  448TMC3    C5 6674   1.355   0.526  16.934 -0.0441 -0.1768  0.1294
  448TMC3    C6 6675   1.327   0.396  16.897 -0.5506 -0.5943  0.3108
  448TMC3     C 6676   1.093   0.599  17.163  0.0822 -0.3480 -0.1869
  448TMC3     O 6677   1.058   0.511  17.239  0.5242 -0.1552  0.1377
  448TMC3     H 6678   1.032   0.375  17.062 -0.1411 -2.5026 -0.0112
  448TMC3    H1 6679   1.291   0.705  17.017  0.7446 -0.1543  1.0361
  448TMC3    H2 6680   1.393   0.337  16.833 -1.2624  0.7515 -1.6474
  448TMC3    C7 6681   1.487   0.568  16.941 -0.2015 -0.2618  0.2372
  448TMC3    C8 6682   1.209   0.207  16.954  0.0674  0.1367  0.2630
  448TMC3    O1 6683   1.528   0.686  16.953 -0.2479 -0.3396 -0.1327
  448TMC3    O2 6684   1.320   0.154  16.968  0.2673  0.0904  0.0616
  449MPD2     C 6685   2.880   3.084  13.596 -0.4103  0.3642  0.4755
  449MPD2    C1 6686   2.747   3.115  13.607 -0.0248  0.4076 -0.5287
  449MPD2    C2 6687   2.687   3.092  13.729  0.3295 -0.6036  0.1608
  449MPD2    C3 6688   2.762   3.036  13.834  0.8604  0.1033  0.3303
  449MPD2    C4 6689   2.895   3.020  13.820  0.1576  0.5793 -0.5977
  449MPD2    C5 6690   2.956   3.046  13.699  0.7003  0.2979  0.4311
  449MPD2     H 6691   2.580   3.102  13.734  0.1621 -2.2038 -0.4512
  449MPD2    H1 6692   2.949   2.972  13.901 -0.8991  0.6927  0.1773
  449MPD2    H2 6693   2.932   3.102  13.503 -0.2408 -0.0669  0.4864
  449MPD2    H3 6694   3.058   3.020  13.671  0.6130 -1.4099  1.7613
  449MPD2     N 6695   2.692   3.007  13.950  0.4012  0.7162  0.4408
  449MPD2    H5 6696   2.593   3.007  13.925  0.3883  2.8483  0.4920
  449MPD2    N1 6697   2.662   3.135  13.498 -0.2629  0.4153  0.1599
  449MPD2    H7 6698   2.563   3.144  13.519  0.1673  1.6091  1.6818
  450TMC3    C1 6699   2.577   3.154  13.271 -0.0833 -0.0125  0.1446
  450TMC3    C2 6700   2.602   3.068  13.167  0.7707 -0.2465 -1.0152
  450TMC3    C3 6701   2.522   2.962  13.163  0.1976  0.5185  0.1062
  450TMC3    C4 6702   2.466   3.153  13.349 -0.0907 -0.5394  0.3507
  450TMC3    C5 6703   2.376   3.054  13.331  0.3981  1.1659 -0.2361
  450TMC3    C6 6704   2.409   2.948  13.244 -0.5138 -0.2153  1.0146
  450TMC3     C 6705   2.694   3.145  13.366  0.1790  0.0716 -0.1882
  450TMC3     O 6706   2.804   3.138  13.311  0.2372  0.1361  0.0668
  450TMC3     H 6707   2.678   3.085  13.091  0.2127  1.2221 -1.2399
  450TMC3    H1 6708   2.453   3.237  13.417 -0.7268  0.0041 -0.4486
  450TMC3    H2 6709   2.349   2.859  13.231 -0.9576  0.5119 -1.7755
  450TMC3    C7 6710   2.336   3.010  13.462  0.8469 -0.1040 -0.1310
  450TMC3    C8 6711   2.561   2.835  13.090  0.4384 -0.4602  0.2443
  450TMC3    O1 6712   2.390   3.068  13.555 -0.3781 -0.5753  0.2309
  450TMC3    O2 6713   2.478   2.744  13.094  0.5548 -0.5155 -1.0411
  451MPD2     C 6714   4.078   1.656   0.846 -0.5641 -0.4439  0.3332
  451MPD2    C1 6715   4.192   1.678   0.907 -0.3761 -0.3173  0.5041
  451MPD2    C2 6716   4.288   1.576   0.892 -0.3126 -0.1478  0.6372
  451MPD2    C3 6717   4.256   1.453   0.837  0.2486 -0.0700 -0.0033
  451MPD2    C4 6718   4.138   1.436   0.778 -0.2152 -0.9994  0.0826
  451MPD2    C5 6719   4.047   1.536   0.781 -0.4106 -0.1334 -0.0142
  451MPD2     H 6720   4.387   1.587   0.934 -1.4097 -1.7515  3.6166
  451MPD2    H1 6721   4.102   1.345   0.732 -1.7772 -0.5994  0.5100
  451MPD2    H2 6722   4.002   1.732   0.858  0.7956  1.3678 -2.3932
  451MPD2    H3 6723   3.946   1.511   0.751 -1.0284  0.7297  1.3240
  451MPD2     N 6724   4.352   1.344   0.820 -0.5617  0.1271  0.1272
  451MPD2    H5 6725   4.315   1.262   0.774 -1.7510  0.0318  1.2637
  451MPD2    N1 6726   4.213   1.813   0.952  0.2760  0.4505 -0.1098
  451MPD2    H7 6727   4.146   1.883   0.921  0.4593 -0.3375 -2.2834
  452TMC3    C1 6728   4.570   1.254   0.825 -0.4835  0.1692  0.3637
  452TMC3    C2 6729   4.685   1.227   0.898 -0.3661  0.2535 -0.5245
  452TMC3    C3 6730   0.061   1.176   0.825  0.9750 -0.1524  0.3126
  452TMC3    C4 6731   4.546   1.226   0.697  0.1983  0.6417 -0.2715
  452TMC3    C5 6732   4.640   1.142   0.643 -0.1342  1.3812  0.4755
  452TMC3    C6 6733   0.030   1.109   0.708 -0.8369 -0.4039 -0.6805
  452TMC3     C 6734   4.472   1.341   0.882  0.2383 -0.6927 -0.3420
  452TMC3     O 6735   4.498   1.385   0.992  0.0248  0.1164 -0.4313
  452TMC3     H 6736   4.710   1.260   0.998  3.3852 -1.2938 -0.9678
  452TMC3    H1 6737   4.449   1.241   0.650  2.1630  3.1084 -3.5632
  452TMC3    H2 6738   0.109   1.059   0.653 -0.8579  0.6132 -1.6296
  452TMC3    C7 6739   4.634   1.107   0.505  0.3408  0.1530  0.2371
  452TMC3    C8 6740   0.192   1.165   0.886  0.1441 -0.0655  0.0390
  452TMC3    O1 6741   4.699   1.006   0.478  0.3736  0.0727 -0.0314
  452TMC3    O2 6742   0.205   1.162   1.009  0.4361  0.3124 -0.6651
  453TMC3    C1 6743   0.768   4.061  11.677 -0.4368 -0.5409 -0.4188
  453TMC3    C2 6744   0.708   3.945  11.711  0.0778  0.6373  0.2661
  453TMC3    C3 6745   0.717   3.839  11.619 -0.7661 -0.3818 -0.0868
  453TMC3    C4 6746   0.826   4.081  11.552 -0.2470  0.2454  0.1139
  453TMC3    C5 6747   0.815   3.984  11.459 -0.0252 -0.0695 -0.7409
  453TMC3    C6 6748   0.764   3.862  11.493  0.5557  0.3129  0.1947
  453TMC3     C 6749   0.809   4.159  11.771 -0.3577  0.2658 -0.7556
  453TMC3     O 6750   0.911   4.225  11.752  0.0072  0.0478  0.6422
  453TMC3     H 6751   0.655   3.932  11.804  1.8254  0.4010  1.2159
  453TMC3    H1 6752   0.886   4.169  11.537  1.3835 -0.7111  1.0044
  453TMC3    H2 6753   0.754   3.781  11.421 -0.9596 -2.2773  3.3533
  453TMC3    C7 6754   0.847   4.021  11.326 -0.3535  0.4034 -0.2708
  453TMC3    C8 6755   0.675   3.705  11.656 -0.0715  0.1733  0.2315
  453TMC3    O1 6756   0.892   3.933  11.254  0.6035  0.6965 -0.2628
  453TMC3    O2 6757   0.624   3.630  11.575 -0.3154 -0.0287 -0.1702
  454MPD2     C 6758   4.069   3.589  16.258  0.4575 -0.1646  0.0784
  454MPD2    C1 6759   3.977   3.636  16.162  0.6653 -0.1745  0.6507
  454MPD2    C2 6760   3.894   3.738  16.206  0.0596 -0.7458  0.4533
  454MPD2    C3 6761   3.895   3.795  16.333 -0.5058 -0.6709  0.6874
  454MPD2    C4 6762   3.989   3.750  16.420  0.2039 -0.5418  0.1449
  454MPD2    C5 6763   4.074   3.653  16.381 -0.1527  0.5438 -0.2540
  454MPD2     H 6764   3.813   3.756  16.137  1.5474 -0.5472 -1.2446
  454MPD2    H1 6765   4.010   3.806  16.510 -1.9860 -0.7777  0.8103
  454MPD2    H2 6766   4.137   3.508  16.238  1.5077  0.4727  1.0534
  454MPD2    H3 6767   4.159   3.623  16.441 -0.7351 -1.0238 -0.2293
  454MPD2     N 6768   3.796   3.889  16.375  0.2177  0.4882 -0.1088
  454MPD2    H5 6769   3.779   3.899  16.474  2.1539 -2.1168  0.4923
  454MPD2    N1 6770   3.963   3.589  16.031  0.8702 -0.6442 -0.2069
  454MPD2    H7 6771   3.916   3.641  15.958  0.1241  0.4493  1.0537
  455TMC3    C1 6772   3.582   3.974  16.356 -0.8213 -0.1290  0.5051
  455TMC3    C2 6773   3.605   4.012  16.489 -0.4886 -0.3297 -0.5132
  455TMC3    C3 6774   3.533   3.947  16.586  0.4597  0.1281 -0.0628
  455TMC3    C4 6775   3.480   3.890  16.313  0.0864  0.5472  0.4042
  455TMC3    C5 6776   3.416   3.821  16.413  0.1773  0.4745  0.8883
  455TMC3    C6 6777   3.437   3.853  16.546 -0.3043  0.1504  0.2650
  455TMC3     C 6778   3.709   3.951  16.288  0.2814  0.0991 -0.5842
  455TMC3     O 6779   3.709   3.957  16.169  0.2354 -0.4663 -0.6976
  455TMC3     H 6780   3.676   4.089  16.516 -1.7231  0.6641 -0.1004
  455TMC3    H1 6781   3.483   3.864  16.208  2.4856  1.4253  0.2455
  455TMC3    H2 6782   3.383   3.800  16.624 -0.4135  1.7621  1.2688
  455TMC3    C7 6783   3.404   3.683  16.380  0.3585  0.1462 -0.7714
  455TMC3    C8 6784   3.537   4.009  16.711  0.0245 -0.2834  0.4673
  455TMC3    O1 6785   3.292   3.641  16.367 -0.2197  0.4497  0.1905
  455TMC3    O2 6786   3.638   4.072  16.737  0.1629 -0.3018 -0.2727
  456MPD2     C 6787   1.580   3.857  16.170 -0.5048 -0.0404 -0.1128
  456MPD2    C1 6788   1.657   3.807  16.268 -0.1652  0.0731  0.0781
  456MPD2    C2 6789   1.638   3.847  16.399 -0.4348 -0.1528  0.4971
  456MPD2    C3 6790   1.551   3.941  16.430 -0.8858  0.2540  0.0208
  456MPD2    C4 6791   1.492   4.017  16.323  0.5264 -0.0006 -0.5083
  456MPD2    C5 6792   1.499   3.968  16.197  0.2662  0.2535  0.6387
  456MPD2     H 6793   1.693   3.798  16.478  1.4668 -1.3250 -1.5691
  456MPD2    H1 6794   1.440   4.110  16.342 -0.9580 -0.6683 -1.3339
  456MPD2    H2 6795   1.594   3.828  16.066  0.1400 -0.5138  0.1014
  456MPD2    H3 6796   1.451   4.028  16.121 -1.0925 -0.7394  0.7112
  456MPD2     N 6797   1.536   3.980  16.562  0.1496  0.2490 -0.4386
  456MPD2    H5 6798   1.599   3.934  16.627 -2.0275 -1.3774  0.5112
  456MPD2    N1 6799   1.744   3.703  16.233 -0.2286 -0.7308  0.8267
  456MPD2    H7 6800   1.748   3.680  16.134  1.9510 -1.1419  1.0143
  457TMC3    C1 6801   1.479   4.122  16.747 -0.1772  0.7528 -0.6499
  457TMC3    C2 6802   1.384   4.202  16.801  0.0814  0.1175  0.2096
  457TMC3    C3 6803   1.430   4.289  16.900  0.1349 -1.2407  0.4087
  457TMC3    C4 6804   1.605   4.115  16.788 -0.9205  0.4816  0.2295
  457TMC3    C5 6805   1.642   4.197  16.891  0.2327 -0.1968 -0.1593
  457TMC3    C6 6806   1.558   4.287  16.942  0.5260 -0.2548 -0.1728
  457TMC3     C 6807   1.456   4.075  16.611  0.1376 -0.6380 -1.1810
  457TMC3     O 6808   1.365   4.122  16.553 -0.3784 -0.2534 -0.0019
  457TMC3     H 6809   1.290   4.219  16.750 -0.4031  0.8982  1.3560
  457TMC3    H1 6810   1.681   4.044  16.757 -2.1590 -1.0405  0.6902
  457TMC3    H2 6811   1.583   4.354  17.024  0.1017  1.6867 -1.6168
  457TMC3    C7 6812   1.772   4.180  16.962  0.3627 -0.4128 -0.2273
  457TMC3    C8 6813   1.358   4.413  16.910  0.0340  0.4935 -0.3911
  457TMC3    O1 6814   1.818   4.067  16.960 -0.0303  0.3840  0.2563
  457TMC3    O2 6815   1.428   4.514  16.916 -0.2021  0.3780 -0.1568
  458MPD2     C 6816   4.501   3.332  12.168  0.5536  0.2031  0.0127
  458MPD2    C1 6817   4.435   3.343  12.283 -0.2455  0.2445  0.3066
  458MPD2    C2 6818   4.299   3.312  12.276  0.2653 -0.0089 -0.7807
  458MPD2    C3 6819   4.243   3.258  12.161 -0.1888  0.3333 -0.1482
  458MPD2    C4 6820   4.319   3.254  12.044 -0.2292 -0.4129 -0.1495
  458MPD2    C5 6821   4.445   3.300  12.049 -0.5011 -0.0177 -0.6308
  458MPD2     H 6822   4.239   3.317  12.367  1.2695  3.9913 -0.3283
  458MPD2    H1 6823   4.280   3.219  11.950 -1.7346  0.1955  0.2459
  458MPD2    H2 6824   4.606   3.359  12.166  0.2232  1.4545 -0.0955
  458MPD2    H3 6825   4.496   3.305  11.953 -1.3416 -0.6670 -1.1101
  458MPD2     N 6826   4.108   3.218  12.162 -0.4459  0.4738  0.1109
  458MPD2    H5 6827   4.082   3.147  12.095 -0.7338 -0.5826  1.3462
  458MPD2    N1 6828   4.491   3.394  12.402 -0.5454 -0.6797  0.4963
  458MPD2    H7 6829   4.585   3.431  12.387  0.6392 -2.7548  2.9721
  459TMC3    C1 6830   4.527   3.422  12.644  0.2208  0.0167  0.3348
  459TMC3    C2 6831   4.628   3.503  12.614  0.3608 -0.1692  0.4765
  459TMC3    C3 6832   4.717   3.523  12.708  0.0350 -0.2402  0.0081
  459TMC3    C4 6833   4.502   3.358  12.762 -0.5600  0.7900  0.4079
  459TMC3    C5 6834   4.593   3.379  12.857 -0.2956 -0.3227 -0.2725
  459TMC3    C6 6835   4.708   3.445  12.827  0.1287 -0.4419  0.0214
  459TMC3     C 6836   4.437   3.373  12.529  0.1551 -0.2560 -0.0714
  459TMC3     O 6837   4.344   3.301  12.559 -1.1197 -0.4149  0.2812
  459TMC3     H 6838   4.617   3.565  12.526  1.2308 -0.2742  0.2992
  459TMC3    H1 6839   4.417   3.295  12.783  0.9764 -1.5264 -0.3369
  459TMC3    H2 6840   0.056   3.472  12.903 -0.2059  0.6946 -0.0553
  459TMC3    C7 6841   4.565   3.316  12.980 -0.5434  0.2619 -0.9551
  459TMC3    C8 6842   0.116   3.595  12.681  0.4406 -0.2690  0.2599
  459TMC3    O1 6843   4.484   3.223  12.976  0.0911 -0.5298  0.3371
  459TMC3    O2 6844   0.201   3.574  12.766 -0.4403 -0.5044  0.4260
  460MPD2     C 6845   3.706   1.408  10.364  0.0210 -0.4548 -0.0193
  460MPD2    C1 6846   3.597   1.407  10.452 -1.0156  0.4776 -0.6749
  460MPD2    C2 6847   3.480   1.473  10.421  0.1441 -0.5879 -0.6903
  460MPD2    C3 6848   3.467   1.532  10.300  0.3502 -0.7792  0.2201
  460MPD2    C4 6849   3.571   1.532  10.209  0.3989 -0.6547 -0.8515
  460MPD2    C5 6850   3.686   1.473  10.247 -1.0165 -0.3651  0.4931
  460MPD2     H 6851   3.395   1.483  10.487  1.1599  0.1392  0.4838
  460MPD2    H1 6852   3.558   1.573  10.110 -1.4082  2.4013  0.6447
  460MPD2    H2 6853   3.801   1.367  10.396  0.5016  0.8090  0.1499
  460MPD2    H3 6854   3.769   1.493  10.180 -0.1927 -2.5459  0.8649
  460MPD2     N 6855   3.334   1.591  10.274  0.5188  0.1146  0.0532
  460MPD2    H5 6856   3.268   1.580  10.350  1.2381 -2.4813  0.2910
  460MPD2    N1 6857   3.612   1.344  10.582  0.6442 -0.1031  0.6896
  460MPD2    H7 6858   3.699   1.295  10.597  1.0804 -0.5929 -3.3935
  461TMC3    C1 6859   3.162   1.679  10.146  0.2996 -0.4858 -0.2621
  461TMC3    C2 6860   3.080   1.578  10.190 -0.2601 -0.1833 -0.4830
  461TMC3    C3 6861   2.952   1.579  10.147  0.1213 -0.4160 -0.6100
  461TMC3    C4 6862   3.120   1.779  10.065 -0.4955  0.1308 -0.1535
  461TMC3    C5 6863   2.984   1.779  10.030 -0.6764  0.7997  0.3054
  461TMC3    C6 6864   2.898   1.680  10.069  0.5381 -0.2484 -0.5929
  461TMC3     C 6865   3.304   1.664  10.158  0.1983  0.4491  0.3105
  461TMC3     O 6866   3.379   1.709  10.072 -0.0555  0.2837  0.0748
  461TMC3     H 6867   3.118   1.488  10.238 -0.4062 -0.4978 -0.9665
  461TMC3    H1 6868   3.188   1.859  10.040  0.1093 -0.7795 -1.4221
  461TMC3    H2 6869   2.791   1.691  10.056  0.4308  1.3570  1.6824
  461TMC3    C7 6870   2.916   1.879   9.942  0.3744 -0.5388 -0.5299
  461TMC3    C8 6871   2.902   1.453  10.105 -0.5116  0.2865  0.0592
  461TMC3    O1 6872   2.804   1.841   9.908  0.5558  0.1550 -0.4211
  461TMC3    O2 6873   2.917   1.357  10.179  0.1559 -0.1799  0.2048
  462TMC3    C1 6874   3.403   1.032   0.042  0.6097 -0.6311  0.7010
  462TMC3    C2 6875   3.371   0.945  17.642  0.2691 -0.3095  0.7201
  462TMC3    C3 6876   3.342   0.821  17.675 -0.0429  0.1417  0.0153
  462TMC3    C4 6877   3.405   0.996   0.174 -0.0056  0.6353 -0.7522
  462TMC3    C5 6878   3.370   0.868   0.202  0.1563 -0.0942 -0.0007
  462TMC3    C6 6879   3.330   0.787   0.104 -0.1069 -0.3529 -0.5375
  462TMC3     C 6880   3.457   1.162   0.006  0.0679 -0.3738  0.9112
  462TMC3     O 6881   3.466   1.190  17.587 -0.0403  0.3321 -0.3828
  462TMC3     H 6882   3.370   0.979  17.539 -1.5037 -1.6208  0.2946
  462TMC3    H1 6883   3.411   1.068   0.255 -0.8416 -1.0345  0.8216
  462TMC3    H2 6884   3.321   0.681   0.127 -0.5817 -0.6326 -1.9685
  462TMC3    C7 6885   3.357   0.828   0.339 -0.0754 -0.2900 -1.0249
  462TMC3    C8 6886   3.348   0.713  17.585 -0.3249  0.1467  0.4162
  462TMC3    O1 6887   3.294   0.727   0.365  0.0510 -0.4589  0.2360
  462TMC3    O2 6888   3.286   0.610  17.611  0.3334  0.6348 -0.3034
  463MPD2     C 6889   0.265   0.253   2.119  0.5706  0.9171  0.7195
  463MPD2    C1 6890   0.207   0.252   1.992 -0.2613  0.6521 -0.2295
  463MPD2    C2 6891   0.285   0.294   1.886  0.3658  0.4397  0.0307
  463MPD2    C3 6892   0.418   0.325   1.897  0.3291  0.6108  0.0288
  463MPD2    C4 6893   0.476   0.327   2.023  0.1670  0.4569  0.7460
  463MPD2    C5 6894   0.401   0.282   2.132 -0.5648  0.5903 -0.5189
  463MPD2     H 6895   0.253   0.299   1.782  1.3869  0.4549 -0.2889
  463MPD2    H1 6896   0.579   0.354   2.041  0.0292  0.7348  1.1219
  463MPD2    H2 6897   0.218   0.216   2.210  0.6780 -0.4906  0.2073
  463MPD2    H3 6898   0.449   0.267   2.228 -1.3600  1.2704 -0.0235
  463MPD2     N 6899   0.509   0.342   1.783  0.3094  0.1672  0.0898
  463MPD2    H5 6900   0.604   0.363   1.810 -0.7217  3.5207  1.1165
  463MPD2    N1 6901   0.071   0.217   1.982 -0.5778 -0.7727  0.5030
  463MPD2    H7 6902   0.019   0.196   2.067  0.1166  1.7343  1.5523
  464TMC3    C1 6903   4.597   0.136   1.911 -0.0710  0.5251 -0.3451
  464TMC3    C2 6904   4.484   0.172   1.847 -0.2668 -0.2802  0.0881
  464TMC3    C3 6905   4.370   0.105   1.881 -0.0479  0.1585 -0.0887
  464TMC3    C4 6906   4.603   0.031   1.996 -0.6169 -0.4693  0.3229
  464TMC3    C5 6907   4.484   4.689   2.029  0.2877  0.2822  0.0101
  464TMC3    C6 6908   4.366   0.004   1.976 -0.1936 -0.8673 -0.0829
  464TMC3     C 6909   4.718   0.192   1.869 -0.5250 -0.1470  0.3487
  464TMC3     O 6910   0.011   0.221   1.753 -0.0037 -0.1333 -0.1115
  464TMC3     H 6911   4.493   0.245   1.767  1.3562 -1.7469 -1.0463
  464TMC3    H1 6912   4.696   4.724   2.042 -0.4666  1.7163  1.4960
  464TMC3    H2 6913   4.277   4.674   2.006 -0.3890 -1.8469 -2.4491
  464TMC3    C7 6914   4.498   4.550   2.067 -0.0536  0.4122 -0.6493
  464TMC3    C8 6915   4.243   0.147   1.824 -0.7942  0.0467 -0.1926
  464TMC3    O1 6916   4.591   4.521   2.138  0.2163  0.3799  0.2657
  464TMC3    O2 6917   4.253   0.203   1.716  0.0062  0.7854 -0.1833
  465MPD2     C 6918   0.862   3.444  16.727  0.0964 -0.9602 -1.0115
  465MPD2    C1 6919   0.748   3.452  16.797  0.1740  0.2918 -0.1244
  465MPD2    C2 6920   0.653   3.528  16.734  0.6987 -0.7331  0.1120
  465MPD2    C3 6921   0.664   3.588  16.612 -0.1472 -0.3037 -0.0776
  465MPD2    C4 6922   0.785   3.575  16.541  0.8495  0.4415 -0.0374
  465MPD2    C5 6923   0.880   3.501  16.603 -0.5198  0.2582 -1.1254
  465MPD2     H 6924   0.561   3.543  16.789  1.1947 -3.8952  1.8404
  465MPD2    H1 6925   0.814   3.639  16.459 -0.3851  0.9595 -0.0632
  465MPD2    H2 6926   0.948   3.391  16.768  0.3796  0.2606 -0.0400
  465MPD2    H3 6927   0.983   3.498  16.570 -0.1813 -0.0179 -0.0478
  465MPD2     N 6928   0.561   3.670  16.557 -0.9237 -0.1531  0.4491
  465MPD2    H5 6929   0.473   3.678  16.608 -0.1333 -0.4700  1.8480
  465MPD2    N1 6930   0.722   3.392  16.916  0.9297  0.2713 -0.0595
  465MPD2    H7 6931   0.633   3.416  16.957 -0.2404  0.5616 -2.8009
  466TMC3    C1 6932   0.250   3.910  16.522 -0.2424  0.0088  0.1150
  466TMC3    C2 6933   0.262   4.031  16.463 -0.3565 -0.2123 -0.6008
  466TMC3    C3 6934   0.366   4.036  16.375 -0.8547 -0.5141 -0.3033
  466TMC3    C4 6935   0.339   3.808  16.516  0.2349  0.3968 -0.0699
  466TMC3    C5 6936   0.440   3.817  16.427  0.4759  0.0086  0.4313
  466TMC3    C6 6937   0.451   3.935  16.352  0.0571 -0.2139  0.1953
  466TMC3     C 6938   0.149   3.897  16.626 -0.3493  0.7552  0.5725
  466TMC3     O 6939   0.193   3.882  16.737  0.1949 -0.2762 -0.1853
  466TMC3     H 6940   0.186   4.104  16.489  1.4218  1.3570  0.1667
  466TMC3    H1 6941   0.320   3.712  16.562 -2.6625  1.2209  0.4316
  466TMC3    H2 6942   0.532   3.951  16.282  0.0447  1.0163  0.4707
  466TMC3    C7 6943   0.565   3.744  16.443 -0.9359 -0.3745  0.1773
  466TMC3    C8 6944   0.411   4.163  16.327 -0.1752  0.1605  0.4068
  466TMC3    O1 6945   0.646   3.746  16.354 -0.5442  0.1540 -0.4189
  466TMC3    O2 6946   0.509   4.167  16.252  0.1784  0.1993  0.3641
  467TMC3    C1 6947   1.244   2.385  13.744 -0.4132  0.0172  0.4543
  467TMC3    C2 6948   1.197   2.513  13.745  0.0497 -0.2350  0.1520
  467TMC3    C3 6949   1.072   2.547  13.695 -0.2388  0.5521 -0.4221
  467TMC3    C4 6950   1.154   2.287  13.701  0.3017  0.5593 -0.6427
  467TMC3    C5 6951   1.028   2.319  13.663 -0.2424 -0.6646  0.2466
  467TMC3    C6 6952   0.985   2.448  13.656 -0.5687  0.4475  0.0662
  467TMC3     C 6953   1.386   2.380  13.735 -0.0171  0.0690 -0.5034
  467TMC3     O 6954   1.447   2.481  13.771 -0.3025 -0.1328  0.4513
  467TMC3     H 6955   1.259   2.590  13.789 -1.2232  2.5383 -2.8940
  467TMC3    H1 6956   1.174   2.180  13.707  3.2682  1.0705 -1.0922
  467TMC3    H2 6957   0.879   2.469  13.644 -0.4066  0.0860 -2.0945
  467TMC3    C7 6958   0.929   2.214  13.665 -0.5590 -0.4833  1.0119
  467TMC3    C8 6959   1.094   2.652  13.595  0.6258  0.2839 -0.5366
  467TMC3    O1 6960   0.948   2.106  13.610  0.4057  0.0015  0.1177
  467TMC3    O2 6961   1.166   2.748  13.625 -0.5832 -0.5999 -0.5228
  468MPD2     C 6962   0.847   0.539  10.541  0.5601  0.0892 -0.0254
  468MPD2    C1 6963   0.838   0.584  10.670 -0.1872  0.2504  0.2187
  468MPD2    C2 6964   0.834   0.481  10.765 -0.7239 -0.1582 -0.7518
  468MPD2    C3 6965   0.829   0.344  10.734  0.1616 -0.8380 -0.0050
  468MPD2    C4 6966   0.849   0.308  10.604  0.6463 -0.3233 -0.5841
  468MPD2    C5 6967   0.852   0.402  10.506  0.3472 -0.6718  0.7347
  468MPD2     H 6968   0.813   0.515  10.866  1.8350 -1.4265  0.2044
  468MPD2    H1 6969   0.842   0.206  10.569  1.2041 -0.2103 -1.0248
  468MPD2    H2 6970   0.850   0.602  10.454 -1.3605  0.6577  0.3334
  468MPD2    H3 6971   0.853   0.366  10.404 -2.4298  1.9196 -0.1994
  468MPD2     N 6972   0.809   0.235  10.823  0.6569  0.3385 -0.2552
  468MPD2    H5 6973   0.813   0.145  10.776 -0.5660  0.1879 -0.0732
  468MPD2    N1 6974   0.848   0.722  10.706  0.6809  0.3561 -0.2130
  468MPD2    H7 6975   0.856   0.741  10.805  1.1721 -3.4938  0.4540
  469TMC3    C1 6976   0.857   0.946  10.676 -0.4698  0.4835  0.4991
  469TMC3    C2 6977   0.941   0.966  10.777  0.1933 -0.4890  0.3715
  469TMC3    C3 6978   0.941   1.095  10.822 -0.8777 -0.8468 -0.3343
  469TMC3    C4 6979   0.765   1.041  10.638 -0.4822  0.6255  0.0679
  469TMC3    C5 6980   0.775   1.173  10.682  0.0240 -0.6754  0.1216
  469TMC3    C6 6981   0.868   1.204  10.777  0.3045  0.0950  0.3058
  469TMC3     C 6982   0.845   0.824  10.614  0.1494 -0.1527 -0.1498
  469TMC3     O 6983   0.795   0.817  10.505  0.2018 -0.1197  0.2086
  469TMC3     H 6984   1.021   0.896  10.797  0.9487  0.8744  2.1038
  469TMC3    H1 6985   0.690   1.016  10.563 -0.5815  1.6571 -0.1721
  469TMC3    H2 6986   0.883   1.304  10.816  0.9047 -0.2436  0.9385
  469TMC3    C7 6987   0.688   1.278  10.634  0.8421 -0.4668  0.5953
  469TMC3    C8 6988   1.019   1.116  10.943 -0.9946  0.4228  0.3485
  469TMC3    O1 6989   0.584   1.251  10.572 -0.1396  0.0567  0.3015
  469TMC3    O2 6990   1.113   1.046  10.961  0.2471  0.6543 -0.1038
  470TMC3    C1 6991   3.154   1.265   0.014 -0.0465  0.0237  0.8416
  470TMC3    C2 6992   3.203   1.390   0.041  0.2910 -0.2862  0.2695
  470TMC3    C3 6993   3.213   1.416   0.173 -0.2917  0.1494  0.6760
  470TMC3    C4 6994   3.115   1.177   0.110  0.0792 -0.6267  0.1564
  470TMC3    C5 6995   3.129   1.214   0.241  0.1189  0.4655  0.0298
  470TMC3    C6 6996   3.182   1.335   0.272  0.6703 -1.0890 -0.1865
  470TMC3     C 6997   3.113   1.233  17.576 -1.0793  0.4717 -0.2918
  470TMC3     O 6998   3.098   1.115  17.552 -0.1770  0.0692  0.6545
  470TMC3     H 6999   3.246   1.440  17.654  1.6068 -0.7159  0.6848
  470TMC3    H1 7000   3.092   1.073   0.086  0.7630 -0.9088  0.7103
  470TMC3    H2 7001   3.176   1.379   0.371  0.4086 -2.2503  0.3107
  470TMC3    C7 7002   3.112   1.114   0.345 -0.7477  0.2601 -0.1635
  470TMC3    C8 7003   3.237   1.556   0.211 -0.6931  0.2710 -0.5368
  470TMC3    O1 7004   3.050   1.018   0.311  0.4054  0.3866  0.2571
  470TMC3    O2 7005   3.239   1.582   0.331 -0.7300  0.1541 -0.0108
  471MPD2     C 7006   2.538   2.566  16.567  0.3602 -0.3791  0.7547
  471MPD2    C1 7007   2.659   2.628  16.557 -0.8803 -0.5918  0.2735
  471MPD2    C2 7008   2.728   2.673  16.675 -0.0416  0.1911  0.5749
  471MPD2    C3 7009   2.682   2.633  16.800 -0.1278 -0.3510 -1.0744
  471MPD2    C4 7010   2.567   2.561  16.806 -0.2804 -0.5247  0.1017
  471MPD2    C5 7011   2.492   2.529  16.694 -0.4627  0.2527 -0.3380
  471MPD2     H 7012   2.821   2.727  16.656  0.7103 -0.6355  1.9175
  471MPD2    H1 7013   2.534   2.533  16.906 -1.5160 -0.0862 -0.1792
  471MPD2    H2 7014   2.487   2.525  16.481 -1.3733  2.2592  0.5381
  471MPD2    H3 7015   2.396   2.478  16.703 -0.7540  0.9997  0.8465
  471MPD2     N 7016   2.753   2.651  16.923  0.7590  0.1453  0.3618
  471MPD2    H5 7017   2.717   2.617  17.011  0.5891  2.6264  1.2351
  471MPD2    N1 7018   2.720   2.662  16.433  0.0870  0.1730  0.4877
  471MPD2    H7 7019   2.809   2.712  16.430  0.3215 -0.1555  1.9932
  472TMC3    C1 7020   2.774   2.645  16.209 -0.6744 -0.4976  0.9169
  472TMC3    C2 7021   2.728   2.622  16.081 -0.0500  0.1660  0.5181
  472TMC3    C3 7022   2.824   2.568  15.996 -0.7802 -0.0059 -0.0440
  472TMC3    C4 7023   2.904   2.632  16.247 -0.7196 -0.2032  0.3546
  472TMC3    C5 7024   2.986   2.561  16.160  0.4471 -0.6489  0.7077
  472TMC3    C6 7025   2.948   2.534  16.033 -0.0516  0.5412 -0.1644
  472TMC3     C 7026   2.676   2.618  16.311  0.8293 -0.1322 -0.2355
  472TMC3     O 7027   2.566   2.571  16.271  0.0589  0.0695  0.3607
  472TMC3     H 7028   2.626   2.645  16.054  0.8188  1.2554 -1.8469
  472TMC3    H1 7029   2.956   2.650  16.340  0.1307  0.2414 -0.2119
  472TMC3    H2 7030   3.015   2.485  15.964 -3.6099 -2.5345 -1.3879
  472TMC3    C7 7031   3.040   2.447  16.234  0.5070 -0.0794  0.2538
  472TMC3    C8 7032   2.768   2.506  15.880 -0.1146  0.7288 -0.5193
  472TMC3    O1 7033   3.076   2.467  16.352 -0.0370  0.3507 -0.2832
  472TMC3    O2 7034   2.845   2.443  15.812 -0.3925  0.3290 -0.3020
  473MPD2     C 7035   3.169   0.040  13.566  0.4130 -0.0932  0.0897
  473MPD2    C1 7036   3.079   0.115  13.629  0.4760  0.6243  0.2901
  473MPD2    C2 7037   3.118   0.185  13.744 -0.4376  0.0409 -0.0494
  473MPD2    C3 7038   3.245   0.202  13.776 -0.4644  0.1671  0.0980
  473MPD2    C4 7039   3.342   0.121  13.714 -0.2544 -0.0494  0.2693
  473MPD2    C5 7040   3.299   0.038  13.608  0.1998 -0.1579  0.6506
  473MPD2     H 7041   3.050   0.258  13.785  2.6760  4.5921 -3.0337
  473MPD2    H1 7042   3.444   0.114  13.749 -0.1439 -0.1029 -0.0699
  473MPD2    H2 7043   3.136   4.696  13.488  0.2433 -0.1472  0.2079
  473MPD2    H3 7044   3.377   4.691  13.583  0.9544  0.3771  1.5056
  473MPD2     N 7045   3.280   0.295  13.877  0.0568  0.2297 -1.1093
  473MPD2    H5 7046   3.202   0.338  13.925  1.0788  1.3693 -0.4616
  473MPD2    N1 7047   2.945   0.128  13.578 -0.0669 -0.6038 -0.1628
  473MPD2    H7 7048   2.881   0.187  13.629 -0.4883 -1.2094  0.0139
  474TMC3    C1 7049   3.401   0.426  14.015 -0.8503  0.7191 -0.7584
  474TMC3    C2 7050   3.284   0.466  14.074 -0.0551  0.1812  0.3742
  474TMC3    C3 7051   3.298   0.542  14.191 -0.1296 -0.4088  0.0923
  474TMC3    C4 7052   3.529   0.452  14.075  0.1912 -0.1648  0.4316
  474TMC3    C5 7053   3.526   0.534  14.186 -0.3573 -0.1243  0.6757
  474TMC3    C6 7054   3.414   0.574  14.252 -0.1980  0.0523  0.6556
  474TMC3     C 7055   3.407   0.332  13.902 -0.1195 -0.3035  0.2447
  474TMC3     O 7056   3.511   0.316  13.844  0.1650  0.0239 -0.7438
  474TMC3     H 7057   3.188   0.470  14.024  0.2069 -0.0032 -0.1326
  474TMC3    H1 7058   3.624   0.424  14.031 -0.0494 -2.7996  1.6010
  474TMC3    H2 7059   3.419   0.619  14.351 -0.8236  0.5845  0.4439
  474TMC3    C7 7060   3.660   0.556  14.240 -0.2659  0.2586  0.0983
  474TMC3    C8 7061   3.177   0.593  14.244  0.1469  0.5651 -0.3071
  474TMC3    O1 7062   3.760   0.522  14.173 -0.1381 -0.7144 -1.0280
  474TMC3    O2 7063   3.076   0.530  14.220  0.2369 -0.6476 -0.0901
  475MPD2     C 7064   1.670   3.210  10.257 -0.0645  0.4812  0.3448
  475MPD2    C1 7065   1.718   3.340  10.294  0.1349  0.5192 -0.8555
  475MPD2    C2 7066   1.652   3.404  10.395  0.6236 -0.5753 -0.2151
  475MPD2    C3 7067   1.533   3.356  10.441  0.5504  0.6544  1.1427
  475MPD2    C4 7068   1.484   3.242  10.393 -0.1816  0.0354  0.4020
  475MPD2    C5 7069   1.556   3.167  10.303 -0.0789  0.5069 -0.1582
  475MPD2     H 7070   1.690   3.498  10.433  0.6453 -0.8576  0.4609
  475MPD2    H1 7071   1.387   3.199  10.419  0.1877 -1.2181 -0.2679
  475MPD2    H2 7072   1.721   3.146  10.186  0.9414  1.0169  0.5903
  475MPD2    H3 7073   1.519   3.070  10.272 -0.1342  0.2563  0.6910
  475MPD2     N 7074   1.453   3.446  10.533  0.4086  0.2553  0.8349
  475MPD2    H5 7075   1.504   3.530  10.557  0.3080  0.4445  0.3876
  475MPD2    N1 7076   1.835   3.405  10.239  0.8207  0.0997 -0.5911
  475MPD2    H7 7077   1.855   3.494  10.283  0.7676  0.1553 -0.6798
  476TMC3    C1 7078   1.983   3.474  10.078 -0.7126 -0.4763  0.2591
  476TMC3    C2 7079   1.897   3.570  10.025 -0.0718  0.4840  0.3184
  476TMC3    C3 7080   1.929   3.700  10.051 -0.0544 -0.2506  0.2213
  476TMC3    C4 7081   2.089   3.513  10.149  0.3669 -0.5215 -0.7550
  476TMC3    C5 7082   2.126   3.647  10.157 -0.3991 -0.3061 -0.1138
  476TMC3    C6 7083   2.042   3.745  10.100 -0.1710  0.6139 -0.3402
  476TMC3     C 7084   1.908   3.366  10.130 -0.1822 -0.2985 -0.1108
  476TMC3     O 7085   1.886   3.266  10.063 -0.0349  0.2783 -0.0587
  476TMC3     H 7086   1.811   3.527   9.975 -0.8519  1.1074  1.1245
  476TMC3    H1 7087   2.153   3.440  10.198  1.5946  1.8388  1.2098
  476TMC3    H2 7088   2.054   3.853  10.109  0.1937  0.7220 -2.0906
  476TMC3    C7 7089   2.209   3.683  10.265  0.0158  0.9387  0.0268
  476TMC3    C8 7090   1.807   3.779  10.081 -0.3370  0.5519 -0.1824
  476TMC3    O1 7091   2.280   3.595  10.295 -0.4188  0.0828  0.6895
  476TMC3    O2 7092   1.815   3.897  10.110 -0.2944  0.3904 -0.0337
  477MPD2     C 7093   4.231   0.555  11.594 -0.2053 -0.9905  0.1501
  477MPD2    C1 7094   4.100   0.507  11.609 -0.3328  0.5928 -0.2317
  477MPD2    C2 7095   4.076   0.438  11.725 -0.4725 -0.1383 -0.1778
  477MPD2    C3 7096   4.173   0.426  11.821 -0.3940  0.6392  0.0197
  477MPD2    C4 7097   4.301   0.463  11.794 -0.7075 -0.2114 -0.0998
  477MPD2    C5 7098   4.331   0.525  11.681  1.0416 -0.7463 -0.0602
  477MPD2     H 7099   3.974   0.406  11.744 -1.0912  2.2779  0.5061
  477MPD2    H1 7100   4.379   0.451  11.869 -0.0672  3.5061 -0.1695
  477MPD2    H2 7101   4.249   0.627  11.515 -1.7310 -0.5025  0.2428
  477MPD2    H3 7102   4.428   0.570  11.669  1.3459 -1.4855 -0.4005
  477MPD2     N 7103   4.136   0.369  11.946 -0.1437 -1.1393  0.5162
  477MPD2    H5 7104   4.038   0.346  11.957 -1.1869  3.0004  0.0120
  477MPD2    N1 7105   4.003   0.544  11.515  0.5878  0.2811 -0.6345
  477MPD2    H7 7106   4.037   0.590  11.432  0.8341  0.0750 -0.6471
  478TMC3    C1 7107   3.795   0.554  11.396 -0.1944 -0.7379 -0.0586
  478TMC3    C2 7108   3.666   0.573  11.438 -0.5557 -0.0304 -0.4511
  478TMC3    C3 7109   3.583   0.645  11.356 -0.2248 -0.3031 -0.3021
  478TMC3    C4 7110   3.843   0.603  11.282 -0.2528  0.3798 -0.2701
  478TMC3    C5 7111   3.758   0.681  11.206  0.6515  0.8344 -0.2360
  478TMC3    C6 7112   3.633   0.712  11.252 -0.1485 -0.1512  0.3022
  478TMC3     C 7113   3.877   0.497  11.507 -0.5113  0.1967 -0.6161
  478TMC3     O 7114   3.822   0.420  11.587 -0.8806 -0.3466 -0.0914
  478TMC3     H 7115   3.632   0.520  11.527  0.3315 -0.3125 -0.2809
  478TMC3    H1 7116   3.932   0.571  11.228 -0.1676  2.3496 -1.2892
  478TMC3    H2 7117   3.567   0.774  11.193  0.2491 -0.0742 -0.0646
  478TMC3    C7 7118   3.810   0.731  11.077  0.7103 -0.5202  0.3829
  478TMC3    C8 7119   3.494   0.713  11.448 -0.5538  0.4388  0.3022
  478TMC3    O1 7120   3.931   0.751  11.075  0.2549  0.1686  0.1012
  478TMC3    O2 7121   3.473   0.664  11.555  0.3915  0.7533 -0.2168
  479MPD2     C 7122   2.682   1.834  15.151  0.2165 -0.5936  0.6020
  479MPD2    C1 7123   2.607   1.772  15.244 -0.0791  0.5962 -0.3576
  479MPD2    C2 7124   2.660   1.761  15.368  0.0355  0.1634  0.2888
  479MPD2    C3 7125   2.783   1.818  15.399 -0.6946 -0.3462  0.6358
  479MPD2    C4 7126   2.853   1.883  15.299  0.1527 -0.4668  0.3183
  479MPD2    C5 7127   2.804   1.888  15.178 -0.2475  0.3665  0.1745
  479MPD2     H 7128   2.601   1.697  15.433 -1.5636  2.1676  0.8219
  479MPD2    H1 7129   2.943   1.938  15.325 -0.0123 -1.7553  3.6383
  479MPD2    H2 7130   2.646   1.844  15.049 -0.5340  0.5060  0.9716
  479MPD2    H3 7131   2.856   1.951  15.107 -1.4638  0.3822 -0.7076
  479MPD2     N 7132   2.853   1.836  15.522  0.1505 -0.1222 -0.5059
  479MPD2    H5 7133   2.940   1.884  15.501  0.7249 -0.3467  1.4022
  479MPD2    N1 7134   2.474   1.740  15.206 -0.1923  0.3129 -0.4909
  479MPD2    H7 7135   2.434   1.765  15.117 -0.5404  0.1720 -0.3725
  480TMC3    C1 7136   2.523   1.703  15.837  1.4540  0.1019  0.1370
  480TMC3    C2 7137   2.423   1.777  15.787  0.3294  0.0531 -0.4779
  480TMC3    C3 7138   2.456   1.860  15.676 -0.2552  0.7137  0.3549
  480TMC3    C4 7139   2.647   1.700  15.783 -0.0883  0.5448 -0.1216
  480TMC3    C5 7140   2.680   1.784  15.683  0.3836 -0.4217 -0.5692
  480TMC3    C6 7141   2.585   1.864  15.630  0.1007  0.1893 -1.3629
  480TMC3     C 7142   2.485   1.582  15.900  0.3006  1.4501  0.2639
  480TMC3     O 7143   2.583   1.519  15.923  0.1443  0.0945 -0.4398
  480TMC3     H 7144   2.323   1.774  15.829  0.1305  3.0076 -0.7137
  480TMC3    H1 7145   2.729   1.636  15.813 -1.2759 -0.6180  0.6169
  480TMC3    H2 7146   2.612   1.936  15.553  2.4154  0.5675 -0.2139
  480TMC3    C7 7147   2.823   1.807  15.654  0.5537  0.1850 -0.0480
  480TMC3    C8 7148   2.346   1.912  15.603  0.4273  0.7982 -0.3135
  480TMC3    O1 7149   2.901   1.815  15.746  0.1104 -0.2043 -0.2481
  480TMC3    O2 7150   2.238   1.927  15.661 -0.2309  0.1728 -0.3664
  481MPD2     C 7151   3.745   1.538  13.757 -0.1324  0.2720 -0.5625
  481MPD2    C1 7152   3.707   1.440  13.841  0.2441  0.0037  0.1893
  481MPD2    C2 7153   3.794   1.406  13.935  0.0291 -0.4131 -1.2389
  481MPD2    C3 7154   3.912   1.467  13.954  0.6515 -0.9137 -0.3394
  481MPD2    C4 7155   3.947   1.570  13.873  0.1486 -0.3243  0.1722
  481MPD2    C5 7156   3.865   1.606  13.772  0.1872  0.2761 -0.1964
  481MPD2     H 7157   3.766   1.322  13.999  1.2863  0.2586  0.2068
  481MPD2    H1 7158   4.046   1.616  13.878  0.7752 -1.4841 -1.8197
  481MPD2    H2 7159   3.686   1.575  13.674 -2.3356  0.3482  1.0350
  481MPD2    H3 7160   3.890   1.683  13.700  0.1858 -0.4841 -1.0012
  481MPD2     N 7161   3.993   1.448  14.072  0.4813  0.5539 -0.6600
  481MPD2    H5 7162   4.072   1.512  14.075  1.6086 -0.7857 -1.8512
  481MPD2    N1 7163   3.571   1.397  13.836  0.3248  0.6754  0.3146
  481MPD2    H7 7164   3.506   1.453  13.782 -1.4466 -0.3592  1.3971
  482TMC3    C1 7165   3.368   1.295  13.885  0.2031  0.4509 -0.5867
  482TMC3    C2 7166   3.329   1.187  13.812 -0.0814  0.2782 -0.3645
  482TMC3    C3 7167   3.216   1.201  13.732 -0.0722  0.1331 -0.1147
  482TMC3    C4 7168   3.301   1.410  13.883 -0.9090  0.3032  0.6332
  482TMC3    C5 7169   3.182   1.417  13.821 -0.2197 -0.6270  0.5013
  482TMC3    C6 7170   3.135   1.317  13.744 -0.2171  0.2049  0.0809
  482TMC3     C 7171   3.512   1.293  13.908  0.1275  0.0787  0.5209
  482TMC3     O 7172   3.565   1.186  13.946  0.3154 -0.1962 -0.0999
  482TMC3     H 7173   3.396   1.102  13.813 -1.2916 -0.6584  0.0262
  482TMC3    H1 7174   3.344   1.497  13.932 -1.5673  1.5133 -0.9360
  482TMC3    H2 7175   3.044   1.335  13.689  0.5391 -0.0267 -1.2634
  482TMC3    C7 7176   3.137   1.545  13.815 -0.5947 -0.5152  0.1458
  482TMC3    C8 7177   3.194   1.092  13.639 -0.0873 -0.6125  0.5639
  482TMC3    O1 7178   3.099   1.605  13.913  0.1098  0.1017  0.1290
  482TMC3    O2 7179   3.261   0.992  13.653  0.0839 -0.2464 -0.2292
  483TMC3    C1 7180   2.479   4.452   1.570  0.1408 -0.6015 -0.7699
  483TMC3    C2 7181   2.442   4.580   1.545 -0.0138  0.3162 -0.4475
  483TMC3    C3 7182   2.510   4.682   1.604  0.7965 -0.2137 -0.1008
  483TMC3    C4 7183   2.565   4.427   1.669 -0.4516 -0.6411  0.0356
  483TMC3    C5 7184   2.634   4.531   1.730 -0.8292  0.0358  0.2450
  483TMC3    C6 7185   2.606   4.656   1.697  0.1650 -0.3258  0.8401
  483TMC3     C 7186   2.403   4.341   1.526  0.4408  0.2095 -0.2864
  483TMC3     O 7187   2.403   4.239   1.599 -0.4458  0.3088  0.1848
  483TMC3     H 7188   2.380   4.607   1.460 -0.7592  0.7358  0.2334
  483TMC3    H1 7189   2.606   4.328   1.685 -1.6256 -1.0566  0.4159
  483TMC3    H2 7190   2.675   0.007   1.735  0.9874 -1.6602  1.9788
  483TMC3    C7 7191   2.774   4.497   1.738 -0.3099 -0.2631  0.5799
  483TMC3    C8 7192   2.535   0.075   1.527  0.8569 -0.3633  0.3121
  483TMC3    O1 7193   2.854   4.539   1.654 -0.3936 -0.5302 -0.0805
  483TMC3    O2 7194   2.543   0.067   1.406 -0.4791 -0.1610 -0.0682
  484MPD2     C 7195   0.201   3.801  12.391  0.5526  0.3567  0.1202
  484MPD2    C1 7196   0.228   3.744  12.517  0.5342  0.8916 -0.8146
  484MPD2    C2 7197   0.344   3.766  12.585 -0.1739  0.5543 -0.8497
  484MPD2    C3 7198   0.444   3.844  12.524  0.1185 -0.5578 -0.7398
  484MPD2    C4 7199   0.420   3.898  12.402  0.7749  0.3171  0.2613
  484MPD2    C5 7200   0.299   3.888  12.342 -0.6658  0.1880  0.5857
  484MPD2     H 7201   0.348   3.722  12.685 -1.9831  0.6426 -0.7506
  484MPD2    H1 7202   0.490   3.958  12.346 -0.5805 -0.9061 -2.7343
  484MPD2    H2 7203   0.118   3.775  12.327 -0.3185  2.7491  0.2843
  484MPD2    H3 7204   0.278   3.919  12.240  1.3351 -1.9567 -0.4752
  484MPD2     N 7205   0.566   3.877  12.580  0.4639 -0.0150  0.1681
  484MPD2    H5 7206   0.633   3.929  12.525 -0.4813  1.4349  0.3831
  484MPD2    N1 7207   0.120   3.663  12.561 -0.0340  0.4621 -0.1910
  484MPD2    H7 7208   0.042   3.655  12.496  0.1802 -3.0034 -0.0717
  485TMC3    C1 7209   0.731   3.888  12.746 -0.4920 -0.9807 -0.0637
  485TMC3    C2 7210   0.783   3.839  12.866  0.1544  0.5798 -0.1765
  485TMC3    C3 7211   0.917   3.856  12.889 -0.6009  0.3932 -0.4126
  485TMC3    C4 7212   0.816   3.938  12.652  0.3082  0.2857  0.0578
  485TMC3    C5 7213   0.949   3.946  12.681 -0.0253 -0.4363  0.6485
  485TMC3    C6 7214   0.999   3.924  12.803  0.2372 -0.5325 -0.1661
  485TMC3     C 7215   0.601   3.837  12.705 -0.1942 -0.2187 -0.2766
  485TMC3     O 7216   0.544   3.770  12.788 -0.0486 -0.4146 -0.1474
  485TMC3     H 7217   0.716   3.795  12.939  0.6178  0.5342  0.2251
  485TMC3    H1 7218   0.790   3.966  12.551 -1.6932  1.2292  0.8453
  485TMC3    H2 7219   1.104   3.918  12.828  0.4180 -1.6931 -1.2036
  485TMC3    C7 7220   1.033   3.925  12.560  0.3500 -0.5578  0.0082
  485TMC3    C8 7221   0.985   3.745  12.948 -0.2740 -0.2606  0.1181
  485TMC3    O1 7222   0.994   3.874  12.456  0.3258  0.6054  0.4079
  485TMC3    O2 7223   1.099   3.760  12.986 -0.1472  0.0423 -0.0238
  486MPD2     C 7224   2.441   2.630  12.725 -0.4536 -0.1447  0.4463
  486MPD2    C1 7225   2.313   2.589  12.699 -0.6668  0.7975 -0.5325
  486MPD2    C2 7226   2.228   2.685  12.651  0.2585  0.2231  0.2022
  486MPD2    C3 7227   2.267   2.816  12.630 -0.1372 -0.0242 -0.1450
  486MPD2    C4 7228   2.398   2.856  12.666  0.3241  0.1071 -0.6377
  486MPD2    C5 7229   2.480   2.759  12.718 -0.1450  0.2197  0.9939
  486MPD2     H 7230   2.124   2.662  12.630  0.1443  0.7982  0.1397
  486MPD2    H1 7231   2.436   2.958  12.674 -2.1805  0.8269  1.8189
  486MPD2    H2 7232   2.504   2.560  12.778 -0.9912 -0.8542  0.1342
  486MPD2    H3 7233   2.570   2.792  12.769  0.9408 -2.1894  0.6618
  486MPD2     N 7234   2.175   2.906  12.574 -0.3763 -0.0287 -0.0807
  486MPD2    H5 7235   2.077   2.883  12.569  0.0301 -1.8616  0.3790
  486MPD2    N1 7236   2.280   2.459  12.738 -0.3444  0.6071 -0.1284
  486MPD2    H7 7237   2.335   2.407  12.806 -0.3215 -1.2097 -1.5198
  487TMC3    C1 7238   2.144   2.260  12.756 -0.0355  0.3348 -0.2837
  487TMC3    C2 7239   2.095   2.153  12.680 -0.0904  0.3926 -0.1442
  487TMC3    C3 7240   2.108   2.022  12.722  0.2678  0.0299 -0.1130
  487TMC3    C4 7241   2.199   2.234  12.882 -0.7371 -0.3082 -0.4467
  487TMC3    C5 7242   2.209   2.099  12.921 -0.1655  0.1066 -0.1276
  487TMC3    C6 7243   2.156   1.992  12.845 -0.0708 -0.9544  0.4453
  487TMC3     C 7244   2.156   2.397  12.706 -0.0936  0.8908 -0.9097
  487TMC3     O 7245   2.082   2.427  12.613  0.1050  0.1745 -0.1241
  487TMC3     H 7246   2.052   2.167  12.581  1.0540 -1.2961 -0.8738
  487TMC3    H1 7247   2.219   2.316  12.950  2.0667  0.0803 -1.7260
  487TMC3    H2 7248   2.166   1.887  12.871 -1.7559 -1.4008 -0.6459
  487TMC3    C7 7249   2.171   2.090  13.058  0.1232 -0.0869 -0.3955
  487TMC3    C8 7250   1.998   1.937  12.690  0.1365 -0.1302 -0.1313
  487TMC3    O1 7251   2.223   2.161  13.142 -0.2882 -0.0801 -0.4082
  487TMC3    O2 7252   1.891   1.988  12.703  0.4728 -0.2169 -0.2816
  488MPD2     C 7253   2.568   3.663  16.374 -0.5192  0.4711  0.9649
  488MPD2    C1 7254   2.576   3.804  16.384 -0.2189  0.4545 -0.5240
  488MPD2    C2 7255   2.555   3.862  16.506  0.5976  0.1146 -0.0293
  488MPD2    C3 7256   2.527   3.779  16.620 -0.1363 -0.2417 -0.7395
  488MPD2    C4 7257   2.510   3.646  16.605  0.5419 -0.4782 -0.1213
  488MPD2    C5 7258   2.541   3.589  16.483  0.1840 -0.3286 -0.7898
  488MPD2     H 7259   2.555   3.970  16.521  1.1215  0.2998 -1.4043
  488MPD2    H1 7260   2.492   3.577  16.687  2.3475 -0.9343 -0.1080
  488MPD2    H2 7261   2.580   3.615  16.278 -2.6358  1.1359  0.3705
  488MPD2    H3 7262   2.535   3.481  16.474 -0.8233 -0.3737  0.4971
  488MPD2     N 7263   2.512   3.839  16.747  0.6690 -0.2598  0.3540
  488MPD2    H5 7264   2.507   3.940  16.737  0.4281  0.0552  3.6771
  488MPD2    N1 7265   2.592   3.883  16.268  0.0071  0.2275 -0.3756
  488MPD2    H7 7266   2.584   3.983  16.279 -1.7218  0.4248 -3.3135
  489TMC3    C1 7267   2.468   3.881  16.975 -0.0232  0.6537 -0.8854
  489TMC3    C2 7268   2.427   4.009  16.943  0.0891 -0.0432 -0.4657
  489TMC3    C3 7269   2.426   4.103  17.044 -0.4269  0.0927  0.3409
  489TMC3    C4 7270   2.504   3.839  17.096  0.0649  0.1903  0.0932
  489TMC3    C5 7271   2.504   3.938  17.197  0.9144 -0.0391 -0.7300
  489TMC3    C6 7272   2.466   4.067  17.174 -0.1465  0.6189  0.9417
  489TMC3     C 7273   2.490   3.785  16.870 -0.1894 -0.3999 -0.0906
  489TMC3     O 7274   2.507   3.671  16.909 -0.1149 -0.2369 -0.7824
  489TMC3     H 7275   2.395   4.037  16.844  1.1987  0.1836 -0.7562
  489TMC3    H1 7276   2.540   3.738  17.115  0.2172 -0.0311 -1.4460
  489TMC3    H2 7277   2.467   4.145  17.250  2.7751  2.4876 -1.0228
  489TMC3    C7 7278   2.509   3.904  17.337 -1.4458  0.6283 -1.0642
  489TMC3    C8 7279   2.399   4.241  17.004  0.1236 -0.0439  0.6382
  489TMC3    O1 7280   2.517   3.998  17.412  0.5973  0.3844  0.5793
  489TMC3    O2 7281   2.462   4.327  17.064 -0.5958 -0.6427 -0.9330
  490MPD2     C 7282   3.499   3.326  17.087 -0.1364  0.2966  0.4851
  490MPD2    C1 7283   3.404   3.352  17.185  0.6684 -0.2467 -0.4673
  490MPD2    C2 7284   3.410   3.463  17.271  0.2496  0.5314 -0.0021
  490MPD2    C3 7285   3.522   3.548  17.270 -0.1578 -0.4286 -0.2383
  490MPD2    C4 7286   3.621   3.517  17.179 -0.0347 -0.1386  0.2903
  490MPD2    C5 7287   3.603   3.411  17.090 -0.2566  0.4223 -0.1715
  490MPD2     H 7288   3.331   3.475  17.344 -1.2313  1.8126 -1.8299
  490MPD2    H1 7289   3.709   3.579  17.179 -0.8728  1.0513  1.4793
  490MPD2    H2 7290   3.495   3.238  17.025 -1.0689  0.8701 -0.2746
  490MPD2    H3 7291   3.683   3.390  17.020 -0.3396  0.5142 -0.2955
  490MPD2     N 7292   3.540   3.664  17.342  0.8714  1.1073 -0.1092
  490MPD2    H5 7293   3.619   3.721  17.312  1.8773 -0.8269 -1.1109
  490MPD2    N1 7294   3.298   3.260  17.209  0.4155  0.3130  1.0384
  490MPD2    H7 7295   3.246   3.276  17.294  0.3816 -2.5623  1.5578
  491TMC3    C1 7296   3.177   3.061  17.213 -0.6959 -0.3482 -0.0587
  491TMC3    C2 7297   3.209   3.010  17.332  0.1117 -1.2307  0.0576
  491TMC3    C3 7298   3.105   2.947  17.395  1.1593 -0.1548 -0.6374
  491TMC3    C4 7299   3.056   3.088  17.167  0.0622 -0.2995 -0.1853
  491TMC3    C5 7300   2.955   3.036  17.241  0.4058 -0.0125  0.0736
  491TMC3    C6 7301   2.974   2.959  17.350 -0.1159 -0.2810  1.1728
  491TMC3     C 7302   3.272   3.139  17.147 -0.1653 -0.2222 -0.6363
  491TMC3     O 7303   3.303   3.095  17.037  0.1526  0.0681  0.0342
  491TMC3     H 7304   3.311   2.992  17.363  0.4188  0.8262  0.2403
  491TMC3    H1 7305   3.040   3.130  17.068 -0.8373  0.0559  0.1134
  491TMC3    H2 7306   2.885   2.905  17.381  0.9721 -2.8360 -0.0781
  491TMC3    C7 7307   2.827   3.028  17.174 -0.7311 -0.0586 -0.1341
  491TMC3    C8 7308   3.136   2.905  17.530  0.4426 -0.6536 -0.1155
  491TMC3    O1 7309   2.770   2.926  17.179 -0.2255 -0.4642 -0.2888
  491TMC3    O2 7310   3.257   2.903  17.563 -0.0394 -0.3628  0.5031
  492MPD2     C 7311   3.512   4.018  11.074 -0.2501  0.3040  0.4367
  492MPD2    C1 7312   3.408   3.957  11.011  0.3073  0.3927 -0.2412
  492MPD2    C2 7313   3.361   3.834  11.064  0.4848  0.2297 -0.1054
  492MPD2    C3 7314   3.403   3.778  11.184 -0.4206 -0.2462 -0.9819
  492MPD2    C4 7315   3.512   3.845  11.241  0.0980  0.4691 -0.8827
  492MPD2    C5 7316   3.564   3.958  11.187  0.2459  0.2228 -0.3416
  492MPD2     H 7317   3.270   3.795  11.019 -0.3705  0.8023  1.1183
  492MPD2    H1 7318   3.554   3.798  11.330 -0.3888  2.5373  0.4522
  492MPD2    H2 7319   3.561   4.107  11.036 -0.4961  1.4917  2.8920
  492MPD2    H3 7320   3.641   4.013  11.240  0.9002 -1.4006  0.3758
  492MPD2     N 7321   3.348   3.670  11.249 -0.0688  0.2596  0.0751
  492MPD2    H5 7322   3.397   3.636  11.331  1.0636  1.4665 -0.0983
  492MPD2    N1 7323   3.361   4.016  10.890 -0.1344 -0.1856 -0.3090
  492MPD2    H7 7324   3.385   4.114  10.880  0.0770 -0.1066  1.0072
  493TMC3    C1 7325   3.279   4.028  10.668  0.2479  0.0397  0.2942
  493TMC3    C2 7326   3.373   4.119  10.639  0.3957  0.5169 -0.3612
  493TMC3    C3 7327   3.416   4.124  10.511 -0.1449 -0.5305  0.6380
  493TMC3    C4 7328   3.209   3.968  10.568 -0.4095  0.1853  0.0618
  493TMC3    C5 7329   3.253   3.980  10.443 -0.5588 -0.3894  0.0302
  493TMC3    C6 7330   3.350   4.067  10.405  0.1246 -0.3084  0.1528
  493TMC3     C 7331   3.280   3.953  10.794 -0.1075  0.0447  0.3641
  493TMC3     O 7332   3.225   3.840  10.794 -0.1334  0.0087  0.1205
  493TMC3     H 7333   3.430   4.162  10.721 -1.0880  1.0660  0.3799
  493TMC3    H1 7334   3.126   3.901  10.589  1.3903 -2.1829 -0.3724
  493TMC3    H2 7335   3.377   4.070  10.300  0.3186  0.9690  0.2455
  493TMC3    C7 7336   3.251   3.859  10.371 -0.9545 -0.2395 -0.3512
  493TMC3    C8 7337   3.490   4.241  10.468  0.1987  0.2717 -0.1224
  493TMC3    O1 7338   3.221   3.846  10.253 -0.1871  0.1053 -0.4131
  493TMC3    O2 7339   3.495   4.274  10.349 -0.2779  0.0805  0.2278
  494TMC3    C1 7340   4.325   0.266   0.592  0.2754  0.7765 -0.0807
  494TMC3    C2 7341   4.452   0.297   0.623 -0.3151  0.5537  0.5630
  494TMC3    C3 7342   4.525   0.393   0.558 -0.1572 -0.3126 -0.0877
  494TMC3    C4 7343   4.270   0.345   0.500  0.2295  0.8769 -0.2008
  494TMC3    C5 7344   4.337   0.453   0.451  0.3593 -0.9353 -0.1449
  494TMC3    C6 7345   4.470   0.471   0.464 -0.1456 -0.7034  0.2771
  494TMC3     C 7346   4.245   0.209   0.698  0.3134  0.4276  0.3852
  494TMC3     O 7347   4.118   0.225   0.697 -0.4751  0.2765 -0.1889
  494TMC3     H 7348   4.495   0.255   0.713  1.9499 -0.6009 -1.0555
  494TMC3    H1 7349   4.164   0.333   0.480  0.2139  1.1896 -0.3090
  494TMC3    H2 7350   4.528   0.548   0.414  1.6144 -1.0796  1.7374
  494TMC3    C7 7351   4.268   0.526   0.350  0.4979  0.4449 -0.9182
  494TMC3    C8 7352   4.661   0.350   0.551 -0.0266  0.2711 -0.8854
  494TMC3    O1 7353   4.211   0.460   0.267 -0.2333  0.1127  0.6953
  494TMC3    O2 7354   4.705   0.278   0.633  0.2180  0.1715 -0.4250
  495TMC3    C1 7355   2.751   2.119  14.761 -0.1238  0.4292  0.1489
  495TMC3    C2 7356   2.700   2.195  14.660 -0.1735 -0.3996 -0.2500
  495TMC3    C3 7357   2.603   2.285  14.691 -0.0128 -0.4157  0.3388
  495TMC3    C4 7358   2.707   2.129  14.886  0.4215  0.2215 -0.7631
  495TMC3    C5 7359   2.603   2.216  14.909  0.2557 -0.5825  0.7798
  495TMC3    C6 7360   2.549   2.296  14.818  0.2652  0.7121 -0.5634
  495TMC3     C 7361   2.760   1.976  14.733 -0.1197  0.0975 -0.3529
  495TMC3     O 7362   2.695   1.932  14.642  0.3219 -0.0930  0.1751
  495TMC3     H 7363   2.715   2.166  14.556 -0.3981 -0.9733 -0.1250
  495TMC3    H1 7364   2.740   2.059  14.961 -1.5897 -0.4515 -0.4982
  495TMC3    H2 7365   2.468   2.362  14.849  2.0651  2.2993  0.7527
  495TMC3    C7 7366   2.549   2.194  15.042 -0.3763 -0.1824 -0.3435
  495TMC3    C8 7367   2.506   2.323  14.589  0.3653  0.1984  0.5167
  495TMC3    O1 7368   2.631   2.186  15.130  0.0138 -0.5109 -0.0801
  495TMC3    O2 7369   2.395   2.355  14.631 -0.0889  0.6658 -0.5656
  496MPD2     C 7370   0.049   2.454  15.788  0.1911 -0.5750  0.2337
  496MPD2    C1 7371   4.679   2.359  15.749 -0.4880  0.8000 -0.5727
  496MPD2    C2 7372   4.560   2.350  15.811  0.4517  0.7136  0.2044
  496MPD2    C3 7373   4.534   2.439  15.917 -0.5257  0.0900  0.8292
  496MPD2    C4 7374   4.629   2.525  15.959  0.5557  0.5827  0.1400
  496MPD2    C5 7375   0.025   2.542  15.890  0.2482  0.2222 -0.9004
  496MPD2     H 7376   4.490   2.272  15.783  0.5815  0.4420  0.6214
  496MPD2    H1 7377   4.619   2.577  16.054  0.1666 -0.4180  0.6475
  496MPD2    H2 7378   0.150   2.453  15.750  0.6524  0.6884  1.4034
  496MPD2    H3 7379   0.098   2.617  15.917  0.3275  0.1586 -0.9396
  496MPD2     N 7380   4.409   2.431  15.984  0.2464  0.5022 -0.2933
  496MPD2    H5 7381   4.404   2.491  16.066  0.6817  1.2922 -0.8396
  496MPD2    N1 7382   4.709   2.281  15.636  0.9534 -0.8322 -0.2923
  496MPD2    H7 7383   0.065   2.316  15.584  1.9133 -3.1999 -0.4003
  497TMC3    C1 7384   4.211   2.336  16.063 -0.1295  0.0382  0.0103
  497TMC3    C2 7385   4.088   2.302  16.024  0.4884  0.7492  0.1612
  497TMC3    C3 7386   4.004   2.245  16.118 -0.5050  0.2724 -0.2351
  497TMC3    C4 7387   4.260   2.304  16.189  0.0892  0.3988  0.1092
  497TMC3    C5 7388   4.180   2.241  16.283  0.5681 -0.2936 -0.2718
  497TMC3    C6 7389   4.049   2.225  16.248 -0.3832 -0.1086  0.1517
  497TMC3     C 7390   4.293   2.362  15.946  0.1212  0.1079 -0.1842
  497TMC3     O 7391   4.268   2.302  15.842 -0.4520  0.2401 -0.1063
  497TMC3     H 7392   4.046   2.346  15.934 -1.8946 -0.4874  0.6864
  497TMC3    H1 7393   4.362   2.318  16.224 -0.3040  1.5655  0.8068
  497TMC3    H2 7394   3.975   2.199  16.323 -0.6900  0.4250  0.0322
  497TMC3    C7 7395   4.202   2.260  16.424 -0.2472 -0.1287  0.1503
  497TMC3    C8 7396   3.868   2.237  16.078  0.3943  0.5624  0.0711
  497TMC3    O1 7397   4.110   2.311  16.485  0.2537  0.0281  0.2983
  497TMC3    O2 7398   3.793   2.274  16.167  0.2010 -0.5504  0.4272
  498MPD2     C 7399   1.339   3.549   9.817  0.1818 -0.1464 -0.7182
  498MPD2    C1 7400   1.258   3.651   9.853  0.1006 -0.9290 -0.7067
  498MPD2    C2 7401   1.127   3.627   9.887 -0.1339 -0.1011 -0.0033
  498MPD2    C3 7402   1.081   3.502   9.889  0.0947  0.4399 -0.3924
  498MPD2    C4 7403   1.157   3.399   9.842 -0.6073 -0.2672  0.4980
  498MPD2    C5 7404   1.290   3.420   9.808  0.1778 -0.1980 -0.2557
  498MPD2     H 7405   1.062   3.709   9.915  1.2242  0.8370  0.3574
  498MPD2    H1 7406   1.123   3.297   9.828  1.1910 -0.5445 -1.8577
  498MPD2    H2 7407   1.442   3.565   9.789  0.2520 -0.3751 -0.5951
  498MPD2    H3 7408   1.343   3.337   9.761  0.9153 -0.9102  1.7927
  498MPD2     N 7409   0.947   3.490   9.936  0.0467 -0.0188 -0.3336
  498MPD2    H5 7410   0.894   3.573   9.961  1.1513  0.8760 -0.9718
  498MPD2    N1 7411   1.300   3.785   9.842 -0.1884  0.2650 -0.3444
  498MPD2    H7 7412   1.234   3.847   9.888 -0.2913  2.1048 -3.0034
  499TMC3    C1 7413   1.427   3.984   9.817  0.3972  0.2118 -0.2686
  499TMC3    C2 7414   1.540   4.056   9.835 -0.2800 -0.6340  0.1791
  499TMC3    C3 7415   1.528   4.190   9.857 -0.3397 -0.1926 -0.3449
  499TMC3    C4 7416   1.300   4.045   9.815 -0.7062 -0.3090 -0.1072
  499TMC3    C5 7417   1.296   4.183   9.831 -0.3223  0.2486 -0.9808
  499TMC3    C6 7418   1.405   4.257   9.852 -0.7470 -0.4671 -0.2850
  499TMC3     C 7419   1.422   3.834   9.802 -0.9694  0.9661  0.3506
  499TMC3     O 7420   1.523   3.771   9.784 -0.3687  0.2780  0.6145
  499TMC3     H 7421   1.632   4.000   9.850 -0.0280 -0.2598  0.0444
  499TMC3    H1 7422   1.213   3.992   9.779 -0.4635 -0.7039 -0.1130
  499TMC3    H2 7423   1.407   4.363   9.871 -1.5904 -1.0572  3.0250
  499TMC3    C7 7424   1.179   4.256   9.786 -0.1816 -0.3332 -0.1017
  499TMC3    C8 7425   1.643   4.267   9.901  0.2043  0.2775  0.8901
  499TMC3    O1 7426   1.201   4.371   9.754  0.3115  0.6281  0.0243
  499TMC3    O2 7427   1.735   4.209   9.959 -0.2964  0.2128 -0.7623
  500MPD2     C 7428   2.228   0.769  10.114 -0.5718 -0.1830 -1.0912
  500MPD2    C1 7429   2.259   0.627  10.120  0.2810  0.4663  0.8118
  500MPD2    C2 7430   2.150   0.543  10.135 -0.4543  0.1376  0.0967
  500MPD2    C3 7431   2.025   0.595  10.135  0.3365 -0.0169  0.0029
  500MPD2    C4 7432   2.004   0.729  10.126  0.0434 -0.6980  0.0160
  500MPD2    C5 7433   2.100   0.813  10.109  0.1357  0.2104 -0.1511
  500MPD2     H 7434   2.171   0.438  10.116 -0.9642  0.2191 -0.9417
  500MPD2    H1 7435   1.901   0.763  10.130  0.5871  1.1330 -1.6178
  500MPD2    H2 7436   2.299   0.850  10.120  0.1089 -0.9169  0.7072
  500MPD2    H3 7437   2.078   0.919  10.103 -0.5158  0.1372  0.8728
  500MPD2     N 7438   1.903   0.518  10.131 -0.0787 -0.7279  0.7313
  500MPD2    H5 7439   1.813   0.564  10.145  0.0821 -0.3394  0.4726
  500MPD2    N1 7440   2.391   0.573  10.114 -0.6802  0.1581 -0.4428
  500MPD2    H7 7441   2.400   0.472  10.129 -1.6283  0.1421  0.0056
  501TMC3    C1 7442   2.623   0.563  10.051 -0.7009 -0.7562 -0.8267
  501TMC3    C2 7443   2.728   0.622   9.984  0.7002 -0.3067 -0.6588
  501TMC3    C3 7444   2.852   0.583  10.000  0.1651  0.6053 -0.2910
  501TMC3    C4 7445   2.643   0.471  10.151 -0.2884  0.8551  0.7209
  501TMC3    C5 7446   2.773   0.439  10.169 -0.4705  0.1054 -0.3716
  501TMC3    C6 7447   2.873   0.490  10.093  0.1040 -0.2973  0.6997
  501TMC3     C 7448   2.503   0.644  10.061  0.3244 -0.3870 -0.7336
  501TMC3     O 7449   2.507   0.759  10.021 -0.5558  0.2025 -0.7158
  501TMC3     H 7450   2.702   0.706   9.921 -1.2996 -0.6968 -0.3588
  501TMC3    H1 7451   2.567   0.443  10.223 -2.8837  3.2997 -1.0691
  501TMC3    H2 7452   2.973   0.450  10.103  0.5549  0.2787 -1.6415
  501TMC3    C7 7453   2.814   0.423  10.309  0.6440 -0.3648  0.6118
  501TMC3    C8 7454   2.938   0.689  10.020  0.2699  0.6228 -0.5969
  501TMC3    O1 7455   2.749   0.349  10.381  0.5448  0.2414  0.2497
  501TMC3    O2 7456   2.991   0.688  10.134 -0.8108 -0.0031 -0.2477
  502TMC3    C1 7457   1.770   2.519  14.921 -0.6158 -0.0424 -0.7168
  502TMC3    C2 7458   1.771   2.618  14.831  0.4196 -0.0073 -0.4308
  502TMC3    C3 7459   1.657   2.695  14.815 -0.0878  0.0143 -0.0214
  502TMC3    C4 7460   1.654   2.472  14.973 -0.3097 -0.5405  0.1367
  502TMC3    C5 7461   1.541   2.539  14.954 -0.6690 -0.4059 -0.7634
  502TMC3    C6 7462   1.540   2.662  14.883  0.1846 -0.4054  0.4298
  502TMC3     C 7463   1.882   2.538  15.016  0.3434  0.6787  0.1744
  502TMC3     O 7464   1.973   2.463  15.014  0.5006  0.2507  0.5873
  502TMC3     H 7465   1.868   2.646  14.792  0.4013  0.3347 -0.2363
  502TMC3    H1 7466   1.659   2.396  15.051  0.4875  1.1733  1.7512
  502TMC3    H2 7467   1.443   2.704  14.859 -0.1581  0.1855  2.8549
  502TMC3    C7 7468   1.422   2.498  15.026 -0.8250  0.5247 -0.6515
  502TMC3    C8 7469   1.671   2.837  14.777 -0.2224 -0.1608 -1.0936
  502TMC3    O1 7470   1.412   2.376  15.043  0.1438  0.1021 -0.3222
  502TMC3    O2 7471   1.770   2.851  14.705 -0.3207 -0.7628  0.1277
  503MPD2     C 7472   4.185   4.042  17.031 -0.5879  0.1615 -0.3653
  503MPD2    C1 7473   4.241   4.081  17.147 -0.5707  0.1749  0.1876
  503MPD2    C2 7474   4.296   3.982  17.228 -0.3150  0.2245 -0.1411
  503MPD2    C3 7475   4.293   3.850  17.190 -0.1073 -0.7875  0.0999
  503MPD2    C4 7476   4.223   3.813  17.073  0.0093 -0.5206 -0.1074
  503MPD2    C5 7477   4.170   3.912  16.997 -0.5198 -0.0514 -0.5098
  503MPD2     H 7478   4.344   4.015  17.319  0.1236 -2.3881  0.5605
  503MPD2    H1 7479   4.194   3.710  17.056 -0.2294 -0.6601  1.1007
  503MPD2    H2 7480   4.144   4.112  16.959 -0.7777  0.0668 -0.3481
  503MPD2    H3 7481   4.113   3.890  16.907 -0.6216  3.5728 -1.3503
  503MPD2     N 7482   4.360   3.753  17.267  0.1365 -0.0950 -1.5950
  503MPD2    H5 7483   4.385   3.790  17.358 -1.6862  1.1396 -1.6103
  503MPD2    N1 7484   4.262   4.220  17.186 -0.0589 -0.4845 -0.4768
  503MPD2    H7 7485   4.311   4.230  17.274 -0.8515  2.0893 -0.3132
  504TMC3    C1 7486   4.483   3.550  17.309  0.0692  0.5904  0.2373
  504TMC3    C2 7487   4.473   3.577  17.444 -0.3483  0.4481 -0.4503
  504TMC3    C3 7488   4.579   3.523  17.525 -0.3408 -0.3827  0.2066
  504TMC3    C4 7489   4.579   3.473  17.256 -0.0361  0.1657 -0.0700
  504TMC3    C5 7490   4.682   3.449  17.338  0.7493  0.2797 -0.1229
  504TMC3    C6 7491   4.696   3.468  17.472 -0.1713  0.1724 -0.1214
  504TMC3     C 7492   4.403   3.633  17.218 -0.6281  0.6740  0.2985
  504TMC3     O 7493   4.381   3.580  17.109 -0.4265  0.1297  0.1181
  504TMC3     H 7494   4.378   3.603  17.490  1.0982  0.7629  2.3575
  504TMC3    H1 7495   4.582   3.450  17.150  0.2893  0.7782 -0.1968
  504TMC3    H2 7496   0.051   3.435  17.537 -1.9651 -2.3306  0.7995
  504TMC3    C7 7497   0.074   3.398  17.282  0.1996  0.6027 -0.6770
  504TMC3    C8 7498   4.569   3.547  17.670  0.0016  0.0382  0.4882
  504TMC3    O1 7499   0.094   3.427  17.164  0.0062 -0.5705  0.3159
  504TMC3    O2 7500   4.525   3.661  17.699  0.1725  0.4579 -0.4317
  505MPD2     C 7501   4.640   3.452  10.663 -0.2664 -0.3407  0.7994
  505MPD2    C1 7502   4.554   3.392  10.577  0.0965  0.5767  0.4654
  505MPD2    C2 7503   4.554   3.253  10.567  0.1727  0.3746  0.1898
  505MPD2    C3 7504   4.637   3.182  10.647 -0.1936  0.0467  0.5001
  505MPD2    C4 7505   4.724   3.243  10.729  0.2555  0.3321  0.1050
  505MPD2    C5 7506   0.003   3.378  10.733  0.5413 -0.3774 -0.7740
  505MPD2     H 7507   4.492   3.197  10.497  0.9404  0.1304 -0.2892
  505MPD2    H1 7508   0.070   3.190  10.791 -0.8460 -0.5002  0.6527
  505MPD2    H2 7509   4.643   3.560  10.674  0.8825 -0.4085  1.2814
  505MPD2    H3 7510   0.082   3.419  10.794 -0.2959 -0.4288  0.3493
  505MPD2     N 7511   4.620   3.042  10.662  0.3499 -0.2776 -0.4578
  505MPD2    H5 7512   4.686   2.992  10.719 -1.0238  1.2610  2.4829
  505MPD2    N1 7513   4.470   3.468  10.492  0.1381 -0.5015 -0.0760
  505MPD2    H7 7514   4.479   3.568  10.481  0.0425 -0.2836  1.7364
  506TMC3    C1 7515   4.323   3.520  10.312 -0.0655  0.0587  0.6900
  506TMC3    C2 7516   4.422   3.562  10.224  0.3353 -0.7286 -0.7281
  506TMC3    C3 7517   4.388   3.568  10.090 -0.0966  0.3902 -0.4118
  506TMC3    C4 7518   4.204   3.477  10.274 -0.0145 -0.5298  0.8151
  506TMC3    C5 7519   4.172   3.475  10.140 -0.1226 -0.0864 -0.1653
  506TMC3    C6 7520   4.264   3.523  10.048 -0.5472  0.1386  0.0774
  506TMC3     C 7521   4.371   3.422  10.415  0.3127  0.2598 -0.3627
  506TMC3     O 7522   4.316   3.310  10.408 -0.4090  0.9209 -0.2700
  506TMC3     H 7523   4.511   3.613  10.259 -0.4568  0.1491  0.0207
  506TMC3    H1 7524   4.135   3.443  10.350 -1.5821  1.3599  0.2637
  506TMC3    H2 7525   4.246   3.524   9.942  0.5259 -2.5790 -0.1450
  506TMC3    C7 7526   4.138   3.344  10.090  0.0243 -0.4312  0.5813
  506TMC3    C8 7527   4.480   3.635  10.004 -0.2329 -0.0713 -0.4906
  506TMC3    O1 7528   4.102   3.344   9.972 -0.0476  0.2879 -0.4440
  506TMC3    O2 7529   4.437   3.658   9.893  0.3449  0.2072  0.8578
  507TMC3    C1 7530   0.278   3.166  14.850 -0.0041 -0.2074  0.3581
  507TMC3    C2 7531   0.266   3.077  14.747  0.4175  0.1192  0.0955
  507TMC3    C3 7532   0.369   3.063  14.657 -0.1361  0.0639 -0.9404
  507TMC3    C4 7533   0.388   3.234  14.872  0.1339  0.6977  0.3472
  507TMC3    C5 7534   0.495   3.219  14.785 -0.0256  0.5088  0.6203
  507TMC3    C6 7535   0.483   3.128  14.680 -0.1460  0.3057  0.5967
  507TMC3     C 7536   0.159   3.195  14.933 -0.3699 -0.4836  0.1563
  507TMC3     O 7537   0.051   3.180  14.883  0.2679 -1.0734 -0.1937
  507TMC3     H 7538   0.172   3.025  14.733  1.6758 -2.2847  0.4722
  507TMC3    H1 7539   0.394   3.312  14.947 -2.7349 -1.0388  2.3807
  507TMC3    H2 7540   0.572   3.108  14.621 -0.2290  0.6610  0.3546
  507TMC3    C7 7541   0.566   3.348  14.764  0.3155  0.2318  0.1856
  507TMC3    C8 7542   0.325   3.112  14.529 -0.4315  0.6166 -0.0929
  507TMC3    O1 7543   0.600   3.416  14.861  0.2704  0.7806  0.1387
  507TMC3    O2 7544   0.409   3.176  14.469 -0.0403 -0.8891  0.3907
  508MPD2     C 7545   1.547   0.572  15.552  0.3802  0.1736 -1.6934
  508MPD2    C1 7546   1.547   0.699  15.598  0.4887  0.1927  1.3313
  508MPD2    C2 7547   1.526   0.804  15.504  0.3516 -0.6019 -0.0601
  508MPD2    C3 7548   1.497   0.778  15.376 -0.4047 -0.1101 -0.1533
  508MPD2    C4 7549   1.492   0.648  15.331  1.0624 -0.3986  0.4586
  508MPD2    C5 7550   1.514   0.550  15.421 -0.2975 -0.3302  0.0310
  508MPD2     H 7551   1.524   0.909  15.530  1.7247 -0.3781 -0.8653
  508MPD2    H1 7552   1.480   0.630  15.224  0.1058  1.1239  0.3044
  508MPD2    H2 7553   1.571   0.486  15.614  1.2387  1.9471  0.4471
  508MPD2    H3 7554   1.513   0.448  15.384 -1.8808 -0.7493  1.2098
  508MPD2     N 7555   1.468   0.888  15.295 -0.7451  0.2964 -0.0852
  508MPD2    H5 7556   1.465   0.979  15.339 -0.9027  1.0118 -1.5622
  508MPD2    N1 7557   1.578   0.721  15.733 -0.5719  0.3748  0.1389
  508MPD2    H7 7558   1.568   0.643  15.797 -3.1143  0.1611 -0.5123
  509TMC3    C1 7559   1.335   1.206  15.029  0.7626 -0.5928  0.1154
  509TMC3    C2 7560   1.421   1.296  15.088 -0.0284  0.2288  0.6234
  509TMC3    C3 7561   1.534   1.237  15.144 -0.0451  0.3182 -0.6930
  509TMC3    C4 7562   1.345   1.074  15.030  0.2056  0.1103 -0.6356
  509TMC3    C5 7563   1.446   1.028  15.112  1.2190  0.1527 -0.4071
  509TMC3    C6 7564   1.548   1.100  15.158 -0.0771 -0.4248  0.2399
  509TMC3     C 7565   1.222   1.256  14.966 -0.1715  0.5853 -0.6714
  509TMC3     O 7566   1.182   1.201  14.864  0.3304 -0.3325  0.0938
  509TMC3     H 7567   1.413   1.404  15.087  1.4578  0.3323  0.1553
  509TMC3    H1 7568   1.261   1.016  14.992  0.8603 -2.1582  1.4013
  509TMC3    H2 7569   1.623   1.052  15.219 -1.3323 -1.2365  1.1482
  509TMC3    C7 7570   1.432   0.891  15.161  0.0227  0.2677 -0.4006
  509TMC3    C8 7571   1.641   1.317  15.199  0.0083  0.4109 -0.2551
  509TMC3    O1 7572   1.377   0.801  15.096  0.1762 -0.5279 -0.0846
  509TMC3    O2 7573   1.739   1.257  15.238  0.3803 -0.3485 -0.6161
  510MPD2     C 7574   3.832   2.818  14.387  0.5210  0.1616  0.8806
  510MPD2    C1 7575   3.903   2.765  14.495  0.3070  0.1062  0.5361
  510MPD2    C2 7576   4.040   2.749  14.482 -0.5392  0.2228 -0.5830
  510MPD2    C3 7577   4.104   2.789  14.370 -0.2072  0.3824  0.0927
  510MPD2    C4 7578   4.044   2.848  14.263  0.1282 -0.4140  0.2385
  510MPD2    C5 7579   3.905   2.853  14.271  0.0773  0.7116  0.3325
  510MPD2     H 7580   4.099   2.691  14.551 -0.6237 -0.5000 -1.1261
  510MPD2    H1 7581   4.093   2.876  14.170 -0.4474  0.0073  0.0639
  510MPD2    H2 7582   3.725   2.830  14.372  0.7574 -2.3566 -2.7588
  510MPD2    H3 7583   3.845   2.891  14.189  0.0501  0.0163  0.0344
  510MPD2     N 7584   4.241   2.771  14.364  0.0387  0.4056 -0.4538
  510MPD2    H5 7585   4.285   2.712  14.434  1.4400  0.9888 -0.8516
  510MPD2    N1 7586   3.850   2.715  14.615  0.0165 -0.8537 -0.2182
  510MPD2    H7 7587   3.917   2.661  14.669  0.3398  1.0152  1.2726
  511TMC3    C1 7588   3.681   2.621  14.756 -0.2089  0.0004 -0.1612
  511TMC3    C2 7589   3.578   2.659  14.834  0.7650  0.0141 -0.1326
  511TMC3    C3 7590   3.555   2.576  14.948 -0.0337  0.2093 -0.4368
  511TMC3    C4 7591   3.762   2.516  14.780  0.0742 -0.3422  0.2934
  511TMC3    C5 7592   3.733   2.432  14.887  0.0657  0.6031  0.1534
  511TMC3    C6 7593   3.634   2.466  14.976  0.4196  0.1637 -0.5216
  511TMC3     C 7594   3.722   2.725  14.655  0.0766 -0.5091  0.1565
  511TMC3     O 7595   3.631   2.797  14.616 -0.6869  0.3864  0.2872
  511TMC3     H 7596   3.522   2.751  14.816 -0.7814 -0.6164  1.4704
  511TMC3    H1 7597   3.835   2.484  14.706 -0.8623 -1.8771  0.0312
  511TMC3    H2 7598   3.621   2.393  15.056 -1.4143  0.0102 -0.9577
  511TMC3    C7 7599   3.758   2.289  14.853  0.0137 -0.2628  0.0596
  511TMC3    C8 7600   3.502   2.637  15.068 -0.2901 -0.6103  0.0405
  511TMC3    O1 7601   3.777   2.263  14.734  0.4163 -0.1342  0.1891
  511TMC3    O2 7602   3.511   2.760  15.081  0.1826  0.5849 -0.2967
  512TMC3    C1 7603   2.434   2.464  13.288  0.3050 -0.4612  0.6243
  512TMC3    C2 7604   2.523   2.410  13.378 -0.9642  0.3717  0.0549
  512TMC3    C3 7605   2.614   2.318  13.344  0.2636 -0.4806 -0.7024
  512TMC3    C4 7606   2.429   2.410  13.164 -0.5338 -0.3536  0.2354
  512TMC3    C5 7607   2.527   2.318  13.128  0.0945  0.3247  0.0703
  512TMC3    C6 7608   2.623   2.277  13.218 -0.6905  0.0742  0.3798
  512TMC3     C 7609   2.303   2.489  13.343  0.2295 -0.4808  0.2327
  512TMC3     O 7610   2.304   2.566  13.440 -0.2777  0.1646 -0.2674
  512TMC3     H 7611   2.525   2.438  13.483 -0.3554 -0.9348  0.3860
  512TMC3    H1 7612   2.361   2.445  13.087  1.1127  0.1760 -0.9901
  512TMC3    H2 7613   2.708   2.218  13.186 -0.3723  1.7547 -1.8905
  512TMC3    C7 7614   2.518   2.273  12.991 -0.0501 -0.2465 -0.7674
  512TMC3    C8 7615   2.716   2.277  13.440 -0.0637  0.1356 -0.2097
  512TMC3    O1 7616   2.450   2.344  12.915  0.0677 -0.4741 -0.2000
  512TMC3    O2 7617   2.833   2.259  13.402 -0.2162  0.1888  0.0460
  513MPD2     C 7618   4.245   2.369  13.403  0.1478  0.2907  0.3419
  513MPD2    C1 7619   4.289   2.296  13.296  0.2089  0.3505 -0.5385
  513MPD2    C2 7620   4.370   2.188  13.322  0.6417 -0.3027  0.4088
  513MPD2    C3 7621   4.414   2.162  13.452  0.0490 -0.1544 -0.1796
  513MPD2    C4 7622   4.371   2.237  13.557  0.3168 -0.0252  0.0454
  513MPD2    C5 7623   4.287   2.344  13.533 -0.0652  0.4460  0.0275
  513MPD2     H 7624   4.404   2.118  13.247  0.1634  0.0041 -0.0938
  513MPD2    H1 7625   4.395   2.223  13.662  2.1357 -0.5525 -0.4444
  513MPD2    H2 7626   4.180   2.454  13.387  2.8824  2.1528 -0.8596
  513MPD2    H3 7627   4.248   2.408  13.611 -0.1616  0.5903 -0.1395
  513MPD2     N 7628   4.496   2.048  13.464 -0.3996  0.5355  0.8173
  513MPD2    H5 7629   4.521   2.004  13.376 -2.8262 -1.8179  1.3099
  513MPD2    N1 7630   4.251   2.311  13.158 -0.2334 -0.3632  0.1563
  513MPD2    H7 7631   4.297   2.246  13.095 -1.1770 -0.3522 -0.5381
  514TMC3    C1 7632   4.206   2.405  12.953 -0.1951 -0.8605  0.2577
  514TMC3    C2 7633   4.292   2.496  12.894  0.5643  0.2291 -0.5800
  514TMC3    C3 7634   4.352   2.459  12.774 -0.2808  0.1465 -0.0335
  514TMC3    C4 7635   4.190   2.276  12.904 -0.2901  1.0594  0.1148
  514TMC3    C5 7636   4.277   2.235  12.814  0.1161 -0.5968  0.9604
  514TMC3    C6 7637   4.350   2.323  12.736  0.5139 -0.0335  0.2696
  514TMC3     C 7638   4.193   2.418  13.092 -0.3892  0.5745  0.3468
  514TMC3     O 7639   4.111   2.499  13.135 -0.2841 -0.1599  1.0460
  514TMC3     H 7640   4.307   2.597  12.931 -0.7995  0.2880 -0.1933
  514TMC3    H1 7641   4.129   2.201  12.953  1.7828 -1.1766 -0.8070
  514TMC3    H2 7642   4.419   2.289  12.660 -1.0639 -0.1885 -1.0714
  514TMC3    C7 7643   4.364   2.136  12.875  0.2591 -0.9172  0.1551
  514TMC3    C8 7644   4.444   2.551  12.712  0.0726 -0.5325 -0.5752
  514TMC3    O1 7645   4.352   2.121  12.996 -0.3522 -0.4853 -0.3886
  514TMC3    O2 7646   4.455   2.658  12.771  0.1035  0.0134  0.3758
  515MPD2     C 7647   2.859   3.905  14.735 -0.5389  0.3026 -0.2895
  515MPD2    C1 7648   2.931   3.795  14.769 -0.2144 -0.7915  0.1727
  515MPD2    C2 7649   3.049   3.819  14.832  0.4368 -0.1142 -0.2838
  515MPD2    C3 7650   3.105   3.946  14.866  0.5891  0.0684 -0.2199
  515MPD2    C4 7651   3.023   4.051  14.832  0.3458 -0.7742 -0.7618
  515MPD2    C5 7652   2.901   4.032  14.770  0.1294  0.0580  0.2727
  515MPD2     H 7653   3.102   3.729  14.862 -0.0503 -0.3740 -0.1909
  515MPD2    H1 7654   3.059   4.152  14.848 -1.0811 -0.9252  3.2772
  515MPD2    H2 7655   2.763   3.893  14.686 -0.9162 -2.2546  1.0712
  515MPD2    H3 7656   2.838   4.115  14.742 -0.1349 -1.4705 -3.6811
  515MPD2     N 7657   3.233   3.968  14.913 -0.0555  0.1315 -0.2566
  515MPD2    H5 7658   3.259   4.066  14.914 -2.0720  0.6667  0.3202
  515MPD2    N1 7659   2.895   3.661  14.743 -0.0065  0.3604  0.5277
  515MPD2    H7 7660   2.953   3.581  14.766 -1.0535 -0.8450 -1.0681
  516TMC3    C1 7661   2.758   3.486  14.643  0.3501  0.4537  0.5447
  516TMC3    C2 7662   2.695   3.459  14.520 -0.1080 -0.1869 -0.4209
  516TMC3    C3 7663   2.650   3.331  14.502 -0.0218  0.1235 -0.6117
  516TMC3    C4 7664   2.775   3.388  14.741 -0.8328  0.5901  0.4425
  516TMC3    C5 7665   2.733   3.260  14.717 -0.6650 -0.2579 -0.2814
  516TMC3    C6 7666   2.678   3.230  14.595  0.0054 -0.7431 -0.8059
  516TMC3     C 7667   2.784   3.630  14.671 -0.2222 -0.0742  0.0706
  516TMC3     O 7668   2.707   3.695  14.598 -0.5592  0.4115  1.0383
  516TMC3     H 7669   2.678   3.537  14.447  1.8592 -0.6300 -1.3256
  516TMC3    H1 7670   2.828   3.423  14.829  0.4848 -0.3203  0.0080
  516TMC3    H2 7671   2.664   3.127  14.564 -0.4932 -0.6199 -1.0017
  516TMC3    C7 7672   2.748   3.149  14.814 -0.6209  0.0156  0.0816
  516TMC3    C8 7673   2.611   3.292  14.363  0.1053 -0.1760 -0.2199
  516TMC3    O1 7674   2.783   3.184  14.925 -0.0974  0.5910  0.8548
  516TMC3    O2 7675   2.517   3.217  14.341  0.0025 -0.5779  0.5580
  517MPD2     C 7676   2.689   4.660   0.632 -0.0224  0.1168 -0.0710
  517MPD2    C1 7677   2.792   0.002   0.578  0.2039  0.8216  0.0397
  517MPD2    C2 7678   2.862   0.088   0.659 -0.2391 -0.0838  0.0353
  517MPD2    C3 7679   2.817   0.122   0.785 -0.4980  0.7542  0.3281
  517MPD2    C4 7680   2.711   0.057   0.842 -0.2723  0.6842 -0.1552
  517MPD2    C5 7681   2.644   4.693   0.759  0.1577  0.1409 -0.1025
  517MPD2     H 7682   2.954   0.132   0.623 -0.1921 -0.2246 -0.0133
  517MPD2    H1 7683   2.652   0.089   0.927  0.3431  0.4136  0.3792
  517MPD2    H2 7684   2.626   4.590   0.579  1.4775 -1.9290  0.8100
  517MPD2    H3 7685   2.548   4.661   0.798 -0.3846  2.1442  0.2012
  517MPD2     N 7686   2.881   0.219   0.863 -0.5427  0.2179 -0.1323
  517MPD2    H5 7687   2.862   0.231   0.962 -0.3012  0.1751 -0.0796
  517MPD2    N1 7688   2.839   4.704   0.448 -0.2512 -0.0583 -0.1652
  517MPD2    H7 7689   2.926   0.027   0.428 -0.0230 -0.7392 -0.7490
  518TMC3    C1 7690   2.844   4.629   0.215  0.7219 -0.7074 -0.4147
  518TMC3    C2 7691   2.789   4.546   0.122 -0.1999 -0.1758 -0.7308
  518TMC3    C3 7692   2.833   4.564  17.690  0.2611  0.4897  0.6199
  518TMC3    C4 7693   2.930   0.010   0.182 -0.3678  0.6175 -0.1296
  518TMC3    C5 7694   2.961   0.033   0.054  0.3104  0.4303  0.0959
  518TMC3    C6 7695   2.915   4.674  17.658  0.2938  0.0814  0.5778
  518TMC3     C 7696   2.786   4.622   0.352 -0.1975 -0.5451  0.4570
  518TMC3     O 7697   2.693   4.538   0.354 -0.1602 -0.2914 -0.0724
  518TMC3     H 7698   2.722   4.467   0.153 -0.2206  0.9371  2.0729
  518TMC3    H1 7699   2.973   0.076   0.257 -1.4817  0.6163  0.5017
  518TMC3    H2 7700   2.953   4.676  17.557  3.7336  1.5460  1.9082
  518TMC3    C7 7701   3.070   0.124   0.028 -0.7497  0.4192  0.3567
  518TMC3    C8 7702   2.833   4.452  17.603  0.0202  0.0166 -0.3352
  518TMC3    O1 7703   3.068   0.224   0.092  0.2809 -0.2406  0.2463
  518TMC3    O2 7704   2.816   4.347  17.661  0.3662 -0.4542 -0.1227
  519MPD2     C 7705   4.444   3.972  14.027 -0.3166 -0.8514  0.1075
  519MPD2    C1 7706   4.342   3.900  14.077 -0.2514 -0.5863 -0.6958
  519MPD2    C2 7707   4.325   3.769  14.035  0.3954 -0.4344 -0.0225
  519MPD2    C3 7708   4.411   3.711  13.945 -0.4155  0.1982  0.1785
  519MPD2    C4 7709   4.515   3.785  13.891 -0.6472  0.2511  0.0577
  519MPD2    C5 7710   4.531   3.918  13.925  0.1855 -0.0938  0.5304
  519MPD2     H 7711   4.245   3.700  14.060  0.5296 -0.1612  1.1728
  519MPD2    H1 7712   4.582   3.748  13.814 -0.4873  0.3450  0.1527
  519MPD2    H2 7713   4.461   4.078  14.047 -2.3214 -0.2219 -1.4852
  519MPD2    H3 7714   4.601   3.977  13.868 -1.7614 -0.7630 -2.5493
  519MPD2     N 7715   4.408   3.570  13.906 -0.4662 -0.6123  0.2180
  519MPD2    H5 7716   4.493   3.531  13.866  1.0553  1.7828  1.0968
  519MPD2    N1 7717   4.257   3.963  14.168  0.3329  0.5693  0.2094
  519MPD2    H7 7718   4.297   4.048  14.206  0.4769  0.3874  0.4633
  520TMC3    C1 7719   4.334   3.344  13.901  0.0816  0.2087 -0.5646
  520TMC3    C2 7720   4.234   3.256  13.895  0.2941 -0.1829  0.0268
  520TMC3    C3 7721   4.256   3.120  13.909  0.2393 -0.5513  0.0939
  520TMC3    C4 7722   4.462   3.300  13.923  0.1146  0.1850  0.2484
  520TMC3    C5 7723   4.478   3.164  13.933  1.3160 -0.0316  0.6244
  520TMC3    C6 7724   4.378   3.069  13.933 -0.0141 -0.5293  0.1299
  520TMC3     C 7725   4.306   3.481  13.926  0.2141  0.0635 -1.0201
  520TMC3     O 7726   4.190   3.500  13.959 -0.2348 -0.4379 -0.0916
  520TMC3     H 7727   4.136   3.293  13.865 -0.3333 -1.7514  0.1713
  520TMC3    H1 7728   4.546   3.366  13.941 -0.8907  1.2361  1.0980
  520TMC3    H2 7729   4.398   2.965  13.955 -0.1896 -0.3525  1.1409
  520TMC3    C7 7730   4.612   3.116  13.959  0.3402 -0.3236  0.1595
  520TMC3    C8 7731   4.163   3.007  13.875  0.7164  0.5368 -0.4105
  520TMC3    O1 7732   4.621   3.010  14.019  0.1251  0.7888 -0.6395
  520TMC3    O2 7733   4.214   2.903  13.838 -0.2936  0.0359 -0.4297
  521MPD2     C 7734   0.656   1.895  17.190  0.7758 -0.1688 -0.0415
  521MPD2    C1 7735   0.615   1.766  17.156  0.4145 -0.4992  0.1035
  521MPD2    C2 7736   0.706   1.683  17.094  0.6162 -0.0499  0.3090
  521MPD2    C3 7737   0.823   1.742  17.043 -0.5148 -0.2427  0.0764
  521MPD2    C4 7738   0.854   1.877  17.060 -0.3865 -0.6973  0.2384
  521MPD2    C5 7739   0.773   1.953  17.143 -1.0477  0.2461 -0.5705
  521MPD2     H 7740   0.682   1.581  17.066 -2.0495  0.3526  1.1042
  521MPD2    H1 7741   0.944   1.927  17.024  0.3030 -0.2535  2.5832
  521MPD2    H2 7742   0.591   1.967  17.239 -1.2868 -1.3509 -1.0226
  521MPD2    H3 7743   0.785   2.059  17.164 -1.6487 -0.0986  1.5864
  521MPD2     N 7744   0.900   1.655  16.964  0.1801  0.3855 -0.4684
  521MPD2    H5 7745   0.863   1.562  16.950  0.2922  0.1678  0.6466
  521MPD2    N1 7746   0.483   1.727  17.188  0.0912  0.5536 -0.3771
  521MPD2    H7 7747   0.434   1.786  17.254 -0.0132  1.4248 -1.2220
  522TMC3    C1 7748   1.073   1.564  16.829  0.1483  1.0433 -0.1899
  522TMC3    C2 7749   1.193   1.579  16.775  0.1847 -0.4315 -0.0011
  522TMC3    C3 7750   1.230   1.480  16.689 -0.4450 -0.6798  0.1888
  522TMC3    C4 7751   0.991   1.459  16.797 -0.1154  0.3314 -0.7645
  522TMC3    C5 7752   1.031   1.375  16.701 -0.1232 -0.0435  0.3308
  522TMC3    C6 7753   1.154   1.375  16.640  0.4568 -0.4577  0.5115
  522TMC3     C 7754   1.021   1.684  16.903  0.0297  0.2273 -0.2051
  522TMC3     O 7755   1.086   1.786  16.898  0.1322 -0.3668  0.2700
  522TMC3     H 7756   1.256   1.662  16.806 -1.1044  0.9508 -1.1205
  522TMC3    H1 7757   0.889   1.448  16.834  1.0675  0.4257  2.4760
  522TMC3    H2 7758   1.176   1.312  16.555 -1.3798 -0.0634 -0.2495
  522TMC3    C7 7759   0.940   1.278  16.649  0.0286  0.3447  0.0306
  522TMC3    C8 7760   1.376   1.478  16.666 -0.1054 -0.3147  0.8298
  522TMC3    O1 7761   0.997   1.174  16.612 -0.0049  0.2256  0.7559
  522TMC3    O2 7762   1.443   1.553  16.739 -0.2777  0.0221 -0.0265
  523MPD2     C 7763   3.036   2.189   9.807 -0.0466  1.2910  1.1791
  523MPD2    C1 7764   2.941   2.103   9.849 -0.7821  0.1949  0.3545
  523MPD2    C2 7765   2.810   2.139   9.822 -0.2949 -0.0554  0.2500
  523MPD2    C3 7766   2.772   2.257   9.766 -0.0174  0.6956 -0.0271
  523MPD2    C4 7767   2.872   2.344   9.723 -0.1851 -0.1007  0.2943
  523MPD2    C5 7768   3.008   2.306   9.745 -0.0189 -0.0039  0.8374
  523MPD2     H 7769   2.736   2.063   9.846 -0.3285  0.1304  0.7413
  523MPD2    H1 7770   2.860   2.434   9.663  0.5732 -0.4484 -0.3744
  523MPD2    H2 7771   3.141   2.166   9.823  0.1505  2.7270  2.0329
  523MPD2    H3 7772   3.087   2.360   9.693 -0.4693 -0.0667  0.0841
  523MPD2     N 7773   2.636   2.289   9.744  0.1260 -0.6940  0.0961
  523MPD2    H5 7774   2.615   2.368   9.684 -2.5904 -1.7163 -0.2798
  523MPD2    N1 7775   2.989   1.985   9.905  0.4364 -0.5115  0.6607
  523MPD2    H7 7776   3.088   1.974   9.925  0.4768 -0.5576  0.4301
  524TMC3    C1 7777   2.403   2.235   9.745 -0.4663 -0.1505  0.9654
  524TMC3    C2 7778   2.392   2.220   9.609  0.0940  0.2511  0.1223
  524TMC3    C3 7779   2.268   2.231   9.554  0.6479 -0.2989 -0.9273
  524TMC3    C4 7780   2.293   2.236   9.832 -0.2035 -0.2031  0.6063
  524TMC3    C5 7781   2.174   2.269   9.768 -0.8899  0.5360 -0.4324
  524TMC3    C6 7782   2.157   2.277   9.631  0.0174 -0.9664 -0.2780
  524TMC3     C 7783   2.534   2.220   9.810 -0.0235 -0.5219  0.0830
  524TMC3     O 7784   2.540   2.175   9.923  0.1981 -0.4937  0.2166
  524TMC3     H 7785   2.474   2.211   9.540 -0.4531  1.2859 -0.6567
  524TMC3    H1 7786   2.294   2.245   9.940 -0.1230  0.3904  0.5599
  524TMC3    H2 7787   2.061   2.278   9.582  0.0070 -0.4321 -0.2439
  524TMC3    C7 7788   2.082   2.337   9.862 -0.1676 -0.8424  0.2092
  524TMC3    C8 7789   2.241   2.237   9.411  0.5070 -0.3622 -0.1512
  524TMC3    O1 7790   2.087   2.313   9.986  0.6938  0.6514 -0.3197
  524TMC3    O2 7791   2.169   2.327   9.368 -0.6049  0.3409 -0.0221
  525MPD2     C 7792   0.740   2.973  14.343  0.4016  0.2195  0.4591
  525MPD2    C1 7793   0.877   2.980  14.367 -0.2662 -0.0706  0.2042
  525MPD2    C2 7794   0.952   3.081  14.314  0.8190  0.0685  0.9360
  525MPD2    C3 7795   0.882   3.191  14.256  0.6602 -0.1732  0.8038
  525MPD2    C4 7796   0.744   3.185  14.249 -0.2656 -0.1780 -0.0812
  525MPD2    C5 7797   0.671   3.079  14.300  0.5683 -0.0074  0.3148
  525MPD2     H 7798   1.058   3.083  14.335  0.7199 -0.5859  1.4702
  525MPD2    H1 7799   0.692   3.266  14.198 -0.8011 -1.7354 -2.0054
  525MPD2    H2 7800   0.675   2.891  14.371  0.8003  0.7247  2.8670
  525MPD2    H3 7801   0.562   3.077  14.298  0.6105  1.3896 -3.0430
  525MPD2     N 7802   0.938   3.314  14.220  0.0773 -0.1450  0.0488
  525MPD2    H5 7803   0.872   3.389  14.203 -0.0250  0.1988  1.9820
  525MPD2    N1 7804   0.936   2.878  14.455  0.0948  0.3760 -0.1361
  525MPD2    H7 7805   1.037   2.875  14.453  0.0389 -1.9891  0.7064
  526TMC3    C1 7806   0.935   2.732  14.642 -0.6732  0.4852 -0.6928
  526TMC3    C2 7807   0.871   2.698  14.757  0.5734 -0.5289  0.7841
  526TMC3    C3 7808   0.939   2.620  14.847 -0.0282  0.3682  0.0032
  526TMC3    C4 7809   1.057   2.683  14.607 -0.1862  0.2120  0.2301
  526TMC3    C5 7810   1.117   2.598  14.696 -0.4381  0.1175 -0.4564
  526TMC3    C6 7811   1.067   2.579  14.822 -0.3907 -0.4975  0.4974
  526TMC3     C 7812   0.858   2.802  14.543  0.7414 -0.3957 -0.2127
  526TMC3     O 7813   0.738   2.806  14.569 -0.0020 -0.0162 -0.0212
  526TMC3     H 7814   0.775   2.738  14.787  0.3777 -0.3716 -0.0323
  526TMC3    H1 7815   1.093   2.690  14.505  0.0861 -0.2583  0.2946
  526TMC3    H2 7816   1.126   2.523  14.894  1.0355 -2.6375 -2.3339
  526TMC3    C7 7817   1.252   2.540  14.678 -0.2841  0.0488 -0.8648
  526TMC3    C8 7818   0.888   2.615  14.981 -0.3234 -0.3184 -0.3019
  526TMC3    O1 7819   1.304   2.453  14.748  0.3192  0.1220 -0.2120
  526TMC3    O2 7820   0.815   2.705  15.013 -0.6171  0.0006  0.7613
  527MPD2     C 7821   4.691   0.282   1.127 -0.0341 -0.4076  0.0278
  527MPD2    C1 7822   0.062   0.348   1.209 -0.3034  0.0597  0.4975
  527MPD2    C2 7823   0.185   0.376   1.156 -0.6286 -0.0405  0.3626
  527MPD2    C3 7824   0.225   0.325   1.032 -0.3232 -0.9039  0.1633
  527MPD2    C4 7825   0.129   0.266   0.953  0.0151 -0.5581  0.3324
  527MPD2    C5 7826   0.003   0.251   0.994 -0.2662 -0.0755 -0.3236
  527MPD2     H 7827   0.257   0.437   1.209  0.1577 -2.4560  2.0599
  527MPD2    H1 7828   0.147   0.243   0.849 -0.9634 -3.2027  0.7541
  527MPD2    H2 7829   4.597   0.242   1.165 -0.0099  0.6998  1.2301
  527MPD2    H3 7830   4.650   0.208   0.931 -0.4292 -3.1123  1.9756
  527MPD2     N 7831   0.350   0.367   0.979  0.2113 -0.4332  0.2236
  527MPD2    H5 7832   0.405   0.409   1.053  1.0411 -0.3964 -0.4185
  527MPD2    N1 7833   0.038   0.387   1.344  0.0303 -1.0083 -0.4232
  527MPD2    H7 7834   0.107   0.446   1.390  1.6960 -2.8318 -0.5944
  528TMC3    C1 7835   4.625   0.435   1.548  0.3000  0.2537  0.2306
  528TMC3    C2 7836   0.008   0.488   1.610 -0.3088  0.3145  0.3005
  528TMC3    C3 7837   4.713   0.546   1.729 -0.4641  0.0204 -0.5687
  528TMC3    C4 7838   4.502   0.453   1.593 -0.2517  0.3323 -0.5759
  528TMC3    C5 7839   4.488   0.510   1.718 -0.2697 -0.6011  0.0858
  528TMC3    C6 7840   4.594   0.563   1.786 -0.3537 -0.2247  0.6855
  528TMC3     C 7841   4.644   0.365   1.413 -0.3025  0.0986 -0.5056
  528TMC3     O 7842   4.538   0.319   1.367 -0.7316  0.5417 -0.2560
  528TMC3     H 7843   0.104   0.497   1.559 -0.0468 -1.6396  0.4441
  528TMC3    H1 7844   4.420   0.404   1.542 -1.0234 -0.7865  1.7479
  528TMC3    H2 7845   4.594   0.597   1.889 -0.4964  0.6404  0.4043
  528TMC3    C7 7846   4.356   0.526   1.761  0.3241 -0.0833  0.5750
  528TMC3    C8 7847   0.103   0.607   1.797  1.1127  0.2610 -0.0786
  528TMC3    O1 7848   4.271   0.534   1.679  0.3198 -0.5694 -0.2127
  528TMC3    O2 7849   0.094   0.644   1.914 -0.0697 -0.1788  0.2823
  529MPD2     C 7850   1.995   4.446   0.414  0.5417  0.0311 -0.0739
  529MPD2    C1 7851   1.914   4.368   0.337 -0.7642  0.3402  0.3554
  529MPD2    C2 7852   1.928   4.372   0.200 -0.5585  0.7667  0.3436
  529MPD2    C3 7853   2.019   4.454   0.135  0.4895  0.5185  0.8387
  529MPD2    C4 7854   2.110   4.519   0.218  0.6319  0.1452 -0.8858
  529MPD2    C5 7855   2.088   4.526   0.351 -0.1466 -0.7951 -0.1733
  529MPD2     H 7856   1.850   4.324   0.142  1.6190 -0.2104 -1.7290
  529MPD2    H1 7857   2.198   4.569   0.178  0.3891  0.2331 -1.3157
  529MPD2    H2 7858   1.995   4.459   0.522 -1.2704  2.9551 -0.4473
  529MPD2    H3 7859   2.152   4.595   0.405 -0.8666 -0.9759  0.9232
  529MPD2     N 7860   2.011   4.465  17.692  0.2954  0.0623  0.0204
  529MPD2    H5 7861   1.929   4.422  17.651  0.6857 -0.4893 -0.1903
  529MPD2    N1 7862   1.814   4.283   0.387  0.0361  0.1501 -0.0549
  529MPD2    H7 7863   1.754   4.232   0.323 -1.3822 -0.0414  1.4248
  530TMC3    C1 7864   1.687   4.160   0.550 -1.1024 -0.3580  0.6487
  530TMC3    C2 7865   1.633   4.176   0.678 -0.1003  0.8317  0.3903
  530TMC3    C3 7866   1.604   4.059   0.742  0.4798 -0.1962  0.7889
  530TMC3    C4 7867   1.714   4.037   0.494  0.3844 -0.1676 -0.0836
  530TMC3    C5 7868   1.660   3.929   0.558  0.1343  0.0905  0.0066
  530TMC3    C6 7869   1.603   3.943   0.682  0.3475  0.7193 -0.2491
  530TMC3     C 7870   1.788   4.265   0.523 -0.0223  0.0851 -0.4484
  530TMC3     O 7871   1.829   4.334   0.615  0.2553  0.7142 -0.0958
  530TMC3     H 7872   1.633   4.271   0.731 -0.9369  0.3299  1.2952
  530TMC3    H1 7873   1.758   4.032   0.394 -0.3225  0.4517 -0.4209
  530TMC3    H2 7874   1.576   3.857   0.743  0.2190  0.4260 -0.7248
  530TMC3    C7 7875   1.647   3.810   0.476 -0.0509 -0.4573  0.0463
  530TMC3    C8 7876   1.591   4.065   0.889 -0.2168  0.1761  0.1732
  530TMC3    O1 7877   1.672   3.823   0.358  0.1769  0.0945 -0.7514
  530TMC3    O2 7878   1.565   4.170   0.944 -0.7231 -0.4116  0.2194
  531MPD2     C 7879   0.065   1.840  12.876 -0.4500 -0.1543 -0.6632
  531MPD2    C1 7880   4.698   1.875  12.978 -0.2561 -0.1832  0.2240
  531MPD2    C2 7881   4.589   1.951  12.951  0.7451  0.3981 -0.3495
  531MPD2    C3 7882   4.556   1.987  12.819 -1.1803  0.0929  0.1243
  531MPD2    C4 7883   4.640   1.946  12.718 -0.6453  0.6821 -0.4016
  531MPD2    C5 7884   0.026   1.872  12.748 -0.4447  0.0361 -0.6229
  531MPD2     H 7885   4.540   2.004  13.032  1.4337 -0.1547  0.4272
  531MPD2    H1 7886   4.630   1.966  12.612 -1.3833  3.0438  0.1196
  531MPD2    H2 7887   0.152   1.779  12.898 -1.3025 -1.2959 -0.4264
  531MPD2    H3 7888   0.082   1.839  12.661  0.5832  2.8638 -1.0379
  531MPD2     N 7889   4.448   2.077  12.784 -0.0413  0.0984  0.0139
  531MPD2    H5 7890   4.420   2.083  12.686 -1.1301 -0.3756  0.2945
  531MPD2    N1 7891   0.013   1.854  13.113 -0.0786 -0.0968  0.0572
  531MPD2    H7 7892   0.102   1.808  13.125 -0.2379 -0.4323 -0.0265
  532TMC3    C1 7893   4.710   1.807  13.343 -0.3130 -0.5832 -0.7556
  532TMC3    C2 7894   4.609   1.824  13.438 -0.4650 -0.4338  0.0211
  532TMC3    C3 7895   4.643   1.907  13.541  0.6132 -0.5132  0.5479
  532TMC3    C4 7896   0.110   1.854  13.354 -0.2094  1.0407 -0.4215
  532TMC3    C5 7897   0.146   1.922  13.465 -0.3069 -0.1148 -0.1060
  532TMC3    C6 7898   0.050   1.948  13.561  0.2890  0.5527 -0.2999
  532TMC3     C 7899   4.651   1.847  13.214 -0.3727  0.6870 -0.2019
  532TMC3     O 7900   4.535   1.885  13.223  0.7503  0.0326  0.3097
  532TMC3     H 7901   4.515   1.773  13.424 -0.2810 -0.2623 -1.8481
  532TMC3    H1 7902   0.185   1.852  13.276  0.9311  0.9661  0.6671
  532TMC3    H2 7903   0.070   2.028  13.631  0.6364 -1.4337  1.8826
  532TMC3    C7 7904   0.278   1.974  13.471 -0.3679  0.0042  0.3989
  532TMC3    C8 7905   4.548   2.005  13.583 -0.1356 -0.0264  0.0222
  532TMC3    O1 7906   0.281   2.092  13.506 -0.4086  0.0715  0.2920
  532TMC3    O2 7907   4.559   2.062  13.690  0.6373 -0.3252  0.1084
  533TMC3    C1 7908   1.091   3.481  14.280  0.6989 -0.1521 -0.2359
  533TMC3    C2 7909   1.222   3.513  14.269  0.0507 -0.0690  0.2951
  533TMC3    C3 7910   1.267   3.619  14.343 -0.3966 -0.3597  0.4839
  533TMC3    C4 7911   0.999   3.551  14.355  0.5183 -0.4231 -0.3785
  533TMC3    C5 7912   1.055   3.646  14.438 -0.3649  0.3660  0.0809
  533TMC3    C6 7913   1.187   3.699  14.420 -0.2482 -0.3280  0.6594
  533TMC3     C 7914   1.066   3.346  14.246 -0.2504  0.0002  0.0767
  533TMC3     O 7915   1.162   3.276  14.262  0.1686 -0.4435  0.0426
  533TMC3     H 7916   1.294   3.463  14.206  0.5173 -0.5850  1.2305
  533TMC3    H1 7917   0.904   3.502  14.371  0.1751  0.1198 -0.7642
  533TMC3    H2 7918   1.222   3.782  14.479 -1.9231  1.9884 -1.6278
  533TMC3    C7 7919   1.009   3.612  14.577  0.3664 -0.6395  0.3303
  533TMC3    C8 7920   1.403   3.660  14.334 -0.1933  0.2478  0.2952
  533TMC3    O1 7921   0.956   3.506  14.593  0.1846 -0.2391  0.1741
  533TMC3    O2 7922   1.440   3.708  14.442 -0.0660 -0.9371  0.0489
  534MPD2     C 7923   4.475   4.257   2.098  0.7467 -0.3458  0.5934
  534MPD2    C1 7924   4.426   4.325   1.986  0.4485 -0.2010 -0.5259
  534MPD2    C2 7925   4.362   4.254   1.890 -0.1235  0.1986 -0.3612
  534MPD2    C3 7926   4.354   4.112   1.898 -0.4095 -0.7070 -0.7552
  534MPD2    C4 7927   4.407   4.047   2.000  0.0452  0.1382  0.0715
  534MPD2    C5 7928   4.466   4.120   2.105  0.2236 -0.2216 -0.3351
  534MPD2     H 7929   4.309   4.304   1.810  0.2194 -2.3689 -2.2221
  534MPD2    H1 7930   4.382   3.942   2.011 -2.8800  0.7524 -0.8723
  534MPD2    H2 7931   4.539   4.300   2.174 -0.3936 -0.1926  1.4613
  534MPD2    H3 7932   4.517   4.067   2.184 -2.0157 -3.2340 -0.9473
  534MPD2     N 7933   4.278   4.044   1.805  0.0447  0.2559  0.8338
  534MPD2    H5 7934   4.240   3.952   1.827  0.2075  0.1892  0.8365
  534MPD2    N1 7935   4.440   4.470   1.978  0.1857 -0.2541 -0.2467
  534MPD2    H7 7936   4.411   4.508   1.888  0.1189 -2.3873 -1.1488
  535TMC3    C1 7937   4.194   3.995   1.589  0.2770  0.3191  0.3738
  535TMC3    C2 7938   4.060   4.011   1.608  0.2015  0.1084 -0.1617
  535TMC3    C3 7939   3.988   4.024   1.486 -0.2581 -0.1280  0.0215
  535TMC3    C4 7940   4.254   3.982   1.474 -0.2144 -0.6205  0.1448
  535TMC3    C5 7941   4.181   3.977   1.362 -0.0099 -0.0323  0.0979
  535TMC3    C6 7942   4.040   3.995   1.364 -0.6923  0.6865 -0.2609
  535TMC3     C 7943   4.283   4.075   1.673 -0.6224  0.0573  0.5327
  535TMC3     O 7944   4.340   4.165   1.614  0.9593  0.1942  0.2010
  535TMC3     H 7945   4.012   4.025   1.705  0.5490  2.3767 -0.3205
  535TMC3    H1 7946   4.362   3.984   1.468 -0.1750 -1.0481  0.7580
  535TMC3    H2 7947   3.971   3.993   1.280 -1.5938 -0.4356  0.5005
  535TMC3    C7 7948   4.234   3.937   1.226  0.0245 -0.1328  0.3022
  535TMC3    C8 7949   3.842   4.038   1.487  0.5156  0.0828  0.4752
  535TMC3    O1 7950   4.158   3.941   1.128  0.3438  0.5378 -0.5448
  535TMC3    O2 7951   3.781   3.986   1.393 -0.0701  0.2011  0.2563
  536MPD2     C 7952   2.457   2.919  16.244 -0.2105 -0.5949 -0.9375
  536MPD2    C1 7953   2.324   2.879  16.275  0.0395  0.1899 -0.0410
  536MPD2    C2 7954   2.222   2.887  16.181  0.2782 -0.5927  0.2559
  536MPD2    C3 7955   2.240   2.921  16.049 -0.3105 -0.2670 -0.6265
  536MPD2    C4 7956   2.360   2.983  16.025 -0.7015 -0.7007  0.5502
  536MPD2    C5 7957   2.470   2.968  16.118  0.0258  0.3576  0.4291
  536MPD2     H 7958   2.126   2.859  16.222 -0.4690 -0.2100 -1.2448
  536MPD2    H1 7959   2.383   3.030  15.930 -0.7453  1.9635  1.8408
  536MPD2    H2 7960   2.532   2.920  16.322 -0.7292  2.5409 -0.4628
  536MPD2    H3 7961   2.567   3.000  16.082  1.2502 -1.7495  1.8463
  536MPD2     N 7962   2.130   2.937  15.958  0.9040 -0.4235  0.1742
  536MPD2    H5 7963   2.160   2.981  15.872 -0.3985 -2.0531 -1.0965
  536MPD2    N1 7964   2.302   2.841  16.405 -0.3045  0.9075 -0.1737
  536MPD2    H7 7965   2.379   2.829  16.469 -1.7758  1.1666  1.6571
  537TMC3    C1 7966   2.189   2.790  16.607  0.0244 -0.7245 -0.0499
  537TMC3    C2 7967   2.290   2.856  16.678  0.0329  0.3870 -0.0043
  537TMC3    C3 7968   2.296   2.821  16.813 -0.3879  0.1405  0.4430
  537TMC3    C4 7969   2.103   2.701  16.670  0.0869 -0.2419 -0.1288
  537TMC3    C5 7970   2.136   2.655  16.795  0.2629 -0.7417 -0.2876
  537TMC3    C6 7971   2.232   2.715  16.866  0.0749  0.6583  0.1790
  537TMC3     C 7972   2.183   2.803  16.464  0.5105  0.1155  0.0861
  537TMC3     O 7973   2.073   2.769  16.419  0.0298  0.5574  0.3796
  537TMC3     H 7974   2.356   2.930  16.634  3.1066 -2.5598 -0.3789
  537TMC3    H1 7975   2.038   2.650  16.599  0.6170  1.8410 -2.1408
  537TMC3    H2 7976   2.247   2.691  16.971  0.1183  0.7798  0.2015
  537TMC3    C7 7977   2.075   2.531  16.827  0.1308 -0.4885  0.3112
  537TMC3    C8 7978   2.376   2.903  16.899 -0.5291  0.1341 -0.0685
  537TMC3    O1 7979   1.966   2.501  16.775 -0.3995  1.0453 -0.0734
  537TMC3    O2 7980   2.426   2.843  16.996  0.1239  0.0186  0.1815
  538TMC3    C1 7981   3.591   1.675  10.766 -0.4630  0.1915  0.1104
  538TMC3    C2 7982   3.693   1.654  10.682  0.1040  0.6213 -0.0741
  538TMC3    C3 7983   3.688   1.712  10.554  0.0050 -0.1646 -0.2035
  538TMC3    C4 7984   3.485   1.756  10.727  0.1038 -0.0115  0.2079
  538TMC3    C5 7985   3.479   1.810  10.600 -0.1161  0.1466  0.1225
  538TMC3    C6 7986   3.577   1.786  10.509 -0.6464 -0.0014 -0.2597
  538TMC3     C 7987   3.600   1.631  10.905 -0.7956 -0.1535  0.0899
  538TMC3     O 7988   3.490   1.623  10.963 -0.2922  0.0590  0.6131
  538TMC3     H 7989   3.780   1.597  10.712  0.1768  0.9710  0.3794
  538TMC3    H1 7990   3.397   1.755  10.791 -0.6540 -0.8194 -0.8423
  538TMC3    H2 7991   3.562   1.818  10.407  1.3407 -0.4783 -0.7021
  538TMC3    C7 7992   3.361   1.893  10.567 -0.5966  0.7315  0.2916
  538TMC3    C8 7993   3.801   1.717  10.457 -0.8194 -1.6687  0.4557
  538TMC3    O1 7994   3.272   1.905  10.654  0.2901  0.2700  0.1249
  538TMC3    O2 7995   3.787   1.789  10.359  0.8890 -0.2785  0.1569
  539MPD2     C 7996   3.358   0.909  11.632  0.0581 -0.6616 -0.3946
  539MPD2    C1 7997   3.411   0.945  11.509 -0.4081  0.2331  0.2014
  539MPD2    C2 7998   3.404   1.076  11.477  0.1943 -0.6724 -0.2244
  539MPD2    C3 7999   3.346   1.177  11.558 -0.7649  0.2990  0.8207
  539MPD2    C4 8000   3.301   1.139  11.685  0.2919 -0.6627  0.4769
  539MPD2    C5 8001   3.311   1.008  11.716  0.0764 -0.2292 -0.3122
  539MPD2     H 8002   3.439   1.100  11.378  1.8568  1.0426  0.7793
  539MPD2    H1 8003   3.265   1.207  11.761  0.8495  1.5825 -1.2846
  539MPD2    H2 8004   3.347   0.807  11.668 -2.2039 -0.5221 -0.6428
  539MPD2    H3 8005   3.281   0.969  11.813 -0.7770  0.2299 -0.3893
  539MPD2     N 8006   3.335   1.311  11.524  0.0634  0.5267 -0.4574
  539MPD2    H5 8007   3.294   1.381  11.585 -2.8434 -2.1201  0.5713
  539MPD2    N1 8008   3.477   0.848  11.422 -0.3067 -0.2034  0.2502
  539MPD2    H7 8009   3.498   0.889  11.331  0.5967 -1.4578 -0.1003
  540TMC3    C1 8010   3.356   1.505  11.391 -0.1658 -0.0819  0.0113
  540TMC3    C2 8011   3.335   1.561  11.263  0.1740  0.3317 -0.5729
  540TMC3    C3 8012   3.302   1.695  11.256  1.0355 -0.2302  0.4688
  540TMC3    C4 8013   3.346   1.579  11.499 -0.7410  0.2807  0.2806
  540TMC3    C5 8014   3.324   1.710  11.483 -0.5022 -0.2483  0.3186
  540TMC3    C6 8015   3.302   1.770  11.367 -0.3734 -0.1411  0.4216
  540TMC3     C 8016   3.366   1.356  11.398  0.4900 -0.2264  0.6396
  540TMC3     O 8017   3.395   1.298  11.291 -0.2192  0.3542 -1.1126
  540TMC3     H 8018   3.369   1.511  11.173  1.3059 -0.6688  0.4207
  540TMC3    H1 8019   3.376   1.548  11.598  1.2666  1.0307 -0.1015
  540TMC3    H2 8020   3.290   1.877  11.353 -0.5961 -0.2752 -0.4082
  540TMC3    C7 8021   3.309   1.797  11.592 -0.3083 -0.1278 -0.2852
  540TMC3    C8 8022   3.210   1.735  11.141 -0.2552 -0.2896 -0.9571
  540TMC3    O1 8023   3.364   1.907  11.587 -0.2643 -0.3337 -0.6534
  540TMC3    O2 8024   3.171   1.851  11.134  0.1008 -0.5118  0.2913
  541MPD2     C 8025   1.404   2.258  13.238  0.5883 -0.6986  0.0171
  541MPD2    C1 8026   1.430   2.182  13.123 -0.2997 -0.0793  0.3310
  541MPD2    C2 8027   1.454   2.240  13.003  0.5007 -0.4505  0.1671
  541MPD2    C3 8028   1.440   2.373  12.987 -0.1649  0.2063  0.5487
  541MPD2    C4 8029   1.394   2.438  13.097  0.1676  0.4024  0.4122
  541MPD2    C5 8030   1.378   2.390  13.214 -0.6044  0.3112 -0.1988
  541MPD2     H 8031   1.488   2.194  12.911 -0.5138  2.1411 -1.5064
  541MPD2    H1 8032   1.375   2.545  13.093  1.2730  0.5487 -0.9838
  541MPD2    H2 8033   1.397   2.211  13.335  0.6454  3.1436  1.8752
  541MPD2    H3 8034   1.332   2.447  13.294 -1.7269 -1.0120  0.1011
  541MPD2     N 8035   1.465   2.448  12.864 -0.9164 -0.0472  0.0182
  541MPD2    H5 8036   1.447   2.548  12.872  1.6851  0.2799  1.9130
  541MPD2    N1 8037   1.430   2.040  13.132  0.9530 -0.0975 -0.1825
  541MPD2    H7 8038   1.474   1.991  13.055  0.4844 -0.0385 -0.4877
  542TMC3    C1 8039   1.504   2.500  12.636 -0.4224 -0.0839  0.4579
  542TMC3    C2 8040   1.527   2.458  12.513  1.0931  0.4426  0.1809
  542TMC3    C3 8041   1.519   2.546  12.413  0.2969 -0.0384  0.0670
  542TMC3    C4 8042   1.491   2.632  12.675 -0.5139 -0.0904  0.0678
  542TMC3    C5 8043   1.492   2.726  12.569  0.4469 -0.0652 -0.7847
  542TMC3    C6 8044   1.497   2.681  12.438  0.3284  0.5108 -0.7585
  542TMC3     C 8045   1.502   2.400  12.740 -0.4878  0.6630 -0.2690
  542TMC3     O 8046   1.516   2.284  12.706  0.0229  0.1027 -0.1860
  542TMC3     H 8047   1.536   2.354  12.486  2.0553  0.1974  1.4936
  542TMC3    H1 8048   1.496   2.671  12.776  0.5927 -2.5067  0.9570
  542TMC3    H2 8049   1.497   2.744  12.350 -0.1311  2.4036  0.6078
  542TMC3    C7 8050   1.527   2.866  12.596 -0.4750  0.1838  0.1589
  542TMC3    C8 8051   1.510   2.500  12.274  0.2837  0.3101  0.4939
  542TMC3    O1 8052   1.537   2.899  12.710  0.2821 -0.2574 -0.2610
  542TMC3    O2 8053   1.585   2.557  12.196  0.2197  0.3675 -0.3259
  543TMC3    C1 8054   1.111   3.258  17.360  0.3929 -0.1376 -0.4044
  543TMC3    C2 8055   1.131   3.127  17.356  1.1868  0.1069  0.0011
  543TMC3    C3 8056   1.081   3.052  17.460 -0.2120  0.1632 -0.3735
  543TMC3    C4 8057   1.053   3.324  17.456  0.4710 -0.1324  0.6127
  543TMC3    C5 8058   1.000   3.256  17.559  0.5564  0.2134 -0.2682
  543TMC3    C6 8059   1.018   3.119  17.566 -0.1343  0.3073  0.1869
  543TMC3     C 8060   1.126   3.325  17.229 -0.1544 -0.0295  0.2611
  543TMC3     O 8061   1.198   3.265  17.147  0.2289  0.3571 -0.2463
  543TMC3     H 8062   1.179   3.076  17.273  1.6599 -0.1446  0.4278
  543TMC3    H1 8063   1.035   3.431  17.445 -2.5314 -0.4862  2.1162
  543TMC3    H2 8064   0.972   3.063  17.647  1.8308  0.0978  1.1464
  543TMC3    C7 8065   0.899   3.309  17.644  1.8704  0.3177 -0.0055
  543TMC3    C8 8066   1.097   2.908  17.461  0.0639  0.2509 -0.1110
  543TMC3    O1 8067   0.810   3.229  17.676  0.0569  0.4247 -0.9727
  543TMC3    O2 8068   1.124   2.862  17.347 -0.0755  0.4514  0.0787
  544MPD2     C 8069   1.227   2.463  17.696  0.5639  0.2974  0.0095
  544MPD2    C1 8070   1.214   2.494  17.562 -0.1259 -0.4248 -0.1390
  544MPD2    C2 8071   1.181   2.624  17.533  0.1934  0.3803  0.3672
  544MPD2    C3 8072   1.141   2.722  17.627  0.8682 -0.8357  0.0030
  544MPD2    C4 8073   1.150   2.681   0.061  0.0362 -0.3948  0.4568
  544MPD2    C5 8074   1.196   2.554   0.092  0.4342  0.2515 -0.1310
  544MPD2     H 8075   1.182   2.645  17.427 -1.2321  1.2367  0.5284
  544MPD2    H1 8076   1.140   2.760   0.135 -0.5202 -0.3149  0.2967
  544MPD2    H2 8077   1.273   2.369   0.026 -1.1072  0.1541  2.1232
  544MPD2    H3 8078   1.214   2.534   0.197  0.3556  0.2094 -0.1259
  544MPD2     N 8079   1.099   2.852  17.586 -0.0336  0.5577 -0.4005
  544MPD2    H5 8080   1.073   2.907  17.666 -0.4390  0.7490 -0.6625
  544MPD2    N1 8081   1.254   2.399  17.463 -0.5049 -0.3588  0.0978
  544MPD2    H7 8082   1.299   2.314  17.495 -0.2274 -0.3625 -0.3055
  545TMC3    C1 8083   1.217   2.274  17.260  0.3005  0.3828 -0.1539
  545TMC3    C2 8084   1.167   2.271  17.137 -0.0496 -0.1931 -0.5225
  545TMC3    C3 8085   1.169   2.149  17.072 -0.8651 -0.0514  0.2667
  545TMC3    C4 8086   1.255   2.160  17.328 -0.3103  0.6743  0.1233
  545TMC3    C5 8087   1.232   2.039  17.270 -0.1408 -1.0122 -0.9387
  545TMC3    C6 8088   1.192   2.026  17.139  1.1790  0.4513 -0.0669
  545TMC3     C 8089   1.202   2.399  17.332  0.0134  0.0118 -0.3752
  545TMC3     O 8090   1.143   2.492  17.279  0.8728 -0.2490 -0.6525
  545TMC3     H 8091   1.153   2.364  17.084  1.6339 -1.6774 -3.5497
  545TMC3    H1 8092   1.282   2.160  17.433 -2.4871 -0.0606  0.6716
  545TMC3    H2 8093   1.167   1.935  17.086  0.8892  0.9938 -0.8611
  545TMC3    C7 8094   1.270   1.917  17.335  0.1232  0.9504 -0.7515
  545TMC3    C8 8095   1.185   2.160  16.932 -0.2099  0.1893 -0.0271
  545TMC3    O1 8096   1.196   1.823  17.323  0.0450 -0.3080  0.4526
  545TMC3    O2 8097   1.143   2.256  16.867 -0.1961 -0.3809 -0.2639
  546MPD2     C 8098   2.670   3.135  17.632 -0.2397 -0.0211  0.3556
  546MPD2    C1 8099   2.634   3.191  17.507  0.5010  1.2756  0.0073
  546MPD2    C2 8100   2.726   3.262  17.435  0.5908  0.3784 -0.4524
  546MPD2    C3 8101   2.845   3.305  17.494  0.4716  0.0064 -0.5201
  546MPD2    C4 8102   2.867   3.267  17.622 -0.2177 -0.0875 -0.0610
  546MPD2    C5 8103   2.788   3.169  17.685 -0.3247  0.0289 -0.5544
  546MPD2     H 8104   2.698   3.295  17.335 -2.5380 -2.4163 -0.4891
  546MPD2    H1 8105   2.943   3.314  17.684  0.0689 -1.4340  0.6030
  546MPD2    H2 8106   2.599   3.074  17.687 -0.1544  0.0826  0.5810
  546MPD2    H3 8107   2.806   3.130   0.085  3.7488  0.2235 -1.2377
  546MPD2     N 8108   2.934   3.395  17.430 -0.9346 -0.2871  0.4984
  546MPD2    H5 8109   3.000   3.441  17.492 -2.9142  1.3841  1.3246
  546MPD2    N1 8110   2.514   3.151  17.454 -0.1549 -0.0010  0.0549
  546MPD2    H7 8111   2.479   3.069  17.503  1.5446 -0.4863  0.4864
  547TMC3    C1 8112   2.345   3.134  17.284  1.2406  0.5715 -0.1531
  547TMC3    C2 8113   2.250   3.211  17.229 -0.2033 -0.7459 -0.5710
  547TMC3    C3 8114   2.151   3.142  17.167  0.7219  0.1386  0.9730
  547TMC3    C4 8115   2.334   3.000  17.307  0.1563  1.0694  0.0244
  547TMC3    C5 8116   2.229   2.932  17.247  0.1467 -0.3779  0.0072
  547TMC3    C6 8117   2.138   3.001  17.178  0.0986  0.9554 -0.0687
  547TMC3     C 8118   2.447   3.211  17.349 -0.0756  0.8830  0.1372
  547TMC3     O 8119   2.464   3.324  17.313 -0.9146 -0.5037 -0.2969
  547TMC3     H 8120   2.252   3.319  17.217  0.4596 -0.8024 -0.9830
  547TMC3    H1 8121   2.416   2.944  17.352 -0.7369  0.3690  0.7632
  547TMC3    H2 8122   2.059   2.960  17.117  2.2410 -1.3141 -1.3080
  547TMC3    C7 8123   2.187   2.814  17.319 -0.3682  0.2564 -0.3248
  547TMC3    C8 8124   2.080   3.208  17.054 -1.1138 -0.5588  0.0691
  547TMC3    O1 8125   2.240   2.791  17.425  0.1783 -0.3642  0.0645
  547TMC3    O2 8126   1.980   3.162  16.998 -0.1974 -0.3128 -0.8991
  548MPD2     C 8127   2.297   4.237  11.728 -0.1140  0.0172 -0.5276
  548MPD2    C1 8128   2.274   4.176  11.849 -0.4145  0.7569 -0.2413
  548MPD2    C2 8129   2.386   4.119  11.908  0.0069 -0.4893  0.1104
  548MPD2    C3 8130   2.512   4.129  11.849 -0.0770 -0.0257  0.0582
  548MPD2    C4 8131   2.528   4.196  11.735  0.3050  0.5489 -0.4612
  548MPD2    C5 8132   2.419   4.252  11.682 -0.4463 -0.5610 -0.1888
  548MPD2     H 8133   2.379   4.069  12.004 -1.8302 -0.4691 -0.0270
  548MPD2    H1 8134   2.621   4.210  11.682 -0.1214 -2.2656 -1.9285
  548MPD2    H2 8135   2.214   4.278  11.672  0.0539 -1.8886 -2.1698
  548MPD2    H3 8136   2.426   4.320  11.598  1.0470  0.6838  0.9197
  548MPD2     N 8137   2.620   4.065  11.915 -0.4386  0.1842 -1.0596
  548MPD2    H5 8138   2.599   4.022  12.005  0.7024 -0.3201 -1.0401
  548MPD2    N1 8139   2.145   4.180  11.910 -0.5232 -0.0593 -0.4686
  548MPD2    H7 8140   2.083   4.253  11.875  1.3052  2.8361  2.3628
  549TMC3    C1 8141   1.996   4.147  12.107  0.2138 -0.1586 -0.4428
  549TMC3    C2 8142   1.896   4.227  12.058  0.8297  0.3675  0.1994
  549TMC3    C3 8143   1.802   4.271  12.154 -1.0290 -0.2841  0.2333
  549TMC3    C4 8144   1.992   4.101  12.233 -0.1468 -0.1136  0.2337
  549TMC3    C5 8145   1.888   4.126  12.316  0.3379  0.0815 -0.0813
  549TMC3    C6 8146   1.791   4.223  12.287 -0.2612 -0.1910  1.0272
  549TMC3     C 8147   2.115   4.112  12.023 -0.3973 -0.2264  0.0339
  549TMC3     O 8148   2.178   4.017  12.072 -0.7624  0.5946 -0.0403
  549TMC3     H 8149   1.889   4.267  11.957 -0.6663 -0.1299  0.1042
  549TMC3    H1 8150   2.064   4.026  12.265 -0.6960 -1.0727 -0.7784
  549TMC3    H2 8151   1.712   4.240  12.358  0.2443 -0.7554  1.7356
  549TMC3    C7 8152   1.880   4.043  12.435 -0.6678  0.5529  0.8439
  549TMC3    C8 8153   1.703   4.372  12.132 -0.7013 -0.4594  0.2689
  549TMC3    O1 8154   1.887   4.092  12.545  0.5561  0.6027  0.1499
  549TMC3    O2 8155   1.605   4.381  12.205 -0.2193  0.1900 -0.3827
  550TMC3    C1 8156   0.556   1.731  12.265 -0.4028  0.0124 -0.2139
  550TMC3    C2 8157   0.521   1.768  12.393 -0.8129 -0.3626 -0.5944
  550TMC3    C3 8158   0.437   1.878  12.398  0.1601  0.1219  0.2045
  550TMC3    C4 8159   0.500   1.789  12.149 -0.3315 -0.4316  0.5192
  550TMC3    C5 8160   0.398   1.881  12.164 -0.3692  0.4625  0.4864
  550TMC3    C6 8161   0.368   1.930  12.289  0.2580  0.1910  0.2529
  550TMC3     C 8162   0.676   1.655  12.255 -0.0453 -0.2610 -0.3815
  550TMC3     O 8163   0.713   1.570  12.339  0.0604  0.1465  1.1966
  550TMC3     H 8164   0.576   1.739  12.482 -0.4105  1.7841 -0.1424
  550TMC3    H1 8165   0.535   1.759  12.051 -0.6366 -1.5385  0.7543
  550TMC3    H2 8166   0.292   2.006  12.302  1.0280  0.8602  0.8016
  550TMC3    C7 8167   0.330   1.954  12.060  0.2890  0.1306 -0.0194
  550TMC3    C8 8168   0.437   1.956  12.518 -0.1756 -0.6266  0.3192
  550TMC3    O1 8169   0.219   2.011  12.078 -0.4012  0.3461 -0.2808
  550TMC3    O2 8170   0.405   2.074  12.497  0.5381  0.6265 -0.0964
  551TMC3    C1 8171   3.218   4.489  13.023 -0.0533  0.3168  0.1434
  551TMC3    C2 8172   3.320   4.576  13.006  0.1764 -0.1132  0.2335
  551TMC3    C3 8173   3.409   4.587  13.114 -0.1445  0.1919  0.3238
  551TMC3    C4 8174   3.191   4.425  13.139  0.0219  0.6668 -0.1889
  551TMC3    C5 8175   3.277   4.439  13.241 -0.0397 -0.1992  0.0389
  551TMC3    C6 8176   3.395   4.515  13.232 -1.2527  0.2041 -0.4016
  551TMC3     C 8177   3.130   4.468  12.907 -0.2358 -0.2235 -0.0911
  551TMC3     O 8178   3.057   4.373  12.909 -0.2013  0.0396 -0.2920
  551TMC3     H 8179   3.344   4.610  12.905  0.4985 -1.3428 -0.1072
  551TMC3    H1 8180   3.092   4.382  13.147 -0.8384  3.0778  2.1200
  551TMC3    H2 8181   3.454   4.547  13.318 -2.1765  0.4465  0.1491
  551TMC3    C7 8182   3.235   4.413  13.374  0.4746 -0.5801  0.3266
  551TMC3    C8 8183   3.510   4.684  13.106 -0.0399  0.1104  0.6383
  551TMC3    O1 8184   3.329   4.410  13.455 -0.0331  0.1079 -0.0201
  551TMC3    O2 8185   3.597   4.666  13.189  0.1059  0.2528  0.3887
  552MPD2     C 8186   0.621   1.708  13.930  1.2416  0.0418  0.0615
  552MPD2    C1 8187   0.631   1.566  13.928  0.3088 -0.4859 -0.2225
  552MPD2    C2 8188   0.700   1.499  14.025 -0.3810 -0.1765 -0.3514
  552MPD2    C3 8189   0.757   1.575  14.128 -0.4708 -0.2877 -0.2655
  552MPD2    C4 8190   0.734   1.708  14.129  0.1302 -0.2168 -0.0489
  552MPD2    C5 8191   0.662   1.774  14.028  0.1774 -0.6039  0.3957
  552MPD2     H 8192   0.732   1.396  14.015  1.7773  0.4221  0.4418
  552MPD2    H1 8193   0.778   1.771  14.206 -1.5993  2.0146 -0.8710
  552MPD2    H2 8194   0.553   1.762  13.865  0.2952 -0.3906  0.7009
  552MPD2    H3 8195   0.653   1.882  14.031 -0.9121 -0.7107  1.0595
  552MPD2     N 8196   0.817   1.512  14.240  0.2311  0.0641  0.5122
  552MPD2    H5 8197   0.858   1.577  14.306 -3.3694  2.0248  0.7976
  552MPD2    N1 8198   0.595   1.494  13.807  0.4927  0.5522 -0.4200
  552MPD2    H7 8199   0.617   1.395  13.801 -0.9089  0.0614  2.2505
  553TMC3    C1 8200   0.535   1.434  13.601 -0.0037  0.2271 -0.5505
  553TMC3    C2 8201   0.485   1.471  13.479  0.0335 -0.6028  0.1318
  553TMC3    C3 8202   0.454   1.373  13.386  0.0269 -0.3205  0.2232
  553TMC3    C4 8203   0.571   1.299  13.631 -0.0467 -0.2896 -0.3014
  553TMC3    C5 8204   0.530   1.211  13.541  0.1048  0.2608  0.0130
  553TMC3    C6 8205   0.475   1.237  13.411  0.2045 -0.8970  0.3443
  553TMC3     C 8206   0.557   1.547  13.694 -0.1552 -0.3321 -0.7089
  553TMC3     O 8207   0.545   1.663  13.658 -0.2348  0.1571  0.2231
  553TMC3     H 8208   0.483   1.575  13.449 -0.2396 -0.2147  1.5221
  553TMC3    H1 8209   0.588   1.261  13.731 -0.1198  0.3333 -0.0573
  553TMC3    H2 8210   0.461   1.163  13.333 -0.8333  0.5066 -0.8092
  553TMC3    C7 8211   0.569   1.071  13.553 -0.0678 -0.2399  0.2276
  553TMC3    C8 8212   0.440   1.428  13.254 -0.5406  0.2957 -0.1656
  553TMC3    O1 8213   0.510   0.988  13.489  0.2129 -0.5063 -0.2811
  553TMC3    O2 8214   0.462   1.549  13.229  0.5076  0.0478 -0.0926
  554TMC3    C1 8215   2.156   1.003  11.076  0.2716 -0.2562  0.2443
  554TMC3    C2 8216   2.084   0.983  10.961  0.0214 -0.5095  0.1356
  554TMC3    C3 8217   2.159   1.013  10.847 -0.1391 -0.8933 -0.5890
  554TMC3    C4 8218   2.288   1.054  11.072  0.2213 -0.0058 -0.3176
  554TMC3    C5 8219   2.354   1.076  10.962 -0.1142  0.0798 -0.2018
  554TMC3    C6 8220   2.288   1.051  10.849  0.1147  0.1427 -0.5428
  554TMC3     C 8221   2.082   0.997  11.203  0.3612  0.7801  0.2352
  554TMC3     O 8222   1.968   1.036  11.204  0.1908  0.2865  0.1436
  554TMC3     H 8223   1.983   0.945  10.959  0.4636 -1.5781 -3.1218
  554TMC3    H1 8224   2.345   1.054  11.164  2.6362 -0.8119 -1.8213
  554TMC3    H2 8225   2.341   1.063  10.755  1.9491 -0.4802  0.4235
  554TMC3    C7 8226   2.419   1.205  10.947  0.4700  0.1063  0.1390
  554TMC3    C8 8227   2.090   1.026  10.720 -0.1017  0.3630  0.4537
  554TMC3    O1 8228   2.486   1.221  10.844 -0.2523  0.0938  0.3408
  554TMC3    O2 8229   2.130   1.124  10.658  0.3589 -0.1278 -0.8175
  555TMC3    C1 8230   1.091   4.609  15.001  0.1834 -0.1956  0.6583
  555TMC3    C2 8231   1.051   4.708  15.089 -0.0487  0.4681  0.7556
  555TMC3    C3 8232   1.083   4.690  15.223  0.8349 -0.4097 -0.4303
  555TMC3    C4 8233   1.189   4.519  15.040 -0.8260  0.1732 -0.0527
  555TMC3    C5 8234   1.198   4.495  15.176 -1.4382  0.3300  0.0918
  555TMC3    C6 8235   1.149   4.583  15.269  0.3886  0.1194 -0.0563
  555TMC3     C 8236   1.131   4.655  14.878  0.1529 -0.4416 -0.3822
  555TMC3     O 8237   1.247   4.639  14.840  0.3852 -0.5900  0.4645
  555TMC3     H 8238   0.990   0.066  15.052  0.9889  0.6503 -0.5703
  555TMC3    H1 8239   1.226   4.456  14.960 -0.9458  1.1544 -0.8833
  555TMC3    H2 8240   1.159   4.558  15.374 -2.3169 -0.5666  0.0296
  555TMC3    C7 8241   1.234   4.363  15.226  0.1611 -0.5842  0.0237
  555TMC3    C8 8242   1.084   0.086  15.295 -0.0827  0.0620  0.6251
  555TMC3    O1 8243   1.188   4.328  15.335  0.0703 -0.4832  0.2152
  555TMC3    O2 8244   1.000   0.170  15.265  0.2106  0.1716  0.3052
  556MPD2     C 8245   4.168   2.494  10.818  0.2710 -0.1025  0.2305
  556MPD2    C1 8246   4.241   2.381  10.804 -0.1054 -0.0643 -0.1445
  556MPD2    C2 8247   4.283   2.332  10.685  0.3995  0.0581  1.0833
  556MPD2    C3 8248   4.255   2.400  10.566 -0.0185  0.8252 -0.7732
  556MPD2    C4 8249   4.178   2.516  10.577 -0.0025 -0.7464 -0.0608
  556MPD2    C5 8250   4.145   2.563  10.704 -0.4740 -0.2235  0.8321
  556MPD2     H 8251   4.341   2.240  10.685  0.9198  0.3760 -1.4206
  556MPD2    H1 8252   4.136   2.573  10.495  0.4207  1.5698  1.3287
  556MPD2    H2 8253   4.162   2.547  10.912 -2.2769 -0.3631  0.2136
  556MPD2    H3 8254   4.098   2.661  10.706  0.2168  0.1380 -0.9061
  556MPD2     N 8255   4.290   2.343  10.443 -0.2351 -0.5245 -0.5622
  556MPD2    H5 8256   4.343   2.256  10.448 -1.0941 -1.0039  0.1627
  556MPD2    N1 8257   4.276   2.310  10.917  0.5590 -0.1574 -0.9286
  556MPD2    H7 8258   4.340   2.233  10.903  2.1204  1.0161 -0.2430
  557TMC3    C1 8259   4.286   2.293  10.220 -0.2142 -0.1706  0.5375
  557TMC3    C2 8260   4.256   2.337  10.092 -0.9213 -1.2618 -0.5843
  557TMC3    C3 8261   4.222   2.242   9.994 -0.8543  0.4282 -0.1929
  557TMC3    C4 8262   4.281   2.158  10.255  0.7244  0.5988  0.0771
  557TMC3    C5 8263   4.236   2.075  10.151  0.4787 -0.6041  0.0062
  557TMC3    C6 8264   4.208   2.109  10.018  0.2249 -0.0641  0.1822
  557TMC3     C 8265   4.263   2.389  10.320 -0.2180 -0.3963 -0.1613
  557TMC3     O 8266   4.217   2.498  10.295  0.2424 -0.0708 -0.0595
  557TMC3     H 8267   4.264   2.443  10.074 -0.5577 -0.9969  1.1433
  557TMC3    H1 8268   4.284   2.125  10.358  2.8125 -1.1663 -0.5522
  557TMC3    H2 8269   4.153   2.031   9.966 -1.3973  0.5361  0.9985
  557TMC3    C7 8270   4.189   1.942  10.183 -0.0173  0.2493 -0.2627
  557TMC3    C8 8271   4.226   2.291   9.857 -0.2533  0.0288  1.0129
  557TMC3    O1 8272   4.099   1.890  10.118 -0.0085  0.1242  0.1095
  557TMC3    O2 8273   4.262   2.407   9.835 -0.3889 -1.1539  0.1330
  558TMC3    C1 8274   1.755   0.338  10.097  0.1995 -0.6375  0.6760
  558TMC3    C2 8275   1.715   0.232  10.159  0.7805  0.4445 -0.2246
  558TMC3    C3 8276   1.589   0.180  10.120  1.1674 -0.1513  0.1929
  558TMC3    C4 8277   1.679   0.408  10.009 -0.9617 -1.3889  0.5186
  558TMC3    C5 8278   1.559   0.346   9.971  0.8131  0.0117 -0.4986
  558TMC3    C6 8279   1.513   0.234  10.028 -0.2494 -0.2175  0.4566
  558TMC3     C 8280   1.895   0.379  10.126 -0.1664  0.0471 -0.2827
  558TMC3     O 8281   1.983   0.296  10.127 -0.8375 -1.4098  0.7859
  558TMC3     H 8282   1.780   0.183  10.231  0.4526  0.6686  0.2211
  558TMC3    H1 8283   1.697   0.511   9.979  1.5573 -1.1426  2.9242
  558TMC3    H2 8284   1.432   0.172   9.991  0.6105 -0.4194 -1.1181
  558TMC3    C7 8285   1.483   0.414   9.863 -0.3246  0.1707  0.1139
  558TMC3    C8 8286   1.527   0.072  10.193  0.0511 -0.5562  0.0744
  558TMC3    O1 8287   1.532   0.511   9.809  0.1454 -0.1191 -0.2007
  558TMC3    O2 8288   1.405   0.069  10.191  0.0087  0.5458 -0.5048
  559MPD2     C 8289   2.058   0.689  10.491 -0.2232 -0.2280 -0.6945
  559MPD2    C1 8290   2.072   0.585  10.581  0.5458 -0.6756 -0.2267
  559MPD2    C2 8291   2.197   0.556  10.633  0.9325  0.2171 -0.0339
  559MPD2    C3 8292   2.309   0.625  10.585  0.8290 -0.8687  0.3296
  559MPD2    C4 8293   2.290   0.735  10.507 -0.7716  0.1895 -0.9496
  559MPD2    C5 8294   2.166   0.766  10.462  0.3832  0.1237 -0.3026
  559MPD2     H 8295   2.197   0.481  10.710 -0.2937  0.2267 -0.0221
  559MPD2    H1 8296   2.370   0.796  10.469  0.3140  1.3883  3.3438
  559MPD2    H2 8297   1.961   0.709  10.446 -1.2472 -0.5799  1.3490
  559MPD2    H3 8298   2.154   0.862  10.413 -0.7205 -0.5784 -1.3915
  559MPD2     N 8299   2.433   0.597  10.645  0.0368  0.0066 -0.3838
  559MPD2    H5 8300   2.431   0.526  10.717  0.7853  1.5586  1.1726
  559MPD2    N1 8301   1.959   0.510  10.598 -0.2490 -0.3204 -0.1070
  559MPD2    H7 8302   1.866   0.535  10.566 -1.4390 -3.6112  0.6958
  560TMC3    C1 8303   2.651   0.601  10.703 -0.4238 -0.5163 -0.0666
  560TMC3    C2 8304   2.644   0.462  10.676  0.2016  0.1974 -0.1368
  560TMC3    C3 8305   2.695   0.386  10.779 -0.8143 -0.3322 -0.2744
  560TMC3    C4 8306   2.701   0.664  10.819  0.6239  0.2500 -0.8001
  560TMC3    C5 8307   2.740   0.576  10.918  0.4533 -0.7558 -0.2990
  560TMC3    C6 8308   2.740   0.438  10.902 -0.1246  0.4261  0.7726
  560TMC3     C 8309   2.547   0.667  10.630  0.2713  0.2469  0.3103
  560TMC3     O 8310   2.565   0.779  10.587  0.1056  0.2124 -0.1417
  560TMC3     H 8311   2.596   0.429  10.584 -0.2551 -0.7554  0.4483
  560TMC3    H1 8312   2.698   0.771  10.835 -1.5660 -0.2779  2.2362
  560TMC3    H2 8313   2.781   0.377  10.981 -1.6874  0.8784  1.9282
  560TMC3    C7 8314   2.836   0.620  11.018 -0.2623  0.0059  0.0562
  560TMC3    C8 8315   2.652   0.245  10.775  0.8795  0.1908  0.8152
  560TMC3    O1 8316   2.836   0.562  11.126  0.4776 -0.0592 -0.2433
  560TMC3    O2 8317   2.622   0.191  10.880  0.2746 -0.4314 -0.4513
  561TMC3    C1 8318   0.110   4.152  11.611 -0.2310  0.3815 -0.9573
  561TMC3    C2 8319   0.004   4.107  11.695  0.0786 -0.7033 -0.1315
  561TMC3    C3 8320   4.670   4.206  11.780  0.3105  0.2660  0.4607
  561TMC3    C4 8321   0.169   4.274  11.623 -0.1096 -0.3352 -0.6217
  561TMC3    C5 8322   0.106   4.374  11.701 -0.2499  0.1399  0.0980
  561TMC3    C6 8323   4.720   4.337  11.782 -0.1042 -0.4910  0.4881
  561TMC3     C 8324   0.182   4.048  11.547  0.2868 -0.3343 -1.0988
  561TMC3     O 8325   0.201   3.941  11.612 -0.1454 -0.9098 -0.1383
  561TMC3     H 8326   4.691   4.006  11.685  0.5628 -1.0618  1.7446
  561TMC3    H1 8327   0.258   4.301  11.568 -1.7326 -0.6305 -3.4060
  561TMC3    H2 8328   4.679   4.408  11.853  0.3943 -0.7818  1.0764
  561TMC3    C7 8329   0.125   4.518  11.689  0.3245  0.9424 -0.2231
  561TMC3    C8 8330   4.568   4.172  11.876  0.0507  0.8330  0.5309
  561TMC3    O1 8331   0.046   4.590  11.746  0.0866  0.1314  0.5574
  561TMC3    O2 8332   4.558   4.060  11.922 -0.0042  0.4765  0.4858
  562TMC3    C1 8333   1.322   0.808  16.278 -0.7257 -0.2449  0.4677
  562TMC3    C2 8334   1.285   0.930  16.220 -0.7697  0.1082 -0.7306
  562TMC3    C3 8335   1.237   0.918  16.091  0.2502  0.3277  0.0503
  562TMC3    C4 8336   1.299   0.687  16.214  0.4245  0.5362  0.5422
  562TMC3    C5 8337   1.259   0.684  16.084 -0.2436  0.5738  0.1062
  562TMC3    C6 8338   1.233   0.799  16.025  0.7629  0.3327 -0.8255
  562TMC3     C 8339   1.392   0.796  16.404 -0.3885  0.9216 -0.3525
  562TMC3     O 8340   1.461   0.698  16.425  0.1569 -0.0061 -0.5640
  562TMC3     H 8341   1.301   1.027  16.264  0.1637  0.0780 -0.9994
  562TMC3    H1 8342   1.336   0.594  16.257 -0.7343  0.0085  0.4073
  562TMC3    H2 8343   1.193   0.789  15.925  0.6131  0.6839 -0.7981
  562TMC3    C7 8344   1.196   0.566  16.019 -0.0410  0.6014 -0.5329
  562TMC3    C8 8345   1.163   1.031  16.045 -0.3215 -0.1425  0.0949
  562TMC3    O1 8346   1.120   0.587  15.923 -0.1376  0.4293  0.0524
  562TMC3    O2 8347   1.144   1.119  16.133 -0.3673 -0.1889  0.8120
  563MPD2     C 8348   3.242   1.764  15.731 -0.4870  0.0097  0.0295
  563MPD2    C1 8349   3.284   1.857  15.827 -0.3432 -0.3912  1.4003
  563MPD2    C2 8350   3.406   1.836  15.894 -0.1846  0.0148  0.3091
  563MPD2    C3 8351   3.477   1.719  15.877 -0.3379  0.0802  0.6393
  563MPD2    C4 8352   3.436   1.634  15.774  0.0888 -0.3244 -0.6203
  563MPD2    C5 8353   3.319   1.659  15.703 -0.0379 -0.3275 -0.2824
  563MPD2     H 8354   3.435   1.913  15.964 -0.5940 -0.2243  0.7407
  563MPD2    H1 8355   3.486   1.541  15.748  1.6153 -0.5710  3.1466
  563MPD2    H2 8356   3.150   1.777  15.674 -0.2578  0.0050 -0.3441
  563MPD2    H3 8357   3.278   1.589  15.632 -2.5658 -0.2912  1.1686
  563MPD2     N 8358   3.589   1.694  15.962  0.4915  0.9219  0.2140
  563MPD2    H5 8359   3.606   1.765  16.032  1.3955  0.6277  0.2862
  563MPD2    N1 8360   3.204   1.973  15.840  0.1647 -0.1036  0.1305
  563MPD2    H7 8361   3.140   1.988  15.762 -1.5704  0.2471  1.6299
  564TMC3    C1 8362   3.177   1.946  16.060  0.1052  0.3412 -0.0570
  564TMC3    C2 8363   3.052   1.890  16.048 -0.1096 -0.5218 -0.4202
  564TMC3    C3 8364   3.023   1.796  16.145 -0.0328 -0.3467 -0.5714
  564TMC3    C4 8365   3.253   1.938  16.173 -0.6694 -0.5008  1.2619
  564TMC3    C5 8366   3.223   1.835  16.255 -0.4415  0.2691 -0.2566
  564TMC3    C6 8367   3.112   1.768  16.245 -0.3254  0.0472  0.3769
  564TMC3     C 8368   3.198   2.045  15.957  0.0242  0.5498  0.6628
  564TMC3     O 8369   3.132   2.147  15.966 -0.3553  0.1050  0.2929
  564TMC3     H 8370   2.994   1.906  15.959  0.9972 -3.2115 -1.6338
  564TMC3    H1 8371   3.357   1.969  16.168 -0.6320 -1.0132 -0.8987
  564TMC3    H2 8372   3.086   1.697  16.323  0.6147  0.6911  1.2741
  564TMC3    C7 8373   3.329   1.740  16.256  0.1112 -0.5629 -0.4767
  564TMC3    C8 8374   2.958   1.676  16.099  0.3860 -1.0896  0.5525
  564TMC3    O1 8375   3.445   1.772  16.280  0.5189 -0.0452 -0.2182
  564TMC3    O2 8376   2.938   1.602  16.191  0.5876 -0.2147  0.1483
  565TMC3    C1 8377   3.685   3.978  10.185  0.2779  0.4638 -0.2200
  565TMC3    C2 8378   3.673   3.877  10.288  0.3637 -0.6039 -0.1768
  565TMC3    C3 8379   3.582   3.776  10.274 -0.1277 -0.4937 -0.1699
  565TMC3    C4 8380   3.602   3.980  10.073 -0.0819  0.6110 -0.0924
  565TMC3    C5 8381   3.521   3.873  10.065  0.0800 -0.3587 -0.3395
  565TMC3    C6 8382   3.515   3.768  10.155  0.4729  0.3811  0.5377
  565TMC3     C 8383   3.796   4.072  10.190 -0.0479 -0.3745  0.2621
  565TMC3     O 8384   3.805   4.140  10.087 -0.2161  0.2560 -0.3615
  565TMC3     H 8385   3.736   3.887  10.376  0.3792  1.0163 -0.3668
  565TMC3    H1 8386   3.615   4.053   9.995 -0.0825  1.9770  1.1798
  565TMC3    H2 8387   3.443   3.687  10.142  1.1332  0.1017 -1.3739
  565TMC3    C7 8388   3.454   3.857   9.940  0.4841  0.4424  0.4938
  565TMC3    C8 8389   3.629   3.663  10.352 -0.2200  0.5865  0.2498
  565TMC3    O1 8390   3.447   3.744   9.897 -0.1535 -0.3441 -0.1797
  565TMC3    O2 8391   3.656   3.681  10.470  0.2163 -0.4152  0.3457
  566MPD2     C 8392   0.569   4.644  14.201  0.8510  0.3561 -0.0504
  566MPD2    C1 8393   0.652   4.718  14.111 -0.8881  0.6098 -0.2499
  566MPD2    C2 8394   0.599   0.056  14.002  0.1682  0.2374 -0.7115
  566MPD2    C3 8395   0.475   0.030  13.965 -0.2835  0.4242  0.1904
  566MPD2    C4 8396   0.394   4.696  14.059  0.7816  0.2940 -0.0457
  566MPD2    C5 8397   0.435   4.644  14.176  0.6306  0.2457  0.1022
  566MPD2     H 8398   0.673   0.099  13.936  1.4458 -1.3783 -0.3577
  566MPD2    H1 8399   0.287   4.690  14.039  0.7140 -0.6094  0.5682
  566MPD2    H2 8400   0.608   4.596  14.290  0.5009  2.9074  1.4778
  566MPD2    H3 8401   0.369   4.597  14.247 -0.7179  3.0528  0.7043
  566MPD2     N 8402   0.418   0.065  13.839 -0.2614  0.5580  0.3087
  566MPD2    H5 8403   0.317   0.060  13.837 -0.1575 -2.1558  0.9408
  566MPD2    N1 8404   0.795   4.724  14.133 -0.3780  0.1266 -0.2170
  566MPD2    H7 8405   0.846   0.053  14.064  1.9233  0.6309  1.9002
  567TMC3    C1 8406   1.009   4.656  14.221 -0.0791 -0.0810  0.1011
  567TMC3    C2 8407   1.078   4.688  14.108 -0.3666 -0.0139  0.1721
  567TMC3    C3 8408   1.216   4.682  14.108 -0.2529  0.5558  0.0507
  567TMC3    C4 8409   1.068   4.614  14.338  0.4804  0.0698 -0.1093
  567TMC3    C5 8410   1.203   4.593  14.331  0.0187  0.4956  0.2072
  567TMC3    C6 8411   1.271   4.629  14.221 -0.4657 -0.0560  0.1637
  567TMC3     C 8412   0.861   4.662  14.236  0.2573  0.5012  0.3756
  567TMC3     O 8413   0.816   4.607  14.337  0.0660  0.2226  0.2500
  567TMC3     H 8414   1.029   4.711  14.014  1.0202  2.0559 -0.0380
  567TMC3    H1 8415   1.017   4.598  14.432  2.2524 -0.6910  0.7296
  567TMC3    H2 8416   1.377   4.608  14.215  0.1453  3.3978 -1.0056
  567TMC3    C7 8417   1.256   4.480  14.409 -0.0111 -0.5615  0.1300
  567TMC3    C8 8418   1.300   0.013  14.003 -0.6798 -0.6656  0.8076
  567TMC3    O1 8419   1.367   4.433  14.378 -0.1924 -0.6117 -0.0912
  567TMC3    O2 8420   1.247   0.048  13.900 -0.1864  0.0516 -0.5794
  568MPD2     C 8421   3.645   0.527  16.605 -0.3841  0.3489 -0.2559
  568MPD2    C1 8422   3.516   0.551  16.653 -0.0856 -0.0316 -0.1075
  568MPD2    C2 8423   3.434   0.649  16.608 -0.5967 -0.3163 -0.4894
  568MPD2    C3 8424   3.482   0.723  16.504  0.1288  0.1202 -0.5533
  568MPD2    C4 8425   3.612   0.717  16.467 -0.7300 -0.5466 -0.3463
  568MPD2    C5 8426   3.693   0.616  16.514  0.1346  0.3468 -0.7284
  568MPD2     H 8427   3.332   0.676  16.637  0.3660  2.3001  0.5342
  568MPD2    H1 8428   3.651   0.794  16.401  3.1296 -1.4418  0.9116
  568MPD2    H2 8429   3.710   0.447  16.640  0.1994  1.0828  0.3535
  568MPD2    H3 8430   3.796   0.603  16.485  0.5989 -1.4021  1.7153
  568MPD2     N 8431   3.386   0.806  16.438  0.2759 -0.1652  0.5348
  568MPD2    H5 8432   3.290   0.796  16.470 -0.1645 -0.9422 -0.9973
  568MPD2    N1 8433   3.484   0.464  16.755  0.2252 -0.2005 -0.0833
  568MPD2    H7 8434   3.559   0.401  16.784 -0.7145 -1.4789 -0.4306
  569TMC3    C1 8435   3.292   0.957  16.307  0.2933 -0.0803 -1.0595
  569TMC3    C2 8436   3.213   1.009  16.409 -0.5709  0.4728  0.1836
  569TMC3    C3 8437   3.095   1.065  16.371  0.6646 -0.2742  0.0317
  569TMC3    C4 8438   3.253   0.959  16.178  0.2106  0.7177 -0.1056
  569TMC3    C5 8439   3.129   1.008  16.151 -1.5076 -0.0338  0.1337
  569TMC3    C6 8440   3.040   1.054  16.244  0.1048 -0.1559  0.3899
  569TMC3     C 8441   3.407   0.874  16.327  0.0568  0.4528 -0.1867
  569TMC3     O 8442   3.506   0.869  16.252  0.1381 -0.0171 -0.2897
  569TMC3     H 8443   3.242   0.998  16.513 -2.2084 -1.3888  0.4398
  569TMC3    H1 8444   3.324   0.922  16.105 -0.5337 -0.2869 -0.3249
  569TMC3    H2 8445   2.939   1.084  16.216  0.7432 -0.2854 -2.0045
  569TMC3    C7 8446   3.109   1.074  16.018  0.2733  0.3568 -0.2687
  569TMC3    C8 8447   3.047   1.185  16.438 -0.0784  0.6526 -0.0529
  569TMC3    O1 8448   3.171   1.037  15.924 -0.1270 -0.1464  0.2260
  569TMC3    O2 8449   2.929   1.204  16.423 -0.1505  0.5140  0.1788
  570TMC3    C1 8450   2.620   3.949  16.051 -0.3989 -1.1856 -0.8489
  570TMC3    C2 8451   2.708   3.932  15.946 -0.1817  0.2625 -0.2691
  570TMC3    C3 8452   2.705   4.034  15.851 -0.2477 -0.1608  0.0431
  570TMC3    C4 8453   2.522   4.047  16.059 -1.3097 -0.3552  0.2769
  570TMC3    C5 8454   2.533   4.150  15.967  0.0781 -0.1407  0.0582
  570TMC3    C6 8455   2.615   4.136  15.857  0.7082 -0.0711  0.3677
  570TMC3     C 8456   2.632   3.837  16.146 -0.7169 -0.3138  0.6897
  570TMC3     O 8457   2.671   3.728  16.112  0.0698  0.3660 -0.0397
  570TMC3     H 8458   2.788   3.859  15.952 -0.1773  0.2564 -0.4035
  570TMC3    H1 8459   2.449   4.059  16.138  0.6149  1.2340  1.8290
  570TMC3    H2 8460   2.611   4.211  15.779 -1.1942  0.3238  0.8280
  570TMC3    C7 8461   2.510   4.284  16.025  0.0529  1.0744 -0.2128
  570TMC3    C8 8462   2.806   4.044  15.747 -0.5571 -0.0562  0.0941
  570TMC3    O1 8463   2.483   4.287  16.144 -0.0156  0.1280  0.2267
  570TMC3    O2 8464   2.808   4.150  15.678 -0.0916  0.3539 -0.1722
  571MPD2     C 8465   1.130   1.330  17.084 -0.0544  0.0516  0.3320
  571MPD2    C1 8466   1.003   1.333  17.132 -0.1532  0.3857 -0.0446
  571MPD2    C2 8467   0.968   1.436  17.225  0.2657 -0.3959 -0.2578
  571MPD2    C3 8468   1.055   1.529  17.261  0.2901 -0.3273 -0.7743
  571MPD2    C4 8469   1.177   1.533  17.199 -0.0998  0.5900  1.0050
  571MPD2    C5 8470   1.215   1.434  17.112  0.7615 -0.1056 -0.4393
  571MPD2     H 8471   0.872   1.436  17.274 -0.2189  0.6033 -1.1912
  571MPD2    H1 8472   1.234   1.623  17.215  0.3908  0.2418  1.1888
  571MPD2    H2 8473   1.166   1.252  17.017  1.7052  0.8093  0.3910
  571MPD2    H3 8474   1.315   1.440  17.069  1.6314  0.5933  1.7090
  571MPD2     N 8475   1.040   1.620  17.363  0.7447  0.3745 -0.1133
  571MPD2    H5 8476   1.109   1.695  17.363 -0.1858  1.2277  0.9211
  571MPD2    N1 8477   0.910   1.224  17.088  0.1156 -0.5399 -0.3879
  571MPD2    H7 8478   0.950   1.157  17.023  0.8295  1.1237 -1.6631
  572TMC3    C1 8479   0.935   1.749  17.524 -0.5170 -0.2042 -0.0457
  572TMC3    C2 8480   1.046   1.751  17.601  0.1949  0.8127  0.4757
  572TMC3    C3 8481   1.067   1.855  17.675  0.5217 -0.1215  0.4233
  572TMC3    C4 8482   0.863   1.862  17.497 -0.3809 -0.1672 -0.0336
  572TMC3    C5 8483   0.890   1.972  17.572  0.3264 -0.3815  0.2569
  572TMC3    C6 8484   0.996   1.973  17.660  0.4899 -0.3160 -0.4360
  572TMC3     C 8485   0.923   1.645  17.429  0.5197 -0.1539 -0.1552
  572TMC3     O 8486   0.809   1.606  17.418  0.1710 -0.6386 -0.4977
  572TMC3     H 8487   1.108   1.662  17.611 -0.5316  0.1648 -0.7854
  572TMC3    H1 8488   0.781   1.861  17.426 -0.8730 -1.2194  0.5499
  572TMC3    H2 8489   1.019   2.043   0.040  0.7592 -2.8697  1.7132
  572TMC3    C7 8490   0.803   2.087  17.561  0.1923  0.4715  0.5470
  572TMC3    C8 8491   1.151   1.838   0.090 -0.2497  0.0988 -0.5840
  572TMC3    O1 8492   0.695   2.072  17.501 -0.5907  0.0950  0.4375
  572TMC3    O2 8493   1.229   1.930   0.110 -0.4474  0.1026  0.4128
  573MPD2     C 8494   2.306   1.481   0.819  0.4357  0.0834 -0.3021
  573MPD2    C1 8495   2.314   1.616   0.808 -0.7850  0.0174 -0.3398
  573MPD2    C2 8496   2.259   1.675   0.702  0.1293 -0.1183  0.9145
  573MPD2    C3 8497   2.196   1.608   0.599 -0.3084  0.5115 -0.2796
  573MPD2    C4 8498   2.181   1.472   0.612  0.5533  0.5853 -0.1616
  573MPD2    C5 8499   2.233   1.413   0.724  0.2103  0.6335  0.2394
  573MPD2     H 8500   2.273   1.782   0.693 -1.8982  0.2209  1.7991
  573MPD2    H1 8501   2.144   1.411   0.530 -1.2988  1.6242 -0.1057
  573MPD2    H2 8502   2.356   1.438   0.905  3.0107  0.2338 -1.7438
  573MPD2    H3 8503   2.227   1.308   0.750  1.6826  0.3422 -0.6178
  573MPD2     N 8504   2.146   1.666   0.479  0.1644  0.0379  0.3731
  573MPD2    H5 8505   2.101   1.600   0.416 -1.4603  1.8434 -0.3588
  573MPD2    N1 8506   2.381   1.692   0.914  0.4979  0.1352 -0.2595
  573MPD2    H7 8507   2.427   1.632   0.982  0.7171  0.2396 -0.3184
  574TMC3    C1 8508   2.094   1.804   0.301  0.1539  0.6671  0.3683
  574TMC3    C2 8509   1.980   1.732   0.285  0.6328 -0.2409 -0.4805
  574TMC3    C3 8510   1.916   1.757   0.169  0.3205  0.1092  0.1199
  574TMC3    C4 8511   2.160   1.860   0.197  0.3714  0.0651 -0.4422
  574TMC3    C5 8512   2.102   1.850   0.070 -0.0113  0.2199  0.1340
  574TMC3    C6 8513   1.977   1.796   0.051  0.3157  0.5222 -0.2330
  574TMC3     C 8514   2.157   1.794   0.431 -0.0166 -0.7840 -0.4691
  574TMC3     O 8515   2.209   1.899   0.479  0.1486  0.0400 -0.1620
  574TMC3     H 8516   1.930   1.718   0.380 -1.2985 -0.0788 -1.4679
  574TMC3    H1 8517   2.251   1.917   0.216  0.3409 -0.6630  1.8902
  574TMC3    H2 8518   1.934   1.799  17.651 -0.9841  1.0593  0.3515
  574TMC3    C7 8519   2.170   1.888  17.651 -0.2917  1.2855  0.6887
  574TMC3    C8 8520   1.777   1.722   0.157 -0.2473  0.5852 -0.9360
  574TMC3    O1 8521   2.102   1.917  17.554 -0.0656  0.6876  0.5120
  574TMC3    O2 8522   1.747   1.620   0.218  0.8606 -0.1332 -0.2241
  575TMC3    C1 8523   4.303   3.429  10.869  0.0919 -0.7696 -0.1585
  575TMC3    C2 8524   4.336   3.295  10.866  0.0596 -0.1589 -0.2590
  575TMC3    C3 8525   4.250   3.210  10.816  0.3214  0.2250 -0.5139
  575TMC3    C4 8526   4.193   3.470  10.794  0.0722  0.0154 -0.0424
  575TMC3    C5 8527   4.107   3.376  10.739  0.2761  0.0740  0.8024
  575TMC3    C6 8528   4.132   3.247  10.756 -0.0339  0.3783 -0.4095
  575TMC3     C 8529   4.378   3.532  10.938 -0.3529  0.5866  0.8031
  575TMC3     O 8530   4.358   3.645  10.903  0.9010 -1.0153  0.3297
  575TMC3     H 8531   4.434   3.267  10.902 -0.2303 -0.9394 -0.0923
  575TMC3    H1 8532   4.169   3.574  10.776 -0.5779 -0.3380 -1.1796
  575TMC3    H2 8533   4.064   3.174  10.713  0.0731  0.1724 -0.2262
  575TMC3    C7 8534   4.005   3.420  10.637  0.2480 -0.5999 -0.2645
  575TMC3    C8 8535   4.270   3.066  10.844  0.2151  0.2616 -0.4703
  575TMC3    O1 8536   3.978   3.540  10.638 -0.3107  0.1592  0.0087
  575TMC3    O2 8537   4.201   2.992  10.777  0.3724 -0.1855  0.3817
  576MPD2     C 8538   3.566   0.384  12.392  0.7376  0.2785  0.5067
  576MPD2    C1 8539   3.645   0.445  12.297 -0.6511  0.0299 -0.3977
  576MPD2    C2 8540   3.600   0.555  12.231  0.2642 -0.3432 -0.0847
  576MPD2    C3 8541   3.472   0.610  12.241 -0.1913  0.2152  0.1549
  576MPD2    C4 8542   3.391   0.536  12.324  0.2827  0.1360  0.2640
  576MPD2    C5 8543   3.441   0.430  12.404  0.0774 -0.6004  0.2829
  576MPD2     H 8544   3.666   0.605  12.161 -0.9360  1.2397 -0.0905
  576MPD2    H1 8545   3.291   0.571  12.348  1.7113  4.9026 -0.5968
  576MPD2    H2 8546   3.591   0.296  12.451  0.7105  1.2303  1.9428
  576MPD2    H3 8547   3.390   0.397  12.494 -0.1188 -0.5560  0.1869
  576MPD2     N 8548   3.438   0.734  12.177  0.1465 -0.6038  0.5390
  576MPD2    H5 8549   3.523   0.773  12.138  0.2146 -0.0784  1.2296
  576MPD2    N1 8550   3.777   0.401  12.260 -0.6295 -0.4959 -0.1491
  576MPD2    H7 8551   3.821   0.449  12.182 -3.1228  1.7467 -0.1866
  577TMC3    C1 8552   3.948   0.228  12.247 -0.5327 -1.2340  0.7204
  577TMC3    C2 8553   3.978   0.096  12.269 -1.1471 -0.3068 -0.1096
  577TMC3    C3 8554   4.098   0.045  12.230 -0.3405 -0.0077  1.3210
  577TMC3    C4 8555   4.036   0.309  12.184 -0.4971  0.1859  0.1509
  577TMC3    C5 8556   4.157   0.257  12.151  0.6741 -0.4744 -0.4537
  577TMC3    C6 8557   4.186   0.123  12.167  0.1922  0.3590 -0.0787
  577TMC3     C 8558   3.826   0.285  12.307  0.0512 -0.8188  0.0517
  577TMC3     O 8559   3.779   0.208  12.388 -0.1353 -0.2315 -0.4618
  577TMC3     H 8560   3.895   0.032  12.295 -0.8499 -0.1577  1.2037
  577TMC3    H1 8561   4.019   0.415  12.201 -3.8569 -0.3053 -0.1278
  577TMC3    H2 8562   4.287   0.087  12.154 -0.9257 -2.7574 -0.1739
  577TMC3    C7 8563   4.222   0.308  12.037 -0.6639  0.1679 -0.6591
  577TMC3    C8 8564   4.125   4.625  12.246 -0.2680 -0.0113  0.4121
  577TMC3    O1 8565   4.340   0.273  12.033 -0.3046 -0.2065 -0.7242
  577TMC3    O2 8566   4.051   4.563  12.320  0.0708  0.2133  0.3153
  578MPD2     C 8567   2.734   4.297   0.792  0.0306  0.4508  0.1455
  578MPD2    C1 8568   2.692   4.169   0.806 -0.4643 -0.2418 -0.6681
  578MPD2    C2 8569   2.751   4.089   0.901  0.5266  0.5414  0.6691
  578MPD2    C3 8570   2.865   4.129   0.963  0.0065  0.0321 -0.9029
  578MPD2    C4 8571   2.916   4.258   0.944 -0.6531 -0.0702 -0.1256
  578MPD2    C5 8572   2.849   4.345   0.862  0.3702 -0.8714  0.1990
  578MPD2     H 8573   2.716   3.990   0.928  0.2390  0.1212 -1.2420
  578MPD2    H1 8574   3.011   4.286   0.987 -1.2605 -0.6678  1.5766
  578MPD2    H2 8575   2.684   4.364   0.722  0.4539  1.3033  0.6609
  578MPD2    H3 8576   2.885   4.446   0.843  0.1729 -1.2809 -2.3956
  578MPD2     N 8577   2.917   4.029   1.048  0.2313 -0.2441 -0.3000
  578MPD2    H5 8578   2.871   3.939   1.054  1.4471 -0.8983 -0.6916
  578MPD2    N1 8579   2.578   4.130   0.735 -0.0408  0.1390 -0.5401
  578MPD2    H7 8580   2.531   4.212   0.698  0.0587 -0.4913 -2.0415
  579TMC3    C1 8581   3.039   3.954   1.253  0.4447 -0.0934 -0.1767
  579TMC3    C2 8582   3.118   3.994   1.362 -0.4033 -0.1798 -0.3597
  579TMC3    C3 8583   3.109   3.921   1.478 -0.2869 -0.3276 -0.1127
  579TMC3    C4 8584   2.952   3.847   1.261 -0.4350  0.0774  0.0981
  579TMC3    C5 8585   2.946   3.774   1.379  0.1266 -0.4919 -0.3871
  579TMC3    C6 8586   3.017   3.818   1.492  0.6992  0.2506 -0.0377
  579TMC3     C 8587   3.016   4.058   1.143  0.1842 -0.5449  0.0709
  579TMC3     O 8588   3.098   4.146   1.133 -0.2183 -0.1578  0.3720
  579TMC3     H 8589   3.180   4.083   1.354  2.4235 -2.2801 -1.8360
  579TMC3    H1 8590   2.903   3.811   1.171  0.3777 -3.3972  1.0564
  579TMC3    H2 8591   3.005   3.765   1.586 -0.9035 -1.8433 -1.4184
  579TMC3    C7 8592   2.903   3.636   1.389 -0.5999 -0.1231 -0.2551
  579TMC3    C8 8593   3.201   3.953   1.586 -0.0289 -0.2540  0.3271
  579TMC3    O1 8594   2.955   3.569   1.470 -1.1634 -0.1237 -0.4139
  579TMC3    O2 8595   3.174   3.918   1.699  0.0165  0.1545  0.3320
  580TMC3    C1 8596   1.332   3.551  11.666  0.6582  0.5682  0.4653
  580TMC3    C2 8597   1.344   3.512  11.536  0.1316  0.3840  0.3564
  580TMC3    C3 8598   1.350   3.380  11.506  0.2891 -0.1105  0.2584
  580TMC3    C4 8599   1.328   3.461  11.765 -0.0789  0.5318 -0.3041
  580TMC3    C5 8600   1.336   3.325  11.741  0.0878 -0.8194 -0.7883
  580TMC3    C6 8601   1.346   3.288  11.611  0.4770  0.2629 -0.1546
  580TMC3     C 8602   1.384   3.681  11.692  0.2525  0.4535  0.7357
  580TMC3     O 8603   1.439   3.737  11.596 -0.1784 -0.7248 -0.0305
  580TMC3     H 8604   1.359   3.586  11.458  1.1530 -1.8072 -1.5090
  580TMC3    H1 8605   1.340   3.491  11.869  0.8972 -0.9938  0.0305
  580TMC3    H2 8606   1.372   3.184  11.592  0.4116  0.2722 -0.2950
  580TMC3    C7 8607   1.417   3.255  11.837  0.0791  0.9642 -0.1872
  580TMC3    C8 8608   1.438   3.354  11.391 -0.0713 -0.5848  0.3547
  580TMC3    O1 8609   1.472   3.322  11.925 -0.2980 -0.4130  0.7191
  580TMC3    O2 8610   1.410   3.256  11.326  0.2315  0.2199 -0.1136
  581MPD2     C 8611   3.870   2.400  15.287 -0.0265  0.0137 -0.2540
  581MPD2    C1 8612   3.965   2.453  15.199  0.1174 -0.0796  0.1032
  581MPD2    C2 8613   3.956   2.583  15.154  0.1394  0.4568  0.7686
  581MPD2    C3 8614   3.849   2.671  15.189  0.4304 -0.0756  0.6925
  581MPD2    C4 8615   3.763   2.614  15.284  0.3346 -0.0708  0.7623
  581MPD2    C5 8616   3.768   2.482  15.327  0.1894  0.8097  0.6616
  581MPD2     H 8617   4.024   2.628  15.083  0.8765 -1.7238  0.0758
  581MPD2    H1 8618   3.686   2.684  15.313  1.1380  1.0582  0.1401
  581MPD2    H2 8619   3.888   2.303  15.332 -0.4104  0.0402 -0.0427
  581MPD2    H3 8620   3.698   2.439  15.398  1.1086 -2.9371 -0.6846
  581MPD2     N 8621   3.826   2.798  15.139 -0.4663  0.3386  0.2950
  581MPD2    H5 8622   3.743   2.849  15.166 -1.5403 -1.1870 -0.1737
  581MPD2    N1 8623   4.065   2.364  15.164  0.0817 -0.1936  0.0294
  581MPD2    H7 8624   4.068   2.277  15.215 -1.5377 -0.5154 -0.3979
  582TMC3    C1 8625   4.278   2.291  15.137  0.2848  0.0802 -0.5097
  582TMC3    C2 8626   4.391   2.360  15.168  0.2311  0.0529  0.2109
  582TMC3    C3 8627   4.440   2.355  15.292 -0.4082  0.1295  0.4963
  582TMC3    C4 8628   4.236   2.196  15.218 -0.8483  0.0073  0.2443
  582TMC3    C5 8629   4.283   2.185  15.347 -0.0512 -0.8849 -0.1202
  582TMC3    C6 8630   4.392   2.265  15.384  0.2864 -0.2220  0.3183
  582TMC3     C 8631   4.176   2.378  15.083  0.4234  0.5817  1.1000
  582TMC3     O 8632   4.213   2.478  15.026 -0.3902  0.6918  0.0578
  582TMC3     H 8633   4.432   2.420  15.088 -0.8480  0.9104  0.2845
  582TMC3    H1 8634   4.159   2.124  15.196  0.5028 -1.7093  1.1132
  582TMC3    H2 8635   4.428   2.273  15.486 -1.4363 -1.0619  0.9898
  582TMC3    C7 8636   4.170   2.209  15.434 -0.3912  0.2176 -0.7841
  582TMC3    C8 8637   4.470   2.485  15.349 -0.4565  0.1717 -0.2321
  582TMC3    O1 8638   4.060   2.154  15.409  0.6529  0.2516 -0.0318
  582TMC3    O2 8639   4.540   2.486  15.451 -0.0277 -0.2129  0.4312
  583MPD2     C 8640   4.609   0.013  16.860 -0.1625 -0.8066 -0.4620
  583MPD2    C1 8641   4.564   0.115  16.787  0.4395  0.3942 -0.7755
  583MPD2    C2 8642   4.486   0.211  16.845  0.2467  0.5387  0.3850
  583MPD2    C3 8643   4.456   0.206  16.979  0.2839  0.0733  0.6494
  583MPD2    C4 8644   4.511   0.103  17.049  0.0374  0.7891  0.3556
  583MPD2    C5 8645   4.579   4.724  16.996  0.7017 -0.2076  0.1104
  583MPD2     H 8646   4.455   0.296  16.786 -0.7589 -2.0149 -2.7513
  583MPD2    H1 8647   4.510   0.089  17.157 -2.1401  2.0299  0.4795
  583MPD2    H2 8648   4.675   4.663  16.818 -0.6100 -0.2842 -2.0916
  583MPD2    H3 8649   4.625   4.640  17.045 -1.3562 -0.6511  1.2689
  583MPD2     N 8650   4.375   0.306  17.034  0.0825  0.2866  0.1469
  583MPD2    H5 8651   4.316   0.357  16.969 -0.1308 -0.0703  0.0637
  583MPD2    N1 8652   4.577   0.130  16.648 -0.0731 -0.5424  0.3120
  583MPD2    H7 8653   4.540   0.210  16.598  0.7025  0.0744  0.7249
  584TMC3    C1 8654   4.293   0.446  17.200  0.1156  0.4945  0.4450
  584TMC3    C2 8655   4.325   0.551  17.113 -0.3143  0.2846 -1.0999
  584TMC3    C3 8656   4.350   0.674  17.166 -0.1115 -0.2141 -0.7630
  584TMC3    C4 8657   4.270   0.469  17.336 -0.0734  0.8299  0.2294
  584TMC3    C5 8658   4.291   0.599  17.380  0.0656 -0.2509 -0.2598
  584TMC3    C6 8659   4.334   0.699  17.301 -0.1984  0.9452 -0.5394
  584TMC3     C 8660   4.349   0.321  17.168  0.5472 -0.2912 -0.8774
  584TMC3     O 8661   4.391   0.251  17.262 -0.1670 -0.4421  0.2742
  584TMC3     H 8662   4.370   0.537  17.016 -1.1495  1.9201 -1.7223
  584TMC3    H1 8663   4.234   0.394  17.406  2.6170 -1.0088 -0.3504
  584TMC3    H2 8664   4.345   0.801  17.337 -1.6748  0.4205  1.3679
  584TMC3    C7 8665   4.259   0.620  17.519 -1.0780  0.1079 -0.0839
  584TMC3    C8 8666   4.366   0.789  17.076  0.0526  1.0524 -0.4150
  584TMC3    O1 8667   4.174   0.546  17.572  0.2325  0.0985 -0.0685
  584TMC3    O2 8668   4.335   0.781  16.959 -0.3112 -0.7432  0.0081
  585MPD2     C 8669   3.936   3.897   0.501  0.3612 -0.6152 -0.2799
  585MPD2    C1 8670   4.005   3.897   0.382  0.6202 -0.2280 -0.4172
  585MPD2    C2 8671   3.940   3.915   0.259  0.1976  0.3566  0.0711
  585MPD2    C3 8672   3.802   3.935   0.249  0.5329  0.2758  0.0024
  585MPD2    C4 8673   3.734   3.945   0.370  0.0484  0.7590  0.2438
  585MPD2    C5 8674   3.805   3.936   0.490  0.0483 -0.0006  0.0055
  585MPD2     H 8675   3.999   3.916   0.168  0.2795 -0.8983  0.1214
  585MPD2    H1 8676   3.627   3.965   0.377 -0.3343 -1.6548  1.2895
  585MPD2    H2 8677   3.990   3.866   0.589  1.1102 -0.5606 -0.7197
  585MPD2    H3 8678   3.751   3.938   0.583 -0.2021  1.6415 -0.1793
  585MPD2     N 8679   3.735   3.959   0.120 -0.9948  0.3837  0.1377
  585MPD2    H5 8680   3.786   3.970   0.033 -0.3296  1.0917  0.6202
  585MPD2    N1 8681   4.138   3.879   0.396  0.4273  0.1345 -0.2857
  585MPD2    H7 8682   4.167   3.884   0.493  0.8798 -0.2646 -0.4009
  586TMC3    C1 8683   3.564   3.969  17.667 -0.7144 -0.0064 -0.9701
  586TMC3    C2 8684   3.630   4.050  17.585  0.2122 -0.2124 -0.1995
  586TMC3    C3 8685   3.645   4.013  17.456 -0.0034 -0.4221  0.0549
  586TMC3    C4 8686   3.483   3.872  17.621  0.1566 -0.5647 -0.6056
  586TMC3    C5 8687   3.489   3.845  17.483  0.5378 -0.2149 -0.2447
  586TMC3    C6 8688   3.568   3.916  17.404  0.0319  0.4020 -0.1390
  586TMC3     C 8689   3.602   3.954   0.101 -0.3473 -0.0939  0.3631
  586TMC3     O 8690   3.518   3.917   0.184  0.1727  0.1448 -0.2508
  586TMC3     H 8691   3.693   4.127  17.629 -1.0075  0.2712  0.6781
  586TMC3    H1 8692   3.420   3.806  17.679  0.3595 -1.0347 -0.9254
  586TMC3    H2 8693   3.557   3.907  17.297  0.9718 -0.9909 -0.1298
  586TMC3    C7 8694   3.443   3.720  17.426 -0.0267  0.1164 -0.0503
  586TMC3    C8 8695   3.785   3.977  17.440 -0.0727 -0.3166 -0.7231
  586TMC3    O1 8696   3.356   3.656  17.491 -0.1840  0.3838 -0.3131
  586TMC3    O2 8697   3.842   3.946  17.543  0.1248 -0.2174  0.2220
  587TMC3    C1 8698   1.087   2.256  16.141  0.5542  0.4571  0.5374
  587TMC3    C2 8699   1.074   2.388  16.181  0.5850  0.3711 -0.0072
  587TMC3    C3 8700   1.175   2.485  16.159  0.1204  0.1311  0.4601
  587TMC3    C4 8701   1.191   2.214  16.067  0.2033 -0.1218 -0.1354
  587TMC3    C5 8702   1.293   2.313  16.047  0.3402 -0.6461  0.5519
  587TMC3    C6 8703   1.285   2.446  16.089  0.4925  0.5208 -0.2693
  587TMC3     C 8704   0.969   2.195  16.116  0.3404  0.4317  0.9917
  587TMC3     O 8705   0.967   2.107  16.030  0.3069 -0.7474  0.1959
  587TMC3     H 8706   0.971   2.420  16.184  0.1992 -0.9844  0.9908
  587TMC3    H1 8707   1.196   2.112  16.029  0.1548  1.1064 -3.4343
  587TMC3    H2 8708   1.365   2.519  16.075  0.9865 -0.0206 -0.2934
  587TMC3    C7 8709   1.403   2.288  15.952 -0.1997 -0.0122 -0.3046
  587TMC3    C8 8710   1.135   2.624  16.148 -0.6540  0.1203  0.2812
  587TMC3    O1 8711   1.492   2.375  15.957 -0.0708 -0.3944 -0.2288
  587TMC3    O2 8712   1.221   2.688  16.084 -0.2178 -0.3811  0.5124
  588TMC3    C1 8713   3.303   1.163   9.459 -0.0980  0.0159  0.4991
  588TMC3    C2 8714   3.235   1.049   9.488  0.1348  0.1105 -0.7220
  588TMC3    C3 8715   3.301   0.943   9.554  0.1541 -0.0181 -0.7505
  588TMC3    C4 8716   3.436   1.162   9.466 -0.5730 -0.8313  0.9422
  588TMC3    C5 8717   3.503   1.048   9.514 -0.3947 -0.3438 -0.1717
  588TMC3    C6 8718   3.437   0.942   9.560 -0.2617 -0.2795 -0.4428
  588TMC3     C 8719   3.231   1.287   9.487 -0.8807 -0.2742 -0.6750
  588TMC3     O 8720   3.122   1.281   9.543  0.3121  0.7376  0.3096
  588TMC3     H 8721   3.127   1.049   9.491  0.1935  2.7684  0.9444
  588TMC3    H1 8722   3.504   1.244   9.445  0.7413 -1.8627  1.1502
  588TMC3    H2 8723   3.479   0.849   9.597  1.2616  0.6325  0.1070
  588TMC3    C7 8724   3.626   1.066   9.585  0.2767  0.0247  0.1812
  588TMC3    C8 8725   3.221   0.828   9.594 -0.6116 -0.0212 -0.0264
  588TMC3    O1 8726   3.702   0.972   9.589  0.2306 -0.1325 -0.0853
  588TMC3    O2 8727   3.105   0.823   9.562 -0.0931 -0.0960 -0.1567
  589TMC3    C1 8728   3.099   2.177   0.744 -0.1952  0.0478 -0.6146
  589TMC3    C2 8729   3.160   2.138   0.858 -0.2048  0.2544 -0.1009
  589TMC3    C3 8730   3.285   2.088   0.839 -0.3532 -0.1298 -0.9711
  589TMC3    C4 8731   3.167   2.170   0.617  0.0798  0.9164  0.1489
  589TMC3    C5 8732   3.290   2.113   0.604  0.1686 -0.4658  0.3641
  589TMC3    C6 8733   3.347   2.070   0.719 -0.0243 -0.0690  0.3069
  589TMC3     C 8734   2.973   2.240   0.752 -0.5471 -0.3731  0.6462
  589TMC3     O 8735   2.891   2.213   0.661 -0.1261  0.1196 -1.0547
  589TMC3     H 8736   3.116   2.146   0.957  1.4448 -2.2785  0.8502
  589TMC3    H1 8737   3.103   2.183   0.530  1.3103  0.5673 -0.7963
  589TMC3    H2 8738   3.446   2.026   0.710  0.5935  1.2425  0.6763
  589TMC3    C7 8739   3.304   2.026   0.488  0.1333  0.4736 -0.6525
  589TMC3    C8 8740   3.366   2.133   0.954  0.5639  0.3760 -0.1237
  589TMC3    O1 8741   3.351   1.918   0.517  0.4640 -0.3638  0.4487
  589TMC3    O2 8742   3.302   2.198   1.032 -0.3732 -0.5205 -0.2022
  590MPD2     C 8743   1.758   0.589  16.563  0.4384 -0.8105 -0.0669
  590MPD2    C1 8744   1.806   0.593  16.433 -0.0476  0.1459 -0.1927
  590MPD2    C2 8745   1.941   0.604  16.406 -0.2235  0.1483 -0.2852
  590MPD2    C3 8746   2.026   0.605  16.509 -0.2254 -0.0333  0.0255
  590MPD2    C4 8747   1.980   0.593  16.641  0.6367 -0.1326  0.5193
  590MPD2    C5 8748   1.843   0.587  16.664  0.7563  0.0668 -0.2279
  590MPD2     H 8749   1.983   0.625  16.309 -0.8992 -1.0614 -0.8343
  590MPD2    H1 8750   2.042   0.600  16.730 -0.2693 -0.4966  1.1782
  590MPD2    H2 8751   1.651   0.580  16.579  0.6643 -0.6992  1.4669
  590MPD2    H3 8752   1.793   0.579  16.760  1.3888  0.4483  0.1345
  590MPD2     N 8753   2.159   0.640  16.487  0.2481 -0.5245  0.0960
  590MPD2    H5 8754   2.205   0.685  16.566  0.8383 -1.0912  0.0699
  590MPD2    N1 8755   1.710   0.601  16.332 -0.1579  0.3490 -0.5889
  590MPD2    H7 8756   1.616   0.625  16.361 -1.2309  0.9763 -4.4882
  591TMC3    C1 8757   2.311   0.761  16.365  0.0026 -0.6171  0.2951
  591TMC3    C2 8758   2.434   0.737  16.308  0.1139 -0.2053  0.0544
  591TMC3    C3 8759   2.511   0.850  16.285 -0.1318  0.3190  0.5009
  591TMC3    C4 8760   2.277   0.889  16.417 -0.9858 -0.6933  0.2778
  591TMC3    C5 8761   2.349   0.991  16.382 -0.3399  0.6839 -0.6049
  591TMC3    C6 8762   2.463   0.974  16.305  0.1898 -0.2068  0.9710
  591TMC3     C 8763   2.229   0.641  16.373  0.3379  0.1507  0.6738
  591TMC3     O 8764   2.198   0.593  16.266 -0.3573  0.3590  0.3332
  591TMC3     H 8765   2.466   0.640  16.271  0.1764  0.5644 -1.9384
  591TMC3    H1 8766   2.183   0.905  16.470 -1.7160  0.4614 -1.3563
  591TMC3    H2 8767   2.526   1.062  16.296  1.3399 -1.0554  0.8431
  591TMC3    C7 8768   2.265   1.105  16.345  0.7630  0.4151  0.2760
  591TMC3    C8 8769   2.610   0.837  16.179 -0.3756  0.4678 -0.2320
  591TMC3    O1 8770   2.151   1.117  16.395  0.1549 -0.7393  0.7539
  591TMC3    O2 8771   2.636   0.720  16.156 -0.2217 -0.3051 -0.0840
  592MPD2     C 8772   2.710   3.502  11.057 -0.1251 -0.1637  0.1223
  592MPD2    C1 8773   2.706   3.539  11.187 -0.9161 -0.2206  0.1525
  592MPD2    C2 8774   2.619   3.477  11.272  0.2612  0.3402  0.2045
  592MPD2    C3 8775   2.538   3.376  11.218 -0.0321  0.3019 -0.2505
  592MPD2    C4 8776   2.551   3.331  11.088 -0.4782 -0.1867  0.0831
  592MPD2    C5 8777   2.636   3.402  11.006 -0.5336  0.2023 -0.2177
  592MPD2     H 8778   2.632   3.492  11.379 -1.8328  1.9667  0.2285
  592MPD2    H1 8779   2.492   3.248  11.049  1.2329 -0.7064 -1.3837
  592MPD2    H2 8780   2.779   3.552  10.990  1.2407 -3.0791 -0.6126
  592MPD2    H3 8781   2.649   3.371  10.903 -2.4619 -1.7022  0.1020
  592MPD2     N 8782   2.457   3.306  11.312  0.2747 -0.2397  0.5627
  592MPD2    H5 8783   2.430   3.358  11.395  1.3242 -0.6364  1.1508
  592MPD2    N1 8784   2.797   3.644  11.231  0.0216 -0.0724 -0.4509
  592MPD2    H7 8785   2.852   3.695  11.162  1.3328  1.4396  1.7079
  593TMC3    C1 8786   2.932   3.776  11.366 -0.2810 -0.0288 -0.5810
  593TMC3    C2 8787   3.015   3.766  11.476  0.1496  0.2621  0.3330
  593TMC3    C3 8788   3.117   3.854  11.480 -0.0310  0.5628  0.2158
  593TMC3    C4 8789   2.941   3.862  11.259  0.2941  0.0609 -0.0455
  593TMC3    C5 8790   3.055   3.930  11.266  0.2535 -0.3165 -0.2126
  593TMC3    C6 8791   3.139   3.932  11.371 -1.0807 -0.4271  0.2774
  593TMC3     C 8792   2.822   3.679  11.362  0.1861 -0.4506 -0.3514
  593TMC3     O 8793   2.786   3.624  11.464 -0.2850 -0.1340  0.4468
  593TMC3     H 8794   2.995   3.708  11.565 -1.4091  1.5423  0.7953
  593TMC3    H1 8795   2.872   3.871  11.176 -0.8167  0.0215  0.8775
  593TMC3    H2 8796   3.222   4.002  11.367  1.0704 -3.0741 -1.2355
  593TMC3    C7 8797   3.073   4.035  11.169  0.1623 -0.2026 -0.2277
  593TMC3    C8 8798   3.154   3.920  11.608  0.2350 -0.0897  0.0746
  593TMC3    O1 8799   3.149   4.129  11.191 -0.0721  0.4025 -0.0933
  593TMC3    O2 8800   3.171   4.039  11.605  0.1040 -0.0962 -0.1151
  594MPD2     C 8801   1.480   1.364  14.764  0.1095  0.4155  0.0948
  594MPD2    C1 8802   1.404   1.451  14.686 -0.0775 -0.1549 -0.8774
  594MPD2    C2 8803   1.459   1.571  14.649 -0.8264  0.7701  0.2778
  594MPD2    C3 8804   1.593   1.600  14.689  0.8523 -0.1334  0.2387
  594MPD2    C4 8805   1.659   1.518  14.777 -0.4119 -0.5165  0.0107
  594MPD2    C5 8806   1.606   1.396  14.804  0.4971 -0.4026  0.4130
  594MPD2     H 8807   1.404   1.639  14.584 -1.3199 -1.4872 -1.6703
  594MPD2    H1 8808   1.755   1.551  14.815 -0.4366  0.3908 -0.7095
  594MPD2    H2 8809   1.456   1.258  14.765 -0.4678  0.5405 -0.7983
  594MPD2    H3 8810   1.656   1.318  14.861  1.1060 -0.2283  0.1209
  594MPD2     N 8811   1.648   1.720  14.632  0.6924  0.2912 -0.0779
  594MPD2    H5 8812   1.585   1.764  14.566 -0.0350 -1.3590 -0.4795
  594MPD2    N1 8813   1.280   1.400  14.650  0.4846  0.3290 -0.0562
  594MPD2    H7 8814   1.237   1.324  14.701  0.6517  0.4778  0.3050
  595TMC3    C1 8815   1.951   2.004  14.435 -0.1758 -0.0556  0.2825
  595TMC3    C2 8816   1.926   1.898  14.513  0.2890  0.4738  0.5330
  595TMC3    C3 8817   1.802   1.880  14.565 -0.2302 -0.3535 -0.8749
  595TMC3    C4 8818   1.854   2.108  14.424  0.0820  0.3279  0.2290
  595TMC3    C5 8819   1.739   2.087  14.489  0.1756 -0.3428 -0.1213
  595TMC3    C6 8820   1.703   1.966  14.550  0.1239 -0.1166  0.7982
  595TMC3     C 8821   2.095   2.029  14.427  0.2090 -0.5551  0.1029
  595TMC3     O 8822   2.171   1.986  14.512 -0.2675  0.0252 -0.8007
  595TMC3     H 8823   2.003   1.823  14.521 -0.6058 -0.4253  0.6849
  595TMC3    H1 8824   1.866   2.189  14.353  0.8134 -0.4080 -0.4759
  595TMC3    H2 8825   1.608   1.952  14.601 -0.2146  1.9245  0.7304
  595TMC3    C7 8826   1.640   2.193  14.491 -0.2951 -0.0488  0.6224
  595TMC3    C8 8827   1.776   1.764  14.653 -0.4963  0.0256 -0.4215
  595TMC3    O1 8828   1.525   2.169  14.475 -0.0345 -0.3763 -0.0018
  595TMC3    O2 8829   1.870   1.704  14.703  0.0559 -0.5533  0.8067
  596MPD2     C 8830   0.711   4.698  16.626 -0.1866 -0.4400 -0.5479
  596MPD2    C1 8831   0.683   0.077  16.537  0.5293  0.0423 -0.3773
  596MPD2    C2 8832   0.706   0.057  16.400  0.2672 -0.5263 -0.0257
  596MPD2    C3 8833   0.745   4.649  16.358  0.4498  0.7199  0.0360
  596MPD2    C4 8834   0.768   4.550  16.446 -0.0212  0.6222 -0.4816
  596MPD2    C5 8835   0.753   4.577  16.579  0.1077  0.1290  0.0411
  596MPD2     H 8836   0.693   0.142  16.335  3.6239  0.6566  0.8462
  596MPD2    H1 8837   0.801   4.455  16.404 -0.9224 -0.0018  0.2253
  596MPD2    H2 8838   0.683   4.717  16.729 -0.7974  3.7760 -1.4731
  596MPD2    H3 8839   0.765   4.496  16.650  0.0829 -1.2841 -1.5572
  596MPD2     N 8840   0.730   4.609  16.226 -0.2441  0.1199  0.5549
  596MPD2    H5 8841   0.748   4.514  16.196  0.6041  0.9468 -1.5770
  596MPD2    N1 8842   0.638   0.201  16.565 -0.4040 -0.6101 -0.2717
  596MPD2    H7 8843   0.639   0.261  16.483  0.0729  0.0038  0.1915
  597TMC3    C1 8844   0.557   0.377  16.698 -0.6112  0.3901 -0.4789
  597TMC3    C2 8845   0.603   0.463  16.607 -0.0178  0.4477 -0.2894
  597TMC3    C3 8846   0.582   0.596  16.623  0.3996 -0.4780 -0.2668
  597TMC3    C4 8847   0.479   0.420  16.799  0.5845 -0.0834 -0.2216
  597TMC3    C5 8848   0.460   0.556  16.816 -0.0649 -0.0052  0.2837
  597TMC3    C6 8849   0.512   0.649  16.726  0.2322  0.3041 -0.1788
  597TMC3     C 8850   0.582   0.236  16.686 -0.3304 -0.3362 -0.4663
  597TMC3     O 8851   0.574   0.178  16.796 -0.1218 -1.0189  0.0423
  597TMC3     H 8852   0.671   0.425  16.532  0.6841  0.2794  0.4279
  597TMC3    H1 8853   0.426   0.351  16.864  0.6128  2.1798  2.1594
  597TMC3    H2 8854   0.490   0.755  16.736  0.6268  0.3792 -0.1086
  597TMC3    C7 8855   0.384   0.604  16.933  0.0358 -0.5495 -1.0763
  597TMC3    C8 8856   0.676   0.686  16.555 -0.0863  0.6003  0.2335
  597TMC3    O1 8857   0.346   0.518  17.011  0.0007  0.0745  0.1522
  597TMC3    O2 8858   0.682   0.799  16.604 -0.0640  0.1216  0.3630
  598TMC3    C1 8859   3.704   1.564  15.544 -0.2161  0.1928  0.2829
  598TMC3    C2 8860   3.622   1.467  15.485 -0.3774  0.0894 -0.1700
  598TMC3    C3 8861   3.520   1.517  15.406  0.2371  0.6749  0.6141
  598TMC3    C4 8862   3.692   1.701  15.519 -0.4384 -0.5477  0.5931
  598TMC3    C5 8863   3.595   1.739  15.427 -0.0120  0.1928 -0.3026
  598TMC3    C6 8864   3.515   1.646  15.373  0.4823  0.0915 -0.5852
  598TMC3     C 8865   3.828   1.524  15.614  0.1295 -0.2845  0.2696
  598TMC3     O 8866   3.918   1.609  15.598 -0.5554  0.1743 -0.2457
  598TMC3     H 8867   3.638   1.363  15.512  0.6884  0.2377 -0.2374
  598TMC3    H1 8868   3.767   1.771  15.554  0.2157  1.0733 -4.1228
  598TMC3    H2 8869   3.428   1.678  15.317 -1.8655 -3.9203  0.7585
  598TMC3    C7 8870   3.642   1.832  15.336  0.2814 -0.2011  0.4257
  598TMC3    C8 8871   3.410   1.432  15.364  0.6699  0.1249  0.0971
  598TMC3    O1 8872   3.694   1.934  15.381  0.3566  0.2374  0.4392
  598TMC3    O2 8873   3.371   1.456  15.249 -0.1686  0.3115 -0.7501
  599MPD2     C 8874   3.524   3.822  15.770 -0.0370  0.4704  0.5078
  599MPD2    C1 8875   3.504   3.693  15.806 -0.2267 -0.0941  0.0077
  599MPD2    C2 8876   3.394   3.655  15.877  0.7150 -0.2505  0.4054
  599MPD2    C3 8877   3.295   3.747  15.909 -0.0236  0.5294 -0.0425
  599MPD2    C4 8878   3.321   3.878  15.881 -0.3442  0.5181  0.4158
  599MPD2    C5 8879   3.425   3.913  15.799 -0.1893  0.2911  0.6452
  599MPD2     H 8880   3.389   3.554  15.915 -1.0004 -0.5199 -0.5650
  599MPD2    H1 8881   3.253   3.958  15.909  0.2733  0.9286  0.7155
  599MPD2    H2 8882   3.607   3.863  15.712  1.0010  0.2791  1.8526
  599MPD2    H3 8883   3.435   4.017  15.770 -0.1947 -0.4979 -2.1281
  599MPD2     N 8884   3.190   3.715  15.995 -0.7936  0.6612 -0.0746
  599MPD2    H5 8885   3.142   3.801  16.018 -1.3577  0.1012  0.8593
  599MPD2    N1 8886   3.617   3.612  15.775 -0.1315  0.2470  0.4976
  599MPD2    H7 8887   3.699   3.662  15.741  0.1742 -1.5447 -1.4462
  600TMC3    C1 8888   3.056   3.605  16.148 -0.3070 -0.4952 -0.4959
  600TMC3    C2 8889   3.009   3.492  16.205  0.1102  0.0826 -0.2333
  600TMC3    C3 8890   2.924   3.501  16.316 -0.4430  0.2979 -0.3474
  600TMC3    C4 8891   3.030   3.727  16.204  0.2005 -0.5027 -0.0022
  600TMC3    C5 8892   2.962   3.727  16.324  0.5257 -0.3963  0.0266
  600TMC3    C6 8893   2.908   3.614  16.381  0.9529 -0.1937  0.5019
  600TMC3     C 8894   3.155   3.589  16.042 -0.8522 -0.3854  0.1897
  600TMC3     O 8895   3.186   3.473  16.008  0.5330 -0.0277  0.3918
  600TMC3     H 8896   3.034   3.394  16.166 -1.1237 -0.1267 -0.4935
  600TMC3    H1 8897   3.048   3.823  16.156 -1.9054  0.1664  0.5058
  600TMC3    H2 8898   2.854   3.598  16.474 -0.4681 -1.0426 -0.4661
  600TMC3    C7 8899   2.959   3.857  16.401 -0.3462 -1.1614 -0.1543
  600TMC3    C8 8900   2.851   3.393  16.372  0.6847  0.5280  1.1624
  600TMC3    O1 8901   2.985   3.955  16.335  0.3105  0.0076 -0.3387
  600TMC3    O2 8902   2.895   3.352  16.480  0.0559  0.5112  0.2317
  601MPD2     C 8903   0.698   2.588  17.634 -0.0236 -0.4160 -0.1057
  601MPD2    C1 8904   0.620   2.483  17.594  0.2377  0.8327 -0.0653
  601MPD2    C2 8905   0.669   2.357  17.579 -0.0376 -0.5652 -0.4580
  601MPD2    C3 8906   0.800   2.328  17.621 -0.4851  0.0702 -0.4177
  601MPD2    C4 8907   0.879   2.435  17.662  0.4735 -0.8915 -0.3597
  601MPD2    C5 8908   0.837   2.563  17.662  0.1426 -0.0296  1.0452
  601MPD2     H 8909   0.607   2.279  17.536  1.8141 -2.0819 -0.3851
  601MPD2    H1 8910   0.979   2.420   0.001  1.0829  0.7399 -1.3164
  601MPD2    H2 8911   0.675   2.694  17.623  0.0838 -0.4869 -0.9486
  601MPD2    H3 8912   0.905   2.639   0.001  0.5842 -0.1301  0.4610
  601MPD2     N 8913   0.864   2.202  17.611 -0.3197 -0.2989  0.5126
  601MPD2    H5 8914   0.954   2.182  17.651  0.3286  0.3118 -0.6226
  601MPD2    N1 8915   0.485   2.503  17.560 -0.4460 -0.3209 -0.6063
  601MPD2    H7 8916   0.443   2.424  17.512 -1.3692 -0.6361  0.7440
  602TMC3    C1 8917   0.285   2.625  17.515  1.0252 -0.2796  0.0845
  602TMC3    C2 8918   0.202   2.722  17.554  0.0525 -0.5422 -0.2164
  602TMC3    C3 8919   0.090   2.747  17.478  0.0862  0.1085  0.4509
  602TMC3    C4 8920   0.266   2.559  17.397 -0.0152  0.2331 -0.3411
  602TMC3    C5 8921   0.153   2.578  17.322  0.5343  0.5700 -0.1736
  602TMC3    C6 8922   0.069   2.677  17.362  0.2982  0.1709 -0.5569
  602TMC3     C 8923   0.418   2.626  17.573  1.5756 -0.5506 -0.6261
  602TMC3     O 8924   0.455   2.727  17.631  0.7022  0.3183  1.0197
  602TMC3     H 8925   0.225   2.779  17.643 -0.8032  0.7598 -0.8303
  602TMC3    H1 8926   0.329   2.476  17.365  2.0849  1.8879 -0.4605
  602TMC3    H2 8927   4.708   2.695  17.298  0.0454 -0.0869 -0.2867
  602TMC3    C7 8928   0.157   2.524  17.180  0.7930 -0.6691  0.0270
  602TMC3    C8 8929   0.001   2.862  17.502  0.5527 -0.2487 -0.1325
  602TMC3    O1 8930   0.251   2.457  17.148  0.2104  0.2655  0.4675
  602TMC3    O2 8931   4.709   2.899  17.617  0.5892  0.4163 -0.0387
  603TMC3    C1 8932   3.934   2.667  11.001  0.1215 -0.1074 -0.1938
  603TMC3    C2 8933   3.985   2.659  11.135 -0.1233 -0.2068  1.6333
  603TMC3    C3 8934   4.033   2.772  11.193 -0.0431 -0.6650  0.4801
  603TMC3    C4 8935   3.924   2.790  10.943 -0.2596  0.5012  0.3179
  603TMC3    C5 8936   3.964   2.903  11.008  0.3103  0.1484 -0.1876
  603TMC3    C6 8937   4.027   2.902  11.129  0.1981 -0.0779 -0.5823
  603TMC3     C 8938   3.830   2.576  10.960 -0.6488 -0.5461 -0.5188
  603TMC3     O 8939   3.738   2.621  10.895 -0.0350 -0.0831 -0.4350
  603TMC3     H 8940   3.971   2.573  11.199 -0.7849 -1.7136 -0.5164
  603TMC3    H1 8941   3.894   2.796  10.839 -0.6460 -0.7972  0.3622
  603TMC3    H2 8942   4.034   2.995  11.183  0.4205  0.1779 -1.0524
  603TMC3    C7 8943   3.922   3.034  10.961 -0.4325  0.5545 -0.3832
  603TMC3    C8 8944   4.027   2.773  11.348  1.6057  0.4599 -0.3414
  603TMC3    O1 8945   3.963   3.129  11.030 -0.1780 -0.2767 -0.2197
  603TMC3    O2 8946   3.957   2.685  11.396 -0.7634  0.1483 -0.7585
  604MPD2     C 8947   4.238   1.080  16.205  0.2297  1.0225 -0.9560
  604MPD2    C1 8948   4.129   1.000  16.237  0.0575 -0.2256 -0.1749
  604MPD2    C2 8949   4.102   0.887  16.159 -0.1364 -0.9104  0.5296
  604MPD2    C3 8950   4.186   0.844  16.057 -1.1434  0.4548 -0.2153
  604MPD2    C4 8951   4.298   0.928  16.034  0.3132 -0.0006 -0.8630
  604MPD2    C5 8952   4.320   1.042  16.100 -0.4450  0.2129 -0.0514
  604MPD2     H 8953   4.016   0.823  16.176  0.6505 -1.8606  0.9235
  604MPD2    H1 8954   4.370   0.917  15.954 -0.2257  0.6564 -1.4335
  604MPD2    H2 8955   4.266   1.174  16.251 -2.7487  1.1623  0.5634
  604MPD2    H3 8956   4.392   1.108  16.052 -1.5375 -1.0856 -3.4423
  604MPD2     N 8957   4.154   0.732  15.976 -0.0905 -1.2896 -0.5532
  604MPD2    H5 8958   4.064   0.695  16.005 -0.9615  1.2267 -0.0348
  604MPD2    N1 8959   4.051   1.035  16.347 -0.2432  0.1724  0.1508
  604MPD2    H7 8960   4.078   1.125  16.385 -0.9319 -0.6735  2.6405
  605TMC3    C1 8961   3.874   1.071  16.486 -0.3631 -0.6101  0.4096
  605TMC3    C2 8962   3.968   1.131  16.565  0.1583  0.0831 -0.4407
  605TMC3    C3 8963   3.947   1.257  16.616  0.2282  0.0417 -0.5688
  605TMC3    C4 8964   3.757   1.135  16.460  0.0953 -0.1851  0.5129
  605TMC3    C5 8965   3.735   1.262  16.504  0.2740 -0.4780 -0.3036
  605TMC3    C6 8966   3.832   1.322  16.579  1.0239  0.7550 -0.0308
  605TMC3     C 8967   3.931   0.986  16.389 -0.3439  0.2532 -0.8901
  605TMC3     O 8968   3.853   0.914  16.336  0.4386 -0.2246  0.4258
  605TMC3     H 8969   4.057   1.076  16.594 -1.0040 -1.2386  0.5967
  605TMC3    H1 8970   3.682   1.068  16.419  0.2386 -0.0492  0.0307
  605TMC3    H2 8971   3.803   1.423  16.608  0.0869 -0.1559  2.1930
  605TMC3    C7 8972   3.623   1.337  16.446 -0.5293 -0.3572  0.1597
  605TMC3    C8 8973   4.069   1.328  16.649  0.1994  0.3862 -1.1105
  605TMC3    O1 8974   3.591   1.440  16.502 -0.3347 -0.5808  0.0626
  605TMC3    O2 8975   4.170   1.261  16.672 -0.0388  0.5308 -0.4616
  606TMC3    C1 8976   0.824   4.439  17.238 -0.4975 -0.2440 -0.7554
  606TMC3    C2 8977   0.961   4.464  17.231  0.0840  1.0617  0.3392
  606TMC3    C3 8978   1.043   4.353  17.225  0.3194  0.2440  0.3915
  606TMC3    C4 8979   0.764   4.310  17.249  0.1402 -0.1130  0.2482
  606TMC3    C5 8980   0.855   4.202  17.248 -0.3612 -0.3361  0.6986
  606TMC3    C6 8981   0.989   4.225  17.243 -0.3085  0.0396  0.2800
  606TMC3     C 8982   0.725   4.547  17.221 -0.1327  0.4000 -0.5599
  606TMC3     O 8983   0.607   4.516  17.204 -0.8460 -0.4360  0.1175
  606TMC3     H 8984   0.999   4.566  17.224 -0.0053  1.3725  4.4740
  606TMC3    H1 8985   0.657   4.304  17.235 -0.0010  1.5128  0.5380
  606TMC3    H2 8986   1.050   4.136  17.256 -0.6108 -0.2520 -0.3064
  606TMC3    C7 8987   0.806   4.063  17.239  0.7843 -0.1041  0.4402
  606TMC3    C8 8988   1.188   4.367  17.238  0.1586 -0.0446 -0.1294
  606TMC3    O1 8989   0.889   3.971  17.239 -0.1308 -0.3759  0.4040
  606TMC3    O2 8990   1.232   4.473  17.281 -0.5270 -0.4265  0.0484
  607MPD2     C 8991   2.694   3.052  11.336  0.3050 -0.0189  0.1885
  607MPD2    C1 8992   2.740   3.133  11.439 -0.0949 -0.0086 -0.0401
  607MPD2    C2 8993   2.696   3.109  11.567 -0.6273 -0.6935  0.3529
  607MPD2    C3 8994   2.620   3.004  11.601 -0.5640  0.6121 -0.0237
  607MPD2    C4 8995   2.570   2.917  11.498  0.3184  0.3028 -0.4135
  607MPD2    C5 8996   2.608   2.945  11.366  0.0952 -0.0510  0.5203
  607MPD2     H 8997   2.725   3.185  11.639  0.9253  0.0062 -1.0076
  607MPD2    H1 8998   2.498   2.841  11.522 -1.8316  1.9201 -1.7652
  607MPD2    H2 8999   2.727   3.074  11.236  2.2260 -2.3408  0.3118
  607MPD2    H3 9000   2.570   2.888  11.282 -2.2889 -0.5685  1.9625
  607MPD2     N 9001   2.590   2.994  11.743 -0.2994 -0.3990 -0.0765
  607MPD2    H5 9002   2.630   3.062  11.806  0.1782  1.6541 -2.5652
  607MPD2    N1 9003   2.833   3.238  11.423 -0.2329 -0.9181  0.8546
  607MPD2    H7 9004   2.842   3.291  11.510 -1.0606  0.3007  0.2084
  608TMC3    C1 9005   3.021   3.360  11.363  0.2239  0.5339  0.6613
  608TMC3    C2 9006   3.060   3.358  11.490  0.2714  0.2029  0.3438
  608TMC3    C3 9007   3.175   3.419  11.523  0.0308 -0.5648 -0.7010
  608TMC3    C4 9008   3.073   3.442  11.266  0.3824 -0.1969 -0.8388
  608TMC3    C5 9009   3.194   3.496  11.302 -0.5361 -0.1885 -0.0214
  608TMC3    C6 9010   3.242   3.493  11.433  0.9726 -0.3766  0.2711
  608TMC3     C 9011   2.921   3.265  11.316  0.0671 -0.2072 -0.9253
  608TMC3     O 9012   2.916   3.219  11.205 -0.0055  0.3337  0.4183
  608TMC3     H 9013   3.036   3.267  11.545  2.5527  0.1819  1.2962
  608TMC3    H1 9014   3.028   3.441  11.167 -0.8091  0.0919 -0.3010
  608TMC3    H2 9015   3.325   3.559  11.454  0.9668  0.1053 -1.2157
  608TMC3    C7 9016   3.236   3.602  11.211 -0.1342 -0.7143 -0.0959
  608TMC3    C8 9017   3.187   3.455  11.668 -0.2390 -0.1002  0.5102
  608TMC3    O1 9018   3.161   3.620  11.113 -0.4187  0.2291 -0.3067
  608TMC3    O2 9019   3.286   3.510  11.713  0.4078 -0.2014  0.8145
  609TMC3    C1 9020   1.344   2.570   8.802  0.3276 -0.2713 -0.2856
  609TMC3    C2 9021   1.323   2.622   8.679 -0.4650  0.1114 -0.6232
  609TMC3    C3 9022   1.412   2.618   8.585 -0.0029  0.1545 -0.2598
  609TMC3    C4 9023   1.461   2.505   8.828  0.2875  0.6502 -0.4264
  609TMC3    C5 9024   1.552   2.498   8.731 -0.6719  0.2862 -0.1407
  609TMC3    C6 9025   1.534   2.546   8.609 -0.0285  0.7002 -0.2607
  609TMC3     C 9026   1.235   2.579   8.902  0.4562 -0.3452  0.1423
  609TMC3     O 9027   1.130   2.627   8.864  0.1726 -0.0114 -0.1381
  609TMC3     H 9028   1.235   2.680   8.656 -1.5689 -0.2986  2.5909
  609TMC3    H1 9029   1.484   2.470   8.928 -2.0582  0.2110 -0.0450
  609TMC3    H2 9030   1.605   2.526   8.530 -2.2543 -1.1286 -1.8100
  609TMC3    C7 9031   1.665   2.414   8.757 -0.5460  0.2263  0.2162
  609TMC3    C8 9032   1.393   2.683   8.457 -0.5932 -0.0709 -0.3824
  609TMC3    O1 9033   1.695   2.385   8.870 -0.0623 -0.2136  0.0222
  609TMC3    O2 9034   1.280   2.716   8.422 -0.3512  0.8538 -0.1193
  610TMC3    C1 9035   2.937   2.837  12.469 -0.2337  0.2412 -0.3838
  610TMC3    C2 9036   3.038   2.902  12.401  0.3854 -0.3663  0.4257
  610TMC3    C3 9037   3.144   2.830  12.362  0.0189  0.2698  0.5056
  610TMC3    C4 9038   2.940   2.699  12.481 -0.5781  0.0243  0.0068
  610TMC3    C5 9039   3.050   2.626  12.447  0.2006  0.3142 -0.6781
  610TMC3    C6 9040   3.157   2.692  12.385 -0.0897  0.2169  0.0248
  610TMC3     C 9041   2.830   2.912  12.538 -0.0170  0.5948 -0.1668
  610TMC3     O 9042   2.720   2.904  12.485  0.2764 -0.0409 -0.1926
  610TMC3     H 9043   3.047   3.010  12.407 -0.0320 -0.2307 -1.5098
  610TMC3    H1 9044   2.860   2.650  12.536 -0.4676 -0.3833 -0.2001
  610TMC3    H2 9045   3.247   2.634  12.366 -0.6765 -0.1955 -1.5068
  610TMC3    C7 9046   3.084   2.510  12.522 -0.1130 -0.0162 -0.4749
  610TMC3    C8 9047   3.247   2.903  12.290 -0.0840  0.2606 -0.0068
  610TMC3    O1 9048   3.196   2.504  12.567  0.5486  0.3971 -0.3305
  610TMC3    O2 9049   3.362   2.883  12.326  0.1456 -0.1583  0.1814
  611MPD2     C 9050   2.953   2.417  10.358  0.1421 -0.0332  0.2464
  611MPD2    C1 9051   2.894   2.526  10.296 -0.0551 -0.1478  1.4402
  611MPD2    C2 9052   2.972   2.636  10.266  0.0956  0.2344  0.1776
  611MPD2    C3 9053   3.110   2.631  10.281 -0.4384  0.8675 -0.2923
  611MPD2    C4 9054   3.170   2.514  10.335  1.0300 -0.1959 -0.2771
  611MPD2    C5 9055   3.090   2.412  10.374 -0.9158  0.2931  0.1053
  611MPD2     H 9056   2.931   2.730  10.233  0.3286 -0.1004 -1.0759
  611MPD2    H1 9057   3.276   2.505  10.355  1.1127 -0.0326 -0.6417
  611MPD2    H2 9058   2.898   2.326  10.379  0.0223  0.4777  2.0988
  611MPD2    H3 9059   3.137   2.326  10.420  1.2700  0.2658 -2.1572
  611MPD2     N 9060   3.201   2.735  10.255  0.1066  0.6056  0.1512
  611MPD2    H5 9061   3.300   2.715  10.266  0.5412  2.0219 -1.2510
  611MPD2    N1 9062   2.754   2.513  10.286 -0.4916  0.3447 -0.2451
  611MPD2    H7 9063   2.716   2.425  10.318  0.4108  0.6707  1.6690
  612TMC3    C1 9064   3.277   2.955  10.210 -0.6902 -0.3778  0.3990
  612TMC3    C2 9065   3.349   2.969  10.323 -0.2652  0.0337  0.2255
  612TMC3    C3 9066   3.412   3.089  10.349  0.0514 -0.1428 -0.2878
  612TMC3    C4 9067   3.260   3.059  10.124 -0.3636  0.2857 -0.0358
  612TMC3    C5 9068   3.325   3.177  10.145 -0.2835 -0.0766 -0.1425
  612TMC3    C6 9069   3.394   3.199  10.263  0.2030 -0.2876 -0.0318
  612TMC3     C 9070   3.167   2.861  10.206 -0.0621 -0.5069 -0.5492
  612TMC3     O 9071   3.062   2.901  10.165  0.4273  0.4174  0.6527
  612TMC3     H 9072   3.376   2.885  10.385  1.3312 -0.3183 -0.9385
  612TMC3    H1 9073   3.189   3.040  10.044  1.1357  0.1968 -1.3435
  612TMC3    H2 9074   3.446   3.292  10.277  0.0984 -0.3828  0.9869
  612TMC3    C7 9075   3.284   3.299  10.071 -0.2525 -0.4516 -0.2516
  612TMC3    C8 9076   3.501   3.094  10.460 -0.1666  0.9641 -0.4700
  612TMC3    O1 9077   3.361   3.394  10.075 -0.1955 -0.0255  0.6607
  612TMC3    O2 9078   3.545   2.985  10.498  0.4931  0.0600  0.1282
  613MPD2     C 9079   1.699   0.238  16.638  0.0620 -0.5768 -0.4996
  613MPD2    C1 9080   1.601   0.246  16.544  0.1135  0.0740 -0.1840
  613MPD2    C2 9081   1.477   0.179  16.560 -0.1627 -0.0832 -0.4335
  613MPD2    C3 9082   1.474   0.085  16.655  0.2356  0.0465  0.1743
  613MPD2    C4 9083   1.574   0.056  16.733 -0.0065  0.0631 -0.8132
  613MPD2    C5 9084   1.687   0.141  16.728  0.4546 -1.1917 -0.6136
  613MPD2     H 9085   1.398   0.202  16.489 -1.3125  0.6461  1.0995
  613MPD2    H1 9086   1.570   4.703  16.809 -0.3641  0.1479 -0.7473
  613MPD2    H2 9087   1.788   0.300  16.636 -0.2924  0.0400  3.1046
  613MPD2    H3 9088   1.762   0.116  16.801  1.5987  1.8677 -0.7523
  613MPD2     N 9089   1.364   4.720  16.661  0.6537 -0.1104 -0.3098
  613MPD2    H5 9090   1.366   4.655  16.740  2.0736 -1.7556 -1.6888
  613MPD2    N1 9091   1.638   0.298  16.416  0.6326  0.2921  0.0803
  613MPD2    H7 9092   1.735   0.285  16.389  0.2638 -0.8161 -0.7207
  614TMC3    C1 9093   1.604   0.280  16.178 -0.2937  0.1259 -0.0758
  614TMC3    C2 9094   1.702   0.189  16.163 -0.2267  0.1594  0.0215
  614TMC3    C3 9095   1.724   0.128  16.046  0.0635 -0.4459 -0.8944
  614TMC3    C4 9096   1.540   0.329  16.075  0.3753 -0.1653  0.0431
  614TMC3    C5 9097   1.577   0.288  15.954  0.5460  0.7227 -0.3740
  614TMC3    C6 9098   1.657   0.177  15.936  0.3055 -0.0321 -0.2323
  614TMC3     C 9099   1.548   0.315  16.313  0.0386  0.3119  0.0782
  614TMC3     O 9100   1.428   0.350  16.317 -0.4325  0.0755  0.2478
  614TMC3     H 9101   1.741   0.145  16.254 -0.1952 -1.4057 -0.7568
  614TMC3    H1 9102   1.475   0.414  16.092 -0.7094 -0.8601 -0.6735
  614TMC3    H2 9103   1.659   0.124  15.842 -0.4330  2.0710 -1.4484
  614TMC3    C7 9104   1.505   0.353  15.848 -0.1956  0.8883  0.4828
  614TMC3    C8 9105   1.717   4.706  16.068 -0.2592  0.2339 -0.0194
  614TMC3    O1 9106   1.509   0.475  15.847  0.0168 -0.3000  0.7271
  614TMC3    O2 9107   1.749   4.673  16.181  0.2744 -0.2085  0.7463
  615MPD2     C 9108   1.134   1.055  15.304  0.1104  0.0804 -0.3723
  615MPD2    C1 9109   1.091   1.150  15.402  0.4667  0.4544  0.1542
  615MPD2    C2 9110   0.982   1.232  15.368  0.4176  1.3233 -0.4802
  615MPD2    C3 9111   0.919   1.211  15.241  1.0947  0.5155  0.1351
  615MPD2    C4 9112   0.958   1.110  15.153 -0.3512  0.5449 -0.1415
  615MPD2    C5 9113   1.066   1.037  15.191  0.2327 -0.2612 -0.9161
  615MPD2     H 9114   0.963   1.312  15.439  1.6167 -0.6956  2.0944
  615MPD2    H1 9115   0.911   1.104  15.056  0.4635  1.3460 -0.5842
  615MPD2    H2 9116   1.214   0.987  15.330 -0.0316  0.3228  0.6907
  615MPD2    H3 9117   1.098   0.954  15.129  0.4470  0.4379 -1.7506
  615MPD2     N 9118   0.826   1.301  15.186  0.1829 -0.2701  0.5518
  615MPD2    H5 9119   0.780   1.271  15.100 -0.6447  1.9263  0.2300
  615MPD2    N1 9120   1.167   1.178  15.523  0.1537  0.4896  0.0050
  615MPD2    H7 9121   1.126   1.252  15.578  0.9415  0.6215  0.4086
  616TMC3    C1 9122   1.369   1.217  15.643  0.1348 -0.3585  0.3590
  616TMC3    C2 9123   1.502   1.205  15.644  0.4868 -0.0479  0.1684
  616TMC3    C3 9124   1.572   1.263  15.741 -0.6577  0.8758 -0.1131
  616TMC3    C4 9125   1.299   1.283  15.744 -0.7208 -0.1787 -0.4860
  616TMC3    C5 9126   1.374   1.352  15.832  0.2432  0.3684  0.1650
  616TMC3    C6 9127   1.515   1.338  15.838 -0.0375 -0.0346 -0.8079
  616TMC3     C 9128   1.304   1.149  15.528 -0.0034 -0.8056 -0.7273
  616TMC3     O 9129   1.375   1.083  15.453 -0.3345  0.4103 -0.1185
  616TMC3     H 9130   1.552   1.146  15.568 -0.5496  1.3283 -1.5839
  616TMC3    H1 9131   1.192   1.298  15.747 -1.0042 -2.1715 -1.0379
  616TMC3    H2 9132   1.578   1.387  15.911 -2.4079 -1.0324  1.9478
  616TMC3    C7 9133   1.324   1.449  15.922 -0.3997 -0.5713  0.0153
  616TMC3    C8 9134   1.712   1.298  15.714 -0.1493 -0.5097 -0.0555
  616TMC3    O1 9135   1.405   1.491  16.004 -0.0436  0.0539 -0.3305
  616TMC3    O2 9136   1.768   1.216  15.642  0.6108  0.4746 -0.1670
  617MPD2     C 9137   3.885   4.522  13.904  0.2953  0.5018  0.3293
  617MPD2    C1 9138   3.980   4.448  13.970 -0.4801 -0.1842 -0.3216
  617MPD2    C2 9139   3.937   4.338  14.045  0.6543 -0.3245 -0.1597
  617MPD2    C3 9140   3.801   4.295  14.043 -0.4835 -0.0866  0.7351
  617MPD2    C4 9141   3.720   4.364  13.965 -0.6128 -0.2285 -0.3684
  617MPD2    C5 9142   3.761   4.482  13.903 -0.2495 -1.1092  0.3488
  617MPD2     H 9143   4.011   4.289  14.107  0.5572 -0.8740 -0.4766
  617MPD2    H1 9144   3.619   4.331  13.943  0.0150 -1.3037 -1.5985
  617MPD2    H2 9145   3.908   4.615  13.853  1.0457  0.1601  0.0457
  617MPD2    H3 9146   3.695   4.533  13.834  2.6188  1.3804 -0.5644
  617MPD2     N 9147   3.751   4.174  14.106 -0.0646  0.0031  0.2922
  617MPD2    H5 9148   3.661   4.143  14.073 -0.3975  0.7889  0.4614
  617MPD2    N1 9149   4.114   4.500  13.978  0.3806  0.2423 -0.0282
  617MPD2    H7 9150   4.134   4.595  13.947  0.8445 -0.3015 -1.3694
  618TMC3    C1 9151   4.346   4.518  14.000  0.2308 -0.5404  0.2396
  618TMC3    C2 9152   4.467   4.461  14.019  0.0970  0.7989 -0.0694
  618TMC3    C3 9153   4.576   4.541  14.023 -0.5357  0.1220 -0.2323
  618TMC3    C4 9154   4.328   4.653  13.991 -0.0777  0.7870 -0.2863
  618TMC3    C5 9155   4.440   0.008  13.991  0.4460  0.3217 -0.1181
  618TMC3    C6 9156   4.562   4.677  14.009 -0.3449 -0.3747  0.1412
  618TMC3     C 9157   4.233   4.431  14.009  0.0474  0.3334 -0.4735
  618TMC3     O 9158   4.241   4.309  14.033 -0.3432 -0.0043  0.0321
  618TMC3     H 9159   4.485   4.355  14.008  1.7677  1.1916 -1.2627
  618TMC3    H1 9160   4.234   4.701  13.967  1.7793  3.3755 -2.3451
  618TMC3    H2 9161   4.644   0.022  14.020 -1.8319  0.7719  3.9319
  618TMC3    C7 9162   4.428   0.090  13.868 -0.4433  0.4947  0.4181
  618TMC3    C8 9163   4.689   4.473  13.949 -0.6952  0.4287 -0.0138
  618TMC3    O1 9164   4.323   0.095  13.808 -0.6155 -0.0488 -0.1295
  618TMC3    O2 9165   4.719   4.360  13.981  0.2686  1.0537  0.1280
  619MPD2     C 9166   0.762   0.900  13.170  0.6895  0.1905 -0.4692
  619MPD2    C1 9167   0.687   1.002  13.129  0.2778 -0.2170  0.2197
  619MPD2    C2 9168   0.550   0.981  13.120 -0.3283  0.0702  0.1840
  619MPD2    C3 9169   0.491   0.861  13.163 -0.1963 -0.0599 -0.9193
  619MPD2    C4 9170   0.571   0.752  13.194  0.4260  0.0955  0.4205
  619MPD2    C5 9171   0.710   0.775  13.207  0.2877 -0.6958  0.1524
  619MPD2     H 9172   0.490   1.068  13.097  0.4872  1.7729  4.5025
  619MPD2    H1 9173   0.529   0.657  13.224  0.4633 -0.2972 -0.8132
  619MPD2    H2 9174   0.869   0.908  13.181  0.8061 -1.8070 -0.0860
  619MPD2    H3 9175   0.778   0.697  13.239  2.6914  1.4885  0.4288
  619MPD2     N 9176   0.347   0.841  13.183 -0.1863  0.3166 -0.4349
  619MPD2    H5 9177   0.314   0.753  13.222 -1.1207  0.6853 -0.3849
  619MPD2    N1 9178   0.746   1.130  13.097 -0.2438 -0.5241  0.1023
  619MPD2    H7 9179   0.686   1.197  13.050  1.1733  0.5454 -0.1831
  620TMC3    C1 9180   0.884   1.314  13.074  0.9537 -0.2296  0.6045
  620TMC3    C2 9181   0.826   1.347  12.956 -0.5179 -0.6626 -0.1967
  620TMC3    C3 9182   0.798   1.474  12.930 -0.2864  0.6700 -0.0322
  620TMC3    C4 9183   0.888   1.403  13.180 -0.8314  0.9800 -0.6265
  620TMC3    C5 9184   0.844   1.532  13.152 -0.1807  0.0450 -0.1388
  620TMC3    C6 9185   0.810   1.573  13.023  0.3956  0.7892  0.2242
  620TMC3     C 9186   0.871   1.180  13.125  0.0738  0.2280 -0.1099
  620TMC3     O 9187   0.952   1.136  13.201  0.1436 -0.4124 -0.1467
  620TMC3     H 9188   0.811   1.275  12.876 -0.3166 -0.8349 -0.0753
  620TMC3    H1 9189   0.916   1.373  13.280  1.5447  1.7649 -1.0420
  620TMC3    H2 9190   0.760   1.666  12.998 -3.6754 -1.5530 -0.2721
  620TMC3    C7 9191   0.797   1.612  13.263  0.2477 -0.0504 -0.2167
  620TMC3    C8 9192   0.738   1.532  12.808  0.5336 -0.8203 -0.4901
  620TMC3    O1 9193   0.758   1.552  13.363 -0.3714  0.4601 -0.3758
  620TMC3    O2 9194   0.820   1.600  12.751 -0.4340  0.3452 -0.0824
  621MPD2     C 9195   0.834   1.515   9.483  0.2457 -0.4930  0.9060
  621MPD2    C1 9196   0.895   1.628   9.428 -0.9798 -0.0346  0.7464
  621MPD2    C2 9197   0.995   1.688   9.495 -0.6238 -0.2638 -0.0278
  621MPD2    C3 9198   1.042   1.639   9.614  0.3945 -0.0990 -0.0397
  621MPD2    C4 9199   0.977   1.534   9.678 -0.0048  0.1422 -0.5687
  621MPD2    C5 9200   0.874   1.480   9.610  0.2564 -0.1964  0.8028
  621MPD2     H 9201   1.045   1.777   9.459  1.5543 -0.9352  1.3418
  621MPD2    H1 9202   1.015   1.482   9.765  0.2762  0.2876 -0.6052
  621MPD2    H2 9203   0.755   1.459   9.434  0.8162  0.1425 -0.7388
  621MPD2    H3 9204   0.824   1.396   9.656 -1.3947 -0.0560 -0.7855
  621MPD2     N 9205   1.164   1.697   9.664  0.3438  0.0889  0.6538
  621MPD2    H5 9206   1.213   1.755   9.597 -1.8840 -0.5117 -1.4882
  621MPD2    N1 9207   0.848   1.680   9.303 -0.1147  0.6931 -0.3405
  621MPD2    H7 9208   0.888   1.770   9.278 -0.8631  1.4111  1.0378
  622TMC3    C1 9209   0.742   1.695   9.093  0.0569  0.4619 -0.0893
  622TMC3    C2 9210   0.739   1.832   9.109 -0.3512  0.0026  0.0420
  622TMC3    C3 9211   0.770   1.903   9.000  0.2079 -0.4666  0.3945
  622TMC3    C4 9212   0.735   1.633   8.969  0.2740 -0.1029 -0.9697
  622TMC3    C5 9213   0.757   1.716   8.858 -0.0550  0.4162  0.2326
  622TMC3    C6 9214   0.776   1.851   8.878  0.0397 -0.4095 -0.4306
  622TMC3     C 9215   0.765   1.616   9.215  0.3672 -0.1040 -0.3476
  622TMC3     O 9216   0.727   1.498   9.209 -0.4983  0.5418  0.5414
  622TMC3     H 9217   0.713   1.881   9.203  0.1583 -1.2629  0.8410
  622TMC3    H1 9218   0.769   1.530   8.959  1.1729  0.1344 -0.3489
  622TMC3    H2 9219   0.788   1.918   8.793 -1.6292 -1.3208 -1.3838
  622TMC3    C7 9220   0.737   1.664   8.726 -0.2986  0.3623  0.3776
  622TMC3    C8 9221   0.711   2.029   9.004  0.7630 -0.0204 -0.7176
  622TMC3    O1 9222   0.790   1.733   8.641 -0.4249 -0.4074 -0.1777
  622TMC3    O2 9223   0.765   2.116   8.937  0.2529 -0.2144  0.0526
  623MPD2     C 9224   4.299   1.526  15.904  0.1166 -0.2320  0.4218
  623MPD2    C1 9225   4.260   1.479  16.031  0.1584 -0.4997 -0.1042
  623MPD2    C2 9226   4.361   1.436  16.124 -0.2217  1.0635  0.0871
  623MPD2    C3 9227   4.496   1.465  16.096 -0.4752  0.6718  0.3108
  623MPD2    C4 9228   4.527   1.524  15.973  0.5554  0.2807  0.4309
  623MPD2    C5 9229   4.429   1.538  15.877  0.2727 -0.9555 -0.3640
  623MPD2     H 9230   4.336   1.395  16.221 -1.1423 -0.9765 -1.0153
  623MPD2    H1 9231   4.626   1.551  15.938 -0.5458  2.3359 -1.0571
  623MPD2    H2 9232   4.224   1.549  15.829  0.3861 -0.3987  0.1015
  623MPD2    H3 9233   4.454   1.579  15.780 -1.5398  1.5687  0.2138
  623MPD2     N 9234   4.579   1.461  16.209 -0.2917 -0.0930  0.2779
  623MPD2    H5 9235   4.527   1.435  16.292  2.8952 -3.7857  1.0958
  623MPD2    N1 9236   4.120   1.460  16.042 -0.3553  0.5144 -0.5253
  623MPD2    H7 9237   4.065   1.516  15.978 -1.6209  0.1432  0.2230
  624TMC3    C1 9238   0.181   1.453  16.520 -0.2882 -0.4739  0.1369
  624TMC3    C2 9239   0.090   1.482  16.617  0.2998 -0.2355  0.2429
  624TMC3    C3 9240   4.692   1.534  16.575  0.9008  0.2404 -0.0326
  624TMC3    C4 9241   0.156   1.450  16.383 -0.3991  0.8270 -0.0857
  624TMC3    C5 9242   0.031   1.490  16.350  0.7322 -0.3525  0.0791
  624TMC3    C6 9243   4.663   1.527  16.440  0.3015 -0.0807  0.1801
  624TMC3     C 9244   0.312   1.412  16.557 -0.4123  0.4851 -1.1728
  624TMC3     O 9245   0.368   1.448  16.660 -0.0863 -0.5015 -0.4827
  624TMC3     H 9246   0.118   1.487  16.722  0.7482 -0.3670  0.1264
  624TMC3    H1 9247   0.232   1.443  16.306 -0.8712 -0.6905 -0.4150
  624TMC3    H2 9248   4.573   1.581  16.412  0.3374 -0.7474 -1.2347
  624TMC3    C7 9249   4.714   1.477  16.210  0.1872  0.2800 -0.1349
  624TMC3    C8 9250   4.568   1.505  16.653  0.7326  0.2773 -0.7495
  624TMC3    O1 9251   0.065   1.461  16.116 -0.0312 -0.1494 -0.4601
  624TMC3    O2 9252   4.517   1.395  16.638 -0.2451 -0.0799 -0.3486
  625MPD2     C 9253   0.251   2.389   0.509  0.2673  0.0463 -0.1014
  625MPD2    C1 9254   0.294   2.500   0.586  0.1818 -0.3687 -0.3569
  625MPD2    C2 9255   0.422   2.512   0.623 -0.6341 -0.2580  0.5386
  625MPD2    C3 9256   0.512   2.408   0.604  0.1968  0.4250 -0.7607
  625MPD2    C4 9257   0.472   2.296   0.530 -0.1497  0.1538 -0.0932
  625MPD2    C5 9258   0.341   2.284   0.486  0.9491 -0.0977 -0.1340
  625MPD2     H 9259   0.451   2.600   0.681 -2.3697  0.1486  0.7701
  625MPD2    H1 9260   0.538   2.214   0.503  2.4697  2.2121  0.1072
  625MPD2    H2 9261   0.151   2.386   0.467 -1.0150  1.6909  2.8099
  625MPD2    H3 9262   0.313   2.190   0.440  0.2287  0.3991 -0.7086
  625MPD2     N 9263   0.638   2.434   0.642 -0.0326  0.5462 -0.8022
  625MPD2    H5 9264   0.644   2.522   0.693  0.2131 -0.0686  0.2364
  625MPD2    N1 9265   0.211   2.610   0.611 -0.1231 -0.2077  0.4355
  625MPD2    H7 9266   0.257   2.685   0.661 -1.5763  0.0315  1.3973
  626TMC3    C1 9267   0.052   2.768   0.598  0.3707 -0.6427  0.1527
  626TMC3    C2 9268   0.015   2.851   0.503  0.2639  0.8058 -0.4040
  626TMC3    C3 9269   0.027   2.986   0.531  0.3676 -0.2359 -0.3417
  626TMC3    C4 9270   0.127   2.813   0.703 -0.5974  0.2227  0.1751
  626TMC3    C5 9271   0.166   2.944   0.717  0.0983 -0.3234  0.1582
  626TMC3    C6 9272   0.107   3.036   0.630 -0.0371 -0.2669  0.2403
  626TMC3     C 9273   0.087   2.631   0.563 -0.0421 -0.3395  0.2878
  626TMC3     O 9274   4.724   2.567   0.508  0.3100 -0.0997 -0.4100
  626TMC3     H 9275   4.671   2.808   0.431 -0.5862  0.3722  0.6635
  626TMC3    H1 9276   0.165   2.750   0.783 -0.2716  0.8182  0.4957
  626TMC3    H2 9277   0.144   3.138   0.623 -0.3735 -0.1112  0.7350
  626TMC3    C7 9278   0.306   2.951   0.727  1.0240  1.1596  0.1971
  626TMC3    C8 9279   4.707   3.073   0.427 -0.1695  0.4218 -0.8449
  626TMC3    O1 9280   0.358   2.848   0.685 -0.6328  0.4064  1.0325
  626TMC3    O2 9281   4.663   3.023   0.327 -0.1663  0.2443  0.3591
  627MPD2     C 9282   3.287   2.994  14.706 -0.3716 -0.1322  0.8293
  627MPD2    C1 9283   3.331   2.961  14.832  0.1864 -0.2351 -0.0257
  627MPD2    C2 9284   3.257   2.875  14.917  0.1596  0.2718  0.3525
  627MPD2    C3 9285   3.146   2.812  14.872  0.3320  0.0978  0.8234
  627MPD2    C4 9286   3.105   2.838  14.747  0.1413  0.1726 -0.3745
  627MPD2    C5 9287   3.169   2.930  14.671 -1.1269 -0.6183 -0.2097
  627MPD2     H 9288   3.305   2.835  15.006  0.8985  1.5079  0.5174
  627MPD2    H1 9289   3.026   2.780  14.701 -0.1642  0.8070 -0.6450
  627MPD2    H2 9290   3.330   3.062  14.634  0.7202  0.3023  1.8864
  627MPD2    H3 9291   3.134   2.938  14.569 -1.8288  0.3977  0.1146
  627MPD2     N 9292   3.094   2.694  14.935  0.0224 -0.5662 -0.0377
  627MPD2    H5 9293   3.025   2.637  14.886 -2.4401  0.3359  2.3401
  627MPD2    N1 9294   3.466   2.992  14.873 -0.1396 -0.2314  0.0275
  627MPD2    H7 9295   3.498   2.939  14.954 -0.2765 -0.7814 -0.2721
  628TMC3    C1 9296   3.685   3.068  14.865  0.5973 -0.1051  0.2144
  628TMC3    C2 9297   3.729   2.969  14.941 -0.3118 -0.0808  0.0429
  628TMC3    C3 9298   3.860   2.973  14.978 -0.4456  0.0518 -0.1574
  628TMC3    C4 9299   3.768   3.169  14.820  0.0332  0.2148 -0.1626
  628TMC3    C5 9300   3.897   3.156  14.843 -0.1341  0.1192 -0.0204
  628TMC3    C6 9301   3.947   3.057  14.917  0.4062 -0.6808  0.4061
  628TMC3     C 9302   3.553   3.084  14.818 -0.5572  0.2569  0.6913
  628TMC3     O 9303   3.533   3.154  14.721 -0.0002 -0.3929 -0.2678
  628TMC3     H 9304   3.657   2.898  14.981 -0.1973  0.7784  1.7597
  628TMC3    H1 9305   3.724   3.241  14.752 -0.9280  1.3346  1.6424
  628TMC3    H2 9306   4.047   3.070  14.957  0.2100 -0.1334  0.7192
  628TMC3    C7 9307   3.994   3.263  14.815  0.1458 -0.6759  0.3634
  628TMC3    C8 9308   3.918   2.873  15.061 -0.3535 -0.1080  0.3847
  628TMC3    O1 9309   4.111   3.224  14.809  0.0278 -0.1905  0.3236
  628TMC3    O2 9310   4.037   2.851  15.030 -0.4443  0.0681  0.0301
  629MPD2     C 9311   2.110   1.634  15.675  0.4808 -0.6392  0.3328
  629MPD2    C1 9312   2.004   1.697  15.744  0.7213  0.0691  0.3745
  629MPD2    C2 9313   1.885   1.623  15.759 -0.3730  0.2078  0.2217
  629MPD2    C3 9314   1.871   1.493  15.723 -0.1470  0.1434  0.5186
  629MPD2    C4 9315   1.982   1.427  15.671  0.2279  0.0813 -0.4565
  629MPD2    C5 9316   2.097   1.500  15.643  0.7592 -0.2382 -0.3106
  629MPD2     H 9317   1.800   1.664  15.813  0.9265  1.8867  1.0142
  629MPD2    H1 9318   1.982   1.319  15.661 -1.4042  0.2513 -2.2917
  629MPD2    H2 9319   2.207   1.676  15.650  0.1059 -0.0703 -0.1722
  629MPD2    H3 9320   2.183   1.447  15.604  1.9649  1.4873  0.0375
  629MPD2     N 9321   1.748   1.431  15.745  0.4382  0.4342 -0.4637
  629MPD2    H5 9322   1.667   1.486  15.773 -1.1396 -2.2186  0.2988
  629MPD2    N1 9323   2.017   1.824  15.801  0.6989 -0.2684  0.0857
  629MPD2    H7 9324   2.098   1.876  15.771  0.2188 -0.6635 -1.8587
  630TMC3    C1 9325   1.989   2.002  15.962 -0.0677  0.0751  0.1254
  630TMC3    C2 9326   2.054   2.096  15.890 -0.4873 -0.2169  0.5031
  630TMC3    C3 9327   2.070   2.219  15.953 -0.2280  0.2675 -0.0592
  630TMC3    C4 9328   1.943   2.019  16.090 -0.2510 -0.1881 -0.4441
  630TMC3    C5 9329   1.983   2.131  16.156  0.0527 -1.2569  0.8787
  630TMC3    C6 9330   2.034   2.235  16.084 -0.1792  0.1924  0.3963
  630TMC3     C 9331   1.937   1.874  15.901  0.4597  0.1132 -0.1864
  630TMC3     O 9332   1.843   1.817  15.962 -0.4713 -0.9535  0.4209
  630TMC3     H 9333   2.066   2.087  15.783  0.0627 -3.5875  0.8422
  630TMC3    H1 9334   1.931   1.924  16.139  0.5241 -0.7775 -1.3967
  630TMC3    H2 9335   2.041   2.330  16.136  2.6124  0.5410 -0.6362
  630TMC3    C7 9336   2.072   2.108  16.265  0.1718 -0.2400 -0.0973
  630TMC3    C8 9337   2.184   2.294  15.915 -0.3777 -0.8053  0.4000
  630TMC3    O1 9338   2.041   2.014  16.337  0.4046  0.2034 -0.1151
  630TMC3    O2 9339   2.229   2.346  16.016 -0.7215 -0.2717 -0.4150
  631MPD2     C 9340   4.650   1.657  14.960 -0.4302 -0.3207 -0.0333
  631MPD2    C1 9341   4.706   1.673  15.087 -0.2661 -0.3365 -0.1949
  631MPD2    C2 9342   0.116   1.639  15.114  0.2415  0.1375  0.5783
  631MPD2    C3 9343   0.188   1.562  15.024  0.2384  0.3240 -0.0118
  631MPD2    C4 9344   0.124   1.533  14.906  0.0305  0.2065 -0.8044
  631MPD2    C5 9345   0.002   1.582  14.871  0.1031  0.0912  0.1013
  631MPD2     H 9346   0.169   1.672  15.203  0.5635 -0.0026  0.4350
  631MPD2    H1 9347   0.180   1.486  14.826  2.4278  1.6980  0.0253
  631MPD2    H2 9348   4.557   1.706  14.934 -0.4020  0.2732  1.0004
  631MPD2    H3 9349   4.688   1.566  14.771  0.8753 -1.5383  0.0647
  631MPD2     N 9350   0.327   1.535  15.047  0.1142 -0.5112  0.6772
  631MPD2    H5 9351   0.360   1.575  15.134  0.5080 -0.7011  0.6128
  631MPD2    N1 9352   4.636   1.758  15.173  0.5349 -0.0975  0.6672
  631MPD2    H7 9353   4.544   1.791  15.149  1.6495  3.0883  0.8157
  632TMC3    C1 9354   4.637   1.946  15.304  0.1028 -0.5921  0.4339
  632TMC3    C2 9355   4.642   1.985  15.438 -0.8051  0.4056 -0.0120
  632TMC3    C3 9356   4.697   2.107  15.474 -0.8831 -0.1376 -0.5228
  632TMC3    C4 9357   4.673   2.033  15.206  0.6153 -0.5318 -0.3845
  632TMC3    C5 9358   4.713   2.161  15.246  1.1177 -0.7731  0.0440
  632TMC3    C6 9359   0.010   2.195  15.376  0.4039 -0.0830 -0.2873
  632TMC3     C 9360   4.698   1.821  15.281  0.9544  0.2496  0.1154
  632TMC3     O 9361   0.036   1.775  15.371 -0.0290  0.8655  0.2262
  632TMC3     H 9362   4.610   1.922  15.520  1.8241 -3.1099 -1.6947
  632TMC3    H1 9363   4.697   1.996  15.107  0.8022 -0.8335 -0.2270
  632TMC3    H2 9364   0.061   2.290  15.391 -0.4811  0.2500  0.6297
  632TMC3    C7 9365   0.054   2.235  15.142  0.0527  0.6598 -0.3711
  632TMC3    C8 9366   4.648   2.156  15.601 -0.0860  0.7027  0.5412
  632TMC3    O1 9367   0.003   2.215  15.032 -0.5005  0.3225  0.3252
  632TMC3    O2 9368   4.572   2.093  15.672 -0.3075 -0.1231 -0.2007
  633MPD2     C 9369   0.016   0.041  17.338  0.6776  0.6003  0.5617
  633MPD2    C1 9370   0.092   4.687  17.252  0.2567  0.2448  0.4055
  633MPD2    C2 9371   0.077   4.556  17.248  0.1288  0.6839 -0.4341
  633MPD2    C3 9372   4.712   4.488  17.332 -0.6009  0.0745 -0.2633
  633MPD2    C4 9373   4.635   4.561  17.423 -0.7474  0.6432  1.0453
  633MPD2    C5 9374   4.651   4.699  17.425 -0.8270 -0.0443  0.0720
  633MPD2     H 9375   0.145   4.502  17.182 -2.1452 -0.0806 -2.1355
  633MPD2    H1 9376   4.559   4.517  17.487 -2.6157  1.0387 -0.9030
  633MPD2    H2 9377   0.016   0.149  17.347  2.3028  0.6771 -0.4318
  633MPD2    H3 9378   4.582   0.035  17.483 -0.0810  0.0698  0.8476
  633MPD2     N 9379   4.693   4.345  17.328 -0.5562  0.7472 -0.6913
  633MPD2    H5 9380   4.719   4.304  17.239  1.1518 -0.2520  0.2703
  633MPD2    N1 9381   0.182   0.016  17.158  0.1826 -0.4815 -0.4592
  633MPD2    H7 9382   0.220   4.676  17.089  2.9030  0.0852  0.4847
  634TMC3    C1 9383   0.213   0.173  16.980  0.2596 -0.3895  0.4393
  634TMC3    C2 9384   0.272   0.075  16.904 -0.1187 -0.2317  0.5085
  634TMC3    C3 9385   0.270   0.088  16.772  0.7001 -0.6002  0.5288
  634TMC3    C4 9386   0.153   0.283  16.924 -0.7841 -0.5882  0.2814
  634TMC3    C5 9387   0.149   0.293  16.787  0.2805 -0.8814  0.3742
  634TMC3    C6 9388   0.216   0.199  16.711  0.3214  0.3341  0.5302
  634TMC3     C 9389   0.185   0.150  17.127  0.1484  0.4733  0.7940
  634TMC3     O 9390   0.152   0.248  17.198 -0.6090  0.3450 -0.0682
  634TMC3     H 9391   0.318   4.714  16.951  1.8419 -0.5655 -1.9805
  634TMC3    H1 9392   0.106   0.351  16.994 -0.3408  0.6516 -0.6198
  634TMC3    H2 9393   0.201   0.193  16.603  0.1557  0.0310  0.5701
  634TMC3    C7 9394   0.103   0.407  16.713  0.0122 -0.1098 -0.5238
  634TMC3    C8 9395   0.304   4.690  16.697 -0.7199  0.1546  0.1907
  634TMC3    O1 9396   0.141   0.417  16.597  0.0532  0.3042  0.1851
  634TMC3    O2 9397   0.297   4.586  16.761 -0.1686 -0.5334 -0.3181
  635TMC3    C1 9398   0.712   1.102  17.072 -0.1193  0.3208 -0.3209
  635TMC3    C2 9399   0.780   0.990  17.095  0.5862 -0.2787  0.3002
  635TMC3    C3 9400   0.714   0.881  17.158 -0.6654 -0.3163  0.3130
  635TMC3    C4 9401   0.570   1.099  17.110  0.0300  0.3621 -0.1169
  635TMC3    C5 9402   0.514   0.999  17.183  0.0878  0.3001 -0.3194
  635TMC3    C6 9403   0.586   0.886  17.216  0.2518 -0.0519  0.2373
  635TMC3     C 9404   0.776   1.222  17.111  0.1032  0.2615 -0.6707
  635TMC3     O 9405   0.713   1.316  17.159  0.1309  0.3681  0.0994
  635TMC3     H 9406   0.886   0.981  17.079  1.0227 -0.1679  3.1414
  635TMC3    H1 9407   0.509   1.183  17.080  0.6977  0.9879  0.2696
  635TMC3    H2 9408   0.526   0.806  17.259 -1.7261  0.4223 -1.6358
  635TMC3    C7 9409   0.438   1.046  17.294 -0.3785  0.8551  0.0452
  635TMC3    C8 9410   0.749   0.753  17.097 -0.1477 -0.2675 -0.9631
  635TMC3    O1 9411   0.373   1.152  17.277 -0.2418  0.1701  0.6860
  635TMC3    O2 9412   0.728   0.659  17.172  1.0024  0.6030  0.1208
  636MPD2     C 9413   1.110   0.292  15.938 -0.0030  0.0485 -0.3230
  636MPD2    C1 9414   1.150   0.322  16.067 -0.8189  0.0697 -0.5474
  636MPD2    C2 9415   1.163   0.218  16.158 -0.7706  0.7162  0.0573
  636MPD2    C3 9416   1.106   0.097  16.139 -0.0887 -0.1812 -0.6510
  636MPD2    C4 9417   1.062   0.076  16.013 -0.1627  0.2810 -0.8455
  636MPD2    C5 9418   1.068   0.169  15.915  0.0775  0.4075  0.2174
  636MPD2     H 9419   1.212   0.237  16.253 -1.7048 -0.2618  0.7371
  636MPD2    H1 9420   1.020   4.704  15.986  3.0004 -1.0122 -1.1202
  636MPD2    H2 9421   1.098   0.362  15.856 -2.2217 -1.6923 -1.4901
  636MPD2    H3 9422   1.028   0.135  15.821  0.4820  2.6393 -0.7732
  636MPD2     N 9423   1.105   0.002  16.244  0.2363 -0.4899 -0.2990
  636MPD2    H5 9424   1.149   0.040  16.327 -0.6045  1.2627 -0.6506
  636MPD2    N1 9425   1.201   0.454  16.096  0.0934  0.6072  0.8186
  636MPD2    H7 9426   1.251   0.460  16.184  0.4185  0.9135  0.6140
  637TMC3    C1 9427   1.079   4.530  16.359 -0.0619  0.9017  1.1938
  637TMC3    C2 9428   1.088   4.609  16.464 -0.2810 -0.4480  0.7541
  637TMC3    C3 9429   1.192   4.599  16.550  0.8384  0.4921  0.9420
  637TMC3    C4 9430   1.166   4.419  16.344  0.2562 -0.1887 -1.2376
  637TMC3    C5 9431   1.277   4.407  16.422  1.0321 -0.4108  0.1878
  637TMC3    C6 9432   1.286   4.491  16.533 -0.0362  0.1998  0.3464
  637TMC3     C 9433   1.061   4.597  16.232 -0.0198 -0.1497  0.2478
  637TMC3     O 9434   1.016   4.534  16.135 -0.1062 -0.7730 -0.2456
  637TMC3     H 9435   1.021   4.694  16.468 -0.2657 -0.4616  1.3320
  637TMC3    H1 9436   1.150   4.374  16.246 -4.0138 -0.8370 -0.2311
  637TMC3    H2 9437   1.384   4.500  16.579  0.5395  0.9680 -1.0154
  637TMC3    C7 9438   1.405   4.406  16.358 -0.6375 -0.6867  0.8153
  637TMC3    C8 9439   1.252   0.006  16.583  0.1750  0.5876  0.9144
  637TMC3    O1 9440   1.506   4.449  16.412  0.3142  0.7143 -0.5450
  637TMC3    O2 9441   1.213   0.094  16.507 -0.3127  0.2995 -0.5498
  638MPD2     C 9442   1.096   3.776  14.905 -0.0969  0.8607 -0.1406
  638MPD2    C1 9443   1.048   3.678  14.817 -0.0103  0.3449 -0.1516
  638MPD2    C2 9444   1.010   3.556  14.883 -1.0855 -0.1934 -0.2377
  638MPD2    C3 9445   1.041   3.534  15.012 -0.1963 -0.6671  0.2370
  638MPD2    C4 9446   1.099   3.627  15.093 -0.0016  0.0914  0.2488
  638MPD2    C5 9447   1.120   3.753  15.040 -0.3197 -0.9616 -0.2410
  638MPD2     H 9448   0.968   3.485  14.813 -0.0162 -0.0448 -1.0213
  638MPD2    H1 9449   1.132   3.616  15.196 -0.3044 -1.1810  0.2167
  638MPD2    H2 9450   1.137   3.868  14.865  0.7343  1.3165  1.7876
  638MPD2    H3 9451   1.178   3.821  15.102 -0.3534 -0.6595 -0.5384
  638MPD2     N 9452   1.017   3.410  15.058 -0.0989 -0.2158 -0.2505
  638MPD2    H5 9453   0.985   3.345  14.988  1.5003 -0.9810 -0.2807
  638MPD2    N1 9454   1.047   3.699  14.673 -0.2952  0.0737 -0.3648
  638MPD2    H7 9455   1.075   3.793  14.644  1.4457  0.0814  1.3380
  639TMC3    C1 9456   0.956   3.249  15.200  0.0354 -0.2835 -0.7878
  639TMC3    C2 9457   0.853   3.202  15.124  0.0750 -0.7913  0.0357
  639TMC3    C3 9458   0.798   3.085  15.155 -0.5467 -0.7410  0.7037
  639TMC3    C4 9459   0.994   3.177  15.309 -0.4374  0.4042 -0.4794
  639TMC3    C5 9460   0.949   3.048  15.332  0.0435 -0.3080 -0.5753
  639TMC3    C6 9461   0.831   3.014  15.263 -0.4589  0.5919  0.6847
  639TMC3     C 9462   1.014   3.375  15.187  0.3476 -0.0704  0.0278
  639TMC3     O 9463   1.034   3.445  15.286  0.4296 -0.0671  0.0183
  639TMC3     H 9464   0.820   3.256  15.036  2.0832 -0.1042 -0.3043
  639TMC3    H1 9465   1.076   3.223  15.362 -1.6184 -1.1565  2.7666
  639TMC3    H2 9466   0.796   2.912  15.271 -0.5352  0.6901  1.5808
  639TMC3    C7 9467   1.055   2.949  15.311 -0.6916 -0.2686 -0.3892
  639TMC3    C8 9468   0.707   3.027  15.055  0.3428  0.0473 -0.5383
  639TMC3    O1 9469   1.163   2.990  15.262 -0.6003 -0.6553  0.3287
  639TMC3    O2 9470   0.737   3.052  14.941  0.4456  0.7789  0.1059
  640MPD2     C 9471   1.447   2.629  10.161 -0.1418  0.3062  0.2039
  640MPD2    C1 9472   1.392   2.699  10.053 -0.8177  0.3192 -0.2621
  640MPD2    C2 9473   1.326   2.820  10.083 -0.0475 -0.2601 -0.3023
  640MPD2    C3 9474   1.303   2.856  10.217 -0.0446  0.7896  0.1272
  640MPD2    C4 9475   1.362   2.778  10.316  0.1140  0.3208 -0.1289
  640MPD2    C5 9476   1.434   2.671  10.288 -0.2690 -0.3717 -1.0189
  640MPD2     H 9477   1.279   2.876  10.002 -0.1375  0.7713  0.4586
  640MPD2    H1 9478   1.351   2.798  10.422 -1.4556 -0.2133 -0.1980
  640MPD2    H2 9479   1.497   2.535  10.141  1.4271  1.3319 -0.7129
  640MPD2    H3 9480   1.484   2.619  10.369 -1.5245 -2.1473 -1.3915
  640MPD2     N 9481   1.228   2.973  10.256  0.0704 -0.2842 -0.3946
  640MPD2    H5 9482   1.196   2.987  10.351 -0.8417  0.0075 -0.7438
  640MPD2    N1 9483   1.406   2.642   9.924  0.5772  0.1685  0.2814
  640MPD2    H7 9484   1.458   2.555   9.918 -0.5808 -0.6413  2.0257
  641TMC3    C1 9485   1.392   2.622   9.688  0.1337  0.6180 -0.0480
  641TMC3    C2 9486   1.469   2.506   9.690 -0.2140 -0.5616 -0.6274
  641TMC3    C3 9487   1.549   2.474   9.577  0.4833  0.3396  0.3394
  641TMC3    C4 9488   1.389   2.700   9.578  0.2345 -0.1438 -0.3134
  641TMC3    C5 9489   1.464   2.666   9.469  0.7173 -0.2753 -1.0629
  641TMC3    C6 9490   1.543   2.556   9.465  0.5327  0.3083 -0.3486
  641TMC3     C 9491   1.346   2.694   9.813 -0.0240  0.0834 -0.4994
  641TMC3     O 9492   1.274   2.792   9.802  0.0711 -0.5977  0.3187
  641TMC3     H 9493   1.453   2.441   9.775  0.0775  0.6982  0.3853
  641TMC3    H1 9494   1.316   2.779   9.589 -0.6367 -0.8902 -0.6831
  641TMC3    H2 9495   1.604   2.525   9.381  0.8661  0.6100 -0.2210
  641TMC3    C7 9496   1.447   2.752   9.354 -0.3079  0.4356  0.2981
  641TMC3    C8 9497   1.619   2.344   9.555 -0.4524  0.0570 -0.1681
  641TMC3    O1 9498   1.355   2.830   9.370 -0.0544 -0.2084 -0.2090
  641TMC3    O2 9499   1.625   2.306   9.439 -0.4966 -0.2291 -0.5226
  642TMC3    C1 9500   2.820   3.956  11.935  0.1046 -0.1848 -0.2676
  642TMC3    C2 9501   2.837   3.980  12.072  0.1368 -0.6465 -0.0967
  642TMC3    C3 9502   2.857   3.864  12.144 -0.1781 -0.1511 -0.0353
  642TMC3    C4 9503   2.824   3.832  11.872 -0.2118  0.5240  0.2702
  642TMC3    C5 9504   2.833   3.724  11.957 -0.9611  1.0116  0.7080
  642TMC3    C6 9505   2.865   3.738  12.091 -0.3391 -0.3516  0.1239
  642TMC3     C 9506   2.750   4.059  11.864  0.1223  0.4080 -0.6498
  642TMC3     O 9507   2.792   4.084  11.750 -0.2605  0.0882 -0.2157
  642TMC3     H 9508   2.838   4.081  12.111 -2.5185 -1.3807  1.8733
  642TMC3    H1 9509   2.787   3.825  11.771  1.6683 -1.6567 -0.2589
  642TMC3    H2 9510   2.891   3.653  12.153  1.8567  0.0499 -0.2519
  642TMC3    C7 9511   2.734   3.622  11.921  0.5450  0.5367 -0.0431
  642TMC3    C8 9512   2.892   3.875  12.285  0.4312 -0.5538 -0.1141
  642TMC3    O1 9513   2.722   3.599  11.800  0.1375 -0.0241  0.3102
  642TMC3    O2 9514   2.884   3.778  12.357  0.3181  0.0834 -0.0398
  643TMC3    C1 9515   1.938   2.858   0.199 -0.2121 -0.7799  0.0771
  643TMC3    C2 9516   1.889   2.943   0.107  0.1063 -0.3867 -0.7155
  643TMC3    C3 9517   1.858   2.888  17.685  0.5986 -0.1342 -0.8200
  643TMC3    C4 9518   1.958   2.723   0.183  0.3067  0.9222 -1.0893
  643TMC3    C5 9519   1.926   2.672   0.061 -0.2126 -0.0345 -0.1336
  643TMC3    C6 9520   1.876   2.754  17.664  0.1482 -0.3822 -0.1043
  643TMC3     C 9521   1.942   2.915   0.329  0.1323  0.0984  0.1420
  643TMC3     O 9522   1.947   3.040   0.340  0.1803 -0.0789 -0.4481
  643TMC3     H 9523   1.868   3.049   0.120  2.2081 -0.5376  3.7889
  643TMC3    H1 9524   2.005   2.660   0.257  1.6684  2.6020 -0.5371
  643TMC3    H2 9525   1.857   2.714  17.565  3.4628 -0.5593 -0.6751
  643TMC3    C7 9526   1.938   2.527   0.051 -0.2372 -0.5672  0.9715
  643TMC3    C8 9527   1.842   2.968  17.569  0.4280 -0.1212  0.0452
  643TMC3    O1 9528   1.897   2.468   0.150 -0.5573  0.5342  0.0295
  643TMC3    O2 9529   1.802   2.910  17.470 -0.2346 -0.3013 -0.1120
  644MPD2     C 9530   1.357   3.625   9.430 -0.3592 -0.5154  0.0424
  644MPD2    C1 9531   1.311   3.504   9.467 -1.3388 -0.0308 -0.2955
  644MPD2    C2 9532   1.179   3.483   9.469  0.2889 -0.2002  0.1578
  644MPD2    C3 9533   1.081   3.584   9.457 -0.0841  0.3941 -0.0102
  644MPD2    C4 9534   1.127   3.713   9.437  0.7614 -0.2413  0.6880
  644MPD2    C5 9535   1.264   3.728   9.411  0.8342 -0.3030 -0.1699
  644MPD2     H 9536   1.136   3.385   9.487  0.1992 -0.0713  0.6666
  644MPD2    H1 9537   1.064   3.801   9.425 -2.1711 -2.6532 -1.5241
  644MPD2    H2 9538   1.461   3.637   9.402 -0.2285 -0.5766  0.4888
  644MPD2    H3 9539   1.302   3.827   9.388 -0.1999 -0.0374 -0.7474
  644MPD2     N 9540   0.943   3.561   9.471  0.0736 -1.0651 -0.3212
  644MPD2    H5 9541   0.920   3.464   9.492  3.4287 -2.0596 -1.2779
  644MPD2    N1 9542   1.405   3.399   9.491  0.0914  0.4909 -0.1513
  644MPD2    H7 9543   1.501   3.433   9.486 -0.3528  1.8075  0.4819
  645TMC3    C1 9544   0.714   3.593   9.486 -0.0974 -0.4923 -0.7282
  645TMC3    C2 9545   0.701   3.480   9.562 -0.1961  0.3900  0.1501
  645TMC3    C3 9546   0.584   3.456   9.623 -0.8416  0.2838  0.1028
  645TMC3    C4 9547   0.610   3.667   9.448  0.4273 -0.4663  0.6471
  645TMC3    C5 9548   0.492   3.633   9.507 -0.1679  0.1226  0.2819
  645TMC3    C6 9549   0.473   3.529   9.591 -0.4806  0.6480 -0.6478
  645TMC3     C 9550   0.839   3.647   9.445  0.8630  0.4400 -0.5548
  645TMC3     O 9551   0.837   3.758   9.403 -0.1220 -0.3425  0.5332
  645TMC3     H 9552   0.788   3.435   9.610 -1.3718 -0.4318  1.4944
  645TMC3    H1 9553   0.616   3.754   9.384 -2.5079 -1.2660 -0.6788
  645TMC3    H2 9554   0.377   3.510   9.638 -0.3672  1.0539 -0.2579
  645TMC3    C7 9555   0.376   3.700   9.461 -0.1465  0.3338 -0.3475
  645TMC3    C8 9556   0.564   3.340   9.711 -0.0260 -0.2462 -0.1770
  645TMC3    O1 9557   0.386   3.813   9.416  0.3617  0.0940  0.8720
  645TMC3    O2 9558   0.459   3.337   9.779  0.6934  0.1772  0.6811
  646MPD2     C 9559   1.135   2.275  14.461 -0.0427  0.1969 -0.7563
  646MPD2    C1 9560   1.047   2.275  14.566  0.2001 -0.2414 -0.4524
  646MPD2    C2 9561   0.929   2.342  14.551 -0.8114 -0.8109 -0.3728
  646MPD2    C3 9562   0.900   2.409  14.430  0.5657  0.6848 -0.0182
  646MPD2    C4 9563   1.000   2.419  14.337  0.4193 -0.2481 -1.2195
  646MPD2    C5 9564   1.119   2.358  14.355 -0.3731  0.6677  0.6465
  646MPD2     H 9565   0.859   2.338  14.634  0.2334  1.2870  0.6094
  646MPD2    H1 9566   0.997   2.473  14.243 -0.0255  3.4705  0.8999
  646MPD2    H2 9567   1.230   2.222  14.469 -1.2608 -1.7096  0.8497
  646MPD2    H3 9568   1.197   2.365  14.280  0.1517  1.1161  1.2272
  646MPD2     N 9569   0.770   2.459  14.411 -0.2728 -0.6477 -0.8242
  646MPD2    H5 9570   0.701   2.438  14.482 -0.0795  2.2501  0.2259
  646MPD2    N1 9571   1.080   2.213  14.687  0.1042 -0.1492 -0.0774
  646MPD2    H7 9572   1.168   2.163  14.685  0.9540  1.3461 -0.0274
  647TMC3    C1 9573   1.088   2.125  14.900  0.5769 -0.2083 -0.7627
  647TMC3    C2 9574   1.016   2.052  14.988 -0.0996  0.1624 -0.9724
  647TMC3    C3 9575   1.081   1.982  15.080 -0.4695  0.1334 -0.4702
  647TMC3    C4 9576   1.221   2.146  14.915  0.1385 -0.1933  0.5182
  647TMC3    C5 9577   1.286   2.066  15.011  0.5809 -0.4394  0.5653
  647TMC3    C6 9578   1.213   1.988  15.103  0.3848  0.8002 -0.5185
  647TMC3     C 9579   1.017   2.205  14.804  0.5042  0.5485 -0.0596
  647TMC3     O 9580   0.910   2.257  14.841  0.1037  0.1139 -0.1680
  647TMC3     H 9581   0.910   2.046  14.967 -0.3258 -2.1173  0.7414
  647TMC3    H1 9582   1.270   2.226  14.860  1.1503 -1.2020 -0.0348
  647TMC3    H2 9583   1.259   1.921  15.175 -2.5736 -2.2533 -1.4383
  647TMC3    C7 9584   1.430   2.028  15.006 -0.0097 -0.1325 -0.1291
  647TMC3    C8 9585   1.028   1.846  15.105 -0.6010 -0.5723  0.0785
  647TMC3    O1 9586   1.451   1.921  15.056 -0.8443 -0.0835  0.1989
  647TMC3    O2 9587   1.049   1.798  15.215  0.2426 -0.0743  0.8254
  648TMC3    C1 9588   0.663   4.626  15.995  0.2875 -0.0966 -0.2200
  648TMC3    C2 9589   0.691   4.497  15.988  0.2883  0.6363 -0.3049
  648TMC3    C3 9590   0.622   4.430  15.894 -0.1858  0.1156 -0.4369
  648TMC3    C4 9591   0.567   4.693  15.923  0.7354  0.0564  0.2309
  648TMC3    C5 9592   0.490   4.618  15.840 -0.0815  0.3451 -0.3511
  648TMC3    C6 9593   0.517   4.487  15.823  0.0048  0.1933 -0.0566
  648TMC3     C 9594   0.694   4.693  16.125 -0.1450 -0.3067 -0.4391
  648TMC3     O 9595   0.684   0.090  16.121  0.3199  0.6197  0.6580
  648TMC3     H 9596   0.773   4.448  16.039  1.0438 -0.7887 -2.9001
  648TMC3    H1 9597   0.530   0.067  15.947  1.0530  0.6238 -1.6551
  648TMC3    H2 9598   0.461   4.421  15.757 -1.4975 -1.0662  2.4737
  648TMC3    C7 9599   0.364   4.667  15.778  0.0639 -0.0342 -0.1711
  648TMC3    C8 9600   0.675   4.297  15.868  0.3314 -1.3375  0.0579
  648TMC3    O1 9601   0.305   4.577  15.723 -0.2941  0.3896  0.0066
  648TMC3    O2 9602   0.794   4.276  15.842 -0.0874 -0.1355  0.1574
  649TMC3    C1 9603   4.016   1.029  12.724 -0.2354  0.7369 -0.1211
  649TMC3    C2 9604   4.142   1.067  12.765  0.6607  0.8821 -0.0099
  649TMC3    C3 9605   4.194   0.996  12.865 -0.0653 -0.0708  0.3249
  649TMC3    C4 9606   3.948   0.928  12.782  0.2083  0.2900 -0.0100
  649TMC3    C5 9607   4.003   0.853  12.883  0.4615  0.1044 -0.1500
  649TMC3    C6 9608   4.123   0.895  12.928 -0.4192 -0.1142  0.1396
  649TMC3     C 9609   3.935   1.138  12.664  0.6022  0.8649  0.3810
  649TMC3     O 9610   3.820   1.151  12.706 -0.1128  0.0036 -1.0744
  649TMC3     H 9611   4.179   1.160  12.722  0.7913  0.6091 -0.4874
  649TMC3    H1 9612   3.849   0.907  12.745  0.2670 -1.4476  0.8187
  649TMC3    H2 9613   4.176   0.849  13.011 -0.2310 -0.7911 -0.3551
  649TMC3    C7 9614   3.916   0.759  12.951  0.3604  0.1179  0.3606
  649TMC3    C8 9615   4.321   1.032  12.927 -0.0702  0.4248  0.2822
  649TMC3    O1 9616   3.796   0.774  12.931  0.0240 -0.4497  1.0578
  649TMC3    O2 9617   4.381   0.943  12.988 -0.0158 -0.2603  0.4364
  650TMC3    C1 9618   2.091   3.098  12.460 -0.7509 -0.4419 -0.0529
  650TMC3    C2 9619   2.118   3.225  12.420 -0.4192  0.2801  0.4292
  650TMC3    C3 9620   2.042   3.271  12.305  0.7851 -0.1980 -0.2524
  650TMC3    C4 9621   2.002   3.014  12.400  0.3360 -0.2623 -0.2129
  650TMC3    C5 9622   1.934   3.060  12.288 -0.0039 -0.5593  0.8282
  650TMC3    C6 9623   1.950   3.186  12.244  0.5052  0.3893  0.4936
  650TMC3     C 9624   2.200   3.034  12.534  0.7552  0.4184  0.8315
  650TMC3     O 9625   2.289   3.106  12.573 -0.4377  0.1922  0.0222
  650TMC3     H 9626   2.200   3.280  12.466 -1.2774 -0.5841  2.9775
  650TMC3    H1 9627   2.007   2.906  12.409 -2.2727 -0.4297 -0.7341
  650TMC3    H2 9628   1.891   3.226  12.163  0.7418  0.7500  0.4996
  650TMC3    C7 9629   1.846   2.960  12.219 -0.5805 -0.4519  0.0367
  650TMC3    C8 9630   2.001   3.405  12.316 -0.5871  0.1046  0.1070
  650TMC3    O1 9631   1.876   2.841  12.227  0.2073 -0.1412 -0.6487
  650TMC3    O2 9632   1.962   3.464  12.214  0.6614  0.1741 -0.1511
  651MPD2     C 9633   1.301   4.489  11.021 -0.0841  0.4134 -0.6057
  651MPD2    C1 9634   1.242   4.602  10.977 -0.2909  0.5386 -0.3592
  651MPD2    C2 9635   1.319   4.694  10.903 -0.2202  0.0373  0.1924
  651MPD2    C3 9636   1.457   4.686  10.881 -0.0206 -0.1794  0.1012
  651MPD2    C4 9637   1.517   4.568  10.927  0.3354 -0.0687  0.6018
  651MPD2    C5 9638   1.433   4.470  10.988 -0.0637  0.9930  0.4346
  651MPD2     H 9639   1.267   0.062  10.881 -2.0668 -0.2336  3.4752
  651MPD2    H1 9640   1.623   4.546  10.922 -0.2197 -2.7612  0.8008
  651MPD2    H2 9641   1.244   4.415  11.075  0.2702  1.4788  1.2391
  651MPD2    H3 9642   1.483   4.389  11.041 -0.0522 -0.7941 -2.3240
  651MPD2     N 9643   1.534   0.060  10.821 -0.5117  0.3415 -0.2796
  651MPD2    H5 9644   1.491   0.149  10.800 -1.2369  0.0736  0.0828
  651MPD2    N1 9645   1.103   4.635  11.000  0.1012 -0.0799  0.1256
  651MPD2    H7 9646   1.075   0.006  10.977  1.4635  0.4269  0.5752
  652TMC3    C1 9647   1.851   0.302  10.597  0.5529 -0.1908 -0.0338
  652TMC3    C2 9648   1.821   0.199  10.683  0.4952 -0.5256  0.1432
  652TMC3    C3 9649   1.690   0.164  10.697 -0.2790  0.0756  0.1628
  652TMC3    C4 9650   1.755   0.363  10.521 -0.5653 -0.0874 -0.1883
  652TMC3    C5 9651   1.625   0.339  10.557 -0.2757 -0.2199  0.5965
  652TMC3    C6 9652   1.587   0.239  10.646 -0.3163 -1.1616  0.0680
  652TMC3     C 9653   1.977   0.370  10.623  0.1257  0.4009 -0.3110
  652TMC3     O 9654   2.060   0.311  10.687  0.2918  0.1570  0.2342
  652TMC3     H 9655   1.904   0.159  10.742  1.5052  0.1254 -0.8422
  652TMC3    H1 9656   1.781   0.446  10.457 -1.3663  0.7621  0.5792
  652TMC3    H2 9657   1.479   0.233  10.656 -0.3749 -0.2842 -0.0207
  652TMC3    C7 9658   1.567   0.466  10.593 -0.8029 -0.2333 -0.3068
  652TMC3    C8 9659   1.664   0.054  10.787 -0.4632 -0.0247 -0.6405
  652TMC3    O1 9660   1.647   0.554  10.615 -0.8267 -0.4994  0.4141
  652TMC3    O2 9661   1.760   4.714  10.837  0.1098 -0.6028  0.0235
  653MPD2     C 9662   4.408   0.274   0.112  0.0225  0.3137 -0.6503
  653MPD2    C1 9663   4.454   0.321  17.688  0.1002 -0.4550 -0.1779
  653MPD2    C2 9664   4.430   0.245  17.575 -0.1737  0.1483 -0.3251
  653MPD2    C3 9665   4.350   0.127  17.584  0.2265 -0.2303  0.4188
  653MPD2    C4 9666   4.320   0.077   0.010  0.3946 -0.5014 -0.1349
  653MPD2    C5 9667   4.347   0.147   0.123  0.2536  0.0344 -0.0979
  653MPD2     H 9668   4.470   0.285  17.483  1.9944  0.9547  0.9880
  653MPD2    H1 9669   4.249   4.719   0.010 -0.0176 -0.1441  0.2336
  653MPD2    H2 9670   4.416   0.338   0.199  1.4703  1.0577 -1.3218
  653MPD2    H3 9671   4.317   0.111   0.221 -0.3754  1.7988  0.3637
  653MPD2     N 9672   4.323   0.056  17.462  0.2318 -0.2522 -0.3075
  653MPD2    H5 9673   4.337   0.110  17.377  2.8851 -0.6980 -0.1635
  653MPD2    N1 9674   4.509   0.449  17.676  0.2668  0.3089  0.0205
  653MPD2    H7 9675   4.547   0.471  17.585 -1.0295  0.0240 -0.6024
  654TMC3    C1 9676   4.223   4.616  17.329 -0.0816 -0.5425 -0.1710
  654TMC3    C2 9677   4.221   4.709  17.223 -0.1948  0.1943  0.0769
  654TMC3    C3 9678   4.242   4.678  17.088 -0.8717 -0.3304  0.0118
  654TMC3    C4 9679   4.235   4.486  17.294  0.5231  0.3940 -0.0517
  654TMC3    C5 9680   4.273   4.455  17.167 -0.0334  0.1252  0.0530
  654TMC3    C6 9681   4.276   4.551  17.063  0.4970 -0.3405  0.5022
  654TMC3     C 9682   4.265   4.657  17.460 -0.0863  0.0960 -0.5761
  654TMC3     O 9683   4.267   4.568  17.543  0.3058  0.5856 -0.1063
  654TMC3     H 9684   4.189   0.087  17.241 -1.2783  0.0479 -1.0188
  654TMC3    H1 9685   4.237   4.414  17.375  1.2084 -1.1834 -1.4711
  654TMC3    H2 9686   4.301   4.521  16.962 -1.4811  1.9314 -0.6691
  654TMC3    C7 9687   4.234   4.329  17.105  0.1258  0.8912 -0.1818
  654TMC3    C8 9688   4.118   4.710  17.023  0.1222  0.6334  0.4626
  654TMC3    O1 9689   4.170   4.327  16.998 -0.0269  0.4301 -0.5511
  654TMC3    O2 9690   4.065   0.092  17.057  0.0950  0.4879 -0.4197
  655MPD2     C 9691   0.824   0.001  15.697 -0.2031 -0.5882  0.3464
  655MPD2    C1 9692   0.730   0.039  15.603  0.7232  0.3347 -1.0087
  655MPD2    C2 9693   0.721   4.689  15.489  0.1550  0.2094  0.0306
  655MPD2    C3 9694   0.798   4.573  15.473 -0.7641 -0.1944 -0.4125
  655MPD2    C4 9695   0.887   4.534  15.574 -0.0092 -0.2338  0.4602
  655MPD2    C5 9696   0.889   4.605  15.694  0.9966 -0.0418  0.8549
  655MPD2     H 9697   0.660   4.723  15.406 -1.9995 -1.9890  0.7019
  655MPD2    H1 9698   0.949   4.446  15.565 -1.5210 -1.1835 -0.5704
  655MPD2    H2 9699   0.839   0.057  15.789 -0.4098  1.2571 -0.7596
  655MPD2    H3 9700   0.958   4.577  15.773  0.0801  0.9048  1.9863
  655MPD2     N 9701   0.792   4.496  15.352  0.1954  0.0272 -0.2598
  655MPD2    H5 9702   0.842   4.408  15.360 -1.3735 -0.5445  3.0546
  655MPD2    N1 9703   0.648   0.159  15.607  0.7368 -0.2931 -0.0100
  655MPD2    H7 9704   0.583   0.171  15.530 -1.7251  1.3304  2.3033
  656TMC3    C1 9705   0.558   0.359  15.688  0.3263  0.1019 -0.3035
  656TMC3    C2 9706   0.550   0.457  15.784  0.1073 -0.0433  0.0998
  656TMC3    C3 9707   0.454   0.557  15.767  0.9500 -0.1688 -0.0429
  656TMC3    C4 9708   0.495   0.369  15.560 -0.2336 -0.3980 -0.2612
  656TMC3    C5 9709   0.399   0.469  15.556  0.4490 -1.0233  0.0129
  656TMC3    C6 9710   0.370   0.555  15.660  0.4194  0.4461  1.0884
  656TMC3     C 9711   0.645   0.243  15.716  0.6288  0.2596  0.1152
  656TMC3     O 9712   0.707   0.233  15.820  0.7142  0.0008  0.2323
  656TMC3     H 9713   0.611   0.459  15.873  0.8119  0.5294 -0.3903
  656TMC3    H1 9714   0.504   0.305  15.473 -0.4220  0.0027 -0.5731
  656TMC3    H2 9715   0.319   0.648  15.642 -0.0138 -0.0827 -0.4869
  656TMC3    C7 9716   0.297   0.442  15.452  0.9630  0.2848 -0.7569
  656TMC3    C8 9717   0.370   0.584  15.872 -0.1357  0.4581 -0.3240
  656TMC3    O1 9718   0.327   0.391  15.345  0.1741 -0.3511  0.0745
  656TMC3    O2 9719   0.250   0.561  15.856  0.3232  0.1485 -0.3742
  657TMC3    C1 9720   4.598   3.993  15.080  0.2328 -0.6198  0.2500
  657TMC3    C2 9721   4.646   3.997  15.207 -0.1842 -0.4250  0.2397
  657TMC3    C3 9722   4.588   4.089  15.289 -0.3447 -0.4400  0.7245
  657TMC3    C4 9723   4.507   4.087  15.034 -0.4136  0.2108 -0.0066
  657TMC3    C5 9724   4.458   4.180  15.119 -0.2465 -0.4189  0.3069
  657TMC3    C6 9725   4.495   4.181  15.248 -0.6098 -0.1952 -0.7088
  657TMC3     C 9726   4.651   3.893  14.997 -0.4297 -0.0335  0.0214
  657TMC3     O 9727   4.575   3.846  14.912 -0.2105  0.2181  0.1201
  657TMC3     H 9728   4.718   3.927  15.249 -0.8149 -0.5610  1.0741
  657TMC3    H1 9729   4.458   4.081  14.938 -1.1572 -0.7090  0.4370
  657TMC3    H2 9730   4.432   4.233  15.319 -0.3010 -1.7507  0.7048
  657TMC3    C7 9731   4.351   4.267  15.080 -0.3849 -0.4150  0.0001
  657TMC3    C8 9732   4.629   4.075  15.428 -0.1376  0.0463  0.1188
  657TMC3    O1 9733   4.276   4.301  15.170  0.4674 -0.0273 -0.0574
  657TMC3    O2 9734   4.552   4.002  15.486  0.4728 -0.2027 -0.0148
  658MPD2     C 9735   1.198   4.152  14.807 -0.3327 -0.2448 -0.1529
  658MPD2    C1 9736   1.090   4.239  14.800 -0.3889  0.5289 -0.0068
  658MPD2    C2 9737   1.101   4.342  14.706  0.1081 -0.3670  0.6812
  658MPD2    C3 9738   1.203   4.356  14.614  0.1527 -0.2924  1.0522
  658MPD2    C4 9739   1.307   4.261  14.622 -0.0077 -0.5001 -0.5152
  658MPD2    C5 9740   1.304   4.166  14.722  0.0293 -0.1892 -0.0720
  658MPD2     H 9741   1.022   4.416  14.702 -0.5189 -1.0233  0.8574
  658MPD2    H1 9742   1.398   4.268  14.564  1.2195 -1.1384  1.3104
  658MPD2    H2 9743   1.199   4.073  14.882  1.1064 -1.6175 -1.6266
  658MPD2    H3 9744   1.394   4.107  14.737  0.6245  1.5084  2.9048
  658MPD2     N 9745   1.181   4.464  14.523 -0.0777  0.0382 -0.0808
  658MPD2    H5 9746   1.104   4.528  14.540  0.4824  0.8520 -0.5617
  658MPD2    N1 9747   0.975   4.242  14.889  0.1943 -0.0771  0.1445
  658MPD2    H7 9748   0.894   4.296  14.861 -0.2487 -0.1646  1.2875
  659TMC3    C1 9749   0.842   4.216  15.061 -0.5831  0.4941 -0.5290
  659TMC3    C2 9750   0.834   4.315  15.155 -0.4532 -0.4908 -0.4100
  659TMC3    C3 9751   0.724   4.394  15.162  0.4129 -0.0351 -0.2714
  659TMC3    C4 9752   0.738   4.183  14.984  0.3034 -0.4697  0.2312
  659TMC3    C5 9753   0.620   4.261  15.006  0.1499 -0.3599 -0.0345
  659TMC3    C6 9754   0.610   4.369  15.096 -0.1781 -0.1409  0.9826
  659TMC3     C 9755   0.971   4.189  15.014  0.0062  0.1206  0.6298
  659TMC3     O 9756   1.050   4.113  15.074  0.0933 -0.0775  0.6601
  659TMC3     H 9757   0.932   4.346  15.191 -0.2350  0.1496 -1.5586
  659TMC3    H1 9758   0.744   4.105  14.909 -0.7940 -0.3725  0.0393
  659TMC3    H2 9759   0.522   4.432  15.099  0.2862  0.5639 -0.6545
  659TMC3    C7 9760   0.498   4.242  14.929 -0.1491 -0.9306  0.1585
  659TMC3    C8 9761   0.730   4.518  15.235  0.0013  0.4546  0.3557
  659TMC3    O1 9762   0.405   4.318  14.955 -0.0698  0.3678 -0.1066
  659TMC3    O2 9763   0.688   4.627  15.188 -0.2470  0.1617  0.0380
  660MPD2     C 9764   3.986   3.311  12.611 -0.6505  0.2474 -0.2021
  660MPD2    C1 9765   3.847   3.334  12.601  0.5843  0.0387 -0.0200
  660MPD2    C2 9766   3.754   3.240  12.636  0.4139  0.5115  0.0214
  660MPD2    C3 9767   3.788   3.118  12.685  0.0730 -0.3107 -0.5965
  660MPD2    C4 9768   3.925   3.099  12.700  0.1981  0.1417 -0.2240
  660MPD2    C5 9769   4.018   3.185  12.657 -0.0062  0.7265  0.0162
  660MPD2     H 9770   3.650   3.259  12.610  0.3609 -0.7609 -0.6962
  660MPD2    H1 9771   3.969   3.003  12.728  2.2137  1.1300  0.0295
  660MPD2    H2 9772   4.065   3.382  12.592 -0.6357 -0.6182 -3.3243
  660MPD2    H3 9773   4.120   3.147  12.660 -0.1256  0.5904  2.0625
  660MPD2     N 9774   3.691   3.019  12.725 -0.0262  0.3462 -0.3397
  660MPD2    H5 9775   3.726   2.936  12.772  0.8233  0.5778 -0.5535
  660MPD2    N1 9776   3.812   3.461  12.555  0.3845 -0.1861  0.0941
  660MPD2    H7 9777   3.889   3.501  12.501 -1.0036  1.6938 -0.5058
  661TMC3    C1 9778   3.693   3.630  12.454 -0.8955  0.7962  0.2398
  661TMC3    C2 9779   3.802   3.639  12.374  0.1469  0.7802 -0.0997
  661TMC3    C3 9780   3.784   3.698  12.255  0.3594 -0.2650 -0.0965
  661TMC3    C4 9781   3.569   3.663  12.419 -0.0980 -0.4305 -0.4593
  661TMC3    C5 9782   3.547   3.720  12.299 -0.2101  0.5510  0.3691
  661TMC3    C6 9783   3.658   3.740  12.219 -0.4703  0.5259  0.0345
  661TMC3     C 9784   3.688   3.510  12.535  0.0017 -0.4141 -0.4901
  661TMC3     O 9785   3.587   3.484  12.597  0.1118  0.5131  0.2397
  661TMC3     H 9786   3.903   3.625  12.411 -0.4331 -0.2213  1.1122
  661TMC3    H1 9787   3.490   3.669  12.492 -0.6012  0.3414 -1.0647
  661TMC3    H2 9788   3.651   3.768  12.115 -0.7470  2.4737  0.5901
  661TMC3    C7 9789   3.421   3.785  12.262  0.2533 -0.2072  0.0531
  661TMC3    C8 9790   3.893   3.718  12.157 -0.5962 -0.2988  0.2869
  661TMC3    O1 9791   3.347   3.839  12.347 -0.2518 -0.2613 -0.1320
  661TMC3    O2 9792   3.868   3.776  12.054  0.3773  0.5980  0.3637
  662MPD2     C 9793   3.975   3.600  17.154 -0.1999  0.1009  0.1923
  662MPD2    C1 9794   3.971   3.618  17.290 -0.1775 -0.4261 -0.5163
  662MPD2    C2 9795   3.934   3.741  17.344  0.2783 -0.3695 -0.2721
  662MPD2    C3 9796   3.877   3.831  17.257 -0.1875  1.0470 -0.0008
  662MPD2    C4 9797   3.870   3.808  17.121  0.2628 -0.5791  0.3787
  662MPD2    C5 9798   3.911   3.689  17.070 -1.1860 -0.8432  0.0108
  662MPD2     H 9799   3.938   3.754  17.452 -1.3157 -3.5756  0.1663
  662MPD2    H1 9800   3.843   3.886  17.051  0.7402 -1.2276 -0.5310
  662MPD2    H2 9801   4.026   3.518  17.104  2.2237  1.8003 -0.1360
  662MPD2    H3 9802   3.899   3.664  16.965 -0.3456  1.6338 -0.6662
  662MPD2     N 9803   3.806   3.945  17.307  1.0262  0.2630 -0.0643
  662MPD2    H5 9804   3.761   4.001  17.236  1.9707  3.7078  2.0478
  662MPD2    N1 9805   4.030   3.532  17.381 -0.5867  0.5249 -0.1928
  662MPD2    H7 9806   4.047   3.577  17.470 -1.2433  1.3842 -0.5000
  663TMC3    C1 9807   4.070   3.323  17.489  0.2123 -0.3645  0.8971
  663TMC3    C2 9808   4.097   3.401  17.600 -0.3449  0.1827  0.6918
  663TMC3    C3 9809   4.128   3.342   0.017 -0.0695 -0.3825  0.0485
  663TMC3    C4 9810   4.087   3.182  17.488  0.2882 -0.0386  0.1198
  663TMC3    C5 9811   4.124   3.127  17.613 -0.6279  0.7395  0.0804
  663TMC3    C6 9812   4.143   3.206   0.020  0.5226 -0.8068  0.0321
  663TMC3     C 9813   4.013   3.398  17.374  0.2786  0.4167 -0.4833
  663TMC3     O 9814   3.983   3.333  17.274  0.3174 -0.1741  0.5407
  663TMC3     H 9815   4.061   3.503  17.611 -0.3393  0.3624 -0.9212
  663TMC3    H1 9816   4.083   3.128  17.393 -0.8261  1.7576 -0.8546
  663TMC3    H2 9817   4.176   3.160   0.112  0.3648  1.2391  1.1064
  663TMC3    C7 9818   4.192   2.998  17.614 -1.0756 -0.2938  0.0085
  663TMC3    C8 9819   4.079   3.410   0.142 -0.0789  0.0849 -0.2977
  663TMC3    O1 9820   4.272   2.980   0.003 -0.5007 -0.9057 -0.2977
  663TMC3    O2 9821   3.983   3.486   0.130 -0.5644  0.1642  0.2352
  664MPD2     C 9822   2.339   1.310  17.181 -0.7074 -0.4814  0.2333
  664MPD2    C1 9823   2.376   1.433  17.224  0.0826 -0.1210 -0.4492
  664MPD2    C2 9824   2.398   1.442  17.358  0.5266  0.3669  0.4909
  664MPD2    C3 9825   2.375   1.336  17.450  0.6251 -0.4149  0.1409
  664MPD2    C4 9826   2.349   1.215  17.392 -0.2706 -0.8241 -0.1256
  664MPD2    C5 9827   2.330   1.195  17.264  0.3127  0.9158  0.1935
  664MPD2     H 9828   2.418   1.535  17.410  1.3583 -0.4503  1.6271
  664MPD2    H1 9829   2.325   1.131  17.456  1.4388 -0.7923  0.5450
  664MPD2    H2 9830   2.313   1.301  17.076 -1.1771 -0.2234  0.3313
  664MPD2    H3 9831   2.293   1.099  17.232 -0.4512  0.7042  1.7242
  664MPD2     N 9832   2.391   1.350  17.586 -0.3913 -0.0120  0.3466
  664MPD2    H5 9833   2.425   1.438  17.624  1.7840 -0.4946 -0.4664
  664MPD2    N1 9834   2.395   1.556  17.146  0.1308  0.2653  0.0205
  664MPD2    H7 9835   2.451   1.626  17.193  0.1756 -0.3678  0.9161
  665TMC3    C1 9836   2.363   1.324   0.116 -0.3550 -0.8675  0.3249
  665TMC3    C2 9837   2.375   1.242   0.223 -0.2011 -0.1668  0.1422
  665TMC3    C3 9838   2.413   1.285   0.342 -0.9943 -0.1788 -0.1475
  665TMC3    C4 9839   2.396   1.459   0.126  0.1745  0.3105 -0.5232
  665TMC3    C5 9840   2.448   1.498   0.247  0.5056  0.6548 -0.6587
  665TMC3    C6 9841   2.444   1.419   0.356  0.6221  0.7495  0.1720
  665TMC3     C 9842   2.361   1.265  17.684 -0.1406  0.0185 -0.3644
  665TMC3     O 9843   2.323   1.147  17.675  0.1244  0.4686 -0.2626
  665TMC3     H 9844   2.360   1.137   0.201  1.4705 -0.6235  1.2030
  665TMC3    H1 9845   2.393   1.531   0.045  2.1065 -0.1585 -1.0140
  665TMC3    H2 9846   2.475   1.455   0.454  1.0379 -0.9530  0.6731
  665TMC3    C7 9847   2.466   1.650   0.257  0.1707 -0.0732 -0.2085
  665TMC3    C8 9848   2.386   1.213   0.468  0.5824  0.2382 -0.5767
  665TMC3    O1 9849   2.437   1.722   0.160  0.0953 -0.0726  0.5257
  665TMC3    O2 9850   2.465   1.234   0.558  0.0859 -0.4305  0.0259
  666TMC3    C1 9851   1.344   1.741   9.816  0.2209 -0.3085 -0.0166
  666TMC3    C2 9852   1.437   1.660   9.878  0.6514  0.3512  0.2770
  666TMC3    C3 9853   1.543   1.720   9.941  0.1629  0.1552  0.4597
  666TMC3    C4 9854   1.349   1.876   9.812 -1.0734 -0.1541  0.4759
  666TMC3    C5 9855   1.448   1.932   9.886  0.1128 -0.5576  0.8664
  666TMC3    C6 9856   1.554   1.857   9.941  0.0995 -0.9799  0.1513
  666TMC3     C 9857   1.224   1.664   9.786  0.6595  0.5824  0.6662
  666TMC3     O 9858   1.179   1.603   9.874 -0.1572  0.0233  0.2160
  666TMC3     H 9859   1.425   1.552   9.882  0.2603  0.3152 -1.6602
  666TMC3    H1 9860   1.262   1.928   9.774 -0.8875 -2.2859 -2.9042
  666TMC3    H2 9861   1.628   1.921   9.987 -0.3899  0.4021 -0.9939
  666TMC3    C7 9862   1.438   2.073   9.915 -0.1189  0.4653 -0.0892
  666TMC3    C8 9863   1.609   1.635  10.041 -1.3453 -0.3344  0.3109
  666TMC3    O1 9864   1.488   2.117  10.016 -0.1760  0.5207  0.7536
  666TMC3    O2 9865   1.555   1.529  10.063 -0.4802 -0.1670  0.1408
  667MPD2     C 9866   2.854   1.154  14.817 -0.0563 -0.7396 -0.4965
  667MPD2    C1 9867   2.748   1.215  14.874 -1.0145  0.1693  0.4815
  667MPD2    C2 9868   2.622   1.194  14.834 -0.0368 -0.0767  0.3797
  667MPD2    C3 9869   2.589   1.109  14.735  0.4209 -0.4880 -0.1555
  667MPD2    C4 9870   2.695   1.041  14.674 -0.6157  0.0964  0.8517
  667MPD2    C5 9871   2.826   1.068  14.716  0.7476 -0.0123 -0.3732
  667MPD2     H 9872   2.547   1.243  14.895 -0.2279 -0.3132  0.3377
  667MPD2    H1 9873   2.684   0.969  14.594 -0.5664 -0.5937  1.4611
  667MPD2    H2 9874   2.958   1.165  14.846  0.3381 -2.7141 -1.1940
  667MPD2    H3 9875   2.901   1.003  14.671  1.8361  0.2422  1.0658
  667MPD2     N 9876   2.458   1.070  14.698  0.5983  0.4665  0.3954
  667MPD2    H5 9877   2.447   0.989  14.638 -1.0061  0.7887  0.2557
  667MPD2    N1 9878   2.771   1.296  14.981 -1.0874 -0.1764  0.0328
  667MPD2    H7 9879   2.686   1.337  15.019  0.0102  2.1100  0.0002
  668TMC3    C1 9880   2.865   1.405  15.165  0.2062 -0.3365 -1.2013
  668TMC3    C2 9881   2.967   1.486  15.190 -0.1659  0.2455  0.0036
  668TMC3    C3 9882   2.974   1.532  15.320  0.2641 -0.4688 -0.1268
  668TMC3    C4 9883   2.759   1.379  15.257  0.3276 -0.1667 -0.7633
  668TMC3    C5 9884   2.770   1.436  15.384 -0.4555  0.6585  0.2294
  668TMC3    C6 9885   2.878   1.504  15.413 -0.4537  0.0369  0.1402
  668TMC3     C 9886   2.886   1.343  15.035  0.5834 -0.0295  0.7634
  668TMC3     O 9887   2.998   1.315  15.003 -0.7171 -0.1499 -0.5251
  668TMC3     H 9888   3.040   1.508  15.112  1.0791 -0.3658  0.9811
  668TMC3    H1 9889   2.674   1.317  15.231  1.0934 -1.2569 -0.6956
  668TMC3    H2 9890   2.882   1.538  15.516  0.6925 -1.3290  0.5494
  668TMC3    C7 9891   2.660   1.413  15.475  0.7109  0.0263 -0.3456
  668TMC3    C8 9892   3.091   1.614  15.360 -0.0261  0.1195  0.0953
  668TMC3    O1 9893   2.648   1.490  15.572  0.0898  0.2067  0.2240
  668TMC3    O2 9894   3.111   1.630  15.480 -0.5958 -0.6361 -0.1837
  669TMC3    C1 9895   0.950   1.180  14.544 -0.9433 -0.1566 -0.0204
  669TMC3    C2 9896   0.873   1.227  14.445  0.6220  0.7660  0.8639
  669TMC3    C3 9897   0.905   1.343  14.385  0.2359 -0.1949 -1.4086
  669TMC3    C4 9898   1.060   1.259  14.589 -0.7993 -0.8054  0.3159
  669TMC3    C5 9899   1.085   1.380  14.526 -0.5349 -0.0346 -0.6579
  669TMC3    C6 9900   1.007   1.426  14.423 -0.0562  0.7706  0.2735
  669TMC3     C 9901   0.901   1.073  14.635 -0.3030 -0.1423 -0.2294
  669TMC3     O 9902   0.784   1.040  14.612 -0.0837  0.1483 -0.1230
  669TMC3     H 9903   0.790   1.169  14.407  0.8230  2.4144 -2.0728
  669TMC3    H1 9904   1.128   1.225  14.666  0.5498 -3.3777 -1.9902
  669TMC3    H2 9905   1.048   1.505  14.361 -0.8531  1.1059  0.1681
  669TMC3    C7 9906   1.208   1.448  14.551  0.8501 -0.0625  0.0080
  669TMC3    C8 9907   0.822   1.379  14.266  0.1369  0.5426  0.1207
  669TMC3    O1 9908   1.247   1.521  14.456  0.3387  0.3882  0.9092
  669TMC3    O2 9909   0.751   1.287  14.225 -0.2313 -0.1924  0.9355
  670MPD2     C 9910   3.806   4.218  13.484 -0.6265  0.6283  0.6027
  670MPD2    C1 9911   3.932   4.153  13.486  0.3930 -0.4756 -0.3250
  670MPD2    C2 9912   3.956   4.069  13.589  0.0071 -0.2701  0.0452
  670MPD2    C3 9913   3.851   4.046  13.684  0.0233 -0.8655  0.0235
  670MPD2    C4 9914   3.729   4.115  13.683 -0.2971  0.3978  0.2061
  670MPD2    C5 9915   3.713   4.211  13.583 -0.0212 -0.3679  0.2928
  670MPD2     H 9916   4.051   4.023  13.611 -0.9716 -2.6914 -0.7976
  670MPD2    H1 9917   3.650   4.103  13.757 -0.4808 -0.1516 -0.0806
  670MPD2    H2 9918   3.789   4.288  13.402  0.9570  1.9212  1.3633
  670MPD2    H3 9919   3.618   4.260  13.565  1.0831  1.3609 -0.8324
  670MPD2     N 9920   3.886   3.965  13.795 -0.9465  0.3994  0.5672
  670MPD2    H5 9921   3.981   3.929  13.794 -0.3552  1.9921 -1.4401
  670MPD2    N1 9922   4.029   4.198  13.388  0.3269 -0.7621  0.3930
  670MPD2    H7 9923   4.002   4.261  13.314  1.2202 -1.8688 -0.8792
  671TMC3    C1 9924   3.882   3.832  13.983 -0.3248 -0.0113 -0.6344
  671TMC3    C2 9925   4.018   3.867  14.017 -0.0490  0.2850 -0.4907
  671TMC3    C3 9926   4.048   3.834  14.148 -0.1783  0.6694  0.0369
  671TMC3    C4 9927   3.801   3.759  14.061 -0.0199  0.6967 -0.2046
  671TMC3    C5 9928   3.856   3.700  14.172  0.2019  0.3564  0.4302
  671TMC3    C6 9929   3.979   3.740  14.218 -0.8786  0.1609  0.6805
  671TMC3     C 9930   3.806   3.917  13.893  0.1193  0.7046 -0.0025
  671TMC3     O 9931   3.684   3.919  13.915  0.5925 -0.4410  0.0083
  671TMC3     H 9932   4.083   3.943  13.976 -0.0645  0.4744 -0.1613
  671TMC3    H1 9933   3.700   3.734  14.029  0.7084  0.8034 -2.6421
  671TMC3    H2 9934   4.024   3.707  14.310 -0.4531  1.3902  0.9148
  671TMC3    C7 9935   3.789   3.579  14.215  0.0736 -0.4262  0.1950
  671TMC3    C8 9936   4.136   3.914  14.225 -0.6649  0.6228  0.4803
  671TMC3    O1 9937   3.679   3.545  14.175 -0.3724 -0.2825  0.2506
  671TMC3    O2 9938   4.092   3.937  14.340 -0.4352  0.2183 -0.0702
  672MPD2     C 9939   0.495   0.061   1.212  0.1114 -0.1151  0.7066
  672MPD2    C1 9940   0.623   0.070   1.160 -0.1393 -0.4313  0.4554
  672MPD2    C2 9941   0.726   0.104   1.247  0.2384 -0.4855  1.0312
  672MPD2    C3 9942   0.703   0.116   1.381 -0.1042  0.0723 -0.2133
  672MPD2    C4 9943   0.573   0.096   1.428 -0.4961 -0.8758 -0.6622
  672MPD2    C5 9944   0.468   0.073   1.346  0.1484 -0.3464  0.4018
  672MPD2     H 9945   0.828   0.099   1.211 -0.4249  0.4348 -0.9916
  672MPD2    H1 9946   0.559   0.078   1.534 -0.6889  1.3896 -0.2945
  672MPD2    H2 9947   0.411   0.015   1.162 -1.0891  0.3976  2.2663
  672MPD2    H3 9948   0.369   0.049   1.385  0.1842 -2.9706 -1.1525
  672MPD2     N 9949   0.814   0.136   1.470 -0.8477  0.9111  0.0131
  672MPD2    H5 9950   0.901   0.172   1.431  1.4519 -2.0352  2.4064
  672MPD2    N1 9951   0.648   0.050   1.021  0.5301 -0.4305  0.6431
  672MPD2    H7 9952   0.744   0.070   0.994 -0.8153  0.3506 -3.5242
  673TMC3    C1 9953   0.624   0.015   0.798  0.1856  0.0477  0.2529
  673TMC3    C2 9954   0.759   4.712   0.784  0.7366  0.2124  0.0405
  673TMC3    C3 9955   0.809   4.716   0.658  0.4002  0.1807 -0.9671
  673TMC3    C4 9956   0.540   0.054   0.697 -0.0718  0.3913 -0.0846
  673TMC3    C5 9957   0.605   0.066   0.576 -0.4659 -0.1024 -0.3730
  673TMC3    C6 9958   0.738   0.048   0.555  0.4394  0.1967  0.2199
  673TMC3     C 9959   0.565   0.005   0.927 -0.1273 -0.1431 -0.4837
  673TMC3     O 9960   0.445   4.699   0.927 -0.2796  0.1300  0.5787
  673TMC3     H 9961   0.812   4.674   0.871 -0.0040 -1.8435 -0.3968
  673TMC3    H1 9962   0.434   0.076   0.707 -0.1083 -1.0290  2.7219
  673TMC3    H2 9963   0.781   0.049   0.456  0.5173 -0.5587  0.2423
  673TMC3    C7 9964   0.548   0.150   0.469 -0.2558 -0.7791 -0.8118
  673TMC3    C8 9965   0.937   4.658   0.625 -0.0199 -0.0896 -0.3968
  673TMC3    O1 9966   0.617   0.178   0.371 -0.0530 -0.5042 -0.8053
  673TMC3    O2 9967   0.978   4.642   0.510  0.5043  0.2529 -0.0289
  674MPD2     C 9968   0.336   4.364   0.149  0.6619 -0.3312  1.0605
  674MPD2    C1 9969   0.337   4.338   0.288  0.2192 -0.4268 -0.0764
  674MPD2    C2 9970   0.231   4.263   0.336  0.1855 -0.0853 -0.1488
  674MPD2    C3 9971   0.127   4.220   0.258 -0.0875 -0.5705 -0.1052
  674MPD2    C4 9972   0.131   4.241   0.125  0.0141  0.1874 -0.2475
  674MPD2    C5 9973   0.240   4.307   0.066  0.2262  0.8727  0.4166
  674MPD2     H 9974   0.224   4.234   0.440 -0.1689 -0.5669 -0.3104
  674MPD2    H1 9975   0.062   4.191   0.058  1.1053 -2.0064  0.2393
  674MPD2    H2 9976   0.420   4.418   0.105 -0.0347 -0.3001 -0.2530
  674MPD2    H3 9977   0.249   4.318  17.658  1.7433 -0.5436  0.3907
  674MPD2     N 9978   0.025   4.137   0.313 -0.4390  0.4259  0.3682
  674MPD2    H5 9979   0.035   4.112   0.411 -1.5960  2.1808  0.9178
  674MPD2    N1 9980   0.457   4.378   0.356 -0.1721 -0.5399  0.4835
  674MPD2    H7 9981   0.521   4.438   0.304 -1.2225 -1.0439 -1.3872
  675TMC3    C1 9982   0.609   4.405   0.535 -0.3460 -0.2731 -0.1424
  675TMC3    C2 9983   0.622   4.385   0.671  0.1054  0.6313  0.3304
  675TMC3    C3 9984   0.738   4.327   0.722  0.3211 -0.3349 -0.1362
  675TMC3    C4 9985   0.712   4.372   0.447  0.2755  0.2492  0.4772
  675TMC3    C5 9986   0.822   4.317   0.505 -0.0593 -0.0908 -0.5573
  675TMC3    C6 9987   0.841   4.303   0.641  0.3980  0.0738  0.1431
  675TMC3     C 9988   0.479   4.366   0.490 -0.3218 -0.5061 -0.1695
  675TMC3     O 9989   0.411   4.303   0.571  0.4519 -0.0070  0.5688
  675TMC3     H 9990   0.531   4.387   0.730  0.5350 -0.6825  1.0453
  675TMC3    H1 9991   0.703   4.367   0.339 -0.5999  3.2658  0.4115
  675TMC3    H2 9992   0.932   4.268   0.688  1.6286  1.6581 -1.0762
  675TMC3    C7 9993   0.940   4.282   0.417 -0.2363 -0.0238  0.0207
  675TMC3    C8 9994   0.762   4.333   0.864 -0.1893  0.4478 -0.2091
  675TMC3    O1 9995   0.954   4.340   0.313  0.3187 -0.2193  0.4246
  675TMC3    O2 9996   0.718   4.427   0.923 -0.4131  0.4040 -0.3112
  676MPD2     C 9997   1.831   2.843  10.897  0.1547 -0.6023  0.0779
  676MPD2    C1 9998   1.787   2.784  11.011 -0.0543  0.0140 -0.1712
  676MPD2    C2 9999   1.786   2.645  11.028  0.2369 -1.7408 -0.4592
  676MPD2    C310000   1.833   2.564  10.924  0.4771  0.4149 -0.0109
  676MPD2    C410001   1.863   2.626  10.803 -0.1041 -0.1159  0.4266
  676MPD2    C510002   1.866   2.760  10.795 -0.2075  0.1308 -1.1008
  676MPD2     H10003   1.768   2.602  11.126 -0.5918  2.6958  1.3520
  676MPD2    H110004   1.888   2.580  10.708 -0.5452 -3.1932  1.8038
  676MPD2    H210005   1.837   2.950  10.880  0.0721 -0.6574 -0.3009
  676MPD2    H310006   1.894   2.813  10.705 -2.6099  0.8235 -1.4573
  676MPD2     N10007   1.840   2.423  10.932  0.4943  0.0210 -0.2566
  676MPD2    H510008   1.885   2.367  10.860 -1.2342  0.5575 -1.7409
  676MPD2    N110009   1.734   2.864  11.116  0.4049  0.0993  0.0422
  676MPD2    H710010   1.697   2.809  11.193  0.2540 -0.9542 -0.7816
  677TMC3    C110011   1.678   3.046  11.252 -0.4525 -0.2305  0.1373
  677TMC3    C210012   1.589   2.951  11.306  0.0452 -0.0823  0.3684
  677TMC3    C310013   1.560   2.961  11.441 -0.0378  0.2832 -0.0341
  677TMC3    C410014   1.746   3.137  11.333 -0.1441  0.2312 -0.7165
  677TMC3    C510015   1.718   3.131  11.467 -0.5103 -0.1302  0.7313
  677TMC3    C610016   1.614   3.054  11.523 -0.2063  0.5323 -0.4051
  677TMC3     C10017   1.741   3.001  11.129 -0.5040  0.2729  0.3348
  677TMC3     O10018   1.800   3.087  11.063  0.7227  0.0127  0.5770
  677TMC3     H10019   1.529   2.878  11.253  0.6661 -1.5992  1.8008
  677TMC3    H110020   1.799   3.223  11.296  0.1842  1.2524  2.1020
  677TMC3    H210021   1.609   3.046  11.631  0.6556 -3.4426 -0.6887
  677TMC3    C710022   1.775   3.222  11.566 -0.5862  0.7082 -0.0029
  677TMC3    C810023   1.474   2.871  11.502  0.1404 -0.2716  0.1428
  677TMC3    O110024   1.701   3.247  11.659  0.4242 -0.3313 -0.4666
  677TMC3    O210025   1.354   2.890  11.488 -0.1534 -0.0297  0.4565
  678MPD2     C10026   3.795   2.333   1.156  0.2458 -0.4516  0.1921
  678MPD2    C110027   3.832   2.217   1.094 -0.3837  0.5746 -0.0810
  678MPD2    C210028   3.737   2.142   1.023  0.0818  0.3281  0.2141
  678MPD2    C310029   3.600   2.178   1.027 -0.3156 -0.1895 -0.1321
  678MPD2    C410030   3.567   2.292   1.098  0.1220  0.5702 -0.0416
  678MPD2    C510031   3.662   2.365   1.161 -0.0633  0.1867  0.3998
  678MPD2     H10032   3.766   2.055   0.965  0.4143 -0.0678  0.9777
  678MPD2    H110033   3.467   2.327   1.121  0.0950  1.4659 -1.5175
  678MPD2    H210034   3.866   2.402   1.200 -1.6492  1.7354 -0.1568
  678MPD2    H310035   3.643   2.458   1.213 -0.6262 -0.2017  0.8971
  678MPD2     N10036   3.502   2.109   0.946  0.4427  0.0328 -0.0427
  678MPD2    H510037   3.543   2.034   0.891  0.9221 -0.3173  0.7960
  678MPD2    N110038   3.964   2.180   1.074 -0.3744 -0.6260 -0.0235
  678MPD2    H710039   3.977   2.093   1.023 -0.1733 -0.8007  0.3228
  679TMC3    C110040   4.319   1.991   1.058 -1.1551 -0.0196  0.3705
  679TMC3    C210041   4.200   2.055   1.087  0.0363  0.4231  0.5966
  679TMC3    C310042   4.195   2.185   1.091 -0.5489  0.0581 -0.0720
  679TMC3    C410043   4.441   2.055   1.038  0.2907  0.3317  0.3440
  679TMC3    C510044   4.435   2.188   1.061 -0.5061 -1.7043  0.3448
  679TMC3    C610045   4.311   2.264   1.078  0.3591 -0.1439 -0.4309
  679TMC3     C10046   4.321   1.853   1.029 -0.5361 -0.2002 -0.4922
  679TMC3     O10047   4.417   1.791   1.075 -0.5093  0.3618  0.2791
  679TMC3     H10048   4.117   1.993   1.119 -0.0857  0.9913  1.3746
  679TMC3    H110049   4.531   1.996   1.021 -0.6360 -1.0898  0.3775
  679TMC3    H210050   4.295   2.369   1.099 -1.0708 -0.1089 -1.7002
  679TMC3    C710051   4.561   2.263   1.063  0.3835 -0.6061  0.4200
  679TMC3    C810052   4.073   2.254   1.104 -0.1116  0.5602  0.5704
  679TMC3    O110053   4.660   2.204   1.090 -0.0422 -0.0529 -0.0967
  679TMC3    O210054   4.079   2.368   1.155 -0.0205 -0.0868 -0.4416
  680MPD2     C10055   3.064   0.915  13.167 -0.4532 -0.0406  0.0019
  680MPD2    C110056   3.095   0.848  13.286  0.0844 -0.2828  0.2292
  680MPD2    C210057   3.120   0.915  13.406  0.0101  0.1016 -0.3139
  680MPD2    C310058   3.112   1.055  13.407 -0.0920  0.1229 -0.2719
  680MPD2    C410059   3.054   1.117  13.293 -0.1699  0.0136  0.1381
  680MPD2    C510060   3.028   1.047  13.176  0.1632  0.0910  0.3551
  680MPD2     H10061   3.150   0.869  13.500  1.2861  0.2387 -0.6519
  680MPD2    H110062   3.043   1.225  13.292 -1.9290 -0.1584  1.1415
  680MPD2    H210063   3.053   0.873  13.068 -0.3552  0.6441 -0.3025
  680MPD2    H310064   2.993   1.094  13.085  1.9189  2.3405  0.8179
  680MPD2     N10065   3.119   1.131  13.525 -0.0255  0.0632  0.1482
  680MPD2    H510066   3.085   1.227  13.527  0.9223  0.3673  1.4164
  680MPD2    N110067   3.121   0.709  13.280 -0.3018 -0.3261 -0.1024
  680MPD2    H710068   3.152   0.673  13.370 -0.2488 -1.9634 -0.7692
  681TMC3    C110069   3.189   0.500  13.211 -0.4264 -0.1359 -0.4462
  681TMC3    C210070   3.115   0.479  13.322  0.0103  0.4049  0.2205
  681TMC3    C310071   3.186   0.421  13.426 -0.2029  0.3641 -0.2210
  681TMC3    C410072   3.321   0.460  13.193 -0.7952  0.0310 -0.0814
  681TMC3    C510073   3.379   0.396  13.302  0.2582 -0.0591 -0.5941
  681TMC3    C610074   3.316   0.379  13.417 -0.9131  0.6357  0.8099
  681TMC3     C10075   3.160   0.640  13.169  0.8191  0.3206 -0.4073
  681TMC3     O10076   3.179   0.674  13.053  0.3584 -0.3367  0.0730
  681TMC3     H10077   3.014   0.516  13.336 -0.1147  0.3806 -0.6089
  681TMC3    H110078   3.381   0.472  13.104  1.3171  0.0873  1.3433
  681TMC3    H210079   3.363   0.334  13.504  1.2133 -1.0331 -1.2066
  681TMC3    C710080   3.523   0.380  13.315  0.6336 -0.7860  0.0600
  681TMC3    C810081   3.154   0.463  13.562  0.9622  0.0689  0.3002
  681TMC3    O110082   3.564   0.300  13.397  0.8451 -0.5622 -0.4202
  681TMC3    O210083   3.038   0.473  13.595  0.1296  0.5912 -0.0570
  682MPD2     C10084   1.111   3.065  10.772  0.6669  0.2881  0.0434
  682MPD2    C110085   1.072   2.940  10.818  0.2096 -0.3184  0.1074
  682MPD2    C210086   1.052   2.931  10.952  0.7057 -0.3617 -0.0063
  682MPD2    C310087   1.059   3.044  11.038 -0.4907 -0.4234  0.0150
  682MPD2    C410088   1.076   3.172  10.989 -0.5019 -0.1150  0.0471
  682MPD2    C510089   1.100   3.182  10.850  0.0949 -0.2030 -0.4605
  682MPD2     H10090   1.015   2.838  10.994 -0.2916 -0.6306 -1.4782
  682MPD2    H110091   1.080   3.263  11.047  1.0784 -0.5537  0.6076
  682MPD2    H210092   1.139   3.094  10.671  1.5292 -1.5010 -0.2317
  682MPD2    H310093   1.118   3.273  10.793  1.9834 -0.3280 -0.0597
  682MPD2     N10094   1.025   3.014  11.169  0.2348 -0.0252 -0.1425
  682MPD2    H510095   1.005   2.919  11.198  0.5891 -0.0563  0.0066
  682MPD2    N110096   1.061   2.825  10.740 -0.1583  0.1126 -0.0998
  682MPD2    H710097   1.027   2.742  10.786  1.9448 -0.7254 -0.0424
  683TMC3    C110098   1.007   2.940  11.590 -0.2679  0.5921 -0.0879
  683TMC3    C210099   0.924   2.834  11.572  0.3369  0.3273  0.3082
  683TMC3    C310100   0.853   2.829  11.455 -0.3316 -0.3863  0.0592
  683TMC3    C410101   1.027   3.038  11.495 -0.1289 -0.1676  0.2742
  683TMC3    C510102   0.952   3.026  11.377  0.3831 -0.2064 -0.7877
  683TMC3    C610103   0.869   2.919  11.353 -0.1651 -0.6058 -0.7338
  683TMC3     C10104   1.069   2.966  11.724 -0.6369  0.0729  0.0574
  683TMC3     O10105   1.126   3.073  11.734  0.0535  0.1783 -0.2591
  683TMC3     H10106   0.889   2.769  11.651  2.0231  1.1994  1.7683
  683TMC3    H110107   1.098   3.117  11.516  1.3525 -1.6716  0.9770
  683TMC3    H210108   0.818   2.906  11.258 -0.6440  2.3525 -0.8818
  683TMC3    C710109   0.999   3.105  11.266 -0.0245 -0.6035  0.0140
  683TMC3    C810110   0.814   2.696  11.422 -0.2224 -0.6434 -0.2359
  683TMC3    O110111   1.011   3.228  11.265  0.4083 -0.2391  0.0613
  683TMC3    O210112   0.719   2.699  11.348  0.7700  0.1624 -0.2485
  684MPD2     C10113   3.879   1.948  16.522 -0.2651  0.5648  0.0706
  684MPD2    C110114   3.765   1.927  16.453 -0.1114  0.1429  0.0622
  684MPD2    C210115   3.682   2.030  16.431 -0.2369 -0.0148  0.6375
  684MPD2    C310116   3.706   2.155  16.475 -0.6815  0.3385 -0.1952
  684MPD2    C410117   3.809   2.169  16.566  0.0776 -0.5654  1.4088
  684MPD2    C510118   3.894   2.070  16.586 -0.1865 -0.2513 -0.6298
  684MPD2     H10119   3.592   2.005  16.375  0.8043 -0.9559 -0.6293
  684MPD2    H110120   3.829   2.261  16.620 -2.0110  2.3422 -2.8231
  684MPD2    H210121   3.954   1.876  16.552 -0.4711  0.5612  0.5906
  684MPD2    H310122   3.982   2.091  16.645 -0.8177  1.4876 -0.3073
  684MPD2     N10123   3.619   2.265  16.456 -0.4810  0.1132  0.0736
  684MPD2    H510124   3.647   2.351  16.501 -0.0547  1.2940 -2.4354
  684MPD2    N110125   3.749   1.808  16.372 -0.3936 -0.0228  0.0235
  684MPD2    H710126   3.699   1.812  16.284  1.5456  1.4379 -0.9871
  685TMC3    C110127   3.807   1.601  16.285  0.9123  0.0412  0.0958
  685TMC3    C210128   3.720   1.626  16.179 -1.0299 -0.3052  0.4309
  685TMC3    C310129   3.756   1.566  16.063  0.1003 -0.0414  0.2119
  685TMC3    C410130   3.901   1.500  16.287 -0.6990 -0.0919  0.1037
  685TMC3    C510131   3.926   1.443  16.163  0.3242 -0.2785 -0.7600
  685TMC3    C610132   3.855   1.471  16.051  0.1222  0.1301 -0.3205
  685TMC3     C10133   3.809   1.689  16.402  0.0975 -0.4414  0.5343
  685TMC3     O10134   3.867   1.651  16.505 -0.2195 -0.0578 -0.5265
  685TMC3     H10135   3.636   1.693  16.189 -0.3481  0.8621 -1.7341
  685TMC3    H110136   3.981   1.501  16.361 -2.2000  1.1549  1.7200
  685TMC3    H210137   3.881   1.427  15.956  0.5728  1.0689 -0.6334
  685TMC3    C710138   4.062   1.403  16.157  0.6267 -0.4174 -0.3300
  685TMC3    C810139   3.659   1.575  15.954 -0.0338 -0.1593  0.0952
  685TMC3    O110140   4.101   1.359  16.264 -0.1950  0.1249  0.0733
  685TMC3    O210141   3.658   1.488  15.867 -0.0302  0.2857 -0.1586
  686MPD2     C10142   0.403   2.087  15.550 -0.0339  0.1235 -0.4712
  686MPD2    C110143   0.490   1.994  15.590 -0.7713 -0.0943  0.2959
  686MPD2    C210144   0.555   1.913  15.502  0.5856 -0.1112  0.8697
  686MPD2    C310145   0.541   1.934  15.365 -0.2717  0.6425  0.0017
  686MPD2    C410146   0.450   2.034  15.324 -0.1344  0.4526 -0.5993
  686MPD2    C510147   0.377   2.100  15.417  1.0173  0.3004  0.0024
  686MPD2     H10148   0.622   1.833  15.531  0.1368 -0.9027 -0.2568
  686MPD2    H110149   0.422   2.047  15.220 -0.0737 -1.2203 -0.8372
  686MPD2    H210150   0.344   2.154  15.612 -0.2989  0.2248 -0.8325
  686MPD2    H310151   0.292   2.157  15.382 -1.4754 -2.2793  1.8612
  686MPD2     N10152   0.607   1.851  15.273  0.1642  0.0765  0.0723
  686MPD2    H510153   0.674   1.793  15.323 -0.7139  0.2507  1.4572
  686MPD2    N110154   0.500   1.978  15.728  0.6269  0.0431 -0.8424
  686MPD2    H710155   0.437   2.029  15.790  0.5206 -1.2363  0.0973
  687TMC3    C110156   0.639   1.714  15.088  0.6584  0.2557 -0.4022
  687TMC3    C210157   0.564   1.658  14.991  0.4882 -0.0929  0.9286
  687TMC3    C310158   0.547   1.521  14.983 -0.3122 -0.1789 -0.3507
  687TMC3    C410159   0.711   1.631  15.178  0.7223 -0.2694 -0.8077
  687TMC3    C510160   0.702   1.499  15.157 -0.0365 -0.6758 -0.0864
  687TMC3    C610161   0.618   1.445  15.065 -0.8222 -0.0614 -0.3187
  687TMC3     C10162   0.583   1.843  15.136  0.3227  0.3776  0.1958
  687TMC3     O10163   0.494   1.901  15.072 -0.0358  0.4212 -0.7418
  687TMC3     H10164   0.501   1.715  14.924 -0.1459 -0.9776  0.7738
  687TMC3    H110165   0.782   1.671  15.249  0.0583 -0.7516  0.1267
  687TMC3    H210166   0.587   1.342  15.074 -2.7573  0.6278  0.8550
  687TMC3    C710167   0.776   1.415  15.246  0.9471 -0.0364 -0.4272
  687TMC3    C810168   0.412   1.480  14.957  0.0699  0.2412  0.0793
  687TMC3    O110169   0.827   1.473  15.343 -0.3393 -1.3066  0.5533
  687TMC3    O210170   0.396   1.418  14.855  0.0672 -0.2040  1.1557
  688MPD2     C10171   0.110   0.940  17.203 -0.2205 -0.0200 -0.6938
  688MPD2    C110172   0.164   0.817  17.237  0.4680 -0.7737 -0.3756
  688MPD2    C210173   0.254   0.755  17.154 -0.1973  0.3711  0.2999
  688MPD2    C310174   0.283   0.799  17.025  0.1445 -0.6173  0.0775
  688MPD2    C410175   0.240   0.925  17.001  0.0647 -0.2781  0.1276
  688MPD2    C510176   0.158   0.999  17.091  0.0605 -0.0555  0.9340
  688MPD2     H10177   0.284   0.659  17.195 -3.1324 -0.4413  0.5711
  688MPD2    H110178   0.259   0.971  16.904 -0.6913 -0.4848 -0.1212
  688MPD2    H210179   0.041   0.999  17.262  0.1865 -0.4567  0.2245
  688MPD2    H310180   0.129   1.096  17.051  0.0559 -0.4388  0.0026
  688MPD2     N10181   0.362   0.736  16.930 -0.2446 -0.2149 -0.0857
  688MPD2    H510182   0.376   0.785  16.842 -1.0556  0.7288  0.3204
  688MPD2    N110183   0.132   0.753  17.360 -0.2432 -0.4771  0.3680
  688MPD2    H710184   0.207   0.703  17.407  0.8013  1.1966  0.4568
  689TMC3    C110185   0.007   0.729  17.555 -0.5838  0.4221 -0.1388
  689TMC3    C210186   0.119   0.751  17.632 -0.1911  0.0615 -0.3423
  689TMC3    C310187   0.113   0.713   0.063 -0.0083 -0.1813 -0.2174
  689TMC3    C410188   4.610   0.680  17.603 -0.0084  0.1576  0.2123
  689TMC3    C510189   4.611   0.651   0.038  0.2999 -0.5569  0.2457
  689TMC3    C610190   4.719   0.675   0.122 -0.2322 -0.4641  0.2027
  689TMC3     C10191   0.007   0.774  17.418  0.1384 -1.4705  0.1766
  689TMC3     O10192   4.623   0.799  17.362  0.7639 -0.0487 -0.1802
  689TMC3     H10193   0.201   0.809  17.592 -1.0048  1.0238 -0.6322
  689TMC3    H110194   4.524   0.676  17.536  1.5073  1.3003 -1.8151
  689TMC3    H210195   0.002   0.635   0.223  0.0364 -0.3526  0.2292
  689TMC3    C710196   4.548   0.530   0.079 -0.7014 -0.9084 -0.1598
  689TMC3    C810197   0.233   0.694   0.141 -0.0746 -0.0699  0.0211
  689TMC3    O110198   4.564   0.491   0.194 -0.0478 -0.0075  0.1892
  689TMC3    O210199   0.209   0.704   0.262  0.1419 -0.8315 -0.1397
  690MPD2     C10200   1.859   2.503  15.706  0.6541 -0.2884 -0.0608
  690MPD2    C110201   1.892   2.510  15.569 -0.4658 -0.3263  0.2120
  690MPD2    C210202   2.017   2.560  15.537  0.1226 -0.7736  0.1220
  690MPD2    C310203   2.102   2.609  15.634  0.1432  0.2886  0.0444
  690MPD2    C410204   2.065   2.597  15.765 -0.2614 -0.6127  0.8752
  690MPD2    C510205   1.950   2.540  15.803 -0.7542 -0.0039 -0.9598
  690MPD2     H10206   2.047   2.566  15.433  2.0481  2.7878  0.8942
  690MPD2    H110207   2.139   2.634  15.835 -1.5278  2.8930  0.3638
  690MPD2    H210208   1.772   2.442  15.730  1.1601 -1.3885 -1.0228
  690MPD2    H310209   1.925   2.542  15.909  1.9192  1.9538 -0.3832
  690MPD2     N10210   2.219   2.666  15.590 -0.4616 -0.3875  0.4765
  690MPD2    H510211   2.241   2.672  15.491 -0.3181  0.4696  0.5596
  690MPD2    N110212   1.799   2.453  15.467  0.6619 -0.8042 -0.0151
  690MPD2    H710213   1.828   2.448  15.370  0.7969  0.0073 -0.0132
  691TMC3    C110214   1.601   2.347  15.372  1.1238  0.1229  0.2178
  691TMC3    C210215   1.466   2.327  15.394  0.1667 -0.2632  0.2472
  691TMC3    C310216   1.419   2.198  15.383 -0.1967  0.0989 -0.2358
  691TMC3    C410217   1.691   2.257  15.313 -0.1789 -0.0444  0.1622
  691TMC3    C510218   1.638   2.135  15.286 -0.4239  0.6925  0.1070
  691TMC3    C610219   1.509   2.109  15.322  0.5709 -0.1745 -1.0849
  691TMC3     C10220   1.662   2.414  15.489  0.3714 -0.3784  0.4403
  691TMC3     O10221   1.595   2.419  15.591  0.4136 -0.0921 -0.8171
  691TMC3     H10222   1.402   2.409  15.422 -0.6634 -0.5664 -0.7782
  691TMC3    H110223   1.796   2.281  15.299 -0.4074  0.1540 -1.2567
  691TMC3    H210224   1.471   2.007  15.317 -0.0357  0.1452 -2.7230
  691TMC3    C710225   1.727   2.031  15.320 -0.6204 -0.2787  0.1153
  691TMC3    C810226   1.291   2.144  15.426 -0.2974  0.0692 -0.4055
  691TMC3    O110227   1.833   2.065  15.369 -0.3339  0.4502  0.0801
  691TMC3    O210228   1.273   2.027  15.392 -0.1290  0.5348  0.0363
  692TMC3    C110229   3.753   3.411  15.798  0.4169  0.1996 -0.2394
  692TMC3    C210230   3.865   3.486  15.819  0.3795  1.1914  0.2435
  692TMC3    C310231   3.985   3.429  15.852 -0.4332  0.6843  0.5662
  692TMC3    C410232   3.745   3.276  15.812 -0.3169 -0.1487 -0.5502
  692TMC3    C510233   3.859   3.216  15.847 -0.2407  0.5985 -0.4706
  692TMC3    C610234   3.975   3.293  15.855  0.2149  0.2673 -0.3352
  692TMC3     C10235   3.621   3.472  15.792  0.0249  0.5837 -1.1877
  692TMC3     O10236   3.528   3.394  15.783  0.2374  0.1879 -0.0581
  692TMC3     H10237   3.876   3.588  15.784 -0.5469  1.2901  0.2377
  692TMC3    H110238   3.648   3.230  15.797 -0.8739  1.5567 -2.1902
  692TMC3    H210239   4.052   3.230  15.898 -4.5481 -4.1944  1.5887
  692TMC3    C710240   3.876   3.072  15.849 -0.0351 -0.1270 -0.1003
  692TMC3    C810241   4.019   3.467  15.986 -0.3010 -0.1586 -0.5786
  692TMC3    O110242   3.989   3.035  15.820 -0.9628 -0.1950  0.0607
  692TMC3    O210243   4.093   3.389  16.048 -0.4553  0.2171 -0.3625
  693MPD2     C10244   3.038   2.089  10.218 -0.4117 -0.5388  0.4829
  693MPD2    C110245   3.012   2.036  10.343 -0.4151 -0.1943  0.2455
  693MPD2    C210246   3.119   1.984  10.421  0.4496 -0.3943  0.1009
  693MPD2    C310247   3.252   2.001  10.380  0.6315  0.7367  0.3365
  693MPD2    C410248   3.276   2.069  10.256  0.0221  1.0560  0.2178
  693MPD2    C510249   3.170   2.113  10.183 -0.7912 -0.2257  0.2220
  693MPD2     H10250   3.095   1.910  10.496  0.1977  1.8985  2.3231
  693MPD2    H110251   3.378   2.103  10.237 -0.7384  3.0551 -0.3142
  693MPD2    H210252   2.957   2.129  10.158 -1.1206 -0.2039  1.6550
  693MPD2    H310253   3.181   2.157  10.085 -2.1424  0.5889  0.4327
  693MPD2     N10254   3.364   1.950  10.442 -0.0332 -0.2258  0.2038
  693MPD2    H510255   3.450   1.939  10.390  0.1147  1.6289  0.0432
  693MPD2    N110256   2.876   2.006  10.379  0.3568 -0.0682 -0.7467
  693MPD2    H710257   2.802   2.012  10.309  1.3298  0.0735 -1.7595
  694TMC3    C110258   2.694   1.932  10.512  0.0317 -0.4565  0.1091
  694TMC3    C210259   2.631   1.885  10.397 -1.0172 -0.1845  0.4605
  694TMC3    C310260   2.512   1.813  10.421 -0.4540 -0.8203  0.5047
  694TMC3    C410261   2.638   1.934  10.630 -0.5187 -0.1539 -0.8675
  694TMC3    C510262   2.524   1.867  10.649  0.1059 -0.8754 -0.3522
  694TMC3    C610263   2.457   1.802  10.546  1.0035  0.2382  0.5913
  694TMC3     C10264   2.835   1.969  10.504 -0.1641  0.1302 -0.4850
  694TMC3     O10265   2.893   1.972  10.609 -0.5221 -0.2383 -0.8310
  694TMC3     H10266   2.690   1.885  10.306 -2.3446 -0.3092 -0.4156
  694TMC3    H110267   2.679   1.975  10.722 -0.9964 -0.2764 -0.5999
  694TMC3    H210268   2.374   1.736  10.568  0.4842  0.9254  0.7002
  694TMC3    C710269   2.502   1.832  10.785 -0.0733  0.1083 -0.8169
  694TMC3    C810270   2.429   1.773  10.306  0.5370 -0.2941 -0.2731
  694TMC3    O110271   2.528   1.915  10.871  0.6365 -0.6425  0.1437
  694TMC3    O210272   2.353   1.679  10.330 -0.1558  0.7660  0.6423
  695MPD2     C10273   3.918   2.880  13.782  0.0890 -0.4041  0.7935
  695MPD2    C110274   3.918   2.979  13.875  0.2600 -0.7357 -0.5591
  695MPD2    C210275   3.801   3.029  13.931 -0.1988  0.5687  0.0103
  695MPD2    C310276   3.682   2.980  13.896 -0.4443 -0.4776  0.2631
  695MPD2    C410277   3.682   2.879  13.800 -1.4201 -0.0373  0.1437
  695MPD2    C510278   3.797   2.831  13.741  0.8430 -0.5911  0.1502
  695MPD2     H10279   3.796   3.108  14.004 -1.6999 -1.4796  2.1366
  695MPD2    H110280   3.587   2.844  13.762  0.2422 -2.2805 -1.9605
  695MPD2    H210281   4.007   2.848  13.730  0.3504  0.8691  0.4576
  695MPD2    H310282   3.792   2.754  13.665 -0.6966  0.2357 -0.5982
  695MPD2     N10283   3.567   3.024  13.968  0.6058 -0.1943 -0.2472
  695MPD2    H510284   3.581   3.106  14.026  2.8301 -1.4105  0.9195
  695MPD2    N110285   4.040   3.045  13.912 -0.5737 -0.7536 -0.1026
  695MPD2    H710286   4.035   3.119  13.982  0.7507 -1.5686  0.8379
  696TMC3    C110287   3.358   3.035  14.044  0.4612 -1.0284  0.3485
  696TMC3    C210288   3.403   3.061  14.172 -0.3837 -0.5734 -0.0935
  696TMC3    C310289   3.333   3.139  14.253  0.8302  0.0331  0.2609
  696TMC3    C410290   3.240   3.094  13.998  0.2536  0.0752 -0.1511
  696TMC3    C510291   3.178   3.183  14.083  0.4008  0.0414  0.7054
  696TMC3    C610292   3.217   3.197  14.215 -0.4413 -0.1470 -0.6501
  696TMC3     C10293   3.443   2.968  13.959 -0.2395 -0.6430  0.8263
  696TMC3     O10294   3.387   2.905  13.871 -0.3211  0.4384 -0.0160
  696TMC3     H10295   3.499   3.017  14.196  0.1495 -0.0626 -1.2605
  696TMC3    H110296   3.200   3.095  13.897  1.6599  2.0021 -0.6885
  696TMC3    H210297   3.156   3.262  14.276  0.1299 -0.3307  0.1103
  696TMC3    C710298   3.153   3.309  14.014  0.2693 -0.2514 -0.1927
  696TMC3    C810299   3.412   3.230  14.323  0.7492 -0.0248 -0.5662
  696TMC3    O110300   3.118   3.311  13.896 -0.7284  0.5895 -0.3323
  696TMC3    O210301   3.382   3.350  14.309  0.2230 -0.1321 -0.2783
  697MPD2     C10302   3.315   0.320  15.589  0.2012 -0.4350  0.0512
  697MPD2    C110303   3.329   0.274  15.457  0.2417  0.1860  0.8603
  697MPD2    C210304   3.371   0.361  15.361  0.2019  0.3141 -0.2700
  697MPD2    C310305   3.386   0.497  15.392 -0.1294  0.1226 -0.0567
  697MPD2    C410306   3.362   0.543  15.515 -0.1122  0.1252 -0.0658
  697MPD2    C510307   3.324   0.453  15.613 -0.0338 -0.1401  0.2241
  697MPD2     H10308   3.389   0.324  15.261  0.2996  1.3683 -0.6460
  697MPD2    H110309   3.374   0.645  15.548 -0.4013 -0.3182  1.4273
  697MPD2    H210310   3.280   0.257  15.669  0.6275 -0.4822  0.2009
  697MPD2    H310311   3.297   0.479  15.714 -1.5238 -0.2867 -0.1411
  697MPD2     N10312   3.439   0.588  15.291  0.3122 -0.1980 -0.0815
  697MPD2    H510313   3.453   0.551  15.198 -1.2984 -0.3956 -0.2562
  697MPD2    N110314   3.305   0.139  15.417  0.9273  0.0750  0.5599
  697MPD2    H710315   3.330   0.114  15.322  1.3158 -1.7704  1.1576
  698TMC3    C110316   3.566   0.761  15.196  0.2152  0.0771 -0.4220
  698TMC3    C210317   3.669   0.835  15.236 -0.9565 -0.2629 -0.1028
  698TMC3    C310318   3.773   0.840  15.146  1.1330 -0.7982  0.0294
  698TMC3    C410319   3.570   0.689  15.077 -0.0726  0.3944  0.4626
  698TMC3    C510320   3.677   0.709  14.997  0.4366  0.3388 -0.1749
  698TMC3    C610321   3.785   0.784  15.027 -0.6742 -0.1378 -0.0585
  698TMC3     C10322   3.479   0.715  15.306  0.6213  0.3140  0.3333
  698TMC3     O10323   3.486   0.787  15.401 -0.2289  0.2516 -0.0899
  698TMC3     H10324   3.686   0.862  15.339  0.4642 -1.9267  0.0982
  698TMC3    H110325   3.496   0.614  15.055  0.8041  0.0617 -1.3313
  698TMC3    H210326   3.867   0.803  14.959  0.0401 -2.4004  0.1776
  698TMC3    C710327   3.674   0.613  14.889 -0.4878 -0.1276 -0.1404
  698TMC3    C810328   3.871   0.935  15.170 -0.2229 -0.4468 -0.0525
  698TMC3    O110329   3.568   0.571  14.854 -0.1275 -0.4061  0.7493
  698TMC3    O210330   3.926   0.941  15.276 -0.7282  0.2209  0.5211
  699TMC3    C110331   3.488   2.903  12.749  0.0319 -0.0285 -0.0580
  699TMC3    C210332   3.550   2.813  12.838 -0.7412 -0.4684 -0.3511
  699TMC3    C310333   3.487   2.692  12.855  0.2641  0.3255  0.6605
  699TMC3    C410334   3.359   2.890  12.712  0.5061  0.0553  0.3367
  699TMC3    C510335   3.294   2.774  12.740 -0.6968 -0.1457 -0.0263
  699TMC3    C610336   3.361   2.673  12.806 -0.3254  0.1290 -0.3552
  699TMC3     C10337   3.561   3.009  12.687  0.1037 -0.0121 -0.2770
  699TMC3     O10338   3.502   3.087  12.612  0.1921  0.1133 -0.5469
  699TMC3     H10339   3.646   2.841  12.881 -1.3165  1.9970 -0.6937
  699TMC3    H110340   3.314   2.963  12.645  0.0098  0.2247  0.8602
  699TMC3    H210341   3.315   2.576  12.818  0.8517 -0.2547  1.0900
  699TMC3    C710342   3.152   2.797  12.778  0.6985  0.1019  0.6456
  699TMC3    C810343   3.508   2.628  12.976  0.4522 -0.2736 -0.3785
  699TMC3    O110344   3.110   2.910  12.757  0.2216 -0.3164 -0.0876
  699TMC3    O210345   3.419   2.557  13.016 -0.7129  0.0888  0.5231
  700TMC3    C110346   2.694   1.140  17.176 -0.1684  1.3181 -0.0451
  700TMC3    C210347   2.715   1.009  17.172 -0.0005  0.3538 -0.1314
  700TMC3    C310348   2.743   0.937  17.287  0.5830  0.3457 -0.3396
  700TMC3    C410349   2.695   1.202  17.300  0.2688 -0.0221  0.1860
  700TMC3    C510350   2.722   1.131  17.415  0.7129  0.7641  0.5997
  700TMC3    C610351   2.745   0.993  17.411 -0.5627 -0.3684 -0.1389
  700TMC3     C10352   2.650   1.205  17.059  0.2229  0.0784  0.0294
  700TMC3     O10353   2.609   1.139  16.964  0.3616  0.0324  0.0846
  700TMC3     H10354   2.714   0.952  17.079 -1.7231 -0.4616  0.3926
  700TMC3    H110355   2.663   1.306  17.305 -2.2279 -0.6344 -3.3896
  700TMC3    H210356   2.787   0.942  17.497 -0.7635  0.3890  0.4073
  700TMC3    C710357   2.750   1.213  17.529  0.4334  0.2005 -0.4315
  700TMC3    C810358   2.777   0.802  17.265  0.3241  0.1397 -0.0744
  700TMC3    O110359   2.753   1.334  17.513 -0.0836  0.0803 -0.3337
  700TMC3    O210360   2.807   0.776  17.152 -0.1788 -0.0119  0.2266
  701TMC3    C110361   2.855   4.055  15.259 -0.1020 -0.0385 -0.5137
  701TMC3    C210362   2.801   4.063  15.133 -0.5635  0.3207  0.1098
  701TMC3    C310363   2.751   4.193  15.099 -0.3657 -0.1351 -0.2761
  701TMC3    C410364   2.861   4.160  15.344  0.5991  0.6614  0.4165
  701TMC3    C510365   2.813   4.282  15.306  0.3164 -0.0996 -0.0376
  701TMC3    C610366   2.779   4.305  15.176  0.0272  0.2340 -1.6063
  701TMC3     C10367   2.817   3.928  15.321 -0.1527 -0.2725 -0.0518
  701TMC3     O10368   2.724   3.935  15.403  0.9695  0.4005  0.2440
  701TMC3     H10369   2.783   3.981  15.064  3.3721 -0.0614 -0.4207
  701TMC3    H110370   2.867   4.149  15.451  0.4791 -0.8599  0.2766
  701TMC3    H210371   2.744   4.404  15.150 -2.0749  0.1286  0.8274
  701TMC3    C710372   2.846   4.408  15.378 -0.7248 -0.0838  0.1029
  701TMC3    C810373   2.676   4.211  14.977  0.7548 -0.4063 -0.6998
  701TMC3    O110374   2.862   4.507  15.308 -0.4694 -0.3102 -0.0481
  701TMC3    O210375   2.668   4.324  14.936  0.5869  0.2401  0.3321
  702MPD2     C10376   2.044   1.923  10.461  0.8429 -0.0149  0.3687
  702MPD2    C110377   2.022   2.045  10.511  0.4662  0.0046 -0.3033
  702MPD2    C210378   2.067   2.166  10.453 -0.9787  0.3320  0.3841
  702MPD2    C310379   2.150   2.158  10.342  0.1466 -0.0913 -0.8694
  702MPD2    C410380   2.177   2.029  10.290  0.4788 -0.0781 -0.3482
  702MPD2    C510381   2.114   1.911  10.342 -0.1816 -0.1340  0.2431
  702MPD2     H10382   2.041   2.258  10.503 -0.2965 -0.1168  1.5514
  702MPD2    H110383   2.234   2.016  10.199 -0.0432 -3.4071 -0.1996
  702MPD2    H210384   2.000   1.832  10.501  0.0847  0.5703  0.8576
  702MPD2    H310385   2.125   1.820  10.285 -1.1935  0.2975 -0.6391
  702MPD2     N10386   2.228   2.270  10.300  0.0044  0.0459  0.2369
  702MPD2    H510387   2.191   2.360  10.328 -1.5822 -0.6771  0.4605
  702MPD2    N110388   1.949   2.063  10.631 -0.0489  0.8941  0.4438
  702MPD2    H710389   1.917   2.158  10.648  1.6886  1.6437 -0.4514
  703TMC3    C110390   2.373   2.399  10.179  0.4833  0.0352  0.3953
  703TMC3    C210391   2.275   2.485  10.182  0.1368  0.0102  0.6023
  703TMC3    C310392   2.305   2.619  10.185  0.0750 -0.1599 -0.8410
  703TMC3    C410393   2.511   2.423  10.174 -0.3542 -0.0952  0.0571
  703TMC3    C510394   2.540   2.555  10.185 -0.0613 -0.6454  0.4466
  703TMC3    C610395   2.441   2.652  10.187 -0.6885 -0.3771  0.5646
  703TMC3     C10396   2.335   2.262  10.215 -0.3708 -0.2940 -0.3684
  703TMC3     O10397   2.419   2.177  10.194  0.6550 -0.5336  0.2868
  703TMC3     H10398   2.171   2.454  10.182  0.3629 -0.7317  1.1052
  703TMC3    H110399   2.581   2.341  10.172  1.6751  1.6401  0.2754
  703TMC3    H210400   2.473   2.755  10.203 -0.0354 -0.5021  0.0776
  703TMC3    C710401   2.673   2.609  10.222  1.0515  0.0319 -0.8414
  703TMC3    C810402   2.202   2.699  10.256  0.4817  0.1800 -0.1302
  703TMC3    O110403   2.697   2.729  10.218 -0.3739 -0.3607 -0.4766
  703TMC3    O210404   2.111   2.646  10.321  0.0128 -0.4418 -0.0031
  704TMC3    C110405   4.683   0.504  12.056  0.0667 -0.0086  0.0535
  704TMC3    C210406   0.095   0.511  12.031  0.1290  0.1100 -0.1173
  704TMC3    C310407   0.180   0.439  12.120  0.1679  0.0967 -0.3016
  704TMC3    C410408   4.631   0.424  12.154  0.1225  0.1440 -0.0895
  704TMC3    C510409   4.714   0.360  12.236  0.5658  0.2099  0.4159
  704TMC3    C610410   0.123   0.360  12.219  0.3955  0.2804 -0.4969
  704TMC3     C10411   4.601   0.591  11.978  0.6091  0.2607  0.4147
  704TMC3     O10412   4.479   0.599  11.999 -0.1230 -0.0887  0.2186
  704TMC3     H10413   0.139   0.553  11.941 -0.0973  1.7473  0.5344
  704TMC3    H110414   4.524   0.413  12.174 -0.1149 -0.6072 -1.8330
  704TMC3    H210415   0.191   0.307  12.284 -0.9909 -1.0701 -0.1647
  704TMC3    C710416   4.672   0.232  12.284  0.1363  0.3332 -0.4473
  704TMC3    C810417   0.314   0.412  12.080  0.5312  0.2814 -0.6117
  704TMC3    O110418   0.034   0.145  12.306  0.4384  0.6007  0.0699
  704TMC3    O210419   0.360   0.310  12.125  0.2480 -0.2029 -0.3283
  705MPD2     C10420   4.085   2.652  16.225  0.3396 -0.7331 -0.3732
  705MPD2    C110421   4.102   2.789  16.204 -0.6096  0.0938  0.3985
  705MPD2    C210422   3.990   2.861  16.239 -1.4632  0.0371 -0.2203
  705MPD2    C310423   3.871   2.805  16.300 -0.2755 -0.1948  0.0150
  705MPD2    C410424   3.866   2.671  16.323  0.0742  0.5242  0.0013
  705MPD2    C510425   3.977   2.599  16.297 -0.2193  0.4768 -0.4343
  705MPD2     H10426   3.981   2.965  16.209  2.4059  0.6535  0.7448
  705MPD2    H110427   3.788   2.626  16.383  0.5873 -0.5468 -0.1318
  705MPD2    H210428   4.157   2.575  16.197 -0.1475 -1.2207 -0.2752
  705MPD2    H310429   3.984   2.496  16.331  3.9267  0.7211 -0.4846
  705MPD2     N10430   3.757   2.879  16.340 -0.4121  0.1720 -0.1466
  705MPD2    H510431   3.686   2.816  16.376 -0.1095 -0.0467  0.0680
  705MPD2    N110432   4.218   2.844  16.152  0.6221  0.3622  0.2757
  705MPD2    H710433   4.209   2.943  16.131 -0.7627  1.1961  4.7993
  706TMC3    C110434   4.487   2.932  15.842  0.1185  0.1450 -0.1573
  706TMC3    C210435   4.457   3.061  15.875 -0.5238 -0.4637  0.0438
  706TMC3    C310436   4.439   3.094  16.005  0.3368  0.9426  0.3129
  706TMC3    C410437   4.469   2.830  15.936 -0.3051 -0.2531 -0.3495
  706TMC3    C510438   4.435   2.869  16.062 -0.2514 -0.1339 -0.3563
  706TMC3    C610439   4.420   2.997  16.097 -0.0330 -0.2764 -0.8347
  706TMC3     C10440   4.521   2.885  15.707  0.5784 -0.2804  0.3109
  706TMC3     O10441   4.578   2.774  15.702 -0.1681  0.3682  0.7247
  706TMC3     H10442   4.455   3.134  15.795  1.4223  1.2648  1.5673
  706TMC3    H110443   4.479   2.726  15.911 -0.7254  0.2407 -2.5384
  706TMC3    H210444   4.386   3.025  16.196 -0.7742 -3.1998 -0.2688
  706TMC3    C710445   4.338   2.786  16.125 -0.3807  0.7854 -0.2423
  706TMC3    C810446   4.434   3.240  16.027 -0.1103 -0.6625 -0.1214
  706TMC3    O110447   4.364   2.664  16.135 -0.0204 -0.0008  0.1101
  706TMC3    O210448   4.473   3.311  15.936 -0.7638 -0.4541  0.1242
  707TMC3    C110449   1.830   1.617   1.754 -0.1161  0.2675  0.5621
  707TMC3    C210450   1.890   1.503   1.795  0.8038  0.3318 -0.0601
  707TMC3    C310451   1.809   1.409   1.856 -0.0798 -0.0956 -0.1472
  707TMC3    C410452   1.690   1.644   1.771  0.9877  0.6862 -0.2976
  707TMC3    C510453   1.618   1.547   1.843 -0.3800  0.3041 -0.7614
  707TMC3    C610454   1.675   1.433   1.890 -0.5699  0.5250 -0.1224
  707TMC3     C10455   1.916   1.711   1.679 -0.9469 -0.6650  0.3635
  707TMC3     O10456   2.035   1.688   1.669 -0.4003  0.5210  0.3950
  707TMC3     H10457   1.996   1.489   1.778  0.9606  2.3180 -0.7303
  707TMC3    H110458   1.642   1.739   1.750 -0.5083 -0.6410 -2.8645
  707TMC3    H210459   1.610   1.357   1.931 -0.9965  1.5471  1.0985
  707TMC3    C710460   1.476   1.582   1.875  0.0328 -0.3471 -0.1450
  707TMC3    C810461   1.849   1.270   1.873 -0.8153  0.5652 -0.3209
  707TMC3    O110462   1.424   1.652   1.786 -0.6263  0.3968 -0.4362
  707TMC3    O210463   1.786   1.196   1.948  0.2851 -0.2401  0.6151
  708MPD2     C10464   2.666   1.661  13.797  0.0370 -0.4331 -0.9154
  708MPD2    C110465   2.569   1.694  13.892 -0.3025 -1.0255 -0.0467
  708MPD2    C210466   2.558   1.608  14.004  0.6521 -0.3297  0.1846
  708MPD2    C310467   2.654   1.503  14.020 -0.2007  0.4730  0.2295
  708MPD2    C410468   2.742   1.474  13.925 -0.0663  0.3399  0.0202
  708MPD2    C510469   2.743   1.547  13.806  0.3629  0.1423  0.0304
  708MPD2     H10470   2.489   1.635  14.083  2.4265 -0.5292  1.8190
  708MPD2    H110471   2.820   1.400  13.941 -2.1330 -1.9086 -0.2901
  708MPD2    H210472   2.680   1.719  13.706 -1.4817 -0.0826 -0.9418
  708MPD2    H310473   2.814   1.512  13.732 -0.7249 -0.0422 -0.9054
  708MPD2     N10474   2.630   1.413  14.132  0.1304 -0.4257  0.0322
  708MPD2    H510475   2.538   1.423  14.172 -0.1088  0.6320 -0.7830
  708MPD2    N110476   2.476   1.802  13.884 -0.4096  0.8926 -0.1455
  708MPD2    H710477   2.417   1.812  13.966  2.0387  0.6366  1.6567
  709TMC3    C110478   2.345   1.973  13.818  0.1062 -0.6661  0.4272
  709TMC3    C210479   2.250   1.950  13.722 -0.3647  0.3753  0.6659
  709TMC3    C310480   2.123   1.933  13.762  0.8560  0.3019 -0.0996
  709TMC3    C410481   2.309   1.986  13.946  0.2976 -0.6398  0.0362
  709TMC3    C510482   2.185   1.940  13.981 -0.5397 -0.6927 -0.0547
  709TMC3    C610483   2.086   1.924  13.892  0.3150 -0.4015 -0.5053
  709TMC3     C10484   2.460   1.884  13.779 -0.3534  0.5792 -1.0233
  709TMC3     O10485   2.502   1.879  13.664 -0.2340  0.5350 -0.5401
  709TMC3     H10486   2.275   1.953  13.616 -1.0504  0.9341  0.5197
  709TMC3    H110487   2.373   2.027  14.024  0.0716  0.3006 -0.2667
  709TMC3    H210488   1.985   1.889  13.910  1.2073 -1.7322  1.8372
  709TMC3    C710489   2.192   1.854  14.093  0.4436  0.0466 -0.6690
  709TMC3    C810490   2.019   1.913  13.663  0.4404  0.0873 -0.1074
  709TMC3    O110491   2.302   1.841  14.153 -0.0059  0.5661 -0.0883
  709TMC3    O210492   1.909   1.869  13.699  0.3074 -0.2220  0.5560
  710TMC3    C110493   4.534   3.256   1.030  0.1926 -0.7470 -0.4724
  710TMC3    C210494   4.469   3.305   0.923  0.0265  0.2687 -0.3114
  710TMC3    C310495   4.451   3.221   0.813  0.0243  0.6363 -0.4931
  710TMC3    C410496   4.584   3.134   1.035 -0.6426 -0.7096 -0.0063
  710TMC3    C510497   4.560   3.052   0.932 -0.6977  0.3245 -0.0110
  710TMC3    C610498   4.491   3.088   0.822  0.6540  0.1599 -0.6335
  710TMC3     C10499   4.549   3.336   1.147 -0.5544 -0.1069 -0.2806
  710TMC3     O10500   4.651   3.317   1.210 -0.1642  0.2180  1.0071
  710TMC3     H10501   4.449   3.410   0.908  0.4464  0.3492 -0.3145
  710TMC3    H110502   4.634   3.095   1.123  2.3289  0.8276 -1.0354
  710TMC3    H210503   4.464   3.021   0.741  2.2047  0.0234 -1.0380
  710TMC3    C710504   4.568   2.906   0.953  0.3074  0.0709  0.2717
  710TMC3    C810505   4.376   3.254   0.695 -0.5716 -1.3064 -0.4506
  710TMC3    O110506   4.507   2.838   0.870 -0.8160  0.2917 -0.1815
  710TMC3    O210507   4.399   3.194   0.592 -0.1205 -0.3762  0.4926
  711TMC3    C110508   3.460   3.947  14.952 -0.5544  0.7106 -0.5167
  711TMC3    C210509   3.474   4.012  15.067  0.2227 -0.1824 -1.3844
  711TMC3    C310510   3.596   4.011  15.130 -0.0378 -0.3403  0.1703
  711TMC3    C410511   3.564   3.871  14.907 -0.4285  0.3477  0.1448
  711TMC3    C510512   3.684   3.862  14.973  0.6517 -0.5448  0.9350
  711TMC3    C610513   3.695   3.927  15.092 -0.4211  0.3479 -0.0801
  711TMC3     C10514   3.337   3.883  14.932 -0.0929  0.1801  0.4126
  711TMC3     O10515   3.343   3.763  14.911  0.3371  0.6956 -0.1299
  711TMC3     H10516   3.388   4.067  15.104 -0.1278 -3.3927  2.6293
  711TMC3    H110517   3.547   3.819  14.814  0.3111 -0.3050  0.3707
  711TMC3    H210518   3.791   3.919  15.142  0.1902 -0.8804 -1.4668
  711TMC3    C710519   3.726   3.726  14.973 -0.2279 -0.0069 -0.1370
  711TMC3    C810520   3.589   4.066  15.266  0.5137 -0.0006  0.9254
  711TMC3    O110521   3.843   3.704  14.987  0.8139  0.3695 -0.5233
  711TMC3    O210522   3.478   4.092  15.312 -0.3532 -0.0376  0.2877
  712MPD2     C10523   4.708   0.130  13.008 -1.2601 -0.5312 -0.6297
  712MPD2    C110524   4.588   0.199  13.028  0.0961 -0.5266 -0.3415
  712MPD2    C210525   4.588   0.332  13.056  0.0845  0.0007 -0.5238
  712MPD2    C310526   4.714   0.392  13.081 -0.0622 -0.4626  0.3453
  712MPD2    C410527   0.110   0.321  13.072 -0.6534  0.2528  0.3769
  712MPD2    C510528   0.103   0.187  13.040 -0.7840 -0.6214  0.4867
  712MPD2     H10529   4.495   0.388  13.060 -1.2096 -2.1470 -0.8775
  712MPD2    H110530   0.207   0.367  13.088 -0.8378  1.1313 -0.9783
  712MPD2    H210531   4.719   0.028  12.972 -2.6094 -0.8825 -0.0357
  712MPD2    H310532   0.193   0.127  13.027  0.2910  1.3979 -1.4440
  712MPD2     N10533   0.003   0.529  13.118  0.3494 -0.2388 -0.7120
  712MPD2    H510534   0.093   0.559  13.153 -0.7256  2.1131  0.0065
  712MPD2    N110535   4.464   0.144  12.996  0.0046  0.6857 -0.2988
  712MPD2    H710536   4.380   0.201  12.992 -0.2798  0.2103 -1.0844
  713TMC3    C110537   4.671   0.746  13.190  0.9211  0.0627 -0.2838
  713TMC3    C210538   0.082   0.777  13.173  0.4225  0.3759  0.4503
  713TMC3    C310539   0.125   0.904  13.195 -0.5111 -0.4337 -0.7534
  713TMC3    C410540   4.579   0.844  13.222 -0.0488 -0.6526 -0.7336
  713TMC3    C510541   4.630   0.964  13.250  0.1860  0.2172 -0.4403
  713TMC3    C610542   0.032   1.001  13.230 -0.2200  0.0955  0.0291
  713TMC3     C10543   4.626   0.618  13.142  0.1519  0.4270  0.0252
  713TMC3     O10544   4.506   0.601  13.138 -0.3318  0.9995 -0.4747
  713TMC3     H10545   0.148   0.700  13.134  0.6845  1.4374 -1.2433
  713TMC3    H110546   4.474   0.819  13.230  0.1041 -0.9653  0.2571
  713TMC3    H210547   0.075   1.089  13.276 -1.7562  0.3558  0.9664
  713TMC3    C710548   4.545   1.084  13.280 -0.1977  0.6009 -0.8721
  713TMC3    C810549   0.261   0.948  13.182 -0.0267  0.5807 -0.0038
  713TMC3    O110550   4.600   1.186  13.319 -0.0567  0.6124  0.2717
  713TMC3    O210551   0.285   1.068  13.206 -0.5681  0.0988 -0.0707
  714MPD2     C10552   1.745   3.876   1.343 -0.0081 -0.1385 -0.0912
  714MPD2    C110553   1.811   3.817   1.244 -0.9379 -0.2953 -0.1972
  714MPD2    C210554   1.780   3.849   1.115  0.1428  0.8770 -0.2762
  714MPD2    C310555   1.681   3.942   1.089 -0.0190  0.4348  0.0552
  714MPD2    C410556   1.624   4.013   1.188 -0.1309  0.5922  0.3212
  714MPD2    C510557   1.655   3.975   1.315 -0.3259  0.0675 -0.1856
  714MPD2     H10558   1.829   3.791   1.037  0.1842 -1.0239  1.1659
  714MPD2    H110559   1.555   4.090   1.155 -1.0718 -0.8573 -1.0700
  714MPD2    H210560   1.767   3.852   1.447 -0.0796  0.8673  0.1587
  714MPD2    H310561   1.598   4.014   1.399  1.6885 -1.1350  1.7409
  714MPD2     N10562   1.660   3.960   0.951 -0.3972  0.7964  0.4949
  714MPD2    H510563   1.720   3.901   0.895  0.7274 -1.4487  4.0684
  714MPD2    N110564   1.933   3.748   1.269 -0.0999  0.6043 -0.5792
  714MPD2    H710565   1.992   3.714   1.194 -1.5105 -2.0049 -0.4941
  715TMC3    C110566   2.087   3.613   1.367 -0.0042 -0.2075 -0.6458
  715TMC3    C210567   2.091   3.487   1.423  0.4418  0.0665  0.0486
  715TMC3    C310568   2.217   3.436   1.420  0.9665  0.1572 -0.5006
  715TMC3    C410569   2.196   3.694   1.331  0.3794 -0.0564 -0.7773
  715TMC3    C510570   2.320   3.636   1.348  0.3197  0.3480  0.0650
  715TMC3    C610571   2.330   3.508   1.386 -0.2448  0.5278 -0.9927
  715TMC3     C10572   1.968   3.684   1.391 -0.0056  0.0031  0.2845
  715TMC3     O10573   1.902   3.669   1.490 -0.2276 -0.2003  0.4558
  715TMC3     H10574   2.004   3.424   1.442  0.5417 -0.1356 -0.1652
  715TMC3    H110575   2.183   3.801   1.338 -0.8562 -0.3029  0.7397
  715TMC3    H210576   2.431   3.472   1.400 -0.7929  0.0701  1.7518
  715TMC3    C710577   2.432   3.720   1.398  0.6109  0.1872 -0.1399
  715TMC3    C810578   2.229   3.295   1.438  0.7244  0.7964 -0.1898
  715TMC3    O110579   2.492   3.681   1.497  0.2693 -0.3030 -0.6364
  715TMC3    O210580   2.132   3.224   1.411  0.0710  0.1287  0.2995
  716MPD2     C10581   1.806   2.141   9.792  0.0722 -0.9462 -0.1965
  716MPD2    C110582   1.755   2.174   9.667  0.4196  0.6788  0.2291
  716MPD2    C210583   1.814   2.120   9.550 -0.5344  0.1760  0.7369
  716MPD2    C310584   1.906   2.023   9.559  0.0582 -0.1197 -0.2919
  716MPD2    C410585   1.961   2.000   9.686 -0.0980 -0.6306 -0.7177
  716MPD2    C510586   1.912   2.059   9.800 -0.2836 -0.1459 -0.2125
  716MPD2     H10587   1.791   2.157   9.451 -1.0469 -1.5902  0.2077
  716MPD2    H110588   2.056   1.947   9.691  0.3386  0.4681  2.3890
  716MPD2    H210589   1.773   2.202   9.874 -0.6081 -1.1813 -0.2879
  716MPD2    H310590   1.965   2.049   9.894  1.2612  0.3300 -1.0453
  716MPD2     N10591   1.953   1.981   9.434 -0.2188 -0.4923 -0.1659
  716MPD2    H510592   1.913   2.021   9.350  2.1200 -0.5547 -1.3162
  716MPD2    N110593   1.659   2.277   9.665  0.6846 -0.6039 -0.2684
  716MPD2    H710594   1.639   2.314   9.757  3.0455 -0.6485  0.2729
  717TMC3    C110595   2.070   1.869   9.269 -0.3951 -0.3314  0.4520
  717TMC3    C210596   2.029   1.972   9.188 -0.5314 -0.1856 -0.2506
  717TMC3    C310597   2.037   1.933   9.058  0.2794  0.3289 -0.3372
  717TMC3    C410598   2.101   1.737   9.226 -0.1582 -0.2908 -0.0300
  717TMC3    C510599   2.092   1.711   9.095  0.0055 -0.8438  0.6329
  717TMC3    C610600   2.069   1.809   9.009 -0.1722 -0.4106  0.7940
  717TMC3     C10601   2.051   1.888   9.413  0.7765 -0.5943  0.1597
  717TMC3     O10602   2.112   1.816   9.487  0.0807 -0.3253 -0.4227
  717TMC3     H10603   2.009   2.075   9.218  2.4839  0.5673 -0.7771
  717TMC3    H110604   2.145   1.668   9.297 -1.5528 -2.0664 -0.8916
  717TMC3    H210605   2.075   1.782   8.904  0.9242  0.4158  0.6458
  717TMC3    C710606   2.069   1.576   9.052 -0.2231  0.0222  0.5533
  717TMC3    C810607   1.970   2.018   8.964 -0.2821  0.2944 -0.5207
  717TMC3    O110608   2.047   1.568   8.933 -0.3034  0.4685  0.0792
  717TMC3    O210609   1.883   2.085   9.019  0.3407  0.1982  0.2477
  718MPD2     C10610   1.569   0.758  12.863  0.0545  0.0422 -0.0890
  718MPD2    C110611   1.528   0.803  12.740  0.2431 -0.3487  0.1489
  718MPD2    C210612   1.395   0.834  12.728 -0.2695 -0.1129 -0.0188
  718MPD2    C310613   1.308   0.821  12.831 -0.0978 -0.5332  1.0721
  718MPD2    C410614   1.351   0.783  12.955 -0.2783  0.0621  0.1701
  718MPD2    C510615   1.478   0.745  12.964  0.1490 -0.5771  0.4388
  718MPD2     H10616   1.358   0.855  12.628 -0.8949 -0.2693  0.1793
  718MPD2    H110617   1.281   0.780  13.037 -0.4940 -2.2142 -0.0979
  718MPD2    H210618   1.674   0.752  12.887  0.5627  0.0382 -2.2938
  718MPD2    H310619   1.497   0.719  13.068 -0.3752 -0.6541  0.5155
  718MPD2     N10620   1.184   0.869  12.810 -0.2868 -0.2099  0.4505
  718MPD2    H510621   1.161   0.891  12.714 -1.4062 -1.4302  0.4408
  718MPD2    N110622   1.616   0.832  12.626  0.7013 -0.1667 -0.3639
  718MPD2    H710623   1.565   0.871  12.547 -0.8478 -3.5173 -1.0438
  719TMC3    C110624   1.796   0.895  12.510  0.1436 -0.1896 -0.1729
  719TMC3    C210625   1.698   0.919  12.425  0.3995  0.3526 -1.0632
  719TMC3    C310626   1.677   1.039  12.364 -0.5206 -0.0786 -0.3739
  719TMC3    C410627   1.890   0.989  12.540 -0.2150 -0.5360  0.7824
  719TMC3    C510628   1.870   1.112  12.477  0.1379  0.4700  1.0217
  719TMC3    C610629   1.764   1.143  12.389 -0.9500 -0.8899 -0.5010
  719TMC3     C10630   1.747   0.818  12.617 -0.0725 -0.0653  0.6094
  719TMC3     O10631   1.824   0.780  12.700  0.2766  0.4059  0.0593
  719TMC3     H10632   1.631   0.836  12.403  0.9304 -0.0907 -0.9865
  719TMC3    H110633   1.965   0.970  12.616 -0.2515 -0.7539  0.7644
  719TMC3    H210634   1.763   1.237  12.335  1.6938  0.0611  1.1298
  719TMC3    C710635   1.968   1.217  12.491 -0.6130 -0.3856 -0.8985
  719TMC3    C810636   1.536   1.071  12.369 -0.2564  0.1890 -0.1898
  719TMC3    O110637   1.959   1.310  12.412  0.0131 -0.6933  0.0452
  719TMC3    O210638   1.468   0.980  12.414 -0.0611 -0.0181 -0.3742
  720MPD2     C10639   4.367   2.526  14.054  0.3669  0.2747 -0.3056
  720MPD2    C110640   4.478   2.507  13.971 -0.8946  0.5081  0.2314
  720MPD2    C210641   4.598   2.459  14.018  0.2668  0.1418  0.2089
  720MPD2    C310642   4.613   2.416  14.152  0.1485 -0.1791 -0.5610
  720MPD2    C410643   4.497   2.418  14.224 -0.0520  0.5252  0.1514
  720MPD2    C510644   4.384   2.483  14.179 -1.2363 -0.0055  0.0639
  720MPD2     H10645   4.682   2.474  13.951  0.7995  2.3223  1.3609
  720MPD2    H110646   4.500   2.399  14.331  0.2909 -0.3579 -0.0190
  720MPD2    H210647   4.278   2.576  14.018 -0.0042 -0.3810 -0.2948
  720MPD2    H310648   4.310   2.501  14.256 -2.2537  1.5333 -1.2883
  720MPD2     N10649   0.018   2.379  14.197  0.6075  0.6935  0.0572
  720MPD2    H510650   0.092   2.382  14.127 -0.3975 -1.4388 -1.1145
  720MPD2    N110651   4.459   2.553  13.834  0.5953 -0.1352 -0.0739
  720MPD2    H710652   4.382   2.617  13.817  0.7022  0.3434  1.2300
  721TMC3    C110653   0.198   2.312  14.349  0.0326  0.3022  0.6410
  721TMC3    C210654   0.241   2.334  14.474  0.2578  0.6943 -0.2997
  721TMC3    C310655   0.373   2.310  14.499  0.1628 -0.8400  0.3917
  721TMC3    C410656   0.267   2.255  14.251 -0.6817  0.3402  0.5371
  721TMC3    C510657   0.405   2.239  14.279 -0.2654 -0.1941  0.9585
  721TMC3    C610658   0.457   2.268  14.402 -0.3231 -0.6080 -0.0681
  721TMC3     C10659   0.052   2.333  14.326  0.8952  0.3647  0.2397
  721TMC3     O10660   4.703   2.338  14.424  0.0373  0.5909  0.5436
  721TMC3     H10661   0.186   2.393  14.547 -0.1210  1.0366 -0.8625
  721TMC3    H110662   0.238   2.233  14.149  0.5016  3.0386 -0.3900
  721TMC3    H210663   0.564   2.278  14.421 -0.6211 -0.5678  1.5614
  721TMC3    C710664   0.502   2.231  14.175  0.2697  1.0826  0.7026
  721TMC3    C810665   0.430   2.350  14.629  0.3081  0.1700  0.1678
  721TMC3    O110666   0.613   2.277  14.186  0.2382 -0.2869 -0.3132
  721TMC3    O210667   0.546   2.378  14.631 -1.2430 -1.0954  0.0402
  722MPD2     C10668   3.390   0.989  12.993 -0.2475 -0.5007  0.0163
  722MPD2    C110669   3.359   1.095  13.072  0.2110  0.2665  0.4236
  722MPD2    C210670   3.268   1.185  13.027 -0.3883 -0.0080  0.2533
  722MPD2    C310671   3.203   1.163  12.905 -0.3070 -0.3356  0.0028
  722MPD2    C410672   3.239   1.058  12.827  0.3454 -0.0683  0.5144
  722MPD2    C510673   3.328   0.964  12.877 -0.1058 -0.0353  0.8188
  722MPD2     H10674   3.229   1.267  13.086  0.5994  0.4333  0.2918
  722MPD2    H110675   3.204   1.035  12.727  1.0737  1.3043 -0.0466
  722MPD2    H210676   3.468   0.918  13.018 -1.4999 -3.1454 -3.6160
  722MPD2    H310677   3.338   0.876  12.815 -0.2986  0.7957 -0.3940
  722MPD2     N10678   3.118   1.265  12.856  0.1150  0.3982 -0.0356
  722MPD2    H510679   3.109   1.338  12.926  2.0796 -0.0261  0.6827
  722MPD2    N110680   3.410   1.116  13.202 -0.5888 -0.4143 -0.3343
  722MPD2    H710681   3.375   1.195  13.256  2.3909  0.5600  0.1944
  723TMC3    C110682   2.968   1.385  12.704 -0.1433 -0.0471  0.0271
  723TMC3    C210683   2.964   1.403  12.567  0.3815 -0.7979 -0.4924
  723TMC3    C310684   2.935   1.525  12.516 -0.5109 -0.6285 -0.5290
  723TMC3    C410685   2.928   1.480  12.793 -0.3732  0.3444 -0.0863
  723TMC3    C510686   2.891   1.599  12.740 -0.6139 -0.1204 -0.4081
  723TMC3    C610687   2.898   1.625  12.600 -0.4777  0.9136  0.4742
  723TMC3     C10688   3.047   1.263  12.740  0.0483  0.2307  0.1320
  723TMC3     O10689   3.038   1.171  12.653 -0.1766  1.0452  0.5540
  723TMC3     H10690   3.015   1.338  12.497  0.4427  0.3583 -1.5242
  723TMC3    H110691   2.915   1.448  12.896  0.1861  0.0151 -0.1155
  723TMC3    H210692   2.879   1.720  12.553 -3.8368 -0.3115 -0.6659
  723TMC3    C710693   2.806   1.691  12.812 -0.0781 -0.1834 -0.5099
  723TMC3    C810694   2.955   1.542  12.374  0.0749 -0.1234  0.1042
  723TMC3    O110695   2.821   1.704  12.933 -0.1154 -0.0720  0.3233
  723TMC3    O210696   3.009   1.647  12.343 -0.2094 -0.6665  0.0259
  724TMC3    C110697   4.468   0.189  10.950 -0.2249  0.2734  0.2965
  724TMC3    C210698   4.383   0.092  10.896 -1.1806  0.3142  0.1351
  724TMC3    C310699   4.350   0.100  10.766  0.5088 -1.3713 -0.2692
  724TMC3    C410700   4.507   0.308  10.883 -0.0044 -0.0079 -0.3629
  724TMC3    C510701   4.466   0.308  10.753  0.3133  0.0353  1.0105
  724TMC3    C610702   4.389   0.206  10.698  0.1737 -0.1129 -0.2523
  724TMC3     C10703   4.491   0.184  11.090  1.0160  0.1586 -0.0012
  724TMC3     O10704   4.463   0.078  11.140  0.0163 -0.3837 -0.2467
  724TMC3     H10705   4.372   4.721  10.945 -1.5019 -0.0658 -0.6770
  724TMC3    H110706   4.583   0.377  10.919 -1.2067  2.0062 -1.6995
  724TMC3    H210707   4.378   0.211  10.590 -0.2535 -0.2010 -0.2114
  724TMC3    C710708   4.494   0.413  10.660 -0.9799  0.4005  0.4025
  724TMC3    C810709   4.249   0.011  10.723  0.1154 -0.3672  0.1085
  724TMC3    O110710   4.491   0.383  10.542 -0.4250 -0.3513  0.0734
  724TMC3    O210711   4.181   4.671  10.800  0.4423 -0.6454  0.1111
  725TMC3    C110712   0.459   2.676  13.143  0.2058  0.2531 -0.2208
  725TMC3    C210713   0.405   2.736  13.029  0.1691  0.3738 -0.3862
  725TMC3    C310714   0.371   2.651  12.928  0.0884 -0.5170 -0.3874
  725TMC3    C410715   0.473   2.543  13.150 -0.4335  0.0834  0.7432
  725TMC3    C510716   0.444   2.463  13.049 -0.4619 -0.0518  0.0316
  725TMC3    C610717   0.376   2.514  12.938 -0.2327 -0.0912  0.0230
  725TMC3     C10718   0.546   2.761  13.222  0.9425  0.0033 -0.8511
  725TMC3     O10719   0.574   2.872  13.175  0.8244  0.5931 -0.0745
  725TMC3     H10720   0.399   2.844  13.025  2.5598  0.5705  1.5767
  725TMC3    H110721   0.528   2.494  13.230 -0.2739 -0.5706  0.2316
  725TMC3    H210722   0.349   2.451  12.854 -1.9055  1.8970 -0.9197
  725TMC3    C710723   0.461   2.322  13.062 -0.4470 -0.1419 -0.0912
  725TMC3    C810724   0.367   2.700  12.796 -0.3583  0.2126 -0.3469
  725TMC3    O110725   0.497   2.283  13.174 -0.2554 -0.0817  0.0661
  725TMC3    O210726   0.324   2.631  12.706  0.2172  0.1301 -0.3562
  726MPD2     C10727   3.106   0.023  10.192 -1.0582 -0.2315  0.4094
  726MPD2    C110728   3.072   0.062  10.324  0.3499 -0.1086  0.4975
  726MPD2    C210729   2.966   4.721  10.385 -0.5392 -0.0116 -0.1809
  726MPD2    C310730   2.896   4.617  10.325 -0.8491 -0.5380  0.6247
  726MPD2    C410731   2.926   4.586  10.198 -0.3832  0.4773  0.3200
  726MPD2    C510732   3.038   4.638  10.133 -0.7395  0.0741 -0.7319
  726MPD2     H10733   2.937   0.027  10.485  2.8527  0.8704  0.5298
  726MPD2    H110734   2.884   4.495  10.157  0.1966  0.4789 -0.2701
  726MPD2    H210735   3.191   0.064  10.139 -0.5344 -2.1245 -0.2151
  726MPD2    H310736   3.080   4.607  10.038  1.0155 -0.6870  0.2933
  726MPD2     N10737   2.797   4.542  10.394  0.7592 -0.3609 -0.7179
  726MPD2    H510738   2.759   4.466  10.339 -1.0101 -0.3209  0.4355
  726MPD2    N110739   3.135   0.171  10.387 -0.1698 -0.6126  0.5138
  726MPD2    H710740   3.118   0.181  10.486  0.5134  0.3398  0.5360
  727TMC3    C110741   3.281   0.364  10.415 -0.0673 -0.3112  0.9517
  727TMC3    C210742   3.338   0.334  10.541 -0.6955 -0.5462 -0.2823
  727TMC3    C310743   3.406   0.442  10.594 -0.7183  0.0372  0.1058
  727TMC3    C410744   3.294   0.478  10.350 -0.2751  0.5835 -0.2307
  727TMC3    C510745   3.366   0.573  10.407 -0.0890 -0.0390 -0.4335
  727TMC3    C610746   3.429   0.563  10.528  0.2444  0.4643 -0.9436
  727TMC3     C10747   3.228   0.257  10.333 -0.3317 -0.3963 -0.6631
  727TMC3     O10748   3.243   0.280  10.214  0.3149  0.6270  0.1742
  727TMC3     H10749   3.318   0.241  10.593 -0.8755 -1.5797 -2.1725
  727TMC3    H110750   3.236   0.501  10.261 -0.5684  0.8938  0.0462
  727TMC3    H210751   3.484   0.644  10.575 -1.3386  1.2511 -0.4616
  727TMC3    C710752   3.373   0.701  10.341 -0.2255  0.3147  0.7454
  727TMC3    C810753   3.471   0.419  10.723 -0.0280 -0.3385 -0.1616
  727TMC3    O110754   3.267   0.738  10.287  0.5970  0.0797 -0.0176
  727TMC3    O210755   3.547   0.512  10.755  0.1791 -0.8569 -0.0974
  728TMC3    C110756   2.435   2.757  15.593  0.1568 -0.3187  0.2243
  728TMC3    C210757   2.514   2.854  15.655 -0.5753  0.3987  0.1578
  728TMC3    C310758   2.623   2.906  15.586  0.5837  0.2920  0.3000
  728TMC3    C410759   2.476   2.698  15.471 -0.8973  0.2582  0.6500
  728TMC3    C510760   2.585   2.750  15.411 -0.8535  0.3744  0.2438
  728TMC3    C610761   2.657   2.860  15.461 -0.0818 -0.0142  0.0325
  728TMC3     C10762   2.317   2.717  15.669 -0.0348 -0.4627 -0.2593
  728TMC3     O10763   2.314   2.749  15.784 -0.5241 -0.1007  1.1631
  728TMC3     H10764   2.481   2.894  15.751 -0.5103 -1.3343  0.9103
  728TMC3    H110765   2.425   2.612  15.429 -0.5185  0.2993  0.1000
  728TMC3    H210766   2.735   2.913  15.407  2.2122 -0.7410  2.6663
  728TMC3    C710767   2.620   2.702  15.277 -0.3139 -0.0873  0.3365
  728TMC3    C810768   2.676   3.029  15.644  0.1279 -0.3141 -0.4872
  728TMC3    O110769   2.608   2.582  15.258 -0.9553 -0.3336 -0.2684
  728TMC3    O210770   2.637   3.057  15.760 -0.6908  0.1458 -0.3948
  729MPD2     C10771   4.529   4.025  16.576 -0.6313 -0.2078  0.2585
  729MPD2    C110772   4.647   3.986  16.639  0.1873  0.0263  0.4567
  729MPD2    C210773   4.644   3.978  16.779  0.1234 -0.0277  0.9510
  729MPD2    C310774   4.540   4.023  16.851 -0.1793  0.0078  0.0068
  729MPD2    C410775   4.423   4.061  16.781  0.5323  0.1619  0.1250
  729MPD2    C510776   4.415   4.057  16.650 -0.6877 -0.1098 -0.1079
  729MPD2     H10777   0.012   3.957  16.832  2.0045 -0.7974 -2.6451
  729MPD2    H110778   4.343   4.105  16.840  1.8744 -2.6330  4.0299
  729MPD2    H210779   4.515   4.019  16.469 -1.2005 -1.0046  0.3777
  729MPD2    H310780   4.321   4.077  16.601  1.0525  1.2142 -2.9677
  729MPD2     N10781   4.536   4.022  16.995  0.0822 -0.1760  0.7720
  729MPD2    H510782   4.459   4.075  17.034 -1.5216 -1.7686 -0.2234
  729MPD2    N110783   0.036   3.945  16.570 -0.6416  0.9245 -0.0606
  729MPD2    H710784   0.016   3.957  16.471 -2.3050  2.3489  0.4363
  730TMC3    C110785   4.640   3.982  17.202  0.6715 -0.0763 -0.1391
  730TMC3    C210786   4.718   3.902  17.281 -0.6401 -0.6486  0.0731
  730TMC3    C310787   0.039   3.952  17.403 -0.2775 -1.0758  0.1375
  730TMC3    C410788   4.585   4.097  17.249 -0.0873  0.3100  0.0833
  730TMC3    C510789   4.627   4.128  17.379 -0.1911  0.0974  0.0380
  730TMC3    C610790   4.719   4.063  17.456 -0.3335  0.0548  0.6756
  730TMC3     C10791   4.635   3.947  17.066 -0.0121  0.1531  0.3327
  730TMC3     O10792   4.716   3.861  17.031 -0.1961 -0.2263 -0.4349
  730TMC3     H10793   0.018   3.804  17.242  1.6233  0.7379 -1.9673
  730TMC3    H110794   4.527   4.164  17.187  1.4676  1.4613 -0.1421
  730TMC3    H210795   0.033   4.106  17.548  0.0803 -0.4036  0.7153
  730TMC3    C710796   4.627   4.263  17.416 -0.1031 -0.8321 -0.1572
  730TMC3    C810797   0.184   3.951  17.423 -0.4631 -0.2859  0.2779
  730TMC3    O110798   4.584   4.289  17.526 -0.4091 -0.2965  0.0492
  730TMC3    O210799   0.239   4.025  17.502 -0.1629 -0.2207  0.0807
  731MPD2     C10800   0.035   2.752  12.361  0.2826  0.6773 -0.1831
  731MPD2    C110801   4.669   2.676  12.298 -0.3468  1.1147  0.2786
  731MPD2    C210802   4.572   2.604  12.368 -0.2970  0.4706  0.5487
  731MPD2    C310803   4.581   2.606  12.506  0.0989  0.4059 -0.4762
  731MPD2    C410804   4.674   2.690  12.568 -0.3222  0.0770 -0.7977
  731MPD2    C510805   0.027   2.776  12.498  0.3774  0.5264 -0.5017
  731MPD2     H10806   4.494   2.544  12.323  0.7570 -0.6849  0.2729
  731MPD2    H110807   4.683   2.702  12.675 -2.2187  0.3346 -0.6732
  731MPD2    H210808   0.105   2.810  12.301  1.9984 -0.8045  0.3852
  731MPD2    H310809   0.102   2.837  12.545  1.0476 -0.5929 -0.1269
  731MPD2     N10810   4.485   2.526  12.583  0.1185  0.0582 -0.1164
  731MPD2    H510811   4.438   2.455  12.528  1.2085 -1.0134  0.3351
  731MPD2    N110812   4.677   2.651  12.157  0.4494  0.5643 -1.0907
  731MPD2    H710813   0.036   2.683  12.109 -0.0028 -1.3919 -3.1762
  732TMC3    C110814   4.600   2.590  11.944  0.3209  0.2667 -0.3125
  732TMC3    C210815   4.493   2.600  11.856  0.2318 -0.5649 -0.1336
  732TMC3    C310816   4.512   2.561  11.725  0.0853 -0.1423 -0.0091
  732TMC3    C410817   0.001   2.568  11.908  0.3344  0.4928  0.0118
  732TMC3    C510818   0.016   2.539  11.772 -0.2726  0.0167 -0.2534
  732TMC3    C610819   4.643   2.555  11.681 -0.3942 -0.3820  0.0503
  732TMC3     C10820   4.566   2.625  12.083  0.0451  0.1599  0.0209
  732TMC3     O10821   4.450   2.601  12.120  0.0812  0.4840  0.8901
  732TMC3     H10822   4.390   2.614  11.888  0.6337  0.3988  0.7272
  732TMC3    H110823   0.088   2.558  11.972 -0.9285  2.4482  2.0390
  732TMC3    H210824   4.660   2.509  11.584 -1.2947  1.0961 -0.8027
  732TMC3    C710825   0.142   2.484  11.719  0.2444 -0.0048 -0.0967
  732TMC3    C810826   4.442   2.437  11.695  0.0662  0.3186  0.0415
  732TMC3    O110827   0.181   2.511  11.610 -0.0587 -0.5420  0.2940
  732TMC3    O210828   4.321   2.443  11.712  0.0897 -0.4439 -1.0676
  733TMC3    C110829   0.750   0.985  12.769 -0.5136 -0.3002  0.0741
  733TMC3    C210830   0.841   0.908  12.833  0.4759 -0.0506 -0.3860
  733TMC3    C310831   0.976   0.954  12.848 -0.0200 -0.2061  0.3236
  733TMC3    C410832   0.781   1.097  12.699  0.6156 -0.1868  0.5378
  733TMC3    C510833   0.913   1.139  12.711 -0.1411  0.0751  0.3384
  733TMC3    C610834   1.008   1.069  12.781 -0.3544 -0.0499 -0.2992
  733TMC3     C10835   0.623   0.924  12.729 -0.5992  0.4578  0.2620
  733TMC3     O10836   0.558   0.989  12.650 -0.1203  0.2325  0.1778
  733TMC3     H10837   0.817   0.814  12.880 -0.2027  0.7122  0.7990
  733TMC3    H110838   0.706   1.155  12.647  0.0662 -1.4653 -0.1031
  733TMC3    H210839   1.102   1.122  12.788  0.6107 -1.5288 -1.9677
  733TMC3    C710840   0.958   1.228  12.610 -0.0389 -0.1245 -0.2658
  733TMC3    C810841   1.080   0.869  12.901 -1.2585  0.1355 -0.2249
  733TMC3    O110842   0.902   1.336  12.605 -0.2075  0.1589 -0.5500
  733TMC3    O210843   1.070   0.835  13.018  0.4500 -0.0452 -0.1133
  734MPD2     C10844   3.009   3.372  12.147  1.2906  0.6982  0.1260
  734MPD2    C110845   2.917   3.333  12.047  0.4444 -0.5050 -0.5260
  734MPD2    C210846   2.933   3.365  11.912 -0.2882 -0.7783  0.3070
  734MPD2    C310847   3.045   3.429  11.865  0.4039 -0.2690  0.3387
  734MPD2    C410848   3.134   3.466  11.962 -0.0859 -0.2698 -0.3096
  734MPD2    C510849   3.114   3.440  12.098 -0.2873 -0.5728 -0.3033
  734MPD2     H10850   2.852   3.340  11.845  0.8980  0.5426 -1.6183
  734MPD2    H110851   3.219   3.525  11.930  0.0271 -0.4860 -0.4050
  734MPD2    H210852   3.001   3.339  12.250  2.2174  2.7352  0.8599
  734MPD2    H310853   3.181   3.488  12.169 -2.1138  1.0592  0.3184
  734MPD2     N10854   3.062   3.436  11.728  0.1022 -0.7056  0.0707
  734MPD2    H510855   2.991   3.402  11.664 -0.9066  1.2478  0.1555
  734MPD2    N110856   2.819   3.243  12.093  0.2418 -0.4734 -0.0416
  734MPD2    H710857   2.813   3.234  12.193  0.5802  1.0061  0.1183
  735TMC3    C110858   2.673   3.059  12.074 -0.2153 -0.6916 -0.1828
  735TMC3    C210859   2.570   3.019  12.000  0.0596 -0.7574  0.0588
  735TMC3    C310860   2.564   2.893  11.947  0.6245 -0.0392 -0.9575
  735TMC3    C410861   2.758   2.965  12.106  0.7222 -0.3476 -0.5173
  735TMC3    C510862   2.762   2.834  12.067  0.5794  0.1973 -0.6357
  735TMC3    C610863   2.657   2.801  11.983 -0.1815 -0.3377 -0.6711
  735TMC3     C10864   2.731   3.175  12.014  0.4604  0.2957  0.2412
  735TMC3     O10865   2.699   3.180  11.896 -0.5818  0.2926 -0.0601
  735TMC3     H10866   2.493   3.087  11.965  1.0836 -0.5066 -1.6771
  735TMC3    H110867   2.842   3.013  12.157  1.3002  0.2535 -2.0438
  735TMC3    H210868   2.664   2.700  11.943  0.1402 -0.3696 -0.5387
  735TMC3    C710869   2.883   2.762  12.075  0.1716  0.1491 -0.1718
  735TMC3    C810870   2.542   2.884  11.805 -0.1829  0.0858  0.4469
  735TMC3    O110871   2.985   2.826  12.060 -0.4467 -0.0679 -0.3908
  735TMC3    O210872   2.514   2.771  11.762 -0.0685 -0.2406  0.2154
  736MPD2     C10873   2.929   2.415  12.169  0.6637  0.3356 -0.9637
  736MPD2    C110874   2.969   2.534  12.111 -0.4341  0.7403  0.2037
  736MPD2    C210875   3.107   2.554  12.090  0.8147 -0.1735  0.0494
  736MPD2    C310876   3.199   2.457  12.127 -0.3358  0.2568  0.1579
  736MPD2    C410877   3.152   2.341  12.188 -0.0399  0.5772  0.0679
  736MPD2    C510878   3.016   2.315  12.196  0.1862 -0.4375 -0.6519
  736MPD2     H10879   3.140   2.651  12.056  4.6763 -0.9194  1.6992
  736MPD2    H110880   3.232   2.280  12.227 -0.0550  1.2492  1.1429
  736MPD2    H210881   2.828   2.389  12.198  0.5052  0.0199 -1.7968
  736MPD2    H310882   2.986   2.226  12.249  0.0254 -0.4295 -0.7308
  736MPD2     N10883   3.336   2.469  12.109 -0.1016 -0.0313 -0.1278
  736MPD2    H510884   3.391   2.396  12.154 -0.8773  0.7258  2.0598
  736MPD2    N110885   2.868   2.629  12.085 -0.4095  0.0978  0.2835
  736MPD2    H710886   2.771   2.601  12.097 -0.5530  0.6575  0.4382
  737TMC3    C110887   3.542   2.573  12.038  0.3915 -0.4393 -0.2904
  737TMC3    C210888   3.611   2.689  12.031 -0.2122  0.1659  0.0039
  737TMC3    C310889   3.746   2.682  11.990 -0.2332 -0.4504  0.0382
  737TMC3    C410890   3.591   2.452  12.004  0.8098 -0.0622 -0.1212
  737TMC3    C510891   3.726   2.445  11.975  0.3029 -0.4332  0.0126
  737TMC3    C610892   3.804   2.561  11.953  0.2838 -0.1107  0.0141
  737TMC3     C10893   3.398   2.582  12.064  0.1791  0.2903  0.0165
  737TMC3     O10894   3.360   2.692  12.039 -0.0440  0.6002 -0.8185
  737TMC3     H10895   3.568   2.781  12.069  1.2334  0.8225  0.0496
  737TMC3    H110896   3.543   2.360  12.036  0.1102  0.1899 -0.4609
  737TMC3    H210897   3.910   2.559  11.931  0.3864 -2.3448  0.7502
  737TMC3    C710898   3.776   2.315  11.961 -0.1582 -0.3563  0.5260
  737TMC3    C810899   3.817   2.801  11.953  0.2928  0.0591 -0.1857
  737TMC3    O110900   3.714   2.222  12.010 -0.1667  0.1324 -0.0035
  737TMC3    O210901   3.771   2.906  11.994  0.1543 -0.4178 -0.0193
  738MPD2     C10902   4.113   1.096  15.114 -0.5231  0.0108  0.1652
  738MPD2    C110903   3.991   1.115  15.039 -0.3880  0.1281  0.7314
  738MPD2    C210904   3.994   1.189  14.920  1.0912 -0.3358 -0.4689
  738MPD2    C310905   4.111   1.244  14.875  0.4700 -0.2998  0.2528
  738MPD2    C410906   4.231   1.225  14.950 -0.3384 -0.0895 -0.3686
  738MPD2    C510907   4.226   1.145  15.062  0.2776  0.4049  1.1688
  738MPD2     H10908   3.904   1.207  14.861  0.2056 -2.7487  0.1695
  738MPD2    H110909   4.333   1.252  14.924  0.1151 -2.7258 -1.3981
  738MPD2    H210910   4.119   1.046  15.210 -3.0604  0.4393  0.5494
  738MPD2    H310911   4.322   1.127  15.109  0.0747  0.7859  1.7194
  738MPD2     N10912   4.124   1.322  14.755  0.2414  0.0206 -0.3894
  738MPD2    H510913   4.220   1.353  14.742 -0.3313  1.4195 -1.1879
  738MPD2    N110914   3.880   1.023  15.059 -0.6442 -0.1976  0.3450
  738MPD2    H710915   3.819   1.017  14.978 -0.2702  1.5747 -0.0801
  739TMC3    C110916   4.093   1.358  14.524  0.0676 -0.3538 -0.4055
  739TMC3    C210917   4.023   1.324  14.411 -0.1764 -0.3994 -0.1340
  739TMC3    C310918   4.052   1.385  14.292  0.2434  0.4863 -0.0915
  739TMC3    C410919   4.183   1.459  14.525 -0.3505 -0.3921 -0.1819
  739TMC3    C510920   4.213   1.512  14.398 -0.1872  0.4867  0.3151
  739TMC3    C610921   4.151   1.474  14.284 -0.1003 -0.3967 -1.1171
  739TMC3     C10922   4.028   1.327  14.655 -0.0276  0.3129  0.3420
  739TMC3     O10923   3.921   1.267  14.649 -0.1969  0.1856 -0.1681
  739TMC3     H10924   3.948   1.246  14.419 -0.3936  0.0995  2.8736
  739TMC3    H110925   4.232   1.497  14.613 -0.5564  1.0722 -0.6968
  739TMC3    H210926   4.188   1.497  14.185 -0.8205  1.0354 -1.0476
  739TMC3    C710927   4.282   1.638  14.390 -0.1025  0.8367 -0.7885
  739TMC3    C810928   3.962   1.370  14.181 -0.2220  0.9886 -0.6692
  739TMC3    O110929   4.280   1.697  14.284  0.3005 -0.9160  0.0929
  739TMC3    O210930   3.876   1.284  14.191  0.3726 -0.3459 -0.0796
  740TMC3    C110931   4.465   2.796  14.315 -0.5357  0.1987 -0.1354
  740TMC3    C210932   4.499   2.755  14.442 -0.1998 -0.1638 -0.2287
  740TMC3    C310933   4.634   2.735  14.467  0.1964  0.3592  0.3944
  740TMC3    C410934   4.560   2.816  14.219  0.0306 -0.2524 -0.6799
  740TMC3    C510935   4.692   2.793  14.243 -0.3414  0.5014 -0.4127
  740TMC3    C610936   0.008   2.751  14.370 -0.0680  0.6484 -0.0799
  740TMC3     C10937   4.329   2.834  14.284 -0.0105  0.0929 -0.9486
  740TMC3     O10938   4.319   2.925  14.199  0.0922 -0.0327 -0.1262
  740TMC3     H10939   4.427   2.764  14.522 -0.7810 -1.3947 -0.6129
  740TMC3    H110940   4.522   2.831  14.118 -0.9613  0.4741 -0.1988
  740TMC3    H210941   0.110   2.736  14.402  0.5519  2.5170 -1.1551
  740TMC3    C710942   0.057   2.735  14.144 -0.0956  0.2915  0.1632
  740TMC3    C810943   4.673   2.788  14.592 -0.0558  0.6983  0.6426
  740TMC3    O110944   0.141   2.655  14.186  0.2558 -0.6345  0.3490
  740TMC3    O210945   4.715   2.902  14.611 -0.3664  0.4769  0.0715
  741TMC3    C110946   4.220   1.717  15.084 -0.0440  0.2919 -0.5050
  741TMC3    C210947   4.093   1.677  15.038 -0.2180 -0.0148  0.3001
  741TMC3    C310948   4.044   1.566  15.090 -1.0705 -0.3682  0.3503
  741TMC3    C410949   4.295   1.639  15.176  0.0251 -0.3867 -0.2026
  741TMC3    C510950   4.243   1.516  15.216 -0.9217 -0.0047  0.3442
  741TMC3    C610951   4.116   1.480  15.171 -0.0638 -0.3060 -0.2340
  741TMC3     C10952   4.281   1.839  15.040 -0.2412 -0.1613  0.2294
  741TMC3     O10953   4.397   1.859  15.068 -0.2786  0.6754 -0.0960
  741TMC3     H10954   4.026   1.738  14.979 -0.1328 -0.4865 -0.2784
  741TMC3    H110955   4.391   1.680  15.206  0.3844 -0.4168 -1.3035
  741TMC3    H210956   4.075   1.380  15.181 -0.1928 -0.3627 -1.2983
  741TMC3    C710957   4.314   1.443  15.318  0.8274  1.0139  0.1296
  741TMC3    C810958   3.919   1.519  15.038 -0.4063  0.3283 -0.1832
  741TMC3    O110959   4.405   1.509  15.359 -0.0071  0.0864  0.0653
  741TMC3    O210960   3.896   1.531  14.915 -0.0575 -0.4434  0.5123
  742TMC3    C110961   3.712   0.119  15.068 -0.1265 -0.5563  0.2511
  742TMC3    C210962   3.635   0.191  14.979 -0.2519 -0.2916 -0.9189
  742TMC3    C310963   3.697   0.258  14.872  0.0817 -0.4452  0.0205
  742TMC3    C410964   3.851   0.117  15.059  0.0097  0.0572 -0.3492
  742TMC3    C510965   3.905   0.186  14.953 -0.0726 -0.0025  0.1197
  742TMC3    C610966   3.831   0.257  14.859 -0.3674  0.7805 -0.2493
  742TMC3     C10967   3.647   0.069  15.184  0.1908  0.0936  0.7574
  742TMC3     O10968   3.529   0.089  15.196  0.3333  0.1236  0.1178
  742TMC3     H10969   3.532   0.158  14.968 -0.4749  0.0001  0.2913
  742TMC3    H110970   3.915   0.086  15.141 -0.2035  1.5481  0.3721
  742TMC3    H210971   3.877   0.320  14.783 -1.1004  2.1152  0.4052
  742TMC3    C710972   4.043   0.225  14.965 -0.7059  0.3969 -0.2697
  742TMC3    C810973   3.625   0.237  14.749 -0.3744  0.3851  0.0187
  742TMC3    O110974   4.067   0.344  14.962  0.3957  0.0885  0.1529
  742TMC3    O210975   3.694   0.179  14.666 -0.7921  0.1489  0.3808
  743MPD2     C10976   2.847   1.206   1.589 -1.0778  0.5928 -0.3321
  743MPD2    C110977   2.852   1.116   1.480  0.2248 -0.3396  0.8093
  743MPD2    C210978   2.981   1.081   1.432  0.0658  0.8399  0.3295
  743MPD2    C310979   3.093   1.144   1.477  0.3052  0.2219 -0.6392
  743MPD2    C410980   3.082   1.233   1.588  0.6279  0.6534 -1.0143
  743MPD2    C510981   2.959   1.263   1.640  0.0705 -0.0993 -0.0778
  743MPD2     H10982   2.998   1.003   1.359  1.1281  1.5678 -0.1962
  743MPD2    H110983   3.166   1.297   1.615  2.3234 -2.9619  2.3429
  743MPD2    H210984   2.751   1.237   1.628 -1.4557  1.5186 -1.9994
  743MPD2    H310985   2.943   1.351   1.703 -1.4463  0.5391 -1.3555
  743MPD2     N10986   3.213   1.113   1.417  0.2868  0.3722 -0.0793
  743MPD2    H510987   3.213   1.030   1.359 -0.7088  1.5484 -1.7866
  743MPD2    N110988   2.730   1.058   1.434 -0.1217 -0.3627  0.0527
  743MPD2    H710989   2.646   1.090   1.482  0.9113  0.9446  0.9532
  744TMC3    C110990   2.578   0.955   1.283 -0.3295 -0.1412  0.6379
  744TMC3    C210991   2.477   0.955   1.376 -0.1576  0.0732  0.9893
  744TMC3    C310992   2.347   0.950   1.329 -0.3948 -1.2372  0.0975
  744TMC3    C410993   2.548   0.958   1.149 -0.0722 -0.6369 -0.1994
  744TMC3    C510994   2.414   0.978   1.108 -0.4287  0.7369 -0.4222
  744TMC3    C610995   2.309   0.958   1.199  0.7501  0.0029  0.2721
  744TMC3     C10996   2.715   0.996   1.310  0.0890  0.4752  0.1379
  744TMC3     O10997   2.803   0.964   1.232 -0.3772 -0.6298  0.3584
  744TMC3     H10998   2.503   0.967   1.480  2.1896  1.4556  0.2321
  744TMC3    H110999   2.632   0.969   1.082  0.8003  0.6432  1.0982
  744TMC3    H211000   2.207   0.975   1.169  1.4647  3.9904  0.0983
  744TMC3    C711001   2.400   1.007   0.968 -0.2531 -0.1460 -0.1007
  744TMC3    C811002   2.241   0.996   1.422  0.5124  0.6184 -0.4696
  744TMC3    O111003   2.477   1.077   0.915  0.1064 -0.2635  0.4733
  744TMC3    O211004   2.149   1.062   1.369  0.1423  1.0099  0.5567
  745TMC3    C111005   4.312   4.698  12.941  0.6900  0.3182  0.0204
  745TMC3    C211006   4.238   4.604  13.002 -0.0401  0.0821  0.8459
  745TMC3    C311007   4.102   4.611  12.996 -0.4661 -0.2056 -0.8189
  745TMC3    C411008   4.258   0.072  12.859  0.3251  0.0298 -0.9040
  745TMC3    C511009   4.130   0.062  12.839 -0.4269  0.0783  0.2915
  745TMC3    C611010   4.050   4.693  12.904  0.2890  0.6486 -0.1565
  745TMC3     C11011   4.440   0.011  12.999 -0.0129  0.0512 -0.3039
  745TMC3     O11012   4.508   4.641  13.039  0.6904 -0.2342  0.0671
  745TMC3     H11013   4.289   4.533  13.065  2.9817  1.6603  0.1969
  745TMC3    H111014   4.318   0.137  12.796 -1.9231  1.0653 -2.0120
  745TMC3    H211015   3.942   4.695  12.891  0.2685 -1.3130 -0.2777
  745TMC3    C711016   4.058   0.150  12.757  0.3237 -0.6568 -0.8948
  745TMC3    C811017   4.058   4.621  13.137  0.5515 -0.3192  0.0025
  745TMC3    O111018   3.945   0.123  12.727 -0.4334  0.2043  0.2599
  745TMC3    O211019   3.952   4.568  13.165  0.8012  0.6330 -0.0601
  746TMC3    C111020   1.830   2.201  10.996  0.3658 -0.0220 -0.0432
  746TMC3    C211021   1.857   2.163  10.864  0.8390 -0.6483  0.4127
  746TMC3    C311022   1.866   2.029  10.844 -0.0824 -0.0430 -0.1031
  746TMC3    C411023   1.805   2.112  11.104  0.5390 -0.1381 -0.6769
  746TMC3    C511024   1.806   1.977  11.073  0.2662  0.7383 -0.4216
  746TMC3    C611025   1.825   1.940  10.945  0.2974 -0.1047 -0.1678
  746TMC3     C11026   1.805   2.341  11.030  0.6483 -0.2886  0.2366
  746TMC3     O11027   1.714   2.357  11.111  0.1870  0.4232 -0.0157
  746TMC3     H11028   1.863   2.237  10.785  2.4726 -0.5444  0.6382
  746TMC3    H111029   1.801   2.148  11.206 -0.1777 -0.0830 -0.7255
  746TMC3    H211030   1.822   1.835  10.918 -0.6035  0.1046 -0.8677
  746TMC3    C711031   1.679   1.911  11.108 -0.7126  0.1023  0.3707
  746TMC3    C811032   1.913   1.973  10.716 -0.4230  0.3247  0.1887
  746TMC3    O111033   1.619   1.869  11.010  0.6956  0.4563  0.7205
  746TMC3    O211034   1.938   1.854  10.713  0.2902 -0.3780  0.1893
  747TMC3    C111035   4.311   2.261  11.152 -0.9392 -0.9621 -0.6804
  747TMC3    C211036   4.251   2.241  11.274 -0.0727  0.6702  0.0668
  747TMC3    C311037   4.335   2.203  11.378 -0.1972  1.2260 -1.0113
  747TMC3    C411038   4.452   2.277  11.147  0.3279  0.1045 -0.8060
  747TMC3    C511039   4.526   2.226  11.255 -0.2378  0.2792  0.1085
  747TMC3    C611040   4.466   2.176  11.366  0.4622 -0.2003 -0.1009
  747TMC3     C11041   4.229   2.322  11.048  1.0328  0.3637 -0.5652
  747TMC3     O11042   4.128   2.375  11.088  0.5480  0.1948 -0.1948
  747TMC3     H11043   4.145   2.225  11.290 -0.1313  1.4365  0.4584
  747TMC3    H111044   4.494   2.309  11.052 -1.8138 -0.0116 -1.7758
  747TMC3    H211045   4.519   2.152  11.457  0.6632 -0.2424 -0.2270
  747TMC3    C711046   4.651   2.297  11.294 -0.2714  0.8498 -0.4114
  747TMC3    C811047   4.277   2.125  11.487 -0.4396  0.2003  0.2656
  747TMC3    O111048   4.676   2.312  11.413 -0.0438  0.3659  0.2042
  747TMC3    O211049   4.312   2.006  11.498  0.2422 -0.1531 -0.6229
  748MPD2     C11050   1.616   1.973   2.114  0.5575 -0.0907 -0.1897
  748MPD2    C111051   1.737   1.915   2.079  0.1367 -0.6314 -0.7627
  748MPD2    C211052   1.810   1.983   1.983  0.4421  0.5252 -0.2027
  748MPD2    C311053   1.760   2.095   1.912  0.5082 -0.4541 -0.0913
  748MPD2    C411054   1.639   2.151   1.957  0.4709  0.2780  0.2498
  748MPD2    C511055   1.567   2.084   2.049  0.8412 -0.7779 -0.2831
  748MPD2     H11056   1.906   1.948   1.947  0.3470  0.1401 -0.0754
  748MPD2    H111057   1.591   2.242   1.924  1.9507  1.4605  1.3893
  748MPD2    H211058   1.554   1.915   2.181  0.1854 -0.3580 -0.7703
  748MPD2    H311059   1.466   2.118   2.071  1.6310 -0.6150  3.0825
  748MPD2     N11060   1.830   2.146   1.802  0.0439 -0.3130  0.6949
  748MPD2    H511061   1.919   2.100   1.783 -0.2880 -0.3929 -0.7222
  748MPD2    N111062   1.775   1.795   2.142  0.4015  0.6060  0.2860
  748MPD2    H711063   1.702   1.757   2.201  0.1530  1.2870  0.4134
  749TMC3    C111064   1.903   2.286   1.637  0.0191  0.2115  0.5732
  749TMC3    C211065   2.032   2.229   1.664  0.2021  0.8990  0.4754
  749TMC3    C311066   2.129   2.277   1.584 -0.8252 -0.3341  0.6783
  749TMC3    C411067   1.880   2.375   1.538 -0.3875 -0.9491 -0.0273
  749TMC3    C511068   1.984   2.409   1.458  0.1856 -1.0489 -0.9393
  749TMC3    C611069   2.110   2.358   1.479  0.2387  0.2014 -0.1832
  749TMC3     C11070   1.788   2.244   1.715 -0.0227 -0.2505 -0.1023
  749TMC3     O11071   1.681   2.293   1.698 -0.0380 -0.7694 -0.4682
  749TMC3     H11072   2.058   2.150   1.733 -0.0123  0.6789  0.3038
  749TMC3    H111073   1.781   2.418   1.532  0.2388  0.3382 -1.1050
  749TMC3    H211074   2.191   2.398   1.419  0.5928 -0.8265 -0.4015
  749TMC3    C711075   1.989   2.533   1.382 -0.2410  1.1093  0.0397
  749TMC3    C811076   2.268   2.244   1.626 -0.8610  0.1531  0.2505
  749TMC3    O111077   2.094   2.601   1.381  0.0139  0.2932 -0.0045
  749TMC3    O211078   2.279   2.217   1.745 -0.0017 -0.0289  0.5029
  750MPD2     C11079   2.239   4.262  11.368 -0.3768  0.3557 -0.9509
  750MPD2    C111080   2.111   4.219  11.377  0.4143  0.2624 -0.1746
  750MPD2    C211081   2.061   4.119  11.299 -0.5041 -0.1572  0.7536
  750MPD2    C311082   2.134   4.071  11.191  0.4843  0.4194  0.0673
  750MPD2    C411083   2.260   4.113  11.177 -0.9372 -1.9403  0.2860
  750MPD2    C511084   2.317   4.207  11.267  0.0987 -1.1152  0.2165
  750MPD2     H11085   1.957   4.093  11.309  0.7298 -3.8106  4.0468
  750MPD2    H111086   2.318   4.081  11.092 -2.7795 -0.9068 -1.3567
  750MPD2    H211087   2.281   4.324  11.446  0.1590 -2.3268  0.8868
  750MPD2    H311088   2.423   4.229  11.257  0.0217 -0.9485 -0.2700
  750MPD2     N11089   2.083   3.998  11.080  0.1605  0.4483  0.1334
  750MPD2    H511090   2.143   3.988  10.999  0.0780  0.4798  0.0675
  750MPD2    N111091   2.028   4.279  11.480 -0.0436 -0.0241 -0.2244
  750MPD2    H711092   2.055   4.375  11.501  0.7218 -0.1281 -0.7235
  751TMC3    C111093   1.926   3.874  10.959  1.2733  0.1051  0.2034
  751TMC3    C211094   1.791   3.870  10.919  0.1754  0.3194  0.0228
  751TMC3    C311095   1.765   3.821  10.793  0.4759 -0.1748 -0.0586
  751TMC3    C411096   2.024   3.814  10.878  0.3510  0.0965 -0.0190
  751TMC3    C511097   1.983   3.778  10.756  0.0683 -0.2826  0.0176
  751TMC3    C611098   1.856   3.779  10.705  0.0285 -0.7976 -0.5500
  751TMC3     C11099   1.955   3.955  11.076  0.4700 -0.2097 -0.0175
  751TMC3     O11100   1.867   3.957  11.163 -0.2629  0.3455  0.6158
  751TMC3     H11101   1.725   3.941  10.967 -0.8117 -1.1669  0.8625
  751TMC3    H111102   2.132   3.814  10.895  0.4717  1.5439 -0.8106
  751TMC3    H211103   1.836   3.750  10.603 -0.4405 -0.5821 -0.5187
  751TMC3    C711104   2.074   3.692  10.684 -0.5287 -0.3279  0.3125
  751TMC3    C811105   1.659   3.724  10.796 -0.1737  0.4076 -0.3845
  751TMC3    O111106   2.040   3.674  10.568  0.0654 -0.0932  0.3929
  751TMC3    O211107   1.656   3.654  10.695 -0.5330 -0.4233  0.0769
  752TMC3    C111108   0.737   3.254  17.106  0.4213 -0.0215  0.0844
  752TMC3    C211109   0.785   3.132  17.161 -0.0851 -0.7215  0.3135
  752TMC3    C311110   0.749   3.104  17.294  0.1013  0.0868  0.3219
  752TMC3    C411111   0.660   3.341  17.180 -0.5151  0.4377  0.2621
  752TMC3    C511112   0.632   3.314  17.308 -0.2817 -0.7780 -0.7051
  752TMC3    C611113   0.670   3.191  17.361 -0.2605  0.2928 -0.5847
  752TMC3     C11114   0.797   3.301  16.979  0.5581  0.2569  0.1459
  752TMC3     O11115   0.900   3.240  16.943 -0.0660  0.1193  0.4488
  752TMC3     H11116   0.846   3.065  17.102  0.3140  0.8484 -1.0541
  752TMC3    H111117   0.642   3.440  17.140  4.1168  1.7122  1.3845
  752TMC3    H211118   0.655   3.183  17.468  2.5658  1.9557 -0.0357
  752TMC3    C711119   0.537   3.405  17.377 -0.2631 -0.1199 -0.4697
  752TMC3    C811120   0.755   2.965  17.329 -0.3974  0.1700 -0.4356
  752TMC3    O111121   0.479   3.479  17.300 -0.3091 -0.0672  0.1388
  752TMC3    O211122   0.786   2.943  17.445 -0.4358 -0.3025  0.2811
  753TMC3    C111123   2.631   0.342  13.403  0.0745 -1.0544  0.2994
  753TMC3    C211124   2.725   0.262  13.475 -0.3862  0.6949  0.2615
  753TMC3    C311125   2.766   0.142  13.424  0.5456 -0.7816  0.4161
  753TMC3    C411126   2.599   0.309  13.275 -0.4965  0.0816 -0.7837
  753TMC3    C511127   2.651   0.193  13.230 -0.1867 -0.1283 -0.8158
  753TMC3    C611128   2.730   0.106  13.300  0.5068  0.2002  0.0201
  753TMC3     C11129   2.572   0.455  13.463  0.3232 -0.2454 -0.1864
  753TMC3     O11130   2.554   0.551  13.392  0.4834  0.3393  0.1881
  753TMC3     H11131   2.772   0.301  13.564  1.3895  2.0420 -1.2647
  753TMC3    H111132   2.537   0.375  13.215 -0.7391  0.6094  0.0479
  753TMC3    H211133   2.758   0.013  13.252  0.8969  0.1949  0.2631
  753TMC3    C711134   2.682   0.179  13.089 -0.2578 -0.5091  0.6629
  753TMC3    C811135   2.900   0.089  13.459 -0.0035  0.4902 -0.5643
  753TMC3    O111136   2.794   0.142  13.060  0.4442 -0.1488 -0.3295
  753TMC3    O211137   2.962   0.036  13.366  0.3207  0.1575 -0.5396
  754MPD2     C11138   1.807   3.412  12.874 -0.0106  0.1177 -0.0504
  754MPD2    C111139   1.759   3.282  12.903 -0.0768 -0.2790 -0.4183
  754MPD2    C211140   1.629   3.261  12.954  0.2015  0.5723 -0.2132
  754MPD2    C311141   1.552   3.370  12.989 -0.4518 -0.5437 -0.0779
  754MPD2    C411142   1.589   3.498  12.947  0.3993 -0.0423 -0.2800
  754MPD2    C511143   1.721   3.517  12.904 -0.4848  0.4264 -0.3836
  754MPD2     H11144   1.582   3.165  12.971  1.7681  0.5325  3.9300
  754MPD2    H111145   1.523   3.581  12.964 -0.4255 -1.6855  4.4480
  754MPD2    H211146   1.906   3.431  12.834 -0.4875 -0.6081 -1.5831
  754MPD2    H311147   1.756   3.618  12.891  2.0668 -0.4936 -0.6738
  754MPD2     N11148   1.430   3.362  13.062 -0.0213 -0.3040  0.1478
  754MPD2    H511149   1.380   3.448  13.081  0.0272 -0.4945  1.1891
  754MPD2    N111150   1.848   3.178  12.874 -0.0000  0.6019 -0.2046
  754MPD2    H711151   1.930   3.197  12.816  0.9037  0.1576  0.9323
  755MPD2     C11152   1.014   4.022  13.373 -0.7243  0.0704 -0.1814
  755MPD2    C111153   0.973   3.930  13.469  0.1890  0.8535 -0.6165
  755MPD2    C211154   1.016   3.799  13.468  0.1312 -0.0868 -0.2236
  755MPD2    C311155   1.088   3.754  13.361  0.3968 -0.2258 -0.2445
  755MPD2    C411156   1.131   3.851  13.274 -0.4482 -0.2650  0.9704
  755MPD2    C511157   1.103   3.979  13.280  0.6574 -0.0381  0.3598
  755MPD2     H11158   0.989   3.734  13.550 -0.2892  0.7836  0.3328
  755MPD2    H111159   1.190   3.827  13.186 -0.3314  0.0693  0.9586
  755MPD2    H211160   0.983   4.125  13.377 -0.3994  0.2635 -3.0866
  755MPD2    H311161   1.146   4.052  13.212  0.0302 -1.4879 -1.5883
  755MPD2     N11162   1.133   3.620  13.346 -0.0857  0.1640  0.3326
  755MPD2    H511163   1.187   3.604  13.262  0.3791 -0.1316  0.6876
  755MPD2    N111164   0.892   3.969  13.581  0.3952  0.1364  0.4353
  755MPD2    H711165   0.875   3.901  13.654  1.6320 -2.6679 -1.8914
  756MPD2     C11166   1.316   0.487   9.627  0.0509  0.1392  0.1318
  756MPD2    C111167   1.296   0.375   9.706  0.1255 -0.4979  0.6953
  756MPD2    C211168   1.194   0.285   9.670 -0.4942 -0.1387  0.1888
  756MPD2    C311169   1.112   0.319   9.558  0.2072  0.4646 -0.2602
  756MPD2    C411170   1.133   0.433   9.490 -0.7332  0.0268  0.0182
  756MPD2    C511171   1.244   0.507   9.515 -0.2831  0.4785  0.2046
  756MPD2     H11172   1.173   0.198   9.732 -1.1683  0.9919  1.5361
  756MPD2    H111173   1.062   0.489   9.430  0.5058 -0.4736 -1.9099
  756MPD2    H211174   1.388   0.565   9.649 -1.2483  1.1212  0.8720
  756MPD2    H311175   1.253   0.602   9.462 -0.1241  0.2289 -0.2112
  756MPD2     N11176   0.998   0.243   9.532  0.3270  0.3839 -0.3246
  756MPD2    H511177   0.975   0.168   9.597  0.7690 -0.0092 -0.6261
  756MPD2    N111178   1.376   0.343   9.820  0.6617  0.4472  0.3583
  756MPD2    H711179   1.343   0.260   9.868 -0.4754  1.3292  1.1234
  757MPD2     C11180   0.823   4.179   9.822  0.0538  0.5737  0.5100
  757MPD2    C111181   0.934   4.255   9.782 -0.3444 -0.1680 -0.2629
  757MPD2    C211182   0.908   4.373   9.718  0.3726  0.1002  0.4517
  757MPD2    C311183   0.782   4.425   9.688  0.1380  0.4271  0.7398
  757MPD2    C411184   0.675   4.347   9.727  0.0978 -0.3080 -0.1535
  757MPD2    C511185   0.698   4.230   9.796 -0.1771  0.6341 -0.2138
  757MPD2     H11186   0.996   4.425   9.684 -0.2973  0.1844 -1.1499
  757MPD2    H111187   0.572   4.377   9.712 -0.4684 -1.6565  1.0923
  757MPD2    H211188   0.837   4.083   9.870 -1.7186 -0.1045 -0.3438
  757MPD2    H311189   0.612   4.167   9.814  0.6777 -0.4047  0.2460
  757MPD2     N11190   0.768   4.557   9.628 -0.1740 -0.4913 -1.0460
  757MPD2    H511191   0.852   4.601   9.592  2.0563 -1.6012  2.7130
  757MPD2    N111192   1.060   4.190   9.795  0.8044 -0.7827  0.6124
  757MPD2    H711193   1.055   4.093   9.825  2.3255 -0.4720  1.8363
  758MPD2     C11194   1.524   3.517  15.793 -0.2370  0.1913 -0.3570
  758MPD2    C111195   1.555   3.413  15.880 -0.0224  0.2400  0.5799
  758MPD2    C211196   1.521   3.415  16.010  0.3518  0.1925  0.0163
  758MPD2    C311197   1.473   3.530  16.070 -0.0814 -0.5100  0.4711
  758MPD2    C411198   1.439   3.634  15.986  0.5451  0.1903 -0.8711
  758MPD2    C511199   1.461   3.623  15.849  0.2076 -0.0056 -0.6340
  758MPD2     H11200   1.543   3.334  16.078 -0.2701  1.3558  1.5955
  758MPD2    H111201   1.377   3.713  16.028 -2.0856 -2.0657 -0.5176
  758MPD2    H211202   1.541   3.513  15.686 -1.4537  0.6059 -0.5672
  758MPD2    H311203   1.434   3.708  15.788 -2.5861  0.2580  1.0098
  758MPD2     N11204   1.453   3.538  16.206 -0.1752 -0.4735 -0.0415
  758MPD2    H511205   1.403   3.618  16.244 -1.9532 -1.1344 -0.9545
  758MPD2    N111206   1.617   3.297  15.824  0.4174  0.1397  0.0039
  758MPD2    H711207   1.640   3.303  15.725  0.3261 -0.6399 -0.0623
  759MPD2     C11208   4.698   2.678   9.639  0.4830  0.1156 -0.0404
  759MPD2    C111209   0.057   2.581   9.583  0.1564  0.0156 -0.7086
  759MPD2    C211210   0.182   2.620   9.552 -0.6084 -0.0742  0.1407
  759MPD2    C311211   0.230   2.747   9.563 -0.4515 -0.8538 -0.4330
  759MPD2    C411212   0.155   2.839   9.636  0.8111 -0.0683 -0.0653
  759MPD2    C511213   0.026   2.805   9.675 -0.2859 -0.1067  0.5424
  759MPD2     H11214   0.243   2.549   9.496 -0.8794  1.3319 -1.8957
  759MPD2    H111215   0.193   2.937   9.660 -0.0820  0.9323 -2.7130
  759MPD2    H211216   4.595   2.661   9.668  0.4806 -0.2094 -0.2463
  759MPD2    H311217   4.704   2.868   9.750  0.3096  1.7830 -0.7004
  759MPD2     N11218   0.355   2.781   9.508 -0.0750 -0.1171  0.3673
  759MPD2    H511219   0.424   2.713   9.477  2.1504  2.3333 -0.0454
  759MPD2    N111220   0.023   2.450   9.546 -0.0491 -0.6821 -0.1295
  759MPD2    H711221   0.099   2.397   9.505  0.9947 -0.0808  1.0114
  760MPD2     C11222   0.563   3.510  11.844  0.2506  0.3148  0.7827
  760MPD2    C111223   0.655   3.602  11.878 -0.3973 -0.5975 -0.4881
  760MPD2    C211224   0.699   3.605  12.011 -0.9426  0.3888 -0.1435
  760MPD2    C311225   0.639   3.526  12.106  0.2313  0.4528  0.3643
  760MPD2    C411226   0.543   3.432  12.067 -0.4551 -0.1354 -0.4829
  760MPD2    C511227   0.505   3.430  11.940  0.3378 -0.3281  0.0926
  760MPD2     H11228   0.770   3.682  12.038  1.4118 -0.7314 -3.2186
  760MPD2    H111229   0.499   3.367  12.141 -0.6106  0.0437 -0.4203
  760MPD2    H211230   0.518   3.510  11.746  4.8766 -0.4022 -1.3572
  760MPD2    H311231   0.423   3.364  11.916 -0.8846  0.7535  1.3159
  760MPD2     N11232   0.678   3.523  12.243 -0.4493 -0.0082 -0.2749
  760MPD2    H511233   0.634   3.453  12.301 -1.5230  1.3386  0.5442
  760MPD2    N111234   0.711   3.690  11.785  0.0919 -0.2232  0.5566
  760MPD2    H711235   0.776   3.761  11.818 -0.3685  0.3629  0.1985
  761MPD2     C11236   1.329   3.424  11.040 -0.2652  0.7917  0.5858
  761MPD2    C111237   1.405   3.404  10.927  0.8158  0.2440  0.3998
  761MPD2    C211238   1.485   3.508  10.891 -0.1254  0.2591  0.0682
  761MPD2    C311239   1.493   3.631  10.950 -0.8859 -0.3743 -0.2480
  761MPD2    C411240   1.408   3.649  11.058 -0.0259  0.1237 -0.4542
  761MPD2    C511241   1.328   3.545  11.098  0.3662 -0.2531 -0.9432
  761MPD2     H11242   1.549   3.501  10.804 -0.7531  0.0798 -0.3720
  761MPD2    H111243   1.409   3.744  11.111  0.8495 -0.9070  1.3693
  761MPD2    H211244   1.291   3.336  11.090 -1.2266  1.0285  0.2723
  761MPD2    H311245   1.270   3.558  11.189 -0.0047 -2.4035 -0.8682
  761MPD2     N11246   1.577   3.733  10.907  0.1782 -0.0639 -0.3434
  761MPD2    H511247   1.578   3.813  10.969  0.0690 -2.0159  2.2090
  761MPD2    N111248   1.426   3.270  10.879  0.3731 -0.3325  0.5970
  761MPD2    H711249   1.369   3.193  10.913 -1.2928  1.3530  1.6745
  762MPD2     C11250   2.016   3.158  10.433  0.3137  0.2594 -0.4653
  762MPD2    C111251   1.955   3.028  10.439  0.2588 -0.4154 -0.6984
  762MPD2    C211252   2.020   2.922  10.371  0.4045 -0.5963 -0.0883
  762MPD2    C311253   2.149   2.936  10.314  0.3018  0.0111  0.6308
  762MPD2    C411254   2.204   3.064  10.309  0.3871  0.2296  0.1676
  762MPD2    C511255   2.139   3.175  10.362 -0.5680  0.1868  0.1877
  762MPD2     H11256   1.966   2.831  10.351 -0.0841  0.3463 -3.1381
  762MPD2    H111257   2.303   3.088  10.273  0.4995 -3.1444 -1.7434
  762MPD2    H211258   1.975   3.244  10.485 -0.4978  0.3900 -1.3098
  762MPD2    H311259   2.182   3.273  10.345 -3.2164  1.0319 -1.7739
  762MPD2     N11260   2.219   2.837  10.244 -1.1558  0.3682 -0.3885
  762MPD2    H511261   2.300   2.874  10.193 -0.3019 -0.2952  0.4916
  762MPD2    N111262   1.832   3.023  10.509 -0.7058 -0.2005  0.7704
  762MPD2    H711263   1.794   3.101  10.562  0.1976  0.8833 -0.1777
  763MPD2     C11264   3.593   3.272  16.146  0.4380 -0.6047  0.2220
  763MPD2    C111265   3.469   3.324  16.131 -0.3607 -0.2318 -0.2071
  763MPD2    C211266   3.442   3.440  16.204  0.2403 -0.1584  0.1631
  763MPD2    C311267   3.543   3.513  16.272 -0.2830 -0.0256  0.2794
  763MPD2    C411268   3.661   3.456  16.284  0.7806  0.2057 -0.2768
  763MPD2    C511269   3.688   3.334  16.228  0.6302 -0.0331 -0.5990
  763MPD2     H11270   3.343   3.483  16.208 -0.8809 -2.5101 -2.1864
  763MPD2    H111271   3.743   3.507  16.333  1.0067 -1.6807  1.3257
  763MPD2    H211272   3.626   3.189  16.085 -0.0674 -1.1178  0.6538
  763MPD2    H311273   3.791   3.302  16.232  0.7724  0.6059  0.9567
  763MPD2     N11274   3.524   3.632  16.344 -0.3244 -0.5721 -0.2057
  763MPD2    H511275   3.607   3.667  16.391 -0.7642 -0.2583  0.3373
  763MPD2    N111276   3.384   3.280  16.028  0.0890 -0.0362 -0.5096
  763MPD2    H711277   3.307   3.345  16.012 -1.3365 -1.8648 -1.1107
  764MPD2     C11278   1.775   0.565  17.056 -0.4629 -0.0403 -0.2029
  764MPD2    C111279   1.675   0.464  17.058  0.1225 -0.2240 -0.4483
  764MPD2    C211280   1.703   0.354  17.130  0.1368 -0.1383 -0.2270
  764MPD2    C311281   1.821   0.335  17.198  0.1282  0.0285 -0.1824
  764MPD2    C411282   1.923   0.426  17.178 -0.8447  0.6545  0.2190
  764MPD2    C511283   1.894   0.545  17.115  0.2924  0.3335  1.0066
  764MPD2     H11284   1.625   0.279  17.140 -1.1126  1.0971 -0.8292
  764MPD2    H111285   2.020   0.411  17.223 -0.8440 -1.1948 -0.3588
  764MPD2    H211286   1.761   0.651  16.992 -2.5215 -0.4132 -0.2488
  764MPD2    H311287   1.968   0.622  17.102  0.5393 -0.0620  0.0359
  764MPD2     N11288   1.834   0.223  17.282  0.3779 -0.0306 -0.0881
  764MPD2    H511289   1.757   0.157  17.283  1.0494 -0.7947  0.3871
  764MPD2    N111290   1.549   0.459  16.995 -0.1969  0.2865  0.4094
  764MPD2    H711291   1.480   0.389  17.016  1.0397 -0.8404  0.6918
  765MPD2     C11292   0.873   2.140  15.723 -0.7873 -0.4271  0.9711
  765MPD2    C111293   0.945   2.259  15.743 -0.1542  0.2893  0.5533
  765MPD2    C211294   1.061   2.286  15.672  0.4920  0.8083  0.5614
  765MPD2    C311295   1.106   2.189  15.586 -0.3332  0.6108 -0.7187
  765MPD2    C411296   1.043   2.064  15.569  0.1347 -0.6992 -0.1441
  765MPD2    C511297   0.927   2.046  15.637 -0.5911  0.3168  0.0145
  765MPD2     H11298   1.100   2.386  15.661 -1.0502  1.4542  1.0001
  765MPD2    H111299   1.078   1.988  15.500  0.9148 -0.2159 -0.2743
  765MPD2    H211300   0.781   2.118  15.775 -1.3426 -2.5473 -0.9061
  765MPD2    H311301   0.858   1.965  15.614  0.3989  0.1718 -2.3436
  765MPD2     N11302   1.222   2.224  15.514 -0.2844  0.2348 -0.0383
  765MPD2    H511303   1.263   2.315  15.526  0.1157  0.0796 -0.2387
  765MPD2    N111304   0.876   2.351  15.821 -0.0131 -0.0446 -0.1955
  765MPD2    H711305   0.782   2.325  15.852 -0.8091  0.7283 -1.9526
  766MPD2     C11306   0.675   2.317  15.344  0.5250 -0.2129 -0.7102
  766MPD2    C111307   0.702   2.452  15.348 -1.1749 -0.1004 -0.6004
  766MPD2    C211308   0.751   2.510  15.230 -0.3428  0.7819 -0.5630
  766MPD2    C311309   0.802   2.434  15.127  0.2181 -0.7996 -0.5305
  766MPD2    C411310   0.799   2.301  15.138 -0.1284 -0.0728  0.5960
  766MPD2    C511311   0.730   2.246  15.243 -0.2010  0.3755  0.5920
  766MPD2     H11312   0.767   2.618  15.226  0.2235  0.6861 -0.8198
  766MPD2    H111313   0.840   2.234  15.063  0.8305  0.2504  0.8279
  766MPD2    H211314   0.609   2.265  15.413  2.0506 -1.9415 -0.5673
  766MPD2    H311315   0.725   2.138  15.241  0.0309  0.3901 -0.9457
  766MPD2     N11316   0.880   2.484  15.015 -0.2275 -0.4799 -0.4689
  766MPD2    H511317   0.909   2.425  14.938 -3.6582 -1.4585 -0.9910
  766MPD2    N111318   0.642   2.519  15.457 -0.2679  0.7906  0.2767
  766MPD2    H711319   0.585   2.470  15.526 -1.2169  0.2363 -0.9031
  767MPD2     C11320   0.393   2.825  15.080 -0.4800 -0.2032  0.4646
  767MPD2    C111321   0.515   2.869  15.028 -0.3177 -0.5476 -0.5039
  767MPD2    C211322   0.536   2.846  14.896  0.1070  0.5174  0.4202
  767MPD2    C311323   0.445   2.781  14.819  0.1819 -0.0312 -0.1622
  767MPD2    C411324   0.326   2.734  14.865 -0.8763  0.5447 -0.1597
  767MPD2    C511325   0.301   2.756  14.996  1.3704  0.1232 -0.1546
  767MPD2     H11326   0.627   2.869  14.841  0.0479 -0.3829 -0.0574
  767MPD2    H111327   0.250   2.687  14.805 -1.8716  0.6297  1.0220
  767MPD2    H211328   0.364   2.855  15.180  0.3811 -1.3125  1.0385
  767MPD2    H311329   0.210   2.726  15.045  1.6137 -0.3355  0.0153
  767MPD2     N11330   0.485   2.752  14.682 -0.5560 -0.7977  0.4639
  767MPD2    H511331   0.580   2.780  14.659 -1.1397  1.0203  0.2402
  767MPD2    N111332   0.605   2.949  15.102 -0.6711  0.7329 -0.2716
  767MPD2    H711333   0.587   2.951  15.202 -2.6201 -1.1737 -0.5845
  768MPD2     C11334   1.574   1.567  10.710 -0.0767  0.5162  0.1812
  768MPD2    C111335   1.540   1.520  10.838 -0.2660  0.0920 -0.5277
  768MPD2    C211336   1.631   1.508  10.939  0.2754  0.0556 -0.2414
  768MPD2    C311337   1.763   1.554  10.920 -0.0545 -0.2120  0.0886
  768MPD2    C411338   1.796   1.588  10.793 -0.2685  0.2873 -0.0966
  768MPD2    C511339   1.704   1.600  10.692 -0.3679 -0.5263  0.3165
  768MPD2     H11340   1.600   1.474  11.037 -0.6995 -1.5361 -1.0953
  768MPD2    H111341   1.900   1.616  10.775 -0.2304  1.2318  1.6604
  768MPD2    H211342   1.511   1.581  10.623  1.3693 -1.0105 -1.1197
  768MPD2    H311343   1.737   1.629  10.593 -1.1038  0.5932  0.3893
  768MPD2     N11344   1.865   1.555  11.016  0.4994 -0.1917 -0.9983
  768MPD2    H511345   1.961   1.567  10.985  0.7024 -0.4599 -0.4760
  768MPD2    N111346   1.403   1.490  10.867  0.5717 -0.5508 -0.0087
  768MPD2    H711347   1.392   1.450  10.960 -0.6440 -0.9643 -0.3334
  769MPD2     C11348   2.431   4.056  14.553  0.0922  0.4994  0.2656
  769MPD2    C111349   2.436   3.952  14.644 -0.6230  0.3902 -0.5402
  769MPD2    C211350   2.504   3.969  14.759 -0.1274  0.2699 -0.3038
  769MPD2    C311351   2.565   4.088  14.793  0.9282  0.0152 -0.6362
  769MPD2    C411352   2.561   4.190  14.703 -0.6443 -0.3393 -0.0484
  769MPD2    C511353   2.492   4.175  14.584  0.0536 -0.0856  0.4476
  769MPD2     H11354   2.523   3.891  14.832 -1.8817 -0.0503 -0.1997
  769MPD2    H111355   2.622   4.277  14.723 -1.1292  0.0213 -0.1647
  769MPD2    H211356   2.369   4.044  14.465 -1.3635 -0.9295  1.4883
  769MPD2    H311357   2.485   4.258  14.514 -2.4682  0.3823  1.2388
  769MPD2     N11358   2.620   4.098  14.922 -0.3082  0.4541 -0.7641
  769MPD2    H511359   2.622   4.011  14.975  0.4144 -0.6184 -2.5703
  769MPD2    N111360   2.344   3.843  14.626  0.2937  0.0408 -0.3868
  769MPD2    H711361   2.299   3.834  14.536  3.2216  1.7012 -2.0218
  770MPD2     C11362   1.554   3.137  14.969  0.2096  0.1732  0.2599
  770MPD2    C111363   1.632   3.064  14.879 -0.0009  1.3975 -0.1099
  770MPD2    C211364   1.740   3.122  14.811  0.1058 -0.1081 -1.0173
  770MPD2    C311365   1.785   3.252  14.838 -0.7603  0.1733 -0.1353
  770MPD2    C411366   1.707   3.318  14.935 -0.4723 -0.2872 -0.2773
  770MPD2    C511367   1.590   3.263  14.983  0.2412 -0.0924 -0.5351
  770MPD2     H11368   1.805   3.060  14.750  0.3645 -0.5952 -0.2472
  770MPD2    H111369   1.720   3.424  14.954  1.3557 -0.0586 -2.8841
  770MPD2    H211370   1.464   3.110  15.021 -0.4459  0.2221 -0.8475
  770MPD2    H311371   1.522   3.325  15.039 -0.9267 -1.1872 -0.7273
  770MPD2     N11372   1.895   3.313  14.774 -0.1783 -0.2529  0.3886
  770MPD2    H511373   1.948   3.253  14.712  1.8985  2.0302 -0.0273
  770MPD2    N111374   1.600   2.923  14.866 -0.3583  0.6664 -0.5520
  770MPD2    H711375   1.524   2.890  14.925  0.1158 -1.0336 -0.8664
  771MPD2     C11376   2.895   2.209  13.916 -0.6178  1.1536  0.1378
  771MPD2    C111377   2.957   2.241  13.801  0.4721  0.1796  0.3002
  771MPD2    C211378   2.884   2.248  13.682  0.4293 -0.0529 -0.5175
  771MPD2    C311379   2.745   2.237  13.681  0.0578 -0.3225 -0.5491
  771MPD2    C411380   2.685   2.217  13.800 -0.6114 -0.0037 -0.3908
  771MPD2    C511381   2.759   2.199  13.916 -0.1732  0.6069  0.4386
  771MPD2     H11382   2.952   2.260  13.598  1.2791  3.9420  0.7358
  771MPD2    H111383   2.577   2.212  13.805 -0.6078  0.0366 -0.2737
  771MPD2    H211384   2.946   2.191  14.010 -2.1982 -2.7999  0.2099
  771MPD2    H311385   2.712   2.183  14.013 -2.0685 -0.2554 -0.6185
  771MPD2     N11386   2.665   2.264  13.567 -0.3277  0.5927  0.7402
  771MPD2    H511387   2.564   2.260  13.575 -0.2500 -0.2761  1.2109
  771MPD2    N111388   3.094   2.282  13.800 -0.5779  0.2198  0.1072
  771MPD2    H711389   3.137   2.298  13.710  2.0092  0.0216  1.3221
  772MPD2     C11390   2.818   2.738  13.518  0.0581  0.5840  0.0842
  772MPD2    C111391   2.836   2.683  13.638  0.3405 -0.1029  0.0682
  772MPD2    C211392   2.725   2.642  13.705  0.3395 -0.3903  0.5225
  772MPD2    C311393   2.596   2.653  13.646 -0.5268 -0.1947  0.5903
  772MPD2    C411394   2.582   2.704  13.519  0.5537 -0.2647 -0.5419
  772MPD2    C511395   2.693   2.753  13.456  1.0480 -0.1791 -0.1486
  772MPD2     H11396   2.736   2.612  13.808  1.8125 -0.9714  0.1985
  772MPD2    H111397   2.486   2.719  13.470  0.3760  0.0052 -0.1137
  772MPD2    H211398   2.905   2.786  13.474  2.0339 -2.0157  1.1986
  772MPD2    H311399   2.681   2.801  13.360 -2.7757 -0.8697 -0.0131
  772MPD2     N11400   2.475   2.603  13.695 -0.7215  0.0018  0.5707
  772MPD2    H511401   2.393   2.609  13.636 -1.8572 -2.0423  1.9349
  772MPD2    N111402   2.964   2.669  13.699 -0.0456  0.2026 -0.3790
  772MPD2    H711403   2.967   2.639  13.796  0.1367  1.4564 -0.0037
  773MPD2     C11404   2.438   3.724   0.364  0.9094 -0.2492  0.0001
  773MPD2    C111405   2.368   3.645   0.276  0.2783 -0.5487  0.2973
  773MPD2    C211406   2.354   3.514   0.304  0.5336 -0.1660  0.8244
  773MPD2    C311407   2.425   3.451   0.402  0.1135 -0.6584  0.5249
  773MPD2    C411408   2.507   3.532   0.484  0.0116 -0.4235  0.5379
  773MPD2    C511409   2.506   3.664   0.462 -0.3637 -0.4032  0.2967
  773MPD2     H11410   2.281   3.458   0.247 -0.6699  2.0181  0.2092
  773MPD2    H111411   2.569   3.486   0.560 -0.7580 -2.2068  0.0692
  773MPD2    H211412   2.455   3.830   0.354 -1.0219 -0.1129 -1.9284
  773MPD2    H311413   2.570   3.728   0.522 -1.8407  0.9738  0.3963
  773MPD2     N11414   2.422   3.315   0.430  0.1905  1.0030 -0.1737
  773MPD2    H511415   2.469   3.279   0.513  0.2517  0.5591 -0.3986
  773MPD2    N111416   2.303   3.695   0.163 -0.0018 -0.0847 -0.3122
  773MPD2    H711417   2.247   3.628   0.111 -0.3779 -0.6188  0.7788
  774MPD2     C11418   1.038   2.641  13.241  0.4343  0.1637  0.1667
  774MPD2    C111419   1.105   2.669  13.356  0.1562  0.9897 -0.8780
  774MPD2    C211420   1.226   2.743  13.344  0.1454  0.2132 -0.5530
  774MPD2    C311421   1.271   2.782  13.217  0.4628  0.3876 -0.5908
  774MPD2    C411422   1.204   2.746  13.106 -0.6692  0.2912 -0.0073
  774MPD2    C511423   1.085   2.684  13.118  0.5912  0.2393  0.2880
  774MPD2     H11424   1.290   2.759  13.430  0.2131  1.2496 -0.7994
  774MPD2    H111425   1.243   2.768  13.007  1.4829  0.3170  0.8383
  774MPD2    H211426   0.940   2.595  13.234  0.5776 -0.0346 -0.5858
  774MPD2    H311427   1.025   2.656  13.032 -1.4966 -2.7468  2.7031
  774MPD2     N11428   1.402   2.821  13.211  0.4099 -0.0576  0.4423
  774MPD2    H511429   1.433   2.867  13.296  0.5600  0.9141 -0.1371
  774MPD2    N111430   1.052   2.611  13.476  0.3295 -0.2836 -0.1274
  774MPD2    H711431   0.996   2.527  13.465  0.8658 -0.7841  1.0483
  775MPD2     C11432   3.061   3.816  15.633  0.3466  0.2455  0.1127
  775MPD2    C111433   3.008   3.938  15.664  0.6668  1.1460  0.7120
  775MPD2    C211434   3.070   4.049  15.619  0.0793  0.2058 -0.9584
  775MPD2    C311435   3.189   4.042  15.544  0.0858  0.0591  0.3685
  775MPD2    C411436   3.232   3.918  15.508 -0.3021 -0.2227 -0.2702
  775MPD2    C511437   3.169   3.805  15.545 -0.2010 -0.1871 -0.4146
  775MPD2     H11438   3.035   4.146  15.653 -0.7264  0.1207 -1.5377
  775MPD2    H111439   3.329   3.921  15.460 -1.0558 -1.2437 -1.8618
  775MPD2    H211440   3.021   3.724  15.673 -2.9045  0.2126 -3.2161
  775MPD2    H311441   3.221   3.712  15.524 -0.0916  0.5496 -3.4345
  775MPD2     N11442   3.252   4.159  15.492 -0.5431  0.0912 -0.5948
  775MPD2    H511443   3.313   4.148  15.412 -0.3231 -2.4257 -0.0739
  775MPD2    N111444   2.885   3.940  15.734  0.0389 -0.0232  0.4848
  775MPD2    H711445   2.850   3.856  15.778  0.9605 -0.8255 -0.3097
  776MPD2     C11446   1.316   4.709  11.337  0.4633 -0.0351  0.4277
  776MPD2    C111447   1.451   4.717  11.333  0.4562  0.0799 -0.2543
  776MPD2    C211448   1.511   0.094  11.269  0.4315 -0.1328 -0.3478
  776MPD2    C311449   1.436   0.179  11.202  0.2069 -0.5131  0.4955
  776MPD2    C411450   1.295   0.180  11.217  0.1426  0.0744 -0.2243
  776MPD2    C511451   1.233   0.075  11.280 -0.6506  0.1575  0.5262
  776MPD2     H11452   1.616   0.119  11.281  0.5336 -1.0765  0.7341
  776MPD2    H111453   1.246   0.268  11.178  1.8457  1.0750 -0.1106
  776MPD2    H211454   1.259   4.628  11.382  0.7496  0.2778  1.3574
  776MPD2    H311455   1.128   0.064  11.303 -0.6398 -2.5771 -0.7803
  776MPD2     N11456   1.491   0.272  11.114 -0.2934  0.8451 -0.2691
  776MPD2    H511457   1.416   0.316  11.060  0.5347 -0.3933 -2.4529
  776MPD2    N111458   1.517   4.626  11.415  0.2875 -0.0759  0.0408
  776MPD2    H711459   1.452   4.550  11.435  0.5518  0.1730  1.9020
  777MPD2     C11460   2.630   2.069   0.495  0.0195  0.0904 -0.0839
  777MPD2    C111461   2.633   1.969   0.582 -0.8042 -0.5737 -0.0982
  777MPD2    C211462   2.568   1.855   0.534  0.0738  0.4136 -0.7064
  777MPD2    C311463   2.525   1.837   0.407 -0.3695 -0.0949  0.4129
  777MPD2    C411464   2.528   1.941   0.319 -0.6686  0.5989 -0.6510
  777MPD2    C511465   2.581   2.058   0.370 -0.1125 -0.0856 -0.6126
  777MPD2     H11466   2.553   1.769   0.598 -0.0450  1.2037  0.3315
  777MPD2    H111467   2.491   1.926   0.218  0.0978  0.0522 -0.8537
  777MPD2    H211468   2.674   2.159   0.535 -2.7144  1.9116 -1.0886
  777MPD2    H311469   2.585   2.142   0.301  0.4069 -1.1712 -1.9136
  777MPD2     N11470   2.490   1.701   0.384 -0.1218  0.1938 -0.3293
  777MPD2    H511471   2.506   1.629   0.454  2.5318  1.3470  0.2276
  777MPD2    N111472   2.700   1.982   0.711  0.4304 -0.6160  0.0428
  777MPD2    H711473   2.751   2.068   0.731 -2.6393  1.0911  0.4905
  778MPD2     C11474   3.252   1.881  15.382  0.4314 -0.1277  0.3190
  778MPD2    C111475   3.213   1.813  15.265 -0.2817  0.2589 -0.3284
  778MPD2    C211476   3.249   1.878  15.148 -0.1788 -0.5331 -0.4549
  778MPD2    C311477   3.325   1.991  15.145  0.2457 -0.0910  0.0019
  778MPD2    C411478   3.352   2.059  15.259 -0.4007  0.1069 -0.2038
  778MPD2    C511479   3.328   1.999  15.381  0.1846  0.0546 -0.2970
  778MPD2     H11480   3.231   1.820  15.058  0.5017 -1.3017 -0.0942
  778MPD2    H111481   3.399   2.157  15.255 -0.7938  0.3382  0.9411
  778MPD2    H211482   3.235   1.837  15.480 -2.5192 -1.1786 -0.6756
  778MPD2    H311483   3.351   2.049  15.474  0.9610  0.8345 -0.9125
  778MPD2     N11484   3.365   2.030  15.015 -0.2877 -0.3707 -0.4836
  778MPD2    H511485   3.360   1.968  14.935  0.0681  0.6301 -1.2824
  778MPD2    N111486   3.132   1.697  15.251 -0.9206  0.1742  0.1260
  778MPD2    H711487   3.100   1.667  15.159  1.9644  1.9861 -1.5128
  779MPD2     C11488   2.975   0.801  14.311  0.6376 -0.5970 -0.3176
  779MPD2    C111489   3.108   0.808  14.336  0.0759  0.1931 -0.2960
  779MPD2    C211490   3.167   0.925  14.386 -0.6151  0.0029 -0.2511
  779MPD2    C311491   3.089   1.029  14.417 -0.6433 -0.5485 -0.0381
  779MPD2    C411492   2.956   1.021  14.397 -0.6256 -0.2361  0.1520
  779MPD2    C511493   2.897   0.909  14.345  0.0465 -0.0367 -0.0964
  779MPD2     H11494   3.274   0.928  14.405 -0.7411  0.6617  0.3406
  779MPD2    H111495   2.890   1.100  14.432 -1.7193 -1.0213 -0.1454
  779MPD2    H211496   2.928   0.712  14.271 -1.0380  0.1093  0.0853
  779MPD2    H311497   2.790   0.896  14.330  0.0307  1.5543 -1.3231
  779MPD2     N11498   3.159   1.132  14.486  0.1457 -0.2244 -0.6646
  779MPD2    H511499   3.260   1.127  14.483  0.1520 -1.3799  1.7715
  779MPD2    N111500   3.197   0.714  14.301 -0.1314 -0.0854 -0.3901
  779MPD2    H711501   3.293   0.746  14.308 -0.1135 -0.1953 -0.0943
  780MPD2     C11502   2.624   0.397   1.638 -0.6078 -0.1609 -0.0625
  780MPD2    C111503   2.633   0.283   1.561  0.4290 -0.2958 -0.3047
  780MPD2    C211504   2.709   0.291   1.443  0.1076  0.2552 -0.5168
  780MPD2    C311505   2.782   0.407   1.415  1.1344 -0.3277  1.1177
  780MPD2    C411506   2.767   0.521   1.497 -0.3437  0.8706  0.5619
  780MPD2    C511507   2.690   0.511   1.605 -0.4074 -0.6692 -0.5100
  780MPD2     H11508   2.733   0.206   1.380  0.8231  2.9061 -3.8157
  780MPD2    H111509   2.818   0.612   1.468 -0.2689  0.1374 -1.6250
  780MPD2    H211510   2.556   0.400   1.722 -0.4056 -0.2836  0.1062
  780MPD2    H311511   2.664   0.606   1.650  0.3652 -0.5521 -0.3213
  780MPD2     N11512   2.869   0.401   1.300 -0.4904  0.5590  0.1848
  780MPD2    H511513   2.850   0.324   1.237  0.1920 -0.2203  0.9413
  780MPD2    N111514   2.568   0.174   1.603  0.2043  0.6228 -0.0621
  780MPD2    H711515   2.521   0.175   1.693 -1.9608 -0.4005 -1.1954
  781MPD2     C11516   4.320   2.930  11.891  0.6723 -0.3807  0.4251
  781MPD2    C111517   4.420   2.941  11.988  0.2308  1.0749 -0.0073
  781MPD2    C211518   4.551   2.937  11.955  0.0201  0.6410  0.2246
  781MPD2    C311519   4.594   2.918  11.824  0.1821 -0.0057  0.4036
  781MPD2    C411520   4.489   2.906  11.733  0.1422 -0.1118  0.2363
  781MPD2    C511521   4.355   2.912  11.761  0.4186 -0.3173 -0.1173
  781MPD2     H11522   4.627   2.953  12.030 -0.3229 -0.4255  0.8023
  781MPD2    H111523   4.516   2.910  11.628 -1.4100 -1.3875 -0.1952
  781MPD2    H211524   4.213   2.937  11.908  0.4018 -0.3100 -1.3507
  781MPD2    H311525   4.284   2.912  11.679  0.1095  0.6960  0.1487
  781MPD2     N11526   0.004   2.906  11.777 -0.0200 -0.2167 -0.4004
  781MPD2    H511527   0.011   2.914  11.676  0.4056  1.1392 -0.2752
  781MPD2    N111528   4.391   2.937  12.127 -0.0442  0.3141 -0.4410
  781MPD2    H711529   4.477   2.940  12.181  0.2791  2.0194 -1.0510
  782MPD2     C11530   2.414   3.903   9.971 -0.3390 -0.6847 -0.3698
  782MPD2    C111531   2.474   3.848  10.081  0.0416 -0.4666  0.3943
  782MPD2    C211532   2.509   3.937  10.185  0.2494  0.5247  0.1912
  782MPD2    C311533   2.466   4.070  10.199  0.0568 -0.2403  0.1708
  782MPD2    C411534   2.388   4.119  10.095 -0.2180 -0.3686 -0.5163
  782MPD2    C511535   2.367   4.032   9.985 -0.4387  0.3444  0.6054
  782MPD2     H11536   2.549   3.891  10.275  0.8866  3.4266  1.3894
  782MPD2    H111537   2.330   4.210  10.101 -2.6054 -1.9628  0.3233
  782MPD2    H211538   2.399   3.858   9.873 -1.6423 -0.0340 -0.4614
  782MPD2    H311539   2.315   4.073   9.899  0.1577  0.5331  0.3341
  782MPD2     N11540   2.487   4.133  10.328  0.3092  0.1054  0.7030
  782MPD2    H511541   2.543   4.085  10.398  0.4847  1.9373  1.8125
  782MPD2    N111542   2.541   3.724  10.091 -1.2129  0.0369 -0.2231
  782MPD2    H711543   2.593   3.699  10.174 -2.4430 -0.1803  0.4714
  783MPD2     C11544   2.253   3.399  10.809  0.1022  0.3305 -0.6455
  783MPD2    C111545   2.212   3.490  10.716 -0.6429  0.5150 -0.5590
  783MPD2    C211546   2.262   3.477  10.591  0.7726 -0.1444 -0.3598
  783MPD2    C311547   2.359   3.381  10.557 -0.2882  0.0506  0.4032
  783MPD2    C411548   2.387   3.286  10.647  0.8116  0.2414  0.3040
  783MPD2    C511549   2.336   3.296  10.772 -1.3164  0.7636 -0.3410
  783MPD2     H11550   2.257   3.567  10.531  0.2115 -0.6285 -1.0415
  783MPD2    H111551   2.470   3.216  10.642 -1.7803 -2.7069 -1.1659
  783MPD2    H211552   2.229   3.419  10.912  2.7258  0.8436 -0.1440
  783MPD2    H311553   2.374   3.221  10.840 -0.4966  1.4478 -0.0453
  783MPD2     N11554   2.421   3.395  10.431 -1.0549 -0.0502 -0.5314
  783MPD2    H511555   2.369   3.458  10.371  0.8192  0.8489 -1.2134
  783MPD2    N111556   2.136   3.598  10.763 -0.2709  0.0626 -0.6854
  783MPD2    H711557   2.125   3.603  10.864 -0.5501  0.9260 -0.7549
  784MPD2     C11558   1.263   4.269   0.708  0.0009  0.6388  0.5160
  784MPD2    C111559   1.197   4.289   0.827 -0.2122 -0.5636 -0.3443
  784MPD2    C211560   1.123   4.407   0.845  0.5512  0.2558 -0.3406
  784MPD2    C311561   1.101   4.496   0.736 -0.0748  0.2922 -0.3151
  784MPD2    C411562   1.175   4.476   0.620  0.5375 -0.0438 -0.3190
  784MPD2    C511563   1.261   4.370   0.615  0.1639  0.4060  0.1337
  784MPD2     H11564   1.068   4.434   0.934  0.3471  1.0279 -0.7034
  784MPD2    H111565   1.184   4.547   0.538  0.6143  3.4149  2.6908
  784MPD2    H211566   1.319   4.178   0.688 -0.7619  0.4341 -0.7079
  784MPD2    H311567   1.320   4.356   0.525  0.0983 -0.1284  0.1751
  784MPD2     N11568   0.994   4.592   0.734 -0.2056  0.1797 -0.0160
  784MPD2    H511569   0.948   4.602   0.824  1.0498  1.9947  0.4292
  784MPD2    N111570   1.198   4.198   0.930 -0.8042  0.5680  0.7896
  784MPD2    H711571   1.152   4.219   1.019  0.4090 -0.4762  1.6706
  785MPD2     C11572   4.228   2.834  10.099 -0.0970  0.2240  0.4152
  785MPD2    C111573   4.304   2.902  10.193  0.1807  0.1016 -0.4327
  785MPD2    C211574   4.285   3.038  10.216 -0.1637 -0.2863  0.8985
  785MPD2    C311575   4.202   3.111  10.136 -0.6632  0.5335 -0.0706
  785MPD2    C411576   4.133   3.047  10.035  0.1351  0.7631  0.3335
  785MPD2    C511577   4.141   2.907  10.020 -0.0946  0.2551 -0.0705
  785MPD2     H11578   4.347   3.087  10.289  0.2541 -0.4559  0.6582
  785MPD2    H111579   4.071   3.102   9.965 -0.0755 -1.3829 -1.1853
  785MPD2    H211580   4.234   2.726  10.095 -0.2085  0.1923  1.1115
  785MPD2    H311581   4.080   2.863   9.941  1.8258  1.9839 -2.5319
  785MPD2     N11582   4.192   3.243  10.165  0.3994 -0.4039 -0.4684
  785MPD2    H511583   4.247   3.273  10.245  0.1395  1.5776 -1.0343
  785MPD2    N111584   4.383   2.835  10.291  0.4032  0.5665  0.0638
  785MPD2    H711585   4.406   2.882  10.377 -3.0864  0.2421  1.2080
  786MPD2     C11586   3.232   0.274  14.417 -0.7337  0.4692  0.5374
  786MPD2    C111587   3.365   0.237  14.397  0.6311 -0.0421 -0.5725
  786MPD2    C211588   3.451   0.238  14.508 -0.7186 -0.2278 -0.2834
  786MPD2    C311589   3.411   0.284  14.632  0.2552  0.1758  0.4629
  786MPD2    C411590   3.280   0.338  14.650 -0.6342  0.1803  0.3940
  786MPD2    C511591   3.199   0.329  14.541  0.5877  0.8487  0.0834
  786MPD2     H11592   3.551   0.195  14.500  0.0190  1.3876  0.4382
  786MPD2    H111593   3.244   0.384  14.741 -2.9801 -1.6804  0.4079
  786MPD2    H211594   3.160   0.260  14.337 -0.2893  3.4498 -0.3681
  786MPD2    H311595   3.096   0.363  14.542  1.2012  2.6502  1.4506
  786MPD2     N11596   3.493   0.286  14.747  0.0219 -0.0503  0.5702
  786MPD2    H511597   3.461   0.323  14.836 -0.7829  0.8896 -0.1101
  786MPD2    N111598   3.405   0.169  14.282 -0.1011 -0.0438 -0.8490
  786MPD2    H711599   3.504   0.153  14.270  0.3084  3.0701 -1.6553
  787MPD2     C11600   3.393   4.211  14.493  0.1048 -0.0860  0.0358
  787MPD2    C111601   3.502   4.271  14.429  0.5614  0.2008 -0.4582
  787MPD2    C211602   3.626   4.269  14.484  0.6903  0.0808  0.4129
  787MPD2    C311603   3.641   4.229  14.615  0.8590  0.4451 -0.3976
  787MPD2    C411604   3.534   4.176  14.687  0.4155  0.0232  0.3731
  787MPD2    C511605   3.411   4.171  14.623  0.1260 -0.8494 -0.1666
  787MPD2     H11606   3.716   4.299  14.432  0.6435  0.5354  0.5942
  787MPD2    H111607   3.542   4.115  14.776 -1.5469  1.4968  1.5604
  787MPD2    H211608   3.300   4.199  14.439 -1.3511 -1.3243  2.8433
  787MPD2    H311609   3.327   4.125  14.674 -0.4360  0.0232 -0.3020
  787MPD2     N11610   3.775   4.217  14.672 -0.0682  0.2062 -0.3314
  787MPD2    H511611   3.848   4.237  14.605  0.5297 -2.8964 -0.5791
  787MPD2    N111612   3.476   4.338  14.304  0.3641  0.6251  0.0532
  787MPD2    H711613   3.383   4.328  14.264  0.4867  0.5194 -0.2019
  788MPD2     C11614   1.029   2.939   1.043  0.0002 -0.3504  0.7744
  788MPD2    C111615   1.055   2.891   0.911  0.8263 -0.7690 -0.1479
  788MPD2    C211616   1.106   2.987   0.819 -0.3636  0.3076 -0.3591
  788MPD2    C311617   1.117   3.125   0.854  0.1869  0.3905 -0.5371
  788MPD2    C411618   1.097   3.164   0.980  0.4516 -0.5737  0.0085
  788MPD2    C511619   1.060   3.071   1.073 -0.4141 -0.0657 -0.2979
  788MPD2     H11620   1.117   2.953   0.717  1.9333 -1.7180  0.5781
  788MPD2    H111621   1.112   3.268   1.005  1.1630 -0.3130 -1.5033
  788MPD2    H211622   0.998   2.872   1.122 -0.1847  1.1567  1.9603
  788MPD2    H311623   1.051   3.111   1.173  0.7124 -2.3036  0.6843
  788MPD2     N11624   1.140   3.227   0.763  0.0086  0.4562 -0.2571
  788MPD2    H511625   1.154   3.320   0.801  2.4350  0.9021 -2.2495
  788MPD2    N111626   1.031   2.757   0.862 -0.0542 -0.9107  0.1246
  788MPD2    H711627   1.067   2.738   0.769  0.8331  1.9796 -0.1287
  789MPD2     C11628   1.008   2.879  16.112 -0.3523  0.2972 -0.0868
  789MPD2    C111629   0.972   2.793  16.217 -0.1672 -0.1193 -0.1007
  789MPD2    C211630   0.879   2.825  16.310  0.0313 -0.1837  0.0197
  789MPD2    C311631   0.820   2.953  16.299 -0.0189  0.6493 -0.0880
  789MPD2    C411632   0.842   3.033  16.187 -0.2839 -0.6870  0.2795
  789MPD2    C511633   0.950   3.001  16.106 -0.3345  0.1002 -0.4219
  789MPD2     H11634   0.859   2.766  16.398 -0.4030  0.4715  0.3668
  789MPD2    H111635   0.782   3.120  16.162 -1.2331 -0.8515  2.0014
  789MPD2    H211636   1.080   2.850  16.036 -0.0801  5.4824 -1.7885
  789MPD2    H311637   0.978   3.074  16.031  1.0057  1.5696  1.4933
  789MPD2     N11638   0.734   3.006  16.401  0.2398  0.0092  0.1265
  789MPD2    H511639   0.709   3.104  16.393 -1.6643 -0.3935  1.3151
  789MPD2    N111640   1.034   2.664  16.229 -1.2188 -0.2818  0.1565
  789MPD2    H711641   1.005   2.599  16.301  0.2832  0.5351  1.4823
  790MPD2     C11642   2.620   4.542  13.019 -0.8067  0.5193  0.0941
  790MPD2    C111643   2.493   4.579  13.027 -0.1776 -0.0405  0.2604
  790MPD2    C211644   2.431   4.590  12.898  0.5343  0.4438 -0.5267
  790MPD2    C311645   2.502   4.592  12.780  0.3108  0.6908  0.1310
  790MPD2    C411646   2.636   4.547  12.777 -0.1468 -0.2856 -0.0298
  790MPD2    C511647   2.688   4.527  12.899 -0.2542  0.5065  0.6367
  790MPD2     H11648   2.329   4.628  12.895  0.6571  0.6897 -1.4743
  790MPD2    H111649   2.701   4.565  12.693  0.5975  0.6136  0.7459
  790MPD2    H211650   2.675   4.523  13.111 -1.8394  0.2105  0.6431
  790MPD2    H311651   2.787   4.484  12.903  0.3231  1.6939 -0.9320
  790MPD2     N11652   2.423   4.622  12.665  0.7978 -0.0189  0.5345
  790MPD2    H511653   2.324   4.638  12.681  0.5734 -2.8837  1.9907
  790MPD2    N111654   2.434   4.610  13.149 -0.4117  0.0204 -0.3479
  790MPD2    H711655   2.487   4.605  13.235  0.5449  0.9379 -0.8827
  791MPD2     C11656   1.848   4.411  12.741  0.1647  0.0730  0.0012
  791MPD2    C111657   1.853   4.465  12.613 -0.0622  0.0903  0.7126
  791MPD2    C211658   1.738   4.450  12.531  0.1779  0.6584 -0.1616
  791MPD2    C311659   1.618   4.403  12.580 -0.8651  0.5732  0.0298
  791MPD2    C411660   1.617   4.361  12.709 -0.3090 -0.4490 -0.0574
  791MPD2    C511661   1.730   4.364  12.787 -0.0323  0.1110 -0.2432
  791MPD2     H11662   1.735   4.469  12.425 -1.4185  1.2605 -0.0036
  791MPD2    H111663   1.536   4.315  12.764  0.6179 -1.3557  0.5447
  791MPD2    H211664   1.936   4.407  12.803  0.2900 -2.5935 -0.3631
  791MPD2    H311665   1.730   4.303  12.876 -2.4912 -1.4582 -1.3302
  791MPD2     N11666   1.511   4.386  12.490 -0.0832 -0.8941 -0.5696
  791MPD2    H511667   1.513   4.414  12.393  0.0259 -1.0834 -0.6205
  791MPD2    N111668   1.982   4.518  12.571 -0.0558 -0.0661 -0.3667
  791MPD2    H711669   2.059   4.511  12.636 -1.7321  0.2411  1.6557
  792MPD2     C11670   2.527   0.072  10.481  0.6720  0.2362 -0.2516
  792MPD2    C111671   2.528   0.103  10.612 -0.7881  0.0516  0.5393
  792MPD2    C211672   2.424   0.058  10.698  0.7456  0.3797 -0.4285
  792MPD2    C311673   2.329   4.699  10.638  0.7927  0.1770 -0.1681
  792MPD2    C411674   2.328   4.683  10.501 -0.3479  1.1229  0.3179
  792MPD2    C511675   2.429   0.005  10.425  0.0917 -0.2084  0.9390
  792MPD2     H11676   2.431   0.067  10.806  0.0128 -1.7504 -0.1999
  792MPD2    H111677   2.240   4.636  10.459  1.5812 -0.2322 -2.2070
  792MPD2    H211678   2.607   0.102  10.414  0.5890  0.8595 -0.0716
  792MPD2    H311679   2.427   4.719  10.317  1.2084  0.6252  0.8348
  792MPD2     N11680   2.237   4.635  10.718  0.0207  0.0947  1.4923
  792MPD2    H511681   2.167   4.589  10.661  2.3218 -2.3817  0.6959
  792MPD2    N111682   2.629   0.207  10.650 -0.0420 -0.2575 -0.5106
  792MPD2    H711683   2.676   0.244  10.568  1.6519  2.4713  1.7184
  793MPD2     C11684   1.449   4.608  10.409  0.2135  0.4197 -0.1209
  793MPD2    C111685   1.582   4.626  10.368  0.3643 -0.4819  0.1593
  793MPD2    C211686   1.683   4.553  10.434 -0.4516 -0.7704  0.0106
  793MPD2    C311687   1.656   4.482  10.552 -0.1501  0.4792  0.2122
  793MPD2    C411688   1.524   4.463  10.578  0.5033  0.4268  0.5694
  793MPD2    C511689   1.423   4.529  10.513 -0.5362 -0.0559 -0.4792
  793MPD2     H11690   1.788   4.578  10.423 -1.3209  1.8650 -2.2081
  793MPD2    H111691   1.494   4.410  10.668 -1.5138  0.2988 -0.1957
  793MPD2    H211692   1.358   4.656  10.375  0.6094 -0.6748 -2.6925
  793MPD2    H311693   1.320   4.526  10.548 -0.6189  0.5184 -0.6672
  793MPD2     N11694   1.758   4.435  10.640  0.0191 -0.0007 -0.2332
  793MPD2    H511695   1.722   4.396  10.727 -1.1438 -2.9286 -2.0399
  793MPD2    N111696   1.615   4.720  10.269  0.0789  0.0373 -0.1286
  793MPD2    H711697   1.715   0.011  10.260 -0.3509  2.8755 -0.0292
  794MPD2     C11698   2.155   4.336  17.258 -0.8449 -0.3026  0.3465
  794MPD2    C111699   2.079   4.214  17.260  0.2879 -0.6015  0.8334
  794MPD2    C211700   1.965   4.206  17.181  0.0428 -0.1366  0.2622
  794MPD2    C311701   1.922   4.314  17.106 -0.0507  0.4832 -0.0349
  794MPD2    C411702   1.994   4.429  17.104 -0.0719 -0.0244  1.1173
  794MPD2    C511703   2.116   4.437  17.179  0.6876  0.0787 -0.0865
  794MPD2     H11704   1.911   4.112  17.183 -0.4614  0.1331 -0.6327
  794MPD2    H111705   1.967   4.504  17.031 -1.2029 -0.6647  0.8751
  794MPD2    H211706   2.252   4.344  17.306 -0.2735 -4.4932 -0.0785
  794MPD2    H311707   2.175   4.527  17.165 -2.9446  2.3556 -0.8035
  794MPD2     N11708   1.807   4.298  17.028  0.4619 -0.1274 -0.7635
  794MPD2    H511709   1.757   4.381  17.001  0.5677  1.2248  3.2114
  794MPD2    N111710   2.107   4.109  17.347  0.2042  0.0874 -1.1784
  794MPD2    H711711   2.050   4.026  17.336  0.4411 -0.2085 -0.1548
  795MPD2     C11712   4.138   1.384  13.308  1.2199  0.2033  0.4002
  795MPD2    C111713   4.097   1.251  13.331  0.4174 -0.7778 -0.1850
  795MPD2    C211714   4.183   1.143  13.317  0.0947 -0.1825  0.1482
  795MPD2    C311715   4.317   1.171  13.281  0.2500  0.4709  0.5931
  795MPD2    C411716   4.357   1.306  13.263 -0.4679 -0.0213 -0.0473
  795MPD2    C511717   4.265   1.410  13.278 -0.6957  0.4450  0.4858
  795MPD2     H11718   4.151   1.042  13.341  1.0922 -0.6918 -0.6739
  795MPD2    H111719   4.457   1.336  13.232  0.0150  0.8344  2.3180
  795MPD2    H211720   4.077   1.474  13.311  0.2702 -0.4301 -0.1125
  795MPD2    H311721   4.291   1.513  13.258 -0.4386  0.2454 -0.2120
  795MPD2     N11722   4.408   1.066  13.271  0.6021 -0.3783  0.2954
  795MPD2    H511723   4.379   0.970  13.259 -0.4082  0.1177 -1.2556
  795MPD2    N111724   3.967   1.216  13.376  0.2698 -0.2065  0.1236
  795MPD2    H711725   3.952   1.117  13.395 -0.0010 -0.1402  0.2542
  796MPD2     C11726   3.770   2.599  16.008  0.5735 -0.0251  0.2354
  796MPD2    C111727   3.666   2.673  16.053  0.6127  0.2996  0.1953
  796MPD2    C211728   3.668   2.807  16.017  0.1130  0.3681  0.4263
  796MPD2    C311729   3.773   2.862  15.943  0.0072  0.0493  0.2406
  796MPD2    C411730   3.872   2.787  15.894  0.1150  0.1194  0.7131
  796MPD2    C511731   3.869   2.652  15.931  0.0666  0.3744  0.2532
  796MPD2     H11732   3.580   2.868  16.034  2.3043  3.2782  1.3603
  796MPD2    H111733   3.956   2.818  15.834  0.8187 -1.9369  0.6389
  796MPD2    H211734   3.776   2.495  16.035 -0.3364  0.4969  2.4695
  796MPD2    H311735   3.947   2.585  15.896  0.5058 -0.0888  2.1573
  796MPD2     N11736   3.769   3.000  15.904  0.2964 -0.6446 -0.1904
  796MPD2    H511737   3.687   3.046  15.944  0.1000 -0.3511 -0.9316
  796MPD2    N111738   3.567   2.613  16.137  0.4977 -0.2020 -0.2102
  796MPD2    H711739   3.582   2.515  16.158  0.7602 -0.5993 -2.2572
  797MPD2     C11740   0.125   2.540  16.883 -0.3690  1.0320  0.4793
  797MPD2    C111741   0.025   2.564  16.979  0.1014  0.2835  0.0010
  797MPD2    C211742   4.624   2.604  16.933  0.4672 -0.6234 -0.3236
  797MPD2    C311743   4.593   2.623  16.800 -0.1552  0.3127  0.0431
  797MPD2    C411744   4.692   2.607  16.708 -0.8516 -0.4525 -0.1514
  797MPD2    C511745   0.092   2.562  16.746  0.4728 -0.0298  0.2049
  797MPD2     H11746   4.547   2.619  17.007  0.4335 -0.9121 -0.2990
  797MPD2    H111747   4.669   2.628  16.604 -3.0792  0.3415  0.5235
  797MPD2    H211748   0.227   2.513  16.910  0.0540  0.1027 -2.0229
  797MPD2    H311749   0.163   2.545  16.666  0.9965  0.0852  0.6387
  797MPD2     N11750   4.471   2.674  16.761  0.4985  0.7614 -0.1192
  797MPD2    H511751   4.456   2.688  16.661  0.5279 -0.1560 -0.2510
  797MPD2    N111752   0.048   2.571  17.113  0.7768 -0.5176 -0.4094
  797MPD2    H711753   4.694   2.603  17.168 -0.4571 -2.1986 -1.1994
  798MPD2     C11754   4.360   3.166  17.293 -0.0906 -0.3030  0.4774
  798MPD2    C111755   4.428   3.106  17.194  0.3591 -0.2407 -0.2625
  798MPD2    C211756   4.524   3.008  17.222 -0.1695  0.6727 -0.3283
  798MPD2    C311757   4.568   2.996  17.357  0.3036  0.1156  0.1715
  798MPD2    C411758   4.507   3.072  17.456  0.3219  0.6274  0.1609
  798MPD2    C511759   4.397   3.148  17.424 -0.5568 -0.6667 -0.3183
  798MPD2     H11760   4.556   2.941  17.142 -0.7145 -0.3767  0.3310
  798MPD2    H111761   4.532   3.063  17.561  0.4063 -2.2613 -0.1052
  798MPD2    H211762   4.281   3.238  17.272 -0.7130 -1.1013  0.0727
  798MPD2    H311763   4.346   3.209  17.498 -1.1790 -2.3970  0.7037
  798MPD2     N11764   4.672   2.902  17.383 -0.4929 -0.1726  0.2614
  798MPD2    H511765   4.713   2.855  17.302 -0.3057  0.4810 -0.0249
  798MPD2    N111766   4.375   3.113  17.060  0.0582  0.2238 -0.1150
  798MPD2    H711767   4.294   3.172  17.045  0.9123  0.8650 -2.2851
  799MPD2     C11768   4.138   3.507  14.735 -0.3671 -0.0590  0.2695
  799MPD2    C111769   3.996   3.499  14.745  0.0168 -0.2448 -0.1438
  799MPD2    C211770   3.915   3.602  14.697  0.1250  0.1104  0.6740
  799MPD2    C311771   3.981   3.706  14.633  0.5541 -0.0642 -1.0943
  799MPD2    C411772   4.114   3.718  14.627  0.0317 -0.5315 -0.4343
  799MPD2    C511773   4.193   3.614  14.677  0.4275  0.5140 -0.0935
  799MPD2     H11774   3.808   3.595  14.715  0.4033 -2.4159  1.3381
  799MPD2    H111775   4.170   3.801  14.585 -0.4988  0.4902  0.8562
  799MPD2    H211776   4.207   3.426  14.758  0.8439  0.9199  0.0447
  799MPD2    H311777   4.300   3.625  14.664  0.6553  0.8814  2.0258
  799MPD2     N11778   3.905   3.808  14.564  0.1544 -0.1233 -0.3547
  799MPD2    H511779   3.957   3.885  14.525 -1.5320  0.6441 -1.0716
  799MPD2    N111780   3.936   3.381  14.793  0.6232  0.2241 -0.0574
  799MPD2    H711781   3.835   3.382  14.786  0.6836 -0.6028 -1.0107
  800MPD2     C11782   4.071   0.128  13.586 -1.1215  0.1121  0.2784
  800MPD2    C111783   4.180   0.177  13.517  0.5053 -0.3341 -0.2856
  800MPD2    C211784   4.193   0.121  13.392 -0.0713  0.3516  0.3609
  800MPD2    C311785   4.098   0.035  13.338  0.1834 -0.4183  0.2720
  800MPD2    C411786   3.988   0.005  13.408  0.1831  0.3794 -0.5641
  800MPD2    C511787   3.969   0.057  13.533  0.7328  0.0186 -0.2533
  800MPD2     H11788   4.280   0.145  13.331 -1.1669  0.4950 -1.1616
  800MPD2    H111789   3.910   4.662  13.376 -1.2524  1.0455  1.4846
  800MPD2    H211790   4.057   0.179  13.681 -0.8544 -0.7626  0.7843
  800MPD2    H311791   3.876   0.034  13.583  0.0716 -0.7492 -1.8308
  800MPD2     N11792   4.126   4.719  13.207 -0.5660 -0.0394  0.2400
  800MPD2    H511793   4.209   0.030  13.161 -1.0303  3.5229  2.1562
  800MPD2    N111794   4.256   0.283  13.568  0.2494 -0.1804 -0.0537
  800MPD2    H711795   4.247   0.288  13.669  0.3907  1.3772 -0.1248
  801MPD2     C11796   4.387   1.090  13.657 -0.1632  1.3837 -0.3150
  801MPD2    C111797   4.317   0.973  13.661 -0.2467 -0.5602 -0.0966
  801MPD2    C211798   4.195   0.980  13.727 -1.0677 -0.4992 -0.6888
  801MPD2    C311799   4.148   1.100  13.784  0.5984  0.4251 -0.0414
  801MPD2    C411800   4.221   1.215  13.767  0.2780 -0.7595 -0.0706
  801MPD2    C511801   4.338   1.209  13.700  0.5399  0.6388 -0.1901
  801MPD2     H11802   4.134   0.891  13.737  0.6036 -1.5357  0.0989
  801MPD2    H111803   4.191   1.312  13.804  2.5737 -0.1181  0.1017
  801MPD2    H211804   4.487   1.086  13.614  0.0813 -0.8204  0.4473
  801MPD2    H311805   4.389   1.301  13.675 -0.2383  1.0477 -0.2690
  801MPD2     N11806   4.032   1.091  13.872  0.3017  0.0502  0.1277
  801MPD2    H511807   4.025   1.156  13.949 -3.1195 -0.6634  0.3878
  801MPD2    N111808   4.365   0.846  13.611 -0.6127 -0.0553 -0.2916
  801MPD2    H711809   4.296   0.772  13.615  0.0039 -0.6301 -0.3966
  802MPD2     C11810   3.416   0.526  17.358 -0.8626 -0.0583 -0.4426
  802MPD2    C111811   3.478   0.644  17.388 -0.0614  0.9260  0.0798
  802MPD2    C211812   3.584   0.679  17.309  0.6926  1.0008  0.0352
  802MPD2    C311813   3.643   0.595  17.215  0.0691 -0.1964 -0.3885
  802MPD2    C411814   3.593   0.467  17.201  0.2461 -0.3104  0.6557
  802MPD2    C511815   3.478   0.437  17.272  0.4451 -0.4461 -1.1454
  802MPD2     H11816   3.617   0.782  17.319  1.1856  0.7888  0.6008
  802MPD2    H111817   3.646   0.397  17.137 -1.0125 -0.1807 -0.5030
  802MPD2    H211818   3.332   0.493  17.417 -0.8197  2.4539  1.0158
  802MPD2    H311819   3.441   0.336  17.262 -1.4905  0.2025 -0.5828
  802MPD2     N11820   3.754   0.646  17.151 -0.1892 -0.2534 -0.0008
  802MPD2    H511821   3.773   0.746  17.151  0.2386 -0.3336  1.2981
  802MPD2    N111822   3.437   0.732  17.485 -0.3509  0.0420  0.2213
  802MPD2    H711823   3.498   0.813  17.496 -0.8872  0.3875  0.6226
  803MPD2     C11824   0.495   4.241  11.695  0.1013 -0.6223  0.4265
  803MPD2    C111825   0.491   4.364  11.751 -0.3170  0.2107  0.1123
  803MPD2    C211826   0.416   4.384  11.864 -0.4639 -0.3690 -0.1545
  803MPD2    C311827   0.341   4.280  11.923  0.3817  0.3645 -0.2261
  803MPD2    C411828   0.351   4.156  11.864 -0.7054  1.0720 -0.1281
  803MPD2    C511829   0.432   4.135  11.756  0.3818  0.3356 -0.1008
  803MPD2     H11830   0.406   4.483  11.907  0.8135 -1.5227  2.7905
  803MPD2    H111831   0.299   4.071  11.907 -1.5529  0.3968 -2.4665
  803MPD2    H211832   0.548   4.217  11.604 -0.9390  0.9026 -0.5849
  803MPD2    H311833   0.447   4.032  11.724  2.5216  0.1428  1.5078
  803MPD2     N11834   0.266   4.304  12.038  0.9868  0.6772  0.1226
  803MPD2    H511835   0.291   4.385  12.095 -2.3089  0.4561  1.8782
  803MPD2    N111836   0.574   4.474  11.712  0.7784  0.1588 -0.5307
  803MPD2    H711837   0.549   4.560  11.760  0.2953 -0.0126 -0.4859
  804MPD2     C11838   4.383   1.070  16.954  0.2068  0.1302 -0.2158
  804MPD2    C111839   4.450   1.028  17.064  0.1085 -0.3818  0.6710
  804MPD2    C211840   4.538   1.118  17.131 -0.7180 -0.5157  0.1869
  804MPD2    C311841   4.568   1.242  17.075 -0.5619  0.6209 -0.3219
  804MPD2    C411842   4.480   1.282  16.975  0.4029  0.0688  0.2034
  804MPD2    C511843   4.393   1.201  16.915 -0.0351  0.4474  0.1151
  804MPD2     H11844   4.578   1.085  17.226 -0.9129  0.0732  0.4744
  804MPD2    H111845   4.495   1.379  16.929 -0.9493  0.3499  0.3454
  804MPD2    H211846   4.321   0.998  16.902 -0.5034  0.1906  0.5591
  804MPD2    H311847   4.342   1.239  16.827  1.0552 -0.1205 -0.7479
  804MPD2     N11848   4.646   1.337  17.140  0.4316  0.3870  0.3755
  804MPD2    H511849   4.673   1.301  17.230  1.7088  0.9626  0.2255
  804MPD2    N111850   4.429   0.902  17.132 -1.0472 -0.5396  0.3043
  804MPD2    H711851   4.490   0.876  17.209  0.6517  0.7706 -0.6205
  805MPD2     C11852   3.635   4.116  15.558  0.0731  0.9409 -0.0082
  805MPD2    C111853   3.727   4.073  15.475  0.4439  0.5737 -0.4116
  805MPD2    C211854   3.853   4.045  15.519  0.5913  0.2725  0.5099
  805MPD2    C311855   3.889   4.056  15.655  1.0698 -0.5183 -1.2324
  805MPD2    C411856   3.789   4.109  15.741 -0.0199  0.5655 -0.6663
  805MPD2    C511857   3.664   4.134  15.686 -0.0367  0.4186  0.2145
  805MPD2     H11858   3.923   4.014  15.443 -2.0566  0.0501 -1.7962
  805MPD2    H111859   3.795   4.121  15.848  1.8221 -0.4967 -0.6428
  805MPD2    H211860   3.535   4.138  15.522  0.1200 -1.2363 -1.4410
  805MPD2    H311861   3.582   4.168  15.750 -1.0937 -0.9773 -0.3938
  805MPD2     N11862   4.025   4.041  15.684  0.6163 -0.1248 -0.0277
  805MPD2    H511863   4.104   4.030  15.620  0.5829 -2.5913  0.3263
  805MPD2    N111864   3.703   4.042  15.339 -0.7191  0.3615  0.3353
  805MPD2    H711865   3.787   4.011  15.291 -0.9091  1.0790 -0.4570
  806MPD2     C11866   0.930   4.118   1.300 -0.7410 -0.4682 -0.1283
  806MPD2    C111867   0.920   4.020   1.202 -0.1886 -0.4881  0.8244
  806MPD2    C211868   0.878   4.056   1.073  0.9721 -0.6117  0.9966
  806MPD2    C311869   0.855   4.189   1.045 -0.1858 -0.5820  0.2414
  806MPD2    C411870   0.855   4.292   1.143 -0.2465 -0.4113 -0.3967
  806MPD2    C511871   0.901   4.250   1.264 -0.3489 -0.0086 -0.4934
  806MPD2     H11872   0.870   3.981   0.995 -2.6242  0.3115  0.5005
  806MPD2    H111873   0.818   4.393   1.127 -1.3560 -1.0252 -1.7591
  806MPD2    H211874   0.965   4.098   1.401  0.5352 -0.6984 -0.6077
  806MPD2    H311875   0.914   4.325   1.342 -3.8255  0.7063 -0.6039
  806MPD2     N11876   0.822   4.215   0.911 -0.6850 -0.2575  0.3477
  806MPD2    H511877   0.839   4.141   0.843  0.7129 -0.9686  1.4721
  806MPD2    N111878   0.929   3.888   1.237  0.2750 -0.1977  0.1366
  806MPD2    H711879   0.945   3.873   1.336  0.8614  0.2008  0.1050
  807MPD2     C11880   0.631   3.286   1.677 -1.2363  0.4201 -0.4045
  807MPD2    C111881   0.577   3.287   1.548  0.3004 -0.6709  0.1492
  807MPD2    C211882   0.473   3.202   1.527 -0.1447 -0.5804  0.1864
  807MPD2    C311883   0.436   3.097   1.609  0.7728 -0.4680 -0.6748
  807MPD2    C411884   0.487   3.093   1.735 -1.1153 -0.2953 -0.7593
  807MPD2    C511885   0.582   3.189   1.768 -0.4593  0.0775 -0.1991
  807MPD2     H11886   0.414   3.221   1.439 -2.1083  0.3396  1.7120
  807MPD2    H111887   0.465   3.020   1.812  2.7393  1.1751  1.7437
  807MPD2    H211888   0.701   3.360   1.713 -1.6549  1.1335 -1.0475
  807MPD2    H311889   0.611   3.205   1.872  0.1624 -0.4781 -0.2846
  807MPD2     N11890   0.345   3.000   1.563  0.2449 -0.3695 -0.1603
  807MPD2    H511891   0.309   3.017   1.469 -1.1894 -2.7974 -0.0444
  807MPD2    N111892   0.623   3.374   1.444  0.3107  0.2549  0.7581
  807MPD2    H711893   0.575   3.357   1.356  0.1243 -0.4107  0.9898
  808MPD2     C11894   4.215   0.780  10.028  0.7639  0.5981 -0.4103
  808MPD2    C111895   4.165   0.725   9.909  0.5039 -0.1400 -0.1696
  808MPD2    C211896   4.149   0.809   9.807  0.0017 -0.1252  0.1214
  808MPD2    C311897   4.196   0.940   9.818 -0.1612 -1.0648 -0.9405
  808MPD2    C411898   4.254   0.986   9.936  0.4363 -0.2137 -0.0371
  808MPD2    C511899   4.249   0.910  10.049 -0.4109 -0.1295  0.8266
  808MPD2     H11900   4.094   0.764   9.725 -0.4313  2.0061 -0.7540
  808MPD2    H111901   4.283   1.090   9.950  1.3693 -0.3114 -1.2713
  808MPD2    H211902   4.220   0.713  10.113 -1.3833 -1.0153 -1.5406
  808MPD2    H311903   4.290   0.945  10.143  0.0079 -0.7343  0.8634
  808MPD2     N11904   4.194   1.035   9.710 -0.3779  0.7876  0.0543
  808MPD2    H511905   4.212   1.133   9.728  2.6516  0.0971  0.8623
  808MPD2    N111906   4.121   0.591   9.900 -0.0391 -0.3544 -0.3537
  808MPD2    H711907   4.082   0.559   9.812  0.5478 -0.7263 -0.4793
  809MPD2     C11908   4.238   0.883   8.744 -0.1467 -0.7069 -0.3035
  809MPD2    C111909   4.338   0.960   8.803  0.1703  0.4774  0.0391
  809MPD2    C211910   4.312   1.023   8.919  0.0010 -0.5139 -0.0053
  809MPD2    C311911   4.188   1.013   8.972 -0.1942  0.2758  0.0165
  809MPD2    C411912   4.088   0.944   8.913 -0.2494 -0.3130 -0.6336
  809MPD2    C511913   4.115   0.872   8.800 -0.0672 -0.5784 -0.6718
  809MPD2     H11914   4.393   1.066   8.977  0.4289  0.2312 -1.1426
  809MPD2    H111915   3.990   0.933   8.957  0.7167  0.3947  1.7059
  809MPD2    H211916   4.258   0.825   8.655 -0.0873 -1.6042  0.2928
  809MPD2    H311917   4.053   0.792   8.762 -1.8880 -0.6416  2.4552
  809MPD2     N11918   4.154   1.079   9.093 -0.2914 -0.6203 -0.6156
  809MPD2    H511919   4.063   1.055   9.133  0.8026 -0.8682  1.7054
  809MPD2    N111920   4.467   0.965   8.739  0.0478 -0.1813 -0.1269
  809MPD2    H711921   4.484   0.912   8.654  1.5520 -0.2428  0.2167
  810MPD2     C11922   4.026   0.720  10.328 -0.5360  0.1872  0.5076
  810MPD2    C111923   4.005   0.588  10.352 -0.4550 -0.2866  0.3935
  810MPD2    C211924   4.061   0.539  10.473  0.4746 -0.3038  0.4406
  810MPD2    C311925   4.122   0.620  10.563 -0.2289 -0.1547 -0.6467
  810MPD2    C411926   4.150   0.745  10.529 -0.5362 -0.4458  0.0349
  810MPD2    C511927   4.103   0.799  10.412  0.5518 -0.1858  0.4541
  810MPD2     H11928   4.037   0.436  10.497  2.3007 -0.7805  0.1793
  810MPD2    H111929   4.209   0.810  10.592 -1.2047  0.6259 -0.4435
  810MPD2    H211930   3.991   0.760  10.234 -0.1211 -0.9465 -0.1283
  810MPD2    H311931   4.122   0.900  10.378 -1.4740 -0.0045 -0.1599
  810MPD2     N11932   4.148   0.585  10.700 -0.4853 -0.1349 -0.9412
  810MPD2    H511933   4.192   0.657  10.755 -1.9226 -0.5742  0.8083
  810MPD2    N111934   3.925   0.511  10.264 -0.1888  0.0756  0.0388
  810MPD2    H711935   3.879   0.564  10.191 -1.0062  1.3619  1.4637
  811MPD2     C11936   3.155   0.419   9.899 -0.4971  0.0879  0.2059
  811MPD2    C111937   3.281   0.474   9.923 -0.8182 -0.8294 -0.2594
  811MPD2    C211938   3.315   0.594   9.864 -0.0952 -0.1393 -0.2091
  811MPD2    C311939   3.242   0.641   9.757 -0.7344 -0.5831 -0.5442
  811MPD2    C411940   3.128   0.570   9.717 -0.0617 -0.1235  0.1484
  811MPD2    C511941   3.078   0.471   9.801 -0.2180 -0.0852 -0.7663
  811MPD2     H11942   3.410   0.638   9.890 -0.0636  0.3294 -1.1296
  811MPD2    H111943   3.070   0.593   9.629  0.4338 -1.0895 -0.4372
  811MPD2    H211944   3.127   0.324   9.942 -0.1858  0.1377  0.5140
  811MPD2    H311945   2.987   0.416   9.777 -0.5516 -0.6158  1.7285
  811MPD2     N11946   3.288   0.757   9.693  0.0317 -0.1519  0.0821
  811MPD2    H511947   3.376   0.798   9.723  0.3735  0.1701 -1.3419
  811MPD2    N111948   3.370   0.406  10.010 -0.4347  0.2485  0.0321
  811MPD2    H711949   3.335   0.321  10.054  1.0106  0.8621  2.3536
  812MPD2     C11950   2.076   4.705  11.974 -0.4135  0.2887  0.5267
  812MPD2    C111951   2.200   4.691  11.909 -0.5289  0.5158 -1.1896
  812MPD2    C211952   2.287   4.584  11.938 -0.0594  0.0058  0.8500
  812MPD2    C311953   2.248   4.499  12.045 -0.5076  0.5412  0.3860
  812MPD2    C411954   2.118   4.508  12.096  0.4566 -0.2439 -0.7115
  812MPD2    C511955   2.032   4.604  12.061  0.0039  0.5916 -0.4575
  812MPD2     H11956   2.390   4.581  11.906 -0.0835  0.1832  0.7589
  812MPD2    H111957   2.087   4.443  12.176  0.9135  2.4313  1.6466
  812MPD2    H211958   2.006   0.064  11.972 -1.7495 -0.8737 -0.7613
  812MPD2    H311959   1.939   4.612  12.116 -0.4545 -2.1038 -0.8364
  812MPD2     N11960   2.342   4.413  12.108 -0.6206  0.0560  0.2052
  812MPD2    H511961   2.435   4.414  12.067 -1.0033  0.4945 -0.6524
  812MPD2    N111962   2.232   0.064  11.818 -0.3249  0.2051  0.0702
  812MPD2    H711963   2.158   0.134  11.821  0.7377  1.2495  2.2103
  813MPD2     C11964   1.985   1.584  12.730 -0.6724 -0.1055  0.2297
  813MPD2    C111965   1.941   1.709  12.752 -0.1512  0.1842  0.0861
  813MPD2    C211966   1.822   1.738  12.821  0.1769 -0.8710  0.4912
  813MPD2    C311967   1.751   1.632  12.874  0.1810  0.1545  0.2216
  813MPD2    C411968   1.800   1.504  12.849 -0.1717 -0.0323 -0.8166
  813MPD2    C511969   1.916   1.477  12.777 -1.0681  0.9655 -0.4538
  813MPD2     H11970   1.791   1.838  12.848 -1.1280 -1.8523  2.6270
  813MPD2    H111971   1.740   1.416  12.869 -0.4851  0.1534 -0.9359
  813MPD2    H211972   2.078   1.556  12.682 -0.4749  1.4266 -0.2683
  813MPD2    H311973   1.956   1.379  12.752 -0.7489  0.5179  1.8087
  813MPD2     N11974   1.639   1.653  12.957 -0.0392  0.4365 -0.0267
  813MPD2    H511975   1.615   1.748  12.981  1.6126  0.0292  3.2168
  813MPD2    N111976   2.032   1.805  12.699  0.0254 -0.0187 -0.6812
  813MPD2    H711977   2.126   1.775  12.673  0.7192  1.2862  0.3510
  814MPD2     C11978   2.330   3.327  12.022 -0.0953 -0.0005  0.1504
  814MPD2    C111979   2.399   3.348  11.908 -0.0986 -0.1047 -0.0462
  814MPD2    C211980   2.493   3.451  11.905 -0.5633 -0.0113 -0.2346
  814MPD2    C311981   2.533   3.509  12.023 -0.4134 -0.2380 -0.3011
  814MPD2    C411982   2.469   3.473  12.138  0.2234 -0.3648 -0.6232
  814MPD2    C511983   2.359   3.387  12.136 -0.3254 -0.1098 -0.0285
  814MPD2     H11984   2.546   3.463  11.811  0.4736 -0.3624  0.3045
  814MPD2    H111985   2.499   3.499  12.239 -1.7931  0.4102 -0.2214
  814MPD2    H211986   2.243   3.262  12.030 -0.5629  0.6483  0.4100
  814MPD2    H311987   2.312   3.369  12.232 -0.4061 -0.3608 -0.1159
  814MPD2     N11988   2.651   3.589  12.029 -0.1822 -0.1360 -0.5333
  814MPD2    H511989   2.680   3.621  12.121 -0.3952 -0.0215 -0.5062
  814MPD2    N111990   2.369   3.278  11.784  0.4364  0.0947  0.2076
  814MPD2    H711991   2.414   3.318  11.702  0.3424  0.0813  0.1500
  815MPD2     C11992   3.233   1.926  11.850  0.0273 -0.3531  0.2272
  815MPD2    C111993   3.177   1.814  11.799  0.2017 -0.4829  0.2826
  815MPD2    C211994   3.056   1.763  11.850 -0.4937  0.8887 -0.3218
  815MPD2    C311995   2.997   1.825  11.953 -0.3191 -0.3307  0.2140
  815MPD2    C411996   3.061   1.929  12.019  0.2000 -0.1814 -0.7501
  815MPD2    C511997   3.174   1.980  11.963  0.6008  0.5042  0.2825
  815MPD2     H11998   3.006   1.680  11.803  1.8305 -0.3161 -0.6560
  815MPD2    H111999   3.025   1.972  12.112  1.8598 -1.3386  0.4467
  815MPD2    H212000   3.330   1.962  11.819 -0.3333  1.1114  0.7593
  815MPD2    H312001   3.231   2.053  12.020 -0.5366  0.6724  1.1983
  815MPD2     N12002   2.874   1.762  11.991  0.5153  0.1869 -0.1022
  815MPD2    H512003   2.827   1.696  11.930 -1.0350  2.6452 -1.5894
  815MPD2    N112004   3.228   1.748  11.682 -0.2101 -0.2480  0.2379
  815MPD2    H712005   3.195   1.655  11.658 -2.3740  0.6262 -0.1893
  816MPD2     C12006   2.797   0.515  17.500 -0.8211  0.3673 -0.8931
  816MPD2    C112007   2.820   0.590  17.385  0.5943 -0.1001 -0.3785
  816MPD2    C212008   2.920   0.547  17.298 -0.5614  0.8504 -0.2960
  816MPD2    C312009   2.979   0.423  17.308  1.1548 -0.3105 -0.8232
  816MPD2    C412010   2.953   0.353  17.427 -0.1336  0.7131  0.5950
  816MPD2    C512011   2.854   0.392  17.512  0.0407  0.1808  0.2849
  816MPD2     H12012   2.937   0.595  17.202 -0.1551 -1.5581 -1.4239
  816MPD2    H112013   3.003   0.259  17.449 -0.3263  0.7438  1.1481
  816MPD2    H212014   2.734   0.550  17.582  0.9213 -1.3126  1.1546
  816MPD2    H312015   2.841   0.329  17.600  1.8210 -1.0049 -0.3101
  816MPD2     N12016   3.076   0.391  17.215  0.0601  0.4612  0.3599
  816MPD2    H512017   3.080   0.463  17.142 -0.6434  1.0008  0.8537
  816MPD2    N112018   2.759   0.717  17.373 -0.0220  0.3218 -0.1156
  816MPD2    H712019   2.719   0.759  17.456 -1.3169  1.7792 -1.4459
  817MPD2     C12020   1.911   2.549   9.979  0.8437 -0.5783 -0.0631
  817MPD2    C112021   1.926   2.534   9.843  0.6756 -0.1762  0.2421
  817MPD2    C212022   1.858   2.624   9.757 -0.4224 -0.4842  0.5705
  817MPD2    C312023   1.775   2.726   9.806  0.7819  0.2961 -1.0207
  817MPD2    C412024   1.760   2.732   9.947 -0.0901 -0.7535  0.0983
  817MPD2    C512025   1.830   2.644  10.029  0.6565 -0.5087 -0.3352
  817MPD2     H12026   1.873   2.622   9.650 -0.3567  0.2560  0.5592
  817MPD2    H112027   1.706   2.808  10.002  0.1468 -1.1838  0.9269
  817MPD2    H212028   1.971   2.490  10.047  1.6885  0.4763  0.1031
  817MPD2    H312029   1.809   2.645  10.135  2.8594 -1.4969  0.1110
  817MPD2     N12030   1.719   2.819   9.719 -0.2358 -0.6419  0.3109
  817MPD2    H512031   1.728   2.794   9.621 -0.5187 -1.4255  0.4827
  817MPD2    N112032   2.017   2.441   9.790 -0.2689  0.4469  0.0750
  817MPD2    H712033   2.047   2.457   9.694  1.9627 -0.4633  0.6104
  818MPD2     C12034   1.102   2.458   9.897 -0.0643 -1.1691 -0.1600
  818MPD2    C112035   1.162   2.408  10.007  0.3068 -0.2174 -0.2019
  818MPD2    C212036   1.246   2.303   9.985 -0.0411  0.4413  0.3479
  818MPD2    C312037   1.271   2.252   9.858 -0.0018 -0.5219 -0.2730
  818MPD2    C412038   1.200   2.303   9.758  0.5112 -0.3662  0.0897
  818MPD2    C512039   1.115   2.405   9.776 -0.6427 -0.3262 -0.0750
  818MPD2     H12040   1.292   2.261  10.074 -1.0963 -1.3590  0.0589
  818MPD2    H112041   1.207   2.253   9.661 -1.3179  0.6195 -0.5519
  818MPD2    H212042   1.041   2.548   9.905  0.7817 -0.7930  2.1483
  818MPD2    H312043   1.047   2.440   9.699 -0.0147  1.1799  0.0443
  818MPD2     N12044   1.352   2.133   9.830  0.1842  0.2683 -0.3781
  818MPD2    H512045   1.346   2.104   9.733  0.3930 -0.8213 -0.0617
  818MPD2    N112046   1.142   2.451  10.147 -0.7114 -0.3057 -0.4771
  818MPD2    H712047   1.191   2.394  10.216 -0.3998  0.1504 -0.3202
  819MPD2     C12048   4.187   3.645  15.576 -0.1943 -0.2639 -0.2967
  819MPD2    C112049   4.241   3.519  15.603  0.8871 -0.1534 -0.0959
  819MPD2    C212050   4.360   3.508  15.669  0.3440 -0.2923  0.2390
  819MPD2    C312051   4.423   3.622  15.719  0.3463 -0.6695  0.0537
  819MPD2    C412052   4.367   3.742  15.692  0.2348 -0.1857  0.4926
  819MPD2    C512053   4.256   3.753  15.616  0.4734 -0.4920 -0.3198
  819MPD2     H12054   4.411   3.414  15.682  1.4542  0.2178 -0.4150
  819MPD2    H112055   4.419   3.834  15.715 -0.2823  0.3501 -0.4891
  819MPD2    H212056   4.095   3.663  15.521  0.6233  1.2657 -1.1772
  819MPD2    H312057   4.222   3.853  15.592  3.5263  0.7402  0.5010
  819MPD2     N12058   4.556   3.611  15.771 -0.4627  0.1807  0.2399
  819MPD2    H512059   4.604   3.522  15.762 -1.8488 -0.6610  1.2772
  819MPD2    N112060   4.179   3.400  15.550  0.0750 -0.1940  0.5142
  819MPD2    H712061   4.088   3.408  15.505 -0.4292 -1.7841  1.2413
  820MPD2     C12062   3.486   3.447  14.995 -0.1566 -0.1275 -0.5316
  820MPD2    C112063   3.613   3.502  15.005  0.2759  0.5578 -0.1172
  820MPD2    C212064   3.711   3.435  15.072  0.0058  0.1806  0.2768
  820MPD2    C312065   3.679   3.311  15.121  0.0456 -0.1441  0.3032
  820MPD2    C412066   3.550   3.253  15.111 -0.5140 -0.7046  0.5000
  820MPD2    C512067   3.457   3.324  15.045 -0.2502  0.0442 -0.1871
  820MPD2     H12068   3.808   3.481  15.092  1.7222 -3.2591 -0.2163
  820MPD2    H112069   3.524   3.157  15.154  0.4672 -0.8022  0.8816
  820MPD2    H212070   3.400   3.501  14.957 -0.3238 -0.3735 -0.5020
  820MPD2    H312071   3.356   3.289  15.031 -0.5697  0.7650  0.3308
  820MPD2     N12072   3.777   3.231  15.193  0.5677 -0.3735 -0.4992
  820MPD2    H512073   3.746   3.148  15.243 -1.1452 -0.2240 -1.3059
  820MPD2    N112074   3.617   3.644  14.976  0.2384  0.4165 -0.0970
  820MPD2    H712075   3.524   3.679  14.957  0.0299 -0.6098 -0.9441
  821MPD2     C12076   3.960   0.393  12.616  0.2362  0.7199  0.3254
  821MPD2    C112077   4.081   0.386  12.683  0.2341  0.2893 -0.8220
  821MPD2    C212078   4.170   0.490  12.667  0.8115 -0.3054  0.0486
  821MPD2    C312079   4.143   0.615  12.616 -0.4425  0.5707 -0.1304
  821MPD2    C412080   4.018   0.626  12.558  0.2526  0.3254 -0.5183
  821MPD2    C512081   3.936   0.518  12.554  0.2613  0.4083 -0.2763
  821MPD2     H12082   4.270   0.467  12.703  0.9950 -0.0738 -0.3070
  821MPD2    H112083   3.981   0.718  12.514  0.7903  0.1315 -1.3761
  821MPD2    H212084   3.880   0.321  12.610  0.7061  0.1601  0.8476
  821MPD2    H312085   3.838   0.539  12.512 -0.2364  0.6268  0.9655
  821MPD2     N12086   4.233   0.724  12.614 -0.6980  0.0013 -0.6610
  821MPD2    H512087   4.212   0.803  12.554 -1.0707  1.6590  1.6650
  821MPD2    N112088   4.121   0.270  12.752 -0.2349  0.0127 -0.1483
  821MPD2    H712089   4.199   0.272  12.817 -0.9938 -0.6797  0.7879
  822MPD2     C12090   0.088   0.049  15.726  0.4211  0.2133 -0.2502
  822MPD2    C112091   0.193   0.125  15.786  0.0961  0.0208  0.1650
  822MPD2    C212092   0.156   0.253  15.833  0.5276  0.4463 -0.4639
  822MPD2    C312093   0.027   0.301  15.839 -0.6906 -0.0975 -0.4299
  822MPD2    C412094   4.653   0.223  15.780 -0.3260  0.0382  0.5560
  822MPD2    C512095   4.687   0.108  15.713 -0.5025 -0.3128 -0.7843
  822MPD2     H12096   0.237   0.309  15.879  1.8055 -1.2853 -0.6303
  822MPD2    H112097   4.556   0.269  15.766 -1.2904 -2.4289 -0.8351
  822MPD2    H212098   0.114   4.678  15.682  0.5011 -0.2078  0.7079
  822MPD2    H312099   4.612   0.050  15.660  1.1439 -2.7277 -0.4876
  822MPD2     N12100   0.006   0.424  15.895 -0.2951 -0.5819  0.6002
  822MPD2    H512101   0.094   0.474  15.908  1.4958 -4.2033  2.3520
  822MPD2    N112102   0.325   0.075  15.802 -0.0198  0.2592 -0.0951
  822MPD2    H712103   0.387   0.140  15.848 -0.5896  0.4496  0.4139
  823MPD2     C12104   4.625   0.865  16.655  0.2818 -0.3419  0.3192
  823MPD2    C112105   4.634   0.765  16.565  0.5674  0.1443  0.6609
  823MPD2    C212106   4.688   0.643  16.606  0.5552  0.1281 -0.2119
  823MPD2    C312107   4.719   0.622  16.742  0.2699  0.4305  0.3423
  823MPD2    C412108   4.704   0.724  16.832  0.8710  0.5865  0.2628
  823MPD2    C512109   4.660   0.843  16.789  0.6213 -0.1046 -0.8664
  823MPD2     H12110   4.704   0.568  16.529 -2.3230 -0.0732 -0.6079
  823MPD2    H112111   0.006   0.712  16.936  1.9125 -3.3504 -0.4734
  823MPD2    H212112   4.584   0.961  16.627  0.5971  0.2352  1.8073
  823MPD2    H312113   4.637   0.926  16.854 -0.5120 -1.6791  0.7656
  823MPD2     N12114   0.048   0.501  16.792  0.5193 -0.3398 -0.2497
  823MPD2    H512115   0.054   0.490  16.892 -0.9040  1.0286 -0.0118
  823MPD2    N112116   4.592   0.789  16.428  0.2013  0.1091  0.0572
  823MPD2    H712117   4.562   0.879  16.393  0.8813 -0.5562 -2.1856
  824MPD2     C12118   0.534   3.984  15.980 -0.5578 -0.3166 -0.4173
  824MPD2    C112119   0.604   4.061  15.888  0.6114  0.4081 -0.4016
  824MPD2    C212120   0.703   4.001  15.816 -0.6876 -0.3362 -0.3134
  824MPD2    C312121   0.730   3.866  15.823 -0.0245 -1.0112 -0.0035
  824MPD2    C412122   0.665   3.796  15.925 -0.0610  0.3111  0.5486
  824MPD2    C512123   0.570   3.853  16.001 -0.0302  0.2368  0.5419
  824MPD2     H12124   0.764   4.063  15.752  0.6091 -0.0220  1.2230
  824MPD2    H112125   0.682   3.689  15.937  2.8854  0.6650 -0.2862
  824MPD2    H212126   0.463   4.023  16.053  0.4829  1.8691 -0.5975
  824MPD2    H312127   0.515   3.798  16.076 -0.3898  0.7782  0.6738
  824MPD2     N12128   0.837   3.818  15.746 -0.0844 -0.1635  0.2202
  824MPD2    H512129   0.859   3.870  15.662 -0.9493  0.2488  0.2411
  824MPD2    N112130   0.582   4.205  15.899 -0.3444 -0.0693 -0.0499
  824MPD2    H712131   0.493   4.239  15.935  0.2843 -0.2340  1.6930
  825MPD2     C12132   1.468   3.914  15.183  0.0990  0.1633  0.1321
  825MPD2    C112133   1.354   3.950  15.253 -0.2895  0.0503 -0.1001
  825MPD2    C212134   1.305   4.079  15.232  0.5144 -0.6613 -0.0403
  825MPD2    C312135   1.372   4.175  15.156 -0.6171 -0.4546  0.5017
  825MPD2    C412136   1.475   4.133  15.083 -0.4994  0.0009  0.9817
  825MPD2    C512137   1.521   4.005  15.094 -0.2397 -0.0630 -0.5822
  825MPD2     H12138   1.208   4.113  15.267  0.1838 -2.0137  0.3608
  825MPD2    H112139   1.518   4.195  15.005 -3.0387  0.3247 -0.1913
  825MPD2    H212140   1.519   3.820  15.202  1.0822  0.3139 -1.7834
  825MPD2    H312141   1.603   3.980  15.028  1.9040  1.2858  1.6241
  825MPD2     N12142   1.321   4.306  15.138  0.7522 -0.0696 -0.7810
  825MPD2    H512143   1.358   4.363  15.063  1.6602  0.8226  0.3508
  825MPD2    N112144   1.300   3.856  15.342 -0.2423  0.0198  0.0129
  825MPD2    H712145   1.353   3.770  15.356  0.9775  0.5040 -1.6865
  826MPD2     C12146   1.152   4.100  13.807  0.4452  1.2234  0.2295
  826MPD2    C112147   1.171   4.159  13.682  0.7739 -0.0292 -0.7117
  826MPD2    C212148   1.109   4.283  13.659  0.7949 -0.6837 -0.0561
  826MPD2    C312149   1.028   4.339  13.758 -0.3987 -0.7514 -0.0535
  826MPD2    C412150   1.026   4.280  13.883  0.1961  0.1597 -0.1006
  826MPD2    C512151   1.077   4.157  13.908  0.1897  0.1391 -0.5854
  826MPD2     H12152   1.134   4.335  13.568  0.1242 -1.0142 -0.4266
  826MPD2    H112153   0.992   4.336  13.969 -0.3384  1.6068 -1.2449
  826MPD2    H212154   1.186   3.998  13.825 -3.0141 -0.5658 -3.3659
  826MPD2    H312155   1.065   4.112  14.006  0.2916 -1.6937 -1.4045
  826MPD2     N12156   0.959   4.457  13.733  0.2682 -0.2566  0.3810
  826MPD2    H512157   0.986   4.510  13.651  0.3118  0.2096  0.6970
  826MPD2    N112158   1.260   4.087  13.592 -0.0002 -0.2562 -0.2896
  826MPD2    H712159   1.318   4.016  13.634 -1.3194 -1.5330 -0.6321
  827MPD2     C12160   1.651   1.720   9.574  0.6241 -0.1795 -0.4399
  827MPD2    C112161   1.625   1.589   9.610 -0.1601  0.9661  0.1755
  827MPD2    C212162   1.509   1.531   9.567  0.5242 -0.1539  0.5178
  827MPD2    C312163   1.426   1.595   9.473 -0.5660  0.0826 -0.2985
  827MPD2    C412164   1.456   1.726   9.434 -0.7508  0.4642  0.1868
  827MPD2    C512165   1.578   1.784   9.472  0.5968  0.4653  0.3469
  827MPD2     H12166   1.495   1.425   9.588 -2.2717  0.3175  1.0327
  827MPD2    H112167   1.396   1.769   9.354  3.2168 -0.4602 -3.2590
  827MPD2    H212168   1.745   1.767   9.597  0.2103 -0.0812  1.0495
  827MPD2    H312169   1.612   1.882   9.443  2.8727 -0.3719  0.1520
  827MPD2     N12170   1.312   1.521   9.428 -0.1321  0.7656 -0.5388
  827MPD2    H512171   1.298   1.427   9.462  0.7501  1.2838  1.2673
  827MPD2    N112172   1.706   1.528   9.708  0.0500 -0.0608  0.4137
  827MPD2    H712173   1.787   1.588   9.721  0.2895 -0.5080  0.9650
  828MPD2     C12174   0.036   0.599  12.457  0.2023  0.4122 -0.5191
  828MPD2    C112175   0.062   0.714  12.384  0.3299  0.0390  0.4778
  828MPD2    C212176   0.194   0.756  12.360  0.4718 -0.1441 -0.6161
  828MPD2    C312177   0.298   0.678  12.406 -0.3191 -0.1273 -0.2265
  828MPD2    C412178   0.272   0.566  12.484  0.4187  0.0696 -0.3405
  828MPD2    C512179   0.140   0.526  12.512  0.9654 -0.8548 -0.6569
  828MPD2     H12180   0.222   0.842  12.301  0.9462  0.0897 -0.0438
  828MPD2    H112181   0.357   0.503  12.507 -1.3086 -2.5578 -1.1027
  828MPD2    H212182   4.667   0.556  12.488  0.7683  1.0101  2.0444
  828MPD2    H312183   0.117   0.443  12.577 -0.4078 -0.7526 -1.0203
  828MPD2     N12184   0.432   0.696  12.355  0.3228 -0.1282  0.5165
  828MPD2    H512185   0.501   0.630  12.390  0.0095 -1.0657 -0.6262
  828MPD2    N112186   4.682   0.798  12.326  0.6399 -0.2399 -0.3371
  828MPD2    H712187   4.720   0.889  12.301 -1.3132  0.4114 -0.8787
  829MPD2     C12188   0.085   1.368  11.702 -0.4634 -0.4319  0.8536
  829MPD2    C112189   4.679   1.338  11.686 -0.2477 -0.1423 -0.7872
  829MPD2    C212190   4.611   1.262  11.782  0.7608  0.5289  0.3985
  829MPD2    C312191   4.677   1.221  11.896 -0.9063  0.3621 -0.4587
  829MPD2    C412192   0.089   1.243  11.902 -0.3789 -0.6056 -0.0401
  829MPD2    C512193   0.151   1.319  11.803  0.5785  0.7860  0.3190
  829MPD2     H12194   4.504   1.251  11.775  1.0741 -2.7397  0.6304
  829MPD2    H112195   0.162   1.212  11.976 -1.4486  2.0298  2.0989
  829MPD2    H212196   0.138   1.426  11.627 -1.5021 -0.7767 -0.1505
  829MPD2    H312197   0.256   1.345  11.816  0.7587  1.2386 -2.0721
  829MPD2     N12198   4.625   1.140  12.002 -0.5232  0.1360  0.4621
  829MPD2    H512199   4.680   1.117  12.083 -0.5172  1.2915  0.7816
  829MPD2    N112200   4.622   1.384  11.563  0.0222  0.1395 -0.0376
  829MPD2    H712201   4.690   1.415  11.495  0.1329  0.6650  0.3149
  830MPD2     C12202   0.645   3.366  15.849 -0.6454 -0.3308 -0.3918
  830MPD2    C112203   0.561   3.437  15.768 -0.1950  0.7527  0.3489
  830MPD2    C212204   0.590   3.453  15.631 -0.0553  0.5234  0.5954
  830MPD2    C312205   0.711   3.411  15.589 -0.0083  0.9198  0.0932
  830MPD2    C412206   0.798   3.357  15.670 -0.4664 -0.8169  0.5054
  830MPD2    C512207   0.764   3.324  15.802 -0.1344 -0.2100  0.4088
  830MPD2     H12208   0.525   3.511  15.567  2.9254  2.5531 -0.5856
  830MPD2    H112209   0.889   3.322  15.622 -0.2523  0.4335 -0.0175
  830MPD2    H212210   0.619   3.336  15.950 -2.4771  1.0000 -0.4588
  830MPD2    H312211   0.829   3.264  15.865  2.7627 -0.5826 -2.9602
  830MPD2     N12212   0.761   3.443  15.463  0.5920 -0.7097 -0.6669
  830MPD2    H512213   0.857   3.428  15.435  1.6655  2.8483  1.0561
  830MPD2    N112214   0.450   3.493  15.827 -0.0130  0.4321 -0.2247
  830MPD2    H712215   0.434   3.465  15.924  1.4354  0.2049 -0.0567
  831MPD2     C12216   0.407   0.686  16.214  0.4728  0.0679 -0.0527
  831MPD2    C112217   0.370   0.598  16.115 -0.3264 -0.1785 -0.7038
  831MPD2    C212218   0.262   0.516  16.145 -0.4233  0.4590  0.3586
  831MPD2    C312219   0.196   0.514  16.273  0.3318  0.6291 -0.3644
  831MPD2    C412220   0.245   0.598  16.363  0.1219  0.4913 -0.7684
  831MPD2    C512221   0.342   0.685  16.333  0.2521  0.7383 -0.0705
  831MPD2     H12222   0.226   0.447  16.070  0.1537  0.0767  0.4362
  831MPD2    H112223   0.208   0.614  16.464 -0.2397  1.9019 -1.1288
  831MPD2    H212224   0.493   0.751  16.197  0.5603  0.0400  0.2793
  831MPD2    H312225   0.378   0.745  16.416  2.2069 -0.0407 -0.3590
  831MPD2     N12226   0.084   0.428  16.307 -0.5456 -0.7607 -0.4203
  831MPD2    H512227   0.025   0.457  16.384 -0.3353 -0.6655 -0.2957
  831MPD2    N112228   0.440   0.589  15.993 -0.3549  0.1850 -0.3918
  831MPD2    H712229   0.537   0.617  15.981  0.3826 -1.3350  1.8653
  832MPD2     C12230   3.681   1.711  17.196 -0.4716  0.2997  0.4752
  832MPD2    C112231   3.635   1.838  17.216  0.0160 -0.0124 -0.0319
  832MPD2    C212232   3.518   1.880  17.150  0.1260 -0.0352 -0.4304
  832MPD2    C312233   3.441   1.787  17.080  0.2045  0.1276  0.0003
  832MPD2    C412234   3.482   1.653  17.080 -0.3565 -0.5478 -0.7228
  832MPD2    C512235   3.601   1.627  17.128 -0.1729 -0.3487 -0.1666
  832MPD2     H12236   3.471   1.970  17.188  1.0170 -0.1397  0.9349
  832MPD2    H112237   3.427   1.574  17.031  0.6087 -2.3836  1.1568
  832MPD2    H212238   3.775   1.680  17.241 -0.3928 -1.6342 -1.0410
  832MPD2    H312239   3.635   1.525  17.113  0.6075 -0.0336 -0.5477
  832MPD2     N12240   3.309   1.815  17.041 -0.3183  0.4306  0.1825
  832MPD2    H512241   3.249   1.733  17.041  1.3278 -0.7830  0.3331
  832MPD2    N112242   3.705   1.915  17.309  0.4208  0.1374  0.5101
  832MPD2    H712243   3.793   1.876  17.341  1.0112  1.3617  0.4012
  833MPD2     C12244   0.880   3.389  13.005 -0.2849  0.6187 -0.5327
  833MPD2    C112245   0.958   3.496  12.966  0.4958 -0.2562  0.2310
  833MPD2    C212246   1.076   3.465  12.907  0.1158  0.1959  0.0513
  833MPD2    C312247   1.113   3.335  12.873  0.2206  0.5824  0.3683
  833MPD2    C412248   1.034   3.231  12.909 -0.4904 -0.3580  0.4800
  833MPD2    C512249   0.922   3.259  12.985  0.0376  0.7511 -0.4093
  833MPD2     H12250   1.134   3.552  12.878  1.2358 -0.3440  0.7232
  833MPD2    H112251   1.056   3.129  12.882 -1.8750 -0.2520 -1.0560
  833MPD2    H212252   0.788   3.413  13.058 -1.4440 -1.2780 -1.6815
  833MPD2    H312253   0.856   3.177  13.009  0.3023  0.3612 -1.0261
  833MPD2     N12254   1.218   3.301  12.782 -0.4278  0.1750  0.4908
  833MPD2    H512255   1.233   3.207  12.749 -1.3117 -0.3903  1.7012
  833MPD2    N112256   0.914   3.632  12.969 -0.0089  0.0549 -0.1060
  833MPD2    H712257   0.816   3.639  12.995  0.3779  0.7216  1.2038
  834MPD2     C12258   1.125   2.729  11.999  0.1901 -0.2660 -0.4843
  834MPD2    C112259   1.104   2.853  11.938  0.3943 -0.0932 -0.0054
  834MPD2    C212260   1.137   2.965  12.009  0.3251 -0.0164 -0.6194
  834MPD2    C312261   1.191   2.958  12.136 -0.2730 -0.2872  0.4542
  834MPD2    C412262   1.217   2.831  12.187 -0.0915 -0.6300 -0.6198
  834MPD2    C512263   1.185   2.715  12.122 -0.5910 -0.3046 -1.0885
  834MPD2     H12264   1.133   3.062  11.961  2.0054 -0.3297 -1.3777
  834MPD2    H112265   1.275   2.823  12.278 -3.3592  2.9110  1.7401
  834MPD2    H212266   1.107   2.637  11.944 -1.1019  0.8756 -2.0186
  834MPD2    H312267   1.206   2.618  12.164  1.4265  0.5919 -0.0197
  834MPD2     N12268   1.215   3.080  12.205  0.1092  0.2475 -0.0505
  834MPD2    H512269   1.204   3.161  12.145  2.2759  0.0657 -0.7115
  834MPD2    N112270   1.068   2.858  11.807 -0.3967  0.3174 -0.5280
  834MPD2    H712271   1.043   2.768  11.768  0.7907 -0.9153  1.5551
  835MPD2     C12272   1.132   1.206  11.206 -0.0820 -0.3593  0.4424
  835MPD2    C112273   0.996   1.223  11.158 -0.7516  0.3848  0.4675
  835MPD2    C212274   0.909   1.290  11.237 -0.1970  0.7341  0.0063
  835MPD2    C312275   0.941   1.324  11.367 -0.1799 -0.5539  0.9799
  835MPD2    C412276   1.063   1.285  11.421  0.3117  0.0391 -0.0574
  835MPD2    C512277   1.165   1.229  11.340  0.0487 -0.1421 -0.2842
  835MPD2     H12278   0.815   1.315  11.189 -0.6099  1.0229  0.9650
  835MPD2    H112279   1.086   1.298  11.526 -0.0297 -0.7582  0.1153
  835MPD2    H212280   1.212   1.183  11.137  0.2538 -3.9181  1.9967
  835MPD2    H312281   1.268   1.225  11.372  0.4150  1.2488 -1.2908
  835MPD2     N12282   0.858   1.393  11.458  0.6284 -0.3929 -0.7132
  835MPD2    H512283   0.899   1.416  11.548 -0.6047 -0.9982  0.0108
  835MPD2    N112284   0.956   1.200  11.025  0.0481  0.2231 -0.2439
  835MPD2    H712285   0.868   1.238  10.992 -0.4105 -1.6113 -1.1196
  836MPD2     C12286   0.210   1.868  11.415 -0.1496  0.0290  0.0394
  836MPD2    C112287   0.230   1.797  11.528  0.2058  1.1616  1.0117
  836MPD2    C212288   0.119   1.756  11.606 -0.1399  0.1122  0.7059
  836MPD2    C312289   4.715   1.780  11.565  0.2476 -0.1648 -0.2961
  836MPD2    C412290   4.696   1.870  11.470  0.4309 -0.5476  0.4810
  836MPD2    C512291   0.082   1.921  11.400  0.0290  0.6454  0.5470
  836MPD2     H12292   0.133   1.695  11.695  4.1781  0.0578 -0.0160
  836MPD2    H112293   4.600   1.895  11.428  0.7104 -1.5185 -0.7735
  836MPD2    H212294   0.291   1.915  11.360 -1.7860  1.7497 -0.9465
  836MPD2    H312295   0.064   1.995  11.323  0.1333  1.2759  1.1195
  836MPD2     N12296   4.595   1.731  11.625  1.3780 -0.0302 -0.8268
  836MPD2    H512297   4.504   1.750  11.585  0.3119 -0.3460  1.4350
  836MPD2    N112298   0.361   1.744  11.551 -0.5452  0.3337 -0.1131
  836MPD2    H712299   0.429   1.774  11.482 -1.8864  0.0033 -1.5824
  837MPD2     C12300   3.853   1.193   9.767  0.3268 -0.1689 -0.2254
  837MPD2    C112301   3.730   1.248   9.724  0.0821  0.5913 -0.3869
  837MPD2    C212302   3.702   1.372   9.781 -0.1558  0.6146  0.8076
  837MPD2    C312303   3.795   1.442   9.854 -1.5409  0.1395 -0.0143
  837MPD2    C412304   3.919   1.388   9.889 -0.6092 -0.4075 -0.5241
  837MPD2    C512305   3.932   1.254   9.861 -0.2876 -0.3744  0.2213
  837MPD2     H12306   3.608   1.423   9.763 -0.4313 -0.3820 -0.6379
  837MPD2    H112307   3.990   1.426   9.961 -1.2544 -1.6004  0.7332
  837MPD2    H212308   3.887   1.100   9.721 -0.4871 -1.3205  1.4978
  837MPD2    H312309   4.025   1.207   9.891  0.1274 -0.4436 -1.1773
  837MPD2     N12310   3.741   1.561   9.905  0.3181 -0.1432 -0.6449
  837MPD2    H512311   3.642   1.566   9.883  0.9146  1.5104 -3.0044
  837MPD2    N112312   3.632   1.186   9.650 -0.2142  0.0275  0.4686
  837MPD2    H712313   3.549   1.245   9.641 -1.1868 -1.4479 -0.3524
  838MPD2     C12314   1.835   3.513  11.086 -0.3960  0.1637  0.2927
  838MPD2    C112315   1.857   3.569  11.210 -0.0131 -0.3654  0.1762
  838MPD2    C212316   1.754   3.545  11.308 -0.0124  0.6281 -0.4305
  838MPD2    C312317   1.646   3.459  11.289  0.0714 -0.0853  0.2789
  838MPD2    C412318   1.637   3.396  11.167 -0.3209  0.0962 -0.1433
  838MPD2    C512319   1.730   3.426  11.067 -0.2542 -0.3748  0.0522
  838MPD2     H12320   1.766   3.592  11.404  1.3857 -0.4801 -0.0715
  838MPD2    H112321   1.561   3.322  11.147 -0.7848  0.8258 -1.1262
  838MPD2    H212322   1.895   3.530  10.998  1.0597 -2.1935  0.8254
  838MPD2    H312323   1.723   3.375  10.972 -0.9537  0.2295 -0.2173
  838MPD2     N12324   1.551   3.438  11.392  0.1859  0.1212 -0.4390
  838MPD2    H512325   1.554   3.489  11.480  1.1806 -1.4570  0.4353
  838MPD2    N112326   1.967   3.651  11.242  0.4404  0.0106  0.0491
  838MPD2    H712327   1.968   3.703  11.329 -0.6468 -0.7522  0.5151
  839MPD2     C12328   1.914   3.350  11.776  0.1872  0.3377  0.8608
  839MPD2    C112329   1.965   3.347  11.644  0.6057  0.0629 -0.5275
  839MPD2    C212330   2.075   3.421  11.616  0.2268 -0.8751  0.2799
  839MPD2    C312331   2.138   3.505  11.711  0.6000  0.5679 -0.7415
  839MPD2    C412332   2.087   3.517  11.835 -0.0028 -0.2057 -0.1811
  839MPD2    C512333   1.976   3.443  11.868 -0.6772  0.2553  0.1217
  839MPD2     H12334   2.116   3.417  11.515 -1.0383 -0.9127 -0.2246
  839MPD2    H112335   2.121   3.581  11.916  3.7349 -0.9598 -1.1599
  839MPD2    H212336   1.833   3.290  11.814  0.7530 -0.0996  1.3812
  839MPD2    H312337   1.930   3.459  11.965  0.5363  0.4598  0.6578
  839MPD2     N12338   2.231   3.599  11.665  0.2408  0.0801 -0.7664
  839MPD2    H512339   2.225   3.693  11.704  0.3091 -0.4478  0.5382
  839MPD2    N112340   1.905   3.268  11.545  0.1301 -0.1189  0.0000
  839MPD2    H712341   1.947   3.252  11.454  2.1545 -0.7367  1.0346
  840MPD2     C12342   2.271   1.746   9.819 -0.0951  0.0270 -0.6063
  840MPD2    C112343   2.233   1.677   9.931 -0.0465  0.4320 -0.3951
  840MPD2    C212344   2.276   1.720  10.055 -0.7333 -0.2497 -0.4012
  840MPD2    C312345   2.384   1.809  10.068 -0.6654 -0.3562  0.5947
  840MPD2    C412346   2.430   1.864   9.956 -0.8412 -0.0073  0.1479
  840MPD2    C512347   2.369   1.843   9.834  0.4739  0.5943  0.3507
  840MPD2     H12348   2.228   1.688  10.147  1.8143  0.6661  1.2656
  840MPD2    H112349   2.514   1.932   9.959 -1.2556  0.5293 -0.3107
  840MPD2    H212350   2.241   1.707   9.722 -1.4312 -4.0271  1.4142
  840MPD2    H312351   2.419   1.882   9.746 -1.1374  2.3466  0.2136
  840MPD2     N12352   2.450   1.834  10.184 -0.3451  0.2420 -0.5271
  840MPD2    H512353   2.516   1.911  10.174  1.3510 -0.9147  1.8109
  840MPD2    N112354   2.133   1.573   9.913  0.1994  0.6233  0.0927
  840MPD2    H712355   2.089   1.552   9.824  0.1308  0.1574  0.2386
  841MPD2     C12356   1.822   0.362  14.351  0.6142  0.2421 -0.2653
  841MPD2    C112357   1.895   0.303  14.452 -0.5153  0.0713 -0.3801
  841MPD2    C212358   1.980   0.381  14.535  0.0900  0.4606 -0.4682
  841MPD2    C312359   1.995   0.516  14.501 -0.7296 -0.1993  0.4651
  841MPD2    C412360   1.930   0.563  14.390 -0.3716  0.6738 -0.3004
  841MPD2    C512361   1.846   0.487  14.313  0.5239  0.3454  0.8582
  841MPD2     H12362   2.040   0.335  14.613  2.0363  2.5332 -0.7360
  841MPD2    H112363   1.929   0.668  14.362  0.8454  1.0505  1.0776
  841MPD2    H212364   1.758   0.298  14.291  0.1005  0.6026 -0.1006
  841MPD2    H312365   1.790   0.543  14.239 -1.9284  0.1831  2.5725
  841MPD2     N12366   2.082   0.598  14.582 -0.9750 -0.0899 -0.0594
  841MPD2    H512367   2.121   0.561  14.668  0.6826 -0.2039 -0.8651
  841MPD2    N112368   1.894   0.162  14.487 -0.4361 -0.3679  0.3217
  841MPD2    H712369   1.971   0.126  14.543  0.1451 -0.5760 -0.6086
  842MPD2     C12370   2.433   2.205  16.261  1.3088  0.6376 -0.2616
  842MPD2    C112371   2.316   2.143  16.311  0.0647 -0.2889 -0.1201
  842MPD2    C212372   2.339   2.056  16.415  0.0999  0.4051  0.3843
  842MPD2    C312373   2.463   2.044  16.477 -0.1014  0.4832 -0.3382
  842MPD2    C412374   2.561   2.137  16.449  0.8836 -0.2332 -0.0240
  842MPD2    C512375   2.549   2.215  16.334 -0.3319  0.3557  0.1410
  842MPD2     H12376   2.262   1.980  16.427 -0.4647  0.7142 -1.2583
  842MPD2    H112377   2.657   2.134  16.499 -0.0108  0.0555  1.7011
  842MPD2    H212378   2.439   2.261  16.168  1.5302 -0.5826 -0.9857
  842MPD2    H312379   2.639   2.262  16.297 -0.0089 -1.2552 -1.1634
  842MPD2     N12380   2.476   1.960  16.592 -0.8224 -0.4507  0.5407
  842MPD2    H512381   2.550   1.985  16.657 -0.1419 -1.1879  0.0499
  842MPD2    N112382   2.192   2.166  16.243 -0.0604 -0.0422 -0.0080
  842MPD2    H712383   2.190   2.236  16.170 -1.8565 -1.8044 -1.6430
  843MPD2     C12384   4.472   2.349   0.039  0.3785  0.3776  0.8083
  843MPD2    C112385   4.590   2.275   0.019 -0.4242 -0.4157 -0.2128
  843MPD2    C212386   4.710   2.325   0.064 -0.4978 -1.0238  0.0890
  843MPD2    C312387   4.720   2.443   0.121 -0.6100 -0.3828 -0.3153
  843MPD2    C412388   4.607   2.507   0.150  1.2337 -0.1571  0.5189
  843MPD2    C512389   4.485   2.464   0.100 -0.2802  0.8440  0.0368
  843MPD2     H12390   0.081   2.274   0.060  1.3403  2.5337 -2.0724
  843MPD2    H112391   4.610   2.603   0.201 -0.5248  0.9115 -1.3627
  843MPD2    H212392   4.371   2.321   0.011  1.3809 -1.0687 -1.3941
  843MPD2    H312393   4.403   2.531   0.124 -0.8267  0.3537 -0.4644
  843MPD2     N12394   0.116   2.508   0.156 -0.0991  0.0916  0.6703
  843MPD2    H512395   0.110   2.598   0.203 -0.7162  0.1531  0.4786
  843MPD2    N112396   4.576   2.148  17.659  0.6781  0.7222  0.3008
  843MPD2    H712397   4.490   2.122  17.610 -0.4182  2.0286  1.5090
  844MPD2     C12398   3.022   1.455  16.548 -0.1031  0.6374  0.2171
  844MPD2    C112399   3.142   1.384  16.530  0.0811  0.4589  0.6303
  844MPD2    C212400   3.257   1.454  16.549 -0.3296 -0.0312 -0.0961
  844MPD2    C312401   3.268   1.588  16.577  0.2696  0.6846 -0.2443
  844MPD2    C412402   3.147   1.652  16.581 -0.3059  1.1091 -0.7315
  844MPD2    C512403   3.029   1.587  16.566 -0.5830 -0.1745  0.6322
  844MPD2     H12404   3.340   1.385  16.536 -0.2845  0.0706 -0.3591
  844MPD2    H112405   3.144   1.757  16.611  0.2922  1.6341 -2.5298
  844MPD2    H212406   2.925   1.408  16.538  0.6520 -0.7848 -0.5824
  844MPD2    H312407   2.933   1.636  16.558 -0.8830 -0.6841  1.0782
  844MPD2     N12408   3.393   1.650  16.600  0.1306 -0.0263  0.5354
  844MPD2    H512409   3.468   1.582  16.601 -2.7098 -3.2505 -2.4003
  844MPD2    N112410   3.151   1.247  16.502 -0.0925  0.2563 -0.0968
  844MPD2    H712411   3.239   1.202  16.479 -0.9422  0.6759 -4.1614
  845MPD2     C12412   3.570   2.563  16.953 -0.8317  0.2976  0.1225
  845MPD2    C112413   3.463   2.483  16.985  0.7055 -0.7278 -0.5430
  845MPD2    C212414   3.468   2.343  16.967 -0.0234  0.0527  0.2617
  845MPD2    C312415   3.590   2.287  16.928 -0.5220 -0.3665  0.1627
  845MPD2    C412416   3.708   2.364  16.916  0.8276  0.2406 -0.4890
  845MPD2    C512417   3.688   2.502  16.922  0.3636 -0.2784  0.7564
  845MPD2     H12418   3.378   2.283  16.975 -0.0493  0.1092  0.3934
  845MPD2    H112419   3.805   2.330  16.883  0.5928 -1.6963  0.7997
  845MPD2    H212420   3.573   2.671  16.968  2.4078  0.4597 -1.5979
  845MPD2    H312421   3.778   2.560  16.902  0.9664 -1.3094  0.4650
  845MPD2     N12422   3.590   2.148  16.910  0.1781  0.2105  0.5185
  845MPD2    H512423   3.501   2.101  16.918  0.2288 -0.1230 -0.8800
  845MPD2    N112424   3.349   2.550  17.046 -0.3540  0.2132  0.3195
  845MPD2    H712425   3.348   2.650  17.033  2.8696  0.1318 -0.6373
  846MPD2     C12426   0.200   2.674  13.639 -0.2451 -0.0814 -0.9970
  846MPD2    C112427   0.115   2.784  13.650  0.0159  0.2997 -0.1335
  846MPD2    C212428   0.062   2.814  13.777  0.2079  0.5838 -1.5839
  846MPD2    C312429   0.093   2.743  13.898  0.5331 -0.1124  0.2727
  846MPD2    C412430   0.176   2.636  13.882  0.2649 -0.2485 -0.2900
  846MPD2    C512431   0.233   2.607  13.754 -0.4343 -0.1392  0.1486
  846MPD2     H12432   4.719   2.900  13.784  1.7881  1.6711  0.3626
  846MPD2    H112433   0.209   2.575  13.965  1.6624 -0.6038 -1.0955
  846MPD2    H212434   0.256   2.654  13.548  2.2417 -0.2890  0.5868
  846MPD2    H312435   0.310   2.531  13.746 -1.2269 -1.0648  1.2047
  846MPD2     N12436   0.035   2.780  14.017 -0.4733 -0.0781  0.4537
  846MPD2    H512437   4.695   2.858  14.008 -0.1231  0.1783  0.1447
  846MPD2    N112438   0.101   2.881  13.547  0.7410  0.3202 -0.4496
  846MPD2    H712439   0.069   2.976  13.562 -0.2365 -0.2676  1.2080
  847MPD2     C12440   4.658   3.288  14.255  0.0841  0.3801  0.9029
  847MPD2    C112441   0.058   3.338  14.272  0.0643  0.2232 -0.3685
  847MPD2    C212442   0.151   3.278  14.358 -0.3178 -0.6118  0.1125
  847MPD2    C312443   0.122   3.148  14.402 -0.2148  0.0662 -0.4432
  847MPD2    C412444   4.717   3.102  14.382  0.0385 -0.7345  0.1262
  847MPD2    C512445   4.628   3.163  14.308  0.1112  0.3868  0.0479
  847MPD2     H12446   0.251   3.317  14.376  0.7295 -3.0162 -0.5160
  847MPD2    H112447   4.692   3.001  14.416 -1.8901 -0.0150  0.8828
  847MPD2    H212448   4.586   3.332  14.187 -2.7721 -1.8130  2.4878
  847MPD2    H312449   4.527   3.126  14.292 -0.3919  0.7593  2.4079
  847MPD2     N12450   0.200   3.075  14.493 -0.2349  0.8487 -0.4809
  847MPD2    H512451   0.155   3.000  14.543 -0.5097  0.9019 -0.6501
  847MPD2    N112452   0.093   3.459  14.211  1.0531 -0.6561  0.7632
  847MPD2    H712453   0.194   3.472  14.211  0.7821  1.4703  0.3555
  848MPD2     C12454   2.856   2.003  16.405  0.0763 -0.6868 -1.1732
  848MPD2    C112455   2.940   2.095  16.461  0.5447 -0.3699  0.5548
  848MPD2    C212456   2.985   2.202  16.385  0.3912  0.5784 -0.9708
  848MPD2    C312457   2.961   2.216  16.254  0.6991 -0.4698  0.2252
  848MPD2    C412458   2.877   2.122  16.195 -0.0326 -0.4571 -0.0210
  848MPD2    C512459   2.819   2.020  16.272 -0.1682  0.0857  0.0019
  848MPD2     H12460   3.063   2.261  16.431  0.0891 -0.6010  1.0513
  848MPD2    H112461   2.856   2.122  16.088  0.1288  1.0562 -0.0502
  848MPD2    H212462   2.817   1.918  16.461 -1.5523  0.1695 -1.0165
  848MPD2    H312463   2.738   1.965  16.226  0.7486 -1.0341 -0.2594
  848MPD2     N12464   3.003   2.327  16.177 -0.0415 -0.8372  0.3134
  848MPD2    H512465   2.991   2.329  16.076  0.9735  0.2472  0.2148
  848MPD2    N112466   2.967   2.097  16.603 -0.3333 -0.4363 -0.4647
  848MPD2    H712467   3.033   2.170  16.629 -0.3520 -0.1957 -1.0973
  849MPD2     C12468   1.924   1.685  14.288 -0.4950  0.0332  0.2066
  849MPD2    C112469   2.048   1.704  14.234  0.2807 -0.2614 -0.3998
  849MPD2    C212470   2.140   1.604  14.262 -0.6488 -0.4187  0.1379
  849MPD2    C312471   2.120   1.496  14.347  0.3063  0.5854  0.3795
  849MPD2    C412472   2.001   1.487  14.415  0.0831 -0.8112 -0.3065
  849MPD2    C512473   1.901   1.574  14.374  0.3699  0.3272  0.1832
  849MPD2     H12474   2.240   1.614  14.220 -2.5213 -0.8227 -4.3655
  849MPD2    H112475   1.987   1.411  14.490 -0.4214 -0.1223  0.2949
  849MPD2    H212476   1.838   1.743  14.256 -0.4739  0.3120  0.6498
  849MPD2    H312477   1.803   1.559  14.418  0.0150  1.3801 -0.2522
  849MPD2     N12478   2.215   1.399  14.381 -0.6627  0.5744 -0.8618
  849MPD2    H512479   2.188   1.339  14.459  0.1236  1.1928 -0.1224
  849MPD2    N112480   2.071   1.802  14.135 -0.2348 -0.0866 -0.1543
  849MPD2    H712481   1.984   1.831  14.091 -0.1063 -0.1046 -0.4191
  850MPD2     C12482   0.186   3.984  14.608 -0.5849 -0.4836  0.7255
  850MPD2    C112483   0.162   4.094  14.685 -0.2989  0.3884 -0.8273
  850MPD2    C212484   0.264   4.152  14.757 -0.1641  0.3607  0.1858
  850MPD2    C312485   0.391   4.097  14.761 -0.4784 -0.2242  0.0324
  850MPD2    C412486   0.408   3.991  14.680  0.0719  0.7702  0.2401
  850MPD2    C512487   0.308   3.936  14.604  0.1535  0.6486  0.4208
  850MPD2     H12488   0.246   4.244  14.812 -1.0367 -0.5544  1.4060
  850MPD2    H112489   0.509   3.952  14.666 -1.6186 -3.0546 -1.2896
  850MPD2    H212490   0.102   3.941  14.554  1.3953 -0.6694 -2.2548
  850MPD2    H312491   0.312   3.841  14.551 -3.1026  0.2072  0.9492
  850MPD2     N12492   0.501   4.148  14.832 -0.0343 -0.0069 -0.6045
  850MPD2    H512493   0.592   4.106  14.812  0.6830  1.1310  0.2525
  850MPD2    N112494   0.024   4.133  14.689 -0.1108 -0.4339  0.1801
  850MPD2    H712495   4.690   4.072  14.633 -0.0113 -1.2257  0.9392
  851MPD2     C12496   0.452   4.314  15.436  0.1060  0.4310  0.6670
  851MPD2    C112497   0.396   4.236  15.336 -0.0051  0.2955  0.3685
  851MPD2    C212498   0.465   4.122  15.309 -0.0186 -0.4257 -0.3838
  851MPD2    C312499   0.583   4.086  15.368 -0.4404 -0.2965  0.8642
  851MPD2    C412500   0.636   4.163  15.471 -0.0804 -0.1573 -0.1888
  851MPD2    C512501   0.565   4.274  15.502 -0.8771  0.0717  0.2495
  851MPD2     H12502   0.435   4.064  15.223  1.1614  0.5731 -1.4878
  851MPD2    H112503   0.736   4.144  15.508  0.2660 -2.8034 -2.4575
  851MPD2    H212504   0.403   4.406  15.467 -1.8707 -0.2868 -0.2891
  851MPD2    H312505   0.607   4.343  15.575 -2.1353  0.4671  0.5943
  851MPD2     N12506   0.642   3.971  15.304  0.2439 -0.0247  0.1927
  851MPD2    H512507   0.608   3.942  15.213 -0.1251 -1.6546  0.8601
  851MPD2    N112508   0.270   4.284  15.275 -0.4434  0.0148  0.4472
  851MPD2    H712509   0.258   4.384  15.280 -1.0033 -0.1861  3.1766
  852MPD2     C12510   4.714   3.743   9.856  0.0822 -0.1019 -0.2619
  852MPD2    C112511   4.719   3.680   9.975 -0.3901  0.5220  0.3546
  852MPD2    C212512   0.113   3.657  10.035 -0.1276 -0.4150 -0.3865
  852MPD2    C312513   0.231   3.667   9.965  0.8657  0.8257 -0.3536
  852MPD2    C412514   0.228   3.717   9.838 -0.7718  0.5184  0.4512
  852MPD2    C512515   0.105   3.758   9.792  0.2412 -0.3253 -0.1926
  852MPD2     H12516   0.123   3.606  10.130  2.1269  1.0542  0.1349
  852MPD2    H112517   0.310   3.718   9.767  0.2642 -0.6898  1.6253
  852MPD2    H212518   4.625   3.773   9.802  0.5964  3.2499  0.7407
  852MPD2    H312519   0.107   3.806   9.695  0.3818 -1.5842 -0.8111
  852MPD2     N12520   0.342   3.614  10.021  0.6282 -0.1514 -0.1170
  852MPD2    H512521   0.327   3.563  10.108  1.7605  0.8779  0.6915
  852MPD2    N112522   4.608   3.636  10.049  0.0888  0.4985  0.0260
  852MPD2    H712523   4.625   3.600  10.142  2.3523 -2.3077 -1.4888
  853MPD2     C12524   1.214   2.368  12.107 -0.2190  0.9550  0.3824
  853MPD2    C112525   1.347   2.404  12.114  0.5239 -0.6737  0.2050
  853MPD2    C212526   1.420   2.398  11.996  0.5116  0.0731 -0.1860
  853MPD2    C312527   1.372   2.361  11.874  0.8091 -0.2870 -0.2031
  853MPD2    C412528   1.237   2.328  11.872 -0.8403  0.2226  0.1606
  853MPD2    C512529   1.162   2.320  11.991  0.1302 -0.1173 -0.0254
  853MPD2     H12530   1.526   2.414  12.012  0.1657  0.3887  1.8316
  853MPD2    H112531   1.194   2.302  11.776 -3.8755 -0.7647  1.8175
  853MPD2    H212532   1.151   2.368  12.195  1.0294 -0.0757  1.2842
  853MPD2    H312533   1.055   2.302  11.985 -0.0261  0.7274  0.3312
  853MPD2     N12534   1.446   2.347  11.755 -0.5690 -0.8897  0.1841
  853MPD2    H512535   1.397   2.331  11.667  0.1060 -2.9512  0.1787
  853MPD2    N112536   1.389   2.447  12.240 -0.5654  0.8530 -0.0172
  853MPD2    H712537   1.318   2.426  12.310 -0.7065 -0.0822 -0.4362
  854MPD2     C12538   2.864   2.218  12.571 -0.1351  0.9302 -0.6105
  854MPD2    C112539   2.977   2.296  12.597  0.2714  0.0343  0.0685
  854MPD2    C212540   3.064   2.251  12.689  0.7932 -0.2864 -0.6398
  854MPD2    C312541   3.049   2.125  12.748  0.0886  0.1299 -0.0560
  854MPD2    C412542   2.938   2.049  12.716  0.2932 -0.0230 -0.5954
  854MPD2    C512543   2.843   2.100  12.634 -0.6643 -0.3081 -0.5980
  854MPD2     H12544   3.142   2.317  12.724  0.5306  0.0162 -0.6311
  854MPD2    H112545   2.934   1.949  12.757 -1.3000 -0.4233 -1.7099
  854MPD2    H212546   2.780   2.256  12.514  0.7975  2.4873 -0.9246
  854MPD2    H312547   2.764   2.030  12.612 -1.9960  0.9513  0.2205
  854MPD2     N12548   3.138   2.070  12.842  0.4754  0.3110  0.1288
  854MPD2    H512549   3.131   1.975  12.877  0.1525  0.3258  0.1017
  854MPD2    N112550   2.984   2.417  12.521  0.7362 -0.2175 -0.4604
  854MPD2    H712551   2.901   2.440  12.468  0.0986 -1.3417  0.0293
  855MPD2     C12552   3.006   1.796  13.701 -0.2077 -0.1143  0.6798
  855MPD2    C112553   3.105   1.715  13.642  1.1451 -0.0208  0.1358
  855MPD2    C212554   3.154   1.751  13.519 -0.6174 -0.2363  0.0989
  855MPD2    C312555   3.115   1.867  13.457 -0.2372 -0.3263 -0.6855
  855MPD2    C412556   3.007   1.938  13.510  0.2172  0.0791  0.7270
  855MPD2    C512557   2.959   1.904  13.631  0.4810  0.5899  0.2051
  855MPD2     H12558   3.227   1.685  13.476 -0.3344  1.6686 -2.3465
  855MPD2    H112559   2.968   2.025  13.458  0.8088 -1.0812 -1.6753
  855MPD2    H212560   2.959   1.777  13.797  0.3584  0.0677  0.9909
  855MPD2    H312561   2.883   1.966  13.676 -0.0692  0.3878 -0.4451
  855MPD2     N12562   3.178   1.924  13.339 -0.0234 -0.0033 -0.5949
  855MPD2    H512563   3.131   2.005  13.302 -0.7390 -0.6862 -1.1694
  855MPD2    N112564   3.150   1.585  13.690 -0.5795  0.1310 -0.1003
  855MPD2    H712565   3.212   1.529  13.632  0.8342 -0.4023  1.9284
  856MPD2     C12566   0.961   2.805  14.018 -0.5377 -0.2245 -0.4086
  856MPD2    C112567   1.085   2.862  13.986 -0.2549 -0.3864 -0.1101
  856MPD2    C212568   1.096   2.986  13.937  0.5466 -0.3325 -0.0798
  856MPD2    C312569   0.976   3.062  13.904  0.2572  1.2904  0.4654
  856MPD2    C412570   0.851   3.007  13.941  0.4110 -0.5276 -0.4942
  856MPD2    C512571   0.845   2.883  14.001  0.0812 -0.3832 -0.0456
  856MPD2     H12572   1.199   3.021  13.933  0.2084  0.6906  0.0114
  856MPD2    H112573   0.764   3.071  13.947  0.9567  0.2002 -0.3493
  856MPD2    H212574   0.954   2.710  14.069  0.2619 -0.0639  0.0090
  856MPD2    H312575   0.752   2.841  14.037 -1.3623  2.6315 -0.2985
  856MPD2     N12576   0.976   3.196  13.858  0.0640 -0.1702  0.0469
  856MPD2    H512577   0.888   3.246  13.856 -0.6757 -1.4613  0.5214
  856MPD2    N112578   1.210   2.799  14.019  0.4879 -0.2670 -0.1747
  856MPD2    H712579   1.295   2.850  13.996  0.2438  0.5095  0.6361
  857MPD2     C12580   3.021   1.318  11.915 -0.7527  0.0651 -0.1515
  857MPD2    C112581   2.945   1.238  11.996  0.3748 -0.7800 -0.3691
  857MPD2    C212582   2.904   1.282  12.120  0.0650 -0.0499 -0.3977
  857MPD2    C312583   2.954   1.397  12.176 -0.2871  0.0629  0.0594
  857MPD2    C412584   3.037   1.476  12.094  0.3919  0.6562  0.6888
  857MPD2    C512585   3.061   1.441  11.962 -0.6181  0.0471  1.0348
  857MPD2     H12586   2.832   1.222  12.174 -0.5837  3.8875  3.1038
  857MPD2    H112587   3.061   1.579  12.119 -1.3392  0.7113  2.1473
  857MPD2    H212588   3.056   1.286  11.818  1.8285 -0.5303  0.9766
  857MPD2    H312589   3.128   1.511  11.913  0.4907 -1.7157  0.0332
  857MPD2     N12590   2.914   1.427  12.309  0.4237 -0.1318 -0.4347
  857MPD2    H512591   2.856   1.371  12.370  1.5248  0.7157  1.4321
  857MPD2    N112592   2.918   1.113  11.952 -0.6327  0.8111 -0.0980
  857MPD2    H712593   2.964   1.091  11.864  1.0669 -1.7626  1.4659
  858MPD2     C12594   3.264   4.112  16.933 -0.0942  0.0493  0.5479
  858MPD2    C112595   3.390   4.090  16.895  0.1066 -0.5966  0.4664
  858MPD2    C212596   3.490   4.133  16.978  0.4531 -0.3030 -0.2290
  858MPD2    C312597   3.459   4.216  17.087  0.3999  0.2451 -0.8470
  858MPD2    C412598   3.332   4.244  17.124 -0.2058 -0.2239  0.3449
  858MPD2    C512599   3.241   4.180  17.047 -0.2780  0.6695 -0.5580
  858MPD2     H12600   3.592   4.107  16.953  0.1642 -0.4442 -1.2479
  858MPD2    H112601   3.304   4.300  17.212 -0.5243  0.1106  0.0304
  858MPD2    H212602   3.177   4.057  16.899  0.7069 -2.0246  1.8726
  858MPD2    H312603   3.135   4.190  17.066 -0.2661  0.7486 -0.5343
  858MPD2     N12604   3.549   4.284  17.171 -0.9008 -0.1677 -0.2479
  858MPD2    H512605   3.495   4.346  17.231 -0.0747  1.6558 -1.3983
  858MPD2    N112606   3.413   4.021  16.773  0.2319 -0.3832 -0.0620
  858MPD2    H712607   3.333   3.976  16.731 -0.8097 -0.0588  1.5964
  859MPD2     C12608   1.939   1.193  14.809  1.1393  0.1028  0.8625
  859MPD2    C112609   1.963   1.210  14.941  0.3199 -0.5592  0.1129
  859MPD2    C212610   1.933   1.110  15.026  0.1231 -0.4446 -0.7020
  859MPD2    C312611   1.883   0.996  14.980 -0.7469  0.5862 -0.1860
  859MPD2    C412612   1.861   0.975  14.847  0.0439 -0.3997  0.2990
  859MPD2    C512613   1.889   1.077  14.760  0.1870 -0.0374  0.5572
  859MPD2     H12614   1.941   1.137  15.131  0.7078 -0.0885 -0.8419
  859MPD2    H112615   1.829   0.881  14.802 -1.1996 -0.5020  1.3789
  859MPD2    H212616   1.946   1.276  14.739  3.1410  0.8613  1.9619
  859MPD2    H312617   1.868   1.069  14.654  1.7670  2.2545  0.0730
  859MPD2     N12618   1.858   0.888  15.067  0.1322  0.0836 -0.6024
  859MPD2    H512619   1.834   0.799  15.025  0.5187  1.3659 -3.4986
  859MPD2    N112620   2.012   1.332  14.987 -0.1244  0.3931 -0.8179
  859MPD2    H712621   2.013   1.404  14.915  1.9890  0.9450 -0.2263
  860MPD2     C12622   4.620   2.133  11.733  0.2536  0.1376 -0.3301
  860MPD2    C112623   4.508   2.207  11.742  0.2340  0.0824  0.4632
  860MPD2    C212624   4.394   2.178  11.819  0.0738 -0.3188  0.1185
  860MPD2    C312625   4.408   2.055  11.886  0.0819 -0.4256  0.1604
  860MPD2    C412626   4.523   1.975  11.886  0.3187  0.1921 -0.1173
  860MPD2    C512627   4.629   2.018  11.808 -0.1523  0.4004 -0.3109
  860MPD2     H12628   4.299   2.230  11.811 -1.0293 -2.1615  1.3063
  860MPD2    H112629   4.529   1.876  11.929  1.5097  0.1358 -0.4192
  860MPD2    H212630   4.710   2.170  11.687 -0.3946  1.4514 -0.5491
  860MPD2    H312631   4.721   1.961  11.812 -1.3522 -1.3674  2.7253
  860MPD2     N12632   4.303   2.018  11.973  0.1539  0.0471  0.6678
  860MPD2    H512633   4.223   2.081  11.969  0.5023  0.5117  0.9137
  860MPD2    N112634   4.529   2.334  11.682  0.3212 -0.0154  0.1026
  860MPD2    H712635   4.621   2.363  11.651 -0.4160  1.8119 -0.3792
  861MPD2     C12636   3.850   0.853  10.810 -0.1588  0.9487 -0.1199
  861MPD2    C112637   3.726   0.823  10.861  0.0747  0.2089  0.5896
  861MPD2    C212638   3.610   0.838  10.786  0.7254 -0.6844 -0.4709
  861MPD2    C312639   3.621   0.894  10.660 -0.1351 -0.0081 -0.3524
  861MPD2    C412640   3.744   0.926  10.617 -0.7753  0.2535  0.0710
  861MPD2    C512641   3.860   0.912  10.685  0.1520 -0.0809 -0.6414
  861MPD2     H12642   3.518   0.809  10.835  1.4339 -0.7005  0.8614
  861MPD2    H112643   3.739   0.966  10.516  0.7800  0.5881  0.1264
  861MPD2    H212644   3.946   0.826  10.852 -0.6898  0.1687  0.5890
  861MPD2    H312645   3.954   0.932  10.634  1.0870  0.5074  1.3217
  861MPD2     N12646   3.515   0.939  10.588 -0.2553 -0.3876  0.1291
  861MPD2    H512647   3.528   0.992  10.502  1.7931 -0.8327  0.1698
  861MPD2    N112648   3.712   0.766  10.988 -0.0177  0.5622  0.1522
  861MPD2    H712649   3.622   0.730  11.018 -0.4578  1.7527  0.2847
  862MPD2     C12650   3.149   1.153   9.970  0.0891  0.3169  0.3378
  862MPD2    C112651   3.163   1.058  10.069  0.9534 -0.3267 -0.4111
  862MPD2    C212652   3.101   0.938  10.046 -0.8274 -0.0422  0.1344
  862MPD2    C312653   3.029   0.908   9.931 -0.6216 -0.5461  0.3784
  862MPD2    C412654   3.027   1.000   9.825 -0.1575  0.3263  0.4254
  862MPD2    C512655   3.090   1.122   9.845 -0.0371 -0.2868 -1.0443
  862MPD2     H12656   3.114   0.874  10.132  0.2514 -0.2267 -0.1708
  862MPD2    H112657   2.981   0.983   9.728 -0.1969  3.9036 -0.1795
  862MPD2    H212658   3.178   1.257   9.983 -0.8220  0.8515 -1.8978
  862MPD2    H312659   3.079   1.201   9.772 -0.0434  0.1001 -0.6242
  862MPD2     N12660   2.956   0.786   9.916 -0.5226  0.1489  0.1936
  862MPD2    H512661   2.903   0.771   9.830 -1.2350 -1.2982  0.8854
  862MPD2    N112662   3.223   1.083  10.194 -0.0863 -0.1906 -0.2963
  862MPD2    H712663   3.208   1.001  10.252 -2.3266  0.4027 -0.0474
  863MPD2     C12664   2.072   3.581  16.695  0.0527 -0.0368 -0.5799
  863MPD2    C112665   1.973   3.506  16.748  0.3781 -0.1179  0.1730
  863MPD2    C212666   1.999   3.415  16.855  0.4991  0.5739  0.9040
  863MPD2    C312667   2.127   3.399  16.901  0.1595  0.2264  1.0718
  863MPD2    C412668   2.227   3.473  16.839 -1.0648 -0.0623  1.0128
  863MPD2    C512669   2.199   3.561  16.737  0.1017  0.8140 -0.4546
  863MPD2     H12670   1.921   3.365  16.911  0.8427 -1.6066 -0.5556
  863MPD2    H112671   2.325   3.489  16.882 -1.9341 -0.7873  3.2650
  863MPD2    H212672   2.063   3.650  16.612  2.4975 -1.7020 -2.2257
  863MPD2    H312673   2.276   3.621  16.688  0.5260 -1.5545 -2.6842
  863MPD2     N12674   2.165   3.304  16.997  0.5409  0.0351 -0.4483
  863MPD2    H512675   2.261   3.305  17.031 -0.5399  0.3337  2.5425
  863MPD2    N112676   1.843   3.525  16.691  0.0210  0.2184 -0.7572
  863MPD2    H712677   1.847   3.583  16.608  0.6624 -0.3023 -1.0863
  864MPD2     C12678   2.180   4.382  16.756 -0.4220 -0.1761  0.6040
  864MPD2    C112679   2.292   4.380  16.834 -0.4217  0.2945 -0.5958
  864MPD2    C212680   2.392   4.474  16.820  0.4767 -0.1809 -0.1786
  864MPD2    C312681   2.381   4.567  16.723  0.5015  0.8067  0.2031
  864MPD2    C412682   2.265   4.583  16.652 -0.2831 -1.1500 -0.4062
  864MPD2    C512683   2.167   4.486  16.667  0.7657 -0.1373 -0.2296
  864MPD2     H12684   2.486   4.460  16.871 -0.7631  1.9282  2.7245
  864MPD2    H112685   2.252   4.655  16.572  7.1990  2.2701  1.4990
  864MPD2    H212686   2.104   4.305  16.757 -0.1794 -0.4181 -0.0849
  864MPD2    H312687   2.079   4.486  16.604 -0.9264 -0.7392  2.1708
  864MPD2     N12688   2.491   4.657  16.695 -0.6808 -0.1079  0.4212
  864MPD2    H512689   2.491   4.694  16.601  2.6208  1.0885  0.8768
  864MPD2    N112690   2.297   4.261  16.918 -0.4080 -0.0498 -0.5860
  864MPD2    H712691   2.230   4.186  16.904 -0.3597 -0.0209 -0.9492
  865MPD2     C12692   2.588   4.634  15.909  0.1763  0.2473 -0.3119
  865MPD2    C112693   2.582   4.523  15.996  0.4804 -0.2149 -0.0581
  865MPD2    C212694   2.627   4.538  16.130  0.0507  0.0552 -0.1777
  865MPD2    C312695   2.668   4.659  16.174  0.2726 -0.6205  0.0880
  865MPD2    C412696   2.650   0.046  16.094  0.4812  0.1916  0.0938
  865MPD2    C512697   2.622   0.028  15.962  0.3414 -0.4272 -0.4088
  865MPD2     H12698   2.629   4.451  16.195  0.2824  0.7166  0.7037
  865MPD2    H112699   2.689   0.139  16.134 -2.9139  1.2733  0.9111
  865MPD2    H212700   2.560   4.640  15.805 -1.0429 -2.0370 -0.1058
  865MPD2    H312701   2.631   0.117  15.900  0.4277  0.1854  0.4685
  865MPD2     N12702   2.724   4.683  16.297  1.1319  0.0561  0.5157
  865MPD2    H512703   2.757   0.052  16.321 -0.7078  0.2011  2.4384
  865MPD2    N112704   2.538   4.395  15.943  0.4285  0.1719 -0.0991
  865MPD2    H712705   2.525   4.389  15.842 -1.4312  0.5259  0.1348
  866MPD2     C12706   4.243   1.173  11.359 -0.4905 -0.0272  0.0135
  866MPD2    C112707   4.255   1.203  11.224  0.2682 -0.1199  0.4172
  866MPD2    C212708   4.136   1.224  11.152 -0.0824  0.2462  0.3406
  866MPD2    C312709   4.007   1.215  11.207  0.1768 -0.5788  0.3159
  866MPD2    C412710   4.001   1.175  11.338 -0.1973  0.5532 -0.3595
  866MPD2    C512711   4.114   1.156  11.414  0.1437 -0.1937 -0.5009
  866MPD2     H12712   4.137   1.255  11.049 -0.6817  1.8806  0.8191
  866MPD2    H112713   3.905   1.175  11.387 -0.1725  0.5176 -0.3112
  866MPD2    H212714   4.334   1.147  11.412 -0.3479  0.8611  0.1905
  866MPD2    H312715   4.109   1.123  11.517  0.0094  2.2206  0.2518
  866MPD2     N12716   3.884   1.226  11.141 -0.3201  0.1039 -0.0854
  866MPD2    H512717   3.793   1.223  11.188 -0.4295  1.0766 -0.2264
  866MPD2    N112718   4.380   1.204  11.163  0.2691  0.1117  0.0067
  866MPD2    H712719   4.461   1.179  11.218 -0.2261 -0.3825  0.5192
  867MPD2     C12720   0.993   4.475  16.885  0.0295 -0.8925  0.1323
  867MPD2    C112721   1.124   4.508  16.902  0.6674  0.3524 -0.2179
  867MPD2    C212722   1.161   4.641  16.920  0.6622  0.3629  0.5110
  867MPD2    C312723   1.060   0.014  16.923  0.2320 -0.1776  0.3199
  867MPD2    C412724   0.922   4.706  16.899 -0.2243 -0.4188 -0.1110
  867MPD2    C512725   0.890   4.573  16.884 -0.1914  0.2393  0.4370
  867MPD2     H12726   1.265   4.662  16.939  0.9216  0.8294 -1.4019
  867MPD2    H112727   0.839   0.049  16.918  0.5380  0.0448  1.6056
  867MPD2    H212728   0.964   4.371  16.869 -0.4570 -0.5229 -1.3343
  867MPD2    H312729   0.789   4.537  16.869  0.8484 -1.3519 -2.8188
  867MPD2     N12730   1.089   0.149  16.927 -0.4487  0.6950  0.5945
  867MPD2    H512731   1.011   0.214  16.924 -1.4738 -0.4938  1.2544
  867MPD2    N112732   1.218   4.398  16.900  0.1280  0.1584  0.0530
  867MPD2    H712733   1.183   4.303  16.906  0.7340 -0.0876 -0.2237
  868MPD2     C12734   2.901   2.549  12.847  0.6763  0.3656 -0.1017
  868MPD2    C112735   2.956   2.671  12.857 -0.4283 -0.0560  0.8722
  868MPD2    C212736   2.874   2.775  12.908  0.6277  0.0594 -0.4836
  868MPD2    C312737   2.752   2.736  12.962  0.1411 -0.4218 -0.6677
  868MPD2    C412738   2.710   2.606  12.965 -0.7169 -0.4777 -0.6301
  868MPD2    C512739   2.779   2.514  12.895  0.0736  0.5896  0.2091
  868MPD2     H12740   2.903   2.879  12.901  0.5031  0.0827 -0.6666
  868MPD2    H112741   2.624   2.585  13.027 -1.4192  3.1125 -0.3454
  868MPD2    H212742   2.962   2.473  12.801 -0.7329 -0.1057 -1.1516
  868MPD2    H312743   2.748   2.411  12.889  1.3560  0.4441 -3.9790
  868MPD2     N12744   2.683   2.837  13.034 -0.5956 -0.1118  0.5446
  868MPD2    H512745   2.731   2.926  13.038 -1.6820  0.5370 -0.7820
  868MPD2    N112746   3.089   2.679  12.815 -0.1981 -0.4775  0.7371
  868MPD2    H712747   3.138   2.592  12.795 -1.3609 -0.4975 -2.0641
  869MPD2     C12748   0.688   1.241   0.867  0.1709  0.3160  0.7014
  869MPD2    C112749   0.617   1.161   0.946 -0.2555 -0.8994  0.8863
  869MPD2    C212750   0.482   1.142   0.927  0.4573  0.3756  0.4805
  869MPD2    C312751   0.422   1.202   0.819  0.3256 -0.3027  0.3722
  869MPD2    C412752   0.496   1.286   0.737  0.1641 -0.2171  0.1768
  869MPD2    C512753   0.626   1.316   0.769  0.4639  0.2341  0.2312
  869MPD2     H12754   0.419   1.074   0.984  3.2191 -0.3711  2.5843
  869MPD2    H112755   0.459   1.344   0.654  0.4288 -0.0897  0.1500
  869MPD2    H212756   0.790   1.273   0.888 -0.0839  2.3633 -1.1884
  869MPD2    H312757   0.674   1.397   0.716 -0.5329  1.4006  1.0941
  869MPD2     N12758   0.286   1.185   0.788  0.4037 -0.1941  0.0383
  869MPD2    H512759   0.255   1.217   0.696 -1.3101 -1.3537  0.2200
  869MPD2    N112760   0.687   1.090   1.047  0.2759 -0.4286 -0.3211
  869MPD2    H712761   0.787   1.105   1.040  0.4047 -1.1126  0.0455
  870MPD2     C12762   3.913   0.097   1.957  0.2940  0.7041 -0.1842
  870MPD2    C112763   4.002   0.123   1.861 -0.2075 -0.4507  0.6935
  870MPD2    C212764   3.960   0.146   1.733  0.4996 -0.1217  0.1780
  870MPD2    C312765   3.831   0.131   1.699  0.1980  0.0485  0.1694
  870MPD2    C412766   3.733   0.117   1.799 -0.2644 -0.2017  0.0134
  870MPD2    C512767   3.778   0.097   1.925  0.0366 -0.3890 -0.2766
  870MPD2     H12768   4.043   0.151   1.664 -0.1947 -1.4434 -0.7605
  870MPD2    H112769   3.627   0.094   1.787 -0.3667  0.8891 -1.1932
  870MPD2    H212770   3.951   0.080   2.057 -0.3897 -0.3654 -0.1131
  870MPD2    H312771   3.710   0.074   2.006 -2.3393 -0.1294 -2.2232
  870MPD2     N12772   3.800   0.134   1.567  0.1678  0.2487 -0.3310
  870MPD2    H512773   3.882   0.119   1.509  1.1167  1.4207  0.7359
  870MPD2    N112774   4.137   0.121   1.903 -0.8013 -0.4079 -0.0708
  870MPD2    H712775   4.155   0.121   2.003 -1.4869 -1.1966  0.0471
  871MPD2     C12776   0.356   4.667  16.334 -0.1261 -0.4207  1.0246
  871MPD2    C112777   0.332   4.618  16.461  0.0514 -0.3685 -0.1679
  871MPD2    C212778   0.326   4.484  16.487  0.1700 -0.1951  0.0320
  871MPD2    C312779   0.351   4.400  16.385 -0.2653  0.6731  0.6509
  871MPD2    C412780   0.386   4.446  16.267  0.1124  0.2092 -0.5040
  871MPD2    C512781   0.381   4.580  16.237 -0.3872 -0.1766 -0.4619
  871MPD2     H12782   0.303   4.440  16.584  0.8622 -1.6338 -0.4570
  871MPD2    H112783   0.427   4.388  16.185 -0.8825  0.4973 -1.1970
  871MPD2    H212784   0.355   0.048  16.309 -1.2765 -0.2339  1.8437
  871MPD2    H312785   0.399   4.620  16.138 -3.3141  1.8841 -0.1277
  871MPD2     N12786   0.355   4.261  16.410 -0.6895  0.2025  0.8293
  871MPD2    H512787   0.324   4.232  16.502 -0.4071  1.5595  1.3541
  871MPD2    N112788   0.323   4.711  16.564  0.3243  0.2937 -0.2483
  871MPD2    H712789   0.336   0.086  16.546 -3.2516  1.0835  1.4130
  872MPD2     C12790   0.663   2.063  13.715 -0.2226 -0.2732 -0.5037
  872MPD2    C112791   0.713   2.164  13.796 -0.4167  0.1873  0.1297
  872MPD2    C212792   0.653   2.192  13.916 -0.1672  0.2045 -0.0458
  872MPD2    C312793   0.532   2.131  13.953 -1.1039 -0.5917 -0.0988
  872MPD2    C412794   0.480   2.038  13.871 -0.0198  0.5450 -0.3141
  872MPD2    C512795   0.543   2.008  13.754 -0.0336 -0.1296  0.0328
  872MPD2     H12796   0.692   2.273  13.977  1.3849 -0.2550 -0.4395
  872MPD2    H112797   0.398   1.977  13.906  0.0108 -0.4840 -2.0304
  872MPD2    H212798   0.709   2.033  13.622  0.8798 -1.1659  0.3214
  872MPD2    H312799   0.493   1.940  13.686 -0.2465 -0.3312  0.3864
  872MPD2     N12800   0.457   2.162  14.069 -0.3831 -0.0025  0.1054
  872MPD2    H512801   0.372   2.107  14.078  0.0033 -0.3737  1.4954
  872MPD2    N112802   0.828   2.240  13.759 -0.3377 -0.0804 -0.0908
  872MPD2    H712803   0.848   2.317  13.823 -0.2863 -0.5086  0.4114
  873MPD2     C12804   3.192   2.065   0.143 -0.4017 -0.5210  0.0360
  873MPD2    C112805   3.235   1.994   0.249  0.1748  0.2100  1.0481
  873MPD2    C212806   3.251   1.854   0.237  0.3996 -0.4214 -0.0847
  873MPD2    C312807   3.231   1.788   0.116 -0.0334 -0.2220 -0.5383
  873MPD2    C412808   3.191   1.861   0.006  0.5520 -1.2098 -0.8516
  873MPD2    C512809   3.181   2.000   0.021  0.0306 -0.3920  0.6757
  873MPD2     H12810   3.301   1.796   0.313 -1.4615 -1.1691  0.5802
  873MPD2    H112811   3.197   1.815  17.608  0.9823 -1.0005 -0.9224
  873MPD2    H212812   3.179   2.173   0.152 -0.5234 -0.4798 -0.6469
  873MPD2    H312813   3.138   2.047  17.632  0.1879 -0.7780  0.3906
  873MPD2     N12814   3.225   1.643   0.105 -0.3850 -1.1512  0.6184
  873MPD2    H512815   3.209   1.608   0.012  0.9517  1.0361 -0.4322
  873MPD2    N112816   3.252   2.070   0.370  0.2404  0.0472 -0.1525
  873MPD2    H712817   3.223   2.167   0.365 -0.6971 -0.2595 -0.6249
  874MPD2     C12818   2.381   2.307  15.605 -0.5083  0.8551  0.2680
  874MPD2    C112819   2.345   2.331  15.736 -0.0790 -0.0757  0.3592
  874MPD2    C212820   2.433   2.404  15.818 -0.4150 -0.4886 -0.1411
  874MPD2    C312821   2.557   2.440  15.780 -0.3530 -0.1600 -0.0529
  874MPD2    C412822   2.589   2.408  15.649  0.1200  0.1853 -0.5488
  874MPD2    C512823   2.501   2.342  15.566  0.0295 -0.5602  0.4052
  874MPD2     H12824   2.400   2.431  15.917  2.3555  1.5356  0.2376
  874MPD2    H112825   2.690   2.426  15.615  0.1131 -1.9254 -1.6626
  874MPD2    H212826   2.317   2.244  15.546 -0.3030  1.5629 -0.7173
  874MPD2    H312827   2.548   2.315  15.472 -1.1777  1.4792 -0.7973
  874MPD2     N12828   2.632   2.495  15.885  0.7014 -0.3525  0.3018
  874MPD2    H512829   2.580   2.534  15.963  1.7205  0.6846  0.4717
  874MPD2    N112830   2.228   2.282  15.786 -0.0289  0.0808 -0.4812
  874MPD2    H712831   2.174   2.226  15.721  0.7236 -0.3352 -0.7467
  875MPD2     C12832   3.883   0.603  14.429  0.2263  0.3887 -0.3194
  875MPD2    C112833   3.752   0.578  14.467 -0.8527 -0.1853 -0.2562
  875MPD2    C212834   3.728   0.572  14.598 -0.2050  0.3433 -0.1459
  875MPD2    C312835   3.826   0.589  14.698  0.2818  0.5658 -0.0137
  875MPD2    C412836   3.960   0.611  14.652  0.6209  0.1324 -0.1725
  875MPD2    C512837   3.978   0.619  14.518 -0.6328  0.2451 -0.7962
  875MPD2     H12838   3.627   0.554  14.635 -0.1831  1.2128  0.3241
  875MPD2    H112839   4.031   0.667  14.711  1.3780 -0.3156 -0.6612
  875MPD2    H212840   3.906   0.627  14.325  1.1299 -3.5985 -1.0402
  875MPD2    H312841   4.066   0.661  14.472 -1.1216  0.2471 -1.7384
  875MPD2     N12842   3.801   0.609  14.835  0.5468  0.3801 -0.2300
  875MPD2    H512843   3.877   0.633  14.897 -1.7370  1.3944  2.2109
  875MPD2    N112844   3.647   0.574  14.375 -0.0325 -0.0663  0.0268
  875MPD2    H712845   3.552   0.567  14.409 -0.2574  0.1974 -0.5341
  876MPD2     C12846   2.148   1.500  16.037 -0.0314 -0.4212  0.6755
  876MPD2    C112847   2.286   1.484  16.027 -0.6015 -0.2814 -0.1857
  876MPD2    C212848   2.341   1.379  16.108  0.7615 -0.1883  0.8105
  876MPD2    C312849   2.270   1.295  16.190 -0.2196  0.7653 -0.7095
  876MPD2    C412850   2.131   1.320  16.197  0.1805  0.7825  0.1038
  876MPD2    C512851   2.072   1.420  16.119  0.4908 -0.2034  0.5686
  876MPD2     H12852   2.448   1.360  16.107  0.3297 -2.6346 -1.8191
  876MPD2    H112853   2.061   1.264  16.258  2.1623 -1.2574  0.4867
  876MPD2    H212854   2.104   1.591  15.998 -1.6755 -1.3328  0.3979
  876MPD2    H312855   1.970   1.456  16.126 -0.1069 -1.7294 -0.3723
  876MPD2     N12856   2.329   1.190  16.260  0.0098  0.4672  0.4144
  876MPD2    H512857   2.430   1.202  16.249 -0.4641  4.1518 -0.0714
  876MPD2    N112858   2.354   1.576  15.940  0.0578 -0.0257 -0.2058
  876MPD2    H712859   2.290   1.641  15.896  0.7560 -1.3631 -3.1646
  877MPD2     C12860   2.186   2.022  15.368 -0.2655  0.4488 -0.6456
  877MPD2    C112861   2.322   2.027  15.370  0.1866 -0.4256  0.1465
  877MPD2    C212862   2.397   2.066  15.266  0.3212  0.7389 -0.0418
  877MPD2    C312863   2.341   2.109  15.150  0.1838  0.2747  0.4338
  877MPD2    C412864   2.201   2.115  15.145  0.1894  0.1628  0.0331
  877MPD2    C512865   2.129   2.070  15.251  0.3695  0.3158 -0.6879
  877MPD2     H12866   2.505   2.066  15.272  0.5401 -1.1174 -3.8448
  877MPD2    H112867   2.146   2.146  15.057 -0.0036 -0.7493 -0.1621
  877MPD2    H212868   2.123   1.980  15.447  0.5324 -1.3027 -0.9303
  877MPD2    H312869   2.020   2.067  15.247  0.2756  0.8646  1.0542
  877MPD2     N12870   2.412   2.169  15.038 -0.5312  0.1391 -0.3312
  877MPD2    H512871   2.346   2.183  14.962  0.6747  1.9696 -1.0582
  877MPD2    N112872   2.391   1.965  15.484 -0.9797 -0.4975  0.2737
  877MPD2    H712873   2.490   1.950  15.467 -0.3768  2.4818  1.0445
  878MPD2     C12874   1.892   1.880  13.171 -0.1750 -0.2890  0.1524
  878MPD2    C112875   1.985   1.981  13.185  0.0890  0.2644  0.3717
  878MPD2    C212876   2.020   2.021  13.311 -0.8670  0.3330 -0.3310
  878MPD2    C312877   1.988   1.949  13.419 -0.0443  0.7170 -0.8313
  878MPD2    C412878   1.885   1.853  13.404  1.1447 -0.1299  0.3134
  878MPD2    C512879   1.841   1.820  13.277 -0.3348  0.0260  0.5501
  878MPD2     H12880   2.087   2.104  13.330 -1.8488  1.2660 -0.8957
  878MPD2    H112881   1.849   1.796  13.489  0.4291  1.2663  0.9420
  878MPD2    H212882   1.868   1.848  13.070 -0.0599 -0.9858  0.3487
  878MPD2    H312883   1.773   1.736  13.270 -1.7787  1.3626 -1.3332
  878MPD2     N12884   2.047   1.978  13.545 -0.0697  0.1853 -0.5129
  878MPD2    H512885   2.120   2.049  13.542 -0.0407  0.1173 -1.7280
  878MPD2    N112886   2.053   2.016  13.071 -0.0856  0.2757  0.0483
  878MPD2    H712887   2.012   1.979  12.986  1.8042 -3.0602  0.6149
  879MPD2     C12888   2.662   3.307  16.997  0.6348  0.0049 -0.3967
  879MPD2    C112889   2.678   3.177  17.033  0.9864 -0.8010  0.4251
  879MPD2    C212890   2.588   3.082  16.994 -0.2891 -0.0982  0.4773
  879MPD2    C312891   2.483   3.122  16.909 -0.1293  0.3373  1.0140
  879MPD2    C412892   2.478   3.251  16.868  0.0144  0.2530 -0.3072
  879MPD2    C512893   2.564   3.341  16.918 -0.2497 -0.3610 -0.7843
  879MPD2     H12894   2.603   2.978  17.019  1.2844 -0.3508 -1.5768
  879MPD2    H112895   2.404   3.276  16.793  0.8397 -1.3122 -1.6493
  879MPD2    H212896   2.729   3.388  17.026 -0.3421 -0.2698  2.5603
  879MPD2    H312897   2.558   3.447  16.894 -0.2158  0.0106  0.8235
  879MPD2     N12898   2.387   3.034  16.859  0.5115 -0.3498 -0.3747
  879MPD2    H512899   2.320   3.068  16.791 -1.6593 -1.8473  0.9991
  879MPD2    N112900   2.793   3.146  17.114 -0.1280 -0.7332  0.1337
  879MPD2    H712901   2.844   3.230  17.137  0.1382 -0.6212 -0.8657
  880MPD2     C12902   0.145   0.373   0.247  0.6374  0.0845 -0.3961
  880MPD2    C112903   0.112   0.351   0.377  0.4367  0.2748 -0.8002
  880MPD2    C212904   0.209   0.293   0.453  0.5053  0.3822  0.5774
  880MPD2    C312905   0.335   0.270   0.406 -0.0554 -0.5158 -0.2982
  880MPD2    C412906   0.366   0.305   0.281  0.0500  0.1720  0.8155
  880MPD2    C512907   0.269   0.341   0.197  0.1043  0.5979  0.1126
  880MPD2     H12908   0.189   0.269   0.557 -0.8243 -3.1277 -0.4989
  880MPD2    H112909   0.466   0.290   0.243 -1.1770 -1.5641 -1.7198
  880MPD2    H212910   0.075   0.416   0.176  0.4546 -0.6692 -0.6830
  880MPD2    H312911   0.294   0.374   0.097 -0.1076 -2.2630 -0.9108
  880MPD2     N12912   0.429   0.205   0.500 -0.7309  0.4026 -0.4161
  880MPD2    H512913   0.401   0.200   0.597 -1.8642  0.2807 -0.7488
  880MPD2    N112914   4.716   0.391   0.433  0.1380  0.4594  0.4341
  880MPD2    H712915   4.653   0.435   0.367  0.9986  2.1112  0.7161
  881MPD2     C12916   4.311   0.926   0.012  0.2268 -0.6306 -0.3107
  881MPD2    C112917   4.268   0.801  17.692  0.0591 -0.0762 -0.4697
  881MPD2    C212918   4.267   0.709   0.101 -0.2652 -0.2900 -0.5821
  881MPD2    C312919   4.277   0.753   0.235  0.6438  0.2538  0.0527
  881MPD2    C412920   4.305   0.887   0.250  0.3926  0.6158 -0.2556
  881MPD2    C512921   4.317   0.970   0.143  0.7068  0.4405  0.1824
  881MPD2     H12922   4.236   0.608   0.079  0.8371 -0.4645 -1.3102
  881MPD2    H112923   4.337   0.923   0.347  0.3996 -0.6411  0.2176
  881MPD2    H212924   4.322   0.988  17.623  4.0306  1.4041  1.6011
  881MPD2    H312925   4.338   1.074   0.169 -1.1687  1.1494 -1.1805
  881MPD2     N12926   4.294   0.663   0.343  0.6566  0.0317  0.3073
  881MPD2    H512927   4.342   0.702   0.423  0.9855 -0.1680  0.2051
  881MPD2    N112928   4.285   0.750  17.563 -0.2313 -0.2443  0.3300
  881MPD2    H712929   4.294   0.818  17.489  0.7382 -0.8991 -0.1557
  882MPD2     C12930   2.501   2.277  14.229 -0.5830  0.0091  0.5512
  882MPD2    C112931   2.468   2.249  14.360 -0.2359  0.2261 -0.4460
  882MPD2    C212932   2.351   2.180  14.391 -0.1526  0.6425  0.6712
  882MPD2    C312933   2.251   2.170  14.297  0.4193  0.6549 -0.1681
  882MPD2    C412934   2.273   2.221  14.169  0.1813  0.3285 -0.3529
  882MPD2    C512935   2.399   2.269  14.138  0.8451  0.4283 -0.8795
  882MPD2     H12936   2.329   2.160  14.495  0.5295  0.6840  0.8230
  882MPD2    H112937   2.207   2.200  14.085 -1.7770 -3.6058  2.1352
  882MPD2    H212938   2.591   2.327  14.197  0.2885 -1.7457  0.2900
  882MPD2    H312939   2.420   2.297  14.036  0.2630  0.6922 -0.9307
  882MPD2     N12940   2.126   2.106  14.318 -0.3845 -0.4783 -0.2080
  882MPD2    H512941   2.064   2.118  14.238 -0.7094 -1.7603 -0.1406
  882MPD2    N112942   2.546   2.304  14.461  0.3221 -0.3150 -0.1764
  882MPD2    H712943   2.642   2.321  14.435  0.6531  1.8848  2.4644
  883MPD2     C12944   4.280   2.239  16.711 -0.3179 -0.0306  0.1730
  883MPD2    C112945   4.365   2.219  16.605 -0.6497 -0.2634  0.1575
  883MPD2    C212946   4.502   2.201  16.625 -0.1454 -0.1219  0.0901
  883MPD2    C312947   4.556   2.215  16.751  0.4377 -0.0884  0.2468
  883MPD2    C412948   4.469   2.236  16.858 -0.0980  0.1761 -0.1910
  883MPD2    C512949   4.332   2.241  16.840  0.4910  0.3881  0.5314
  883MPD2     H12950   4.571   2.179  16.545 -1.8056  2.1906 -2.0167
  883MPD2    H112951   4.501   2.247  16.961  0.1103  3.0944 -0.5698
  883MPD2    H212952   4.174   2.257  16.700 -0.7525 -1.2823  2.4253
  883MPD2    H312953   4.262   2.244  16.923  0.4571 -0.7313  0.5493
  883MPD2     N12954   4.694   2.215  16.767  0.1836 -0.6452 -0.0880
  883MPD2    H512955   0.027   2.190  16.687 -0.9416  0.6935 -1.3053
  883MPD2    N112956   4.322   2.226  16.466  0.8597  0.6279  0.6848
  883MPD2    H712957   4.385   2.194  16.393 -1.0165  1.9937 -1.5600
  884MPD2     C12958   1.197   2.458  15.216 -0.2377  0.0491 -0.3782
  884MPD2    C112959   1.235   2.582  15.160  0.4297 -0.2181  0.3160
  884MPD2    C212960   1.186   2.702  15.207 -0.7020  0.7643  0.0701
  884MPD2    C312961   1.078   2.698  15.297  0.2830 -0.5332  0.6337
  884MPD2    C412962   1.040   2.575  15.355  0.5289 -0.5657  0.3043
  884MPD2    C512963   1.107   2.462  15.320 -0.3325 -0.1448 -0.4513
  884MPD2     H12964   1.229   2.791  15.162  0.7881  0.0677  0.1233
  884MPD2    H112965   0.960   2.566  15.428  0.0545  0.2010 -0.1233
  884MPD2    H212966   1.225   2.360  15.180 -0.0498  0.5483 -1.6023
  884MPD2    H312967   1.053   2.372  15.346  3.0431 -2.6697 -2.2578
  884MPD2     N12968   1.015   2.820  15.339  0.3348 -0.2995 -0.1481
  884MPD2    H512969   0.928   2.815  15.391 -0.7728  0.6332 -1.9191
  884MPD2    N112970   1.338   2.596  15.065  0.2998 -0.1293 -0.0981
  884MPD2    H712971   1.361   2.688  15.028 -1.1293 -0.0188 -0.6947
  885MPD2     C12972   4.612   3.423   0.453  0.2407  0.4851  0.2625
  885MPD2    C112973   4.653   3.310   0.386 -0.0596 -0.0018  0.1856
  885MPD2    C212974   4.645   3.307   0.247 -0.3473 -0.0454  0.6412
  885MPD2    C312975   4.607   3.428   0.183  0.3899 -0.4111 -0.9200
  885MPD2    C412976   4.569   3.541   0.258 -0.1732  0.2317 -0.0699
  885MPD2    C512977   4.566   3.536   0.392 -0.1190  0.2391 -0.1490
  885MPD2     H12978   4.674   3.219   0.192  0.5108  1.6306 -1.5761
  885MPD2    H112979   4.528   3.635   0.222 -0.4296  0.3549  0.5478
  885MPD2    H212980   4.596   3.420   0.560  0.7880  1.9653  0.3756
  885MPD2    H312981   4.548   3.628   0.448  0.3462  0.9944 -1.2355
  885MPD2     N12982   4.604   3.434   0.041  0.5691  0.5376 -0.2451
  885MPD2    H512983   4.636   3.351  17.692 -0.5192  0.7227 -1.2897
  885MPD2    N112984   4.690   3.202   0.469  0.4726 -0.1076  0.3699
  885MPD2    H712985   4.709   3.227   0.566 -0.7177  2.3781 -0.0504
  886MPD2     C12986   0.974   1.400  14.876 -0.5202  0.1146 -0.3312
  886MPD2    C112987   1.056   1.438  14.980 -0.0936  0.5525 -0.2462
  886MPD2    C212988   1.046   1.565  15.028  0.8984 -0.3577  0.5582
  886MPD2    C312989   0.954   1.656  14.974 -0.2288 -0.2985 -0.5657
  886MPD2    C412990   0.868   1.612  14.876 -0.0665  0.3462  0.5006
  886MPD2    C512991   0.883   1.484  14.823 -1.0400  0.4343 -0.5175
  886MPD2     H12992   1.112   1.593  15.109  0.3272 -0.8970  1.2114
  886MPD2    H112993   0.803   1.684  14.828 -0.2054 -0.4337 -0.4909
  886MPD2    H212994   0.966   1.297  14.844 -0.5739  0.3899 -1.1939
  886MPD2    H312995   0.832   1.443  14.736 -2.1594 -0.0497  0.3652
  886MPD2     N12996   0.963   1.793  14.998  0.2356  0.3620 -0.3902
  886MPD2    H512997   0.926   1.851  14.923  1.9807 -0.5505 -1.9558
  886MPD2    N112998   1.171   1.371  15.027 -0.0376  0.6223 -0.3682
  886MPD2    H712999   1.214   1.397  15.115 -0.1763 -0.7558  0.0994
  887MPD2     C13000   1.823   1.532  15.332 -0.0177 -0.1450 -0.2281
  887MPD2    C113001   1.711   1.553  15.261 -0.8909 -0.1315 -0.3057
  887MPD2    C213002   1.674   1.684  15.238  0.1965  0.2262 -0.5248
  887MPD2    C313003   1.748   1.788  15.282 -0.3461 -1.0988  0.4322
  887MPD2    C413004   1.856   1.769  15.353  0.0776  0.2704 -0.6269
  887MPD2    C513005   1.897   1.639  15.373  0.2364  0.3087 -0.3815
  887MPD2     H13006   1.580   1.701  15.187  0.2654 -0.6233 -0.9368
  887MPD2    H113007   1.901   1.855  15.401  0.6975 -0.2195 -0.3320
  887MPD2    H213008   1.866   1.436  15.360 -0.7227 -0.5175 -0.4248
  887MPD2    H313009   1.990   1.629  15.429 -0.3106  3.5450  1.1321
  887MPD2     N13010   1.689   1.917  15.265 -0.6914 -0.1125  0.6989
  887MPD2    H513011   1.601   1.927  15.215  0.1039  2.7499 -0.1591
  887MPD2    N113012   1.626   1.452  15.200  0.5607  0.0318  0.3089
  887MPD2    H713013   1.542   1.485  15.155  1.1698  1.9565  0.6002
  888MPD2     C13014   3.674   1.796  14.970 -0.3923 -0.5996 -0.5515
  888MPD2    C113015   3.670   1.870  15.086  0.2937 -0.1722  0.1827
  888MPD2    C213016   3.700   2.004  15.083 -0.5834 -0.9888  0.3922
  888MPD2    C313017   3.730   2.058  14.962  0.4617  0.2824  0.0234
  888MPD2    C413018   3.764   1.982  14.852 -0.0682 -0.9868  0.1472
  888MPD2    C513019   3.731   1.845  14.857  0.2785  0.9772  0.0307
  888MPD2     H13020   3.679   2.071  15.166 -0.0332 -2.7841  1.9885
  888MPD2    H113021   3.784   2.020  14.753 -1.9621 -0.2199  0.0439
  888MPD2    H213022   3.681   1.688  14.981 -0.0129 -0.4027  1.0527
  888MPD2    H313023   3.737   1.781  14.769 -0.2337  0.1983  0.5653
  888MPD2     N13024   3.741   2.202  14.959 -0.5053 -0.5251 -0.2997
  888MPD2    H513025   3.714   2.250  15.045  0.2627  1.0050 -0.9137
  888MPD2    N113026   3.634   1.788  15.204  0.0529 -0.4044  0.6945
  888MPD2    H713027   3.617   1.690  15.186  0.5858 -0.5216  0.8270
  889MPD2     C13028   2.558   1.892  12.635  0.1751 -0.1126  0.6721
  889MPD2    C113029   2.623   1.847  12.749  0.3774 -0.1721 -0.0057
  889MPD2    C213030   2.628   1.936  12.853  0.1608  0.3390  0.5232
  889MPD2    C313031   2.561   2.065  12.851  0.2958  0.1131 -0.4161
  889MPD2    C413032   2.497   2.108  12.742 -0.0887  0.4566  0.1202
  889MPD2    C513033   2.501   2.021  12.638 -0.3052  0.0019 -0.1324
  889MPD2     H13034   2.678   1.903  12.943 -0.2440 -0.3967  0.4771
  889MPD2    H113035   2.442   2.201  12.735  1.2929  1.2012 -0.8522
  889MPD2    H213036   2.569   1.838  12.542 -1.4183 -0.1390  0.4961
  889MPD2    H313037   2.460   2.062  12.546 -2.9198  0.1061  1.0918
  889MPD2     N13038   2.563   2.146  12.972 -0.4154  0.0759  0.2547
  889MPD2    H513039   2.607   2.107  13.054  0.8294  0.2517 -0.3287
  889MPD2    N113040   2.712   1.739  12.727  0.0310  0.2758 -0.0549
  889MPD2    H713041   2.709   1.695  12.635 -1.5870 -0.4896  0.3567
  890MPD2     C13042   2.711   2.786  14.784 -0.2931 -0.1489 -0.3691
  890MPD2    C113043   2.721   2.906  14.846  0.0983 -0.3332  0.0961
  890MPD2    C213044   2.708   2.907  14.984 -0.1029  0.8004 -0.2479
  890MPD2    C313045   2.684   2.795  15.049 -0.1346 -0.5089  0.1633
  890MPD2    C413046   2.686   2.670  14.983 -0.1708 -0.8433  0.2317
  890MPD2    C513047   2.696   2.667  14.849 -0.6787  0.9537  0.3857
  890MPD2     H13048   2.722   2.994  15.046  0.8333 -1.1690  2.2792
  890MPD2    H113049   2.662   2.580  15.037 -0.8460 -1.5869 -1.2946
  890MPD2    H213050   2.725   2.782  14.676 -1.1279 -0.0076 -0.4802
  890MPD2    H313051   2.693   2.572  14.797  1.0353  1.2629 -0.2772
  890MPD2     N13052   2.658   2.805  15.194 -0.4061 -0.1426 -0.1061
  890MPD2    H513053   2.678   2.895  15.236  3.9648 -2.7576  3.5082
  890MPD2    N113054   2.728   3.022  14.768 -0.4435  0.0686  0.2834
  890MPD2    H713055   2.727   3.004  14.668 -1.9299  2.3526 -0.1287
  891MPD2     C13056   0.497   1.138  16.434 -0.0372 -0.0415 -0.4371
  891MPD2    C113057   0.481   1.263  16.486  0.0385 -0.2226  0.1437
  891MPD2    C213058   0.592   1.323  16.545 -0.7719 -0.2442 -0.0774
  891MPD2    C313059   0.712   1.255  16.572 -0.5245 -0.0593 -0.0197
  891MPD2    C413060   0.719   1.122  16.532  0.1909 -0.0457 -0.3771
  891MPD2    C513061   0.614   1.070  16.458 -0.3633 -0.0307 -0.2885
  891MPD2     H13062   0.590   1.424  16.582  0.0390  0.8563 -3.0515
  891MPD2    H113063   0.805   1.060  16.557  0.4261 -0.5920 -2.5020
  891MPD2    H213064   0.410   1.098  16.383 -0.3208  1.2323 -0.9597
  891MPD2    H313065   0.621   0.968  16.422 -2.0571 -0.3485  0.2738
  891MPD2     N13066   0.808   1.324  16.643  0.0491  0.3858 -0.0430
  891MPD2    H513067   0.791   1.421  16.667  1.6630  0.2891  1.5840
  891MPD2    N113068   0.359   1.321  16.472 -0.9593  0.3337  0.7130
  891MPD2    H713069   0.289   1.283  16.409 -0.9712 -0.9221  1.4888
  892MPD2     C13070   1.541   2.695  14.510 -0.7511  0.4237 -0.2170
  892MPD2    C113071   1.458   2.586  14.540 -0.2804 -0.0049 -0.6803
  892MPD2    C213072   1.514   2.461  14.526 -0.4184 -0.1105  0.5322
  892MPD2    C313073   1.645   2.442  14.491  0.4002  0.2727  1.1443
  892MPD2    C413074   1.716   2.555  14.452  0.0710 -0.0972 -0.7190
  892MPD2    C513075   1.668   2.681  14.464  0.1762 -0.2696  0.3481
  892MPD2     H13076   1.457   2.373  14.556  3.8456 -2.9833  0.1466
  892MPD2    H113077   1.821   2.545  14.426  0.4969  1.8802  0.2559
  892MPD2    H213078   1.491   2.791  14.511  1.7406  1.7059  1.2192
  892MPD2    H313079   1.716   2.773  14.435 -1.8517  0.8643  0.5754
  892MPD2     N13080   1.706   2.314  14.480  0.1820  0.0396 -0.0260
  892MPD2    H513081   1.805   2.302  14.460  0.2794  0.6983  0.0604
  892MPD2    N113082   1.323   2.615  14.584 -0.3124  0.4108  0.5636
  892MPD2    H713083   1.275   2.699  14.554 -1.5074 -0.5314 -0.1518
  893MPD2     C13084   4.251   0.540   2.110 -0.5613 -0.2806 -0.1217
  893MPD2    C113085   4.235   0.526   1.976 -0.0488 -0.1294  0.6567
  893MPD2    C213086   4.106   0.508   1.916  0.0781 -0.3036 -0.2581
  893MPD2    C313087   3.993   0.512   1.994  0.4385  0.0197 -0.2648
  893MPD2    C413088   4.006   0.509   2.131 -0.6362 -0.2153  0.1806
  893MPD2    C513089   4.136   0.542   2.187  0.2151 -0.4606 -0.4245
  893MPD2     H13090   4.096   0.504   1.809  0.2213  0.9427 -0.3225
  893MPD2    H113091   3.925   0.503   2.203 -1.3265 -0.1624 -0.5958
  893MPD2    H213092   4.345   0.553   2.163 -1.0132 -0.6824  0.7803
  893MPD2    H313093   4.157   0.535   2.293 -0.7065 -0.7792 -0.2613
  893MPD2     N13094   3.865   0.496   1.936 -0.5308 -0.2053 -0.2131
  893MPD2    H513095   3.799   0.477   2.011  1.1139 -1.9180  0.7981
  893MPD2    N113096   4.352   0.523   1.898 -0.7549  0.6128 -0.0462
  893MPD2    H713097   4.442   0.529   1.945 -0.5852  0.4740 -0.3596
  894MPD2     C13098   1.525   3.311   0.404 -0.2482  1.0654  0.5085
  894MPD2    C113099   1.541   3.338   0.540 -0.3326 -0.6175 -0.1598
  894MPD2    C213100   1.562   3.468   0.590  0.6936 -0.0398 -0.1332
  894MPD2    C313101   1.580   3.569   0.499  0.0302 -0.2734 -0.0840
  894MPD2    C413102   1.560   3.542   0.359  0.0693 -0.0032  1.0066
  894MPD2    C513103   1.520   3.416   0.317 -0.6850  0.0030  0.4634
  894MPD2     H13104   1.583   3.482   0.695 -1.5301 -1.3442  0.4814
  894MPD2    H113105   1.572   3.619   0.284  1.7381 -1.0345  0.1972
  894MPD2    H213106   1.514   3.216   0.354 -0.9893  1.1049  0.5814
  894MPD2    H313107   1.513   3.403   0.210 -1.0206  1.1346  0.3487
  894MPD2     N13108   1.620   3.700   0.547  0.1312 -0.0356 -0.3157
  894MPD2    H513109   1.628   3.715   0.647  0.8779 -0.6735 -0.2817
  894MPD2    N113110   1.526   3.236   0.634  1.1177 -0.4530 -0.0867
  894MPD2    H713111   1.540   3.260   0.732 -0.8023 -0.2774  0.1503
  895MPD2     C13112   0.561   2.042  13.396 -0.8622 -0.1318 -0.8103
  895MPD2    C113113   0.514   1.915  13.397  0.6334 -0.2517  0.4190
  895MPD2    C213114   0.605   1.820  13.359 -0.9695  0.1371  0.3738
  895MPD2    C313115   0.732   1.849  13.306  0.0517 -0.1461  0.3551
  895MPD2    C413116   0.768   1.977  13.287  0.5603  0.2027 -0.5991
  895MPD2    C513117   0.678   2.071  13.334 -0.6551 -0.3698 -0.8103
  895MPD2     H13118   0.575   1.716  13.350 -1.7992  0.3219  1.0864
  895MPD2    H113119   0.867   2.009  13.258  0.9096 -0.0228  0.3509
  895MPD2    H213120   0.501   2.128  13.424  1.7741  1.2372  0.6673
  895MPD2    H313121   0.698   2.178  13.329  1.4522 -0.6836  1.2537
  895MPD2     N13122   0.807   1.753  13.240 -0.2641  0.0415  0.3849
  895MPD2    H513123   0.866   1.788  13.165 -1.4204  1.9713  0.3638
  895MPD2    N113124   0.377   1.880  13.420 -0.0619  0.0642 -0.2754
  895MPD2    H713125   0.341   1.786  13.408  0.5217  0.1819 -2.9809
  896MPD2     C13126   3.631   4.155   1.770 -0.2847 -0.7760  0.2877
  896MPD2    C113127   3.662   4.104   1.647 -0.1098 -0.8610  0.3187
  896MPD2    C213128   3.554   4.056   1.575 -0.1775 -0.5204 -0.0104
  896MPD2    C313129   3.429   4.054   1.622  0.4040  0.4329  0.2013
  896MPD2    C413130   3.400   4.118   1.737 -0.2423 -0.1953  0.1851
  896MPD2    C513131   3.503   4.157   1.818 -0.8725 -0.0795  0.0262
  896MPD2     H13132   3.577   4.011   1.479 -2.7154 -0.5873 -0.5768
  896MPD2    H113133   3.304   4.132   1.785  0.2375 -0.7616  1.3284
  896MPD2    H213134   3.712   4.188   1.834 -0.5146  0.9524 -0.3240
  896MPD2    H313135   3.494   4.191   1.920 -1.0160 -1.0793  0.3428
  896MPD2     N13136   3.325   4.001   1.543 -0.1672  0.1068 -0.0208
  896MPD2    H513137   3.343   3.994   1.443 -0.6424  2.8671 -0.2810
  896MPD2    N113138   3.797   4.095   1.605 -0.4366  0.1212  0.0288
  896MPD2    H713139   3.866   4.138   1.666  0.4766  0.7616 -1.4503
  897MPD2     C13140   4.314   1.715  10.438  0.0659  0.2303 -0.3593
  897MPD2    C113141   4.223   1.784  10.366  1.0195 -0.7624  0.3619
  897MPD2    C213142   4.087   1.750  10.371  0.5350  0.3446 -0.4856
  897MPD2    C313143   4.041   1.652  10.459 -0.6978 -0.7380  0.2839
  897MPD2    C413144   4.138   1.581  10.524  0.8434 -0.2510 -0.4170
  897MPD2    C513145   4.269   1.612  10.513  0.1845  0.9155  0.0801
  897MPD2     H13146   4.019   1.815  10.317  2.0045  2.4036  0.1397
  897MPD2    H113147   4.117   1.507  10.601  1.4881 -3.1887 -3.0458
  897MPD2    H213148   4.420   1.734  10.425  0.1927 -0.8977 -1.0043
  897MPD2    H313149   4.339   1.552  10.570 -0.5884 -0.6041 -0.5659
  897MPD2     N13150   3.907   1.642  10.504  0.0509 -0.3821  0.6731
  897MPD2    H513151   3.894   1.598  10.595 -1.4955 -2.3936 -0.5355
  897MPD2    N113152   4.259   1.888  10.283 -0.0870 -0.0053 -0.0914
  897MPD2    H713153   4.354   1.919  10.300 -0.4399  0.9981  0.0797
  898MPD2     C13154   1.512   1.657   0.009  0.0869  0.4024  0.4905
  898MPD2    C113155   1.584   1.769  17.690 -0.0247  0.0653  0.2442
  898MPD2    C213156   1.536   1.856  17.591 -0.6045 -0.0108  0.3943
  898MPD2    C313157   1.426   1.832  17.511 -0.1800  0.5698 -0.1336
  898MPD2    C413158   1.360   1.712  17.533  0.3607  0.7389  0.1931
  898MPD2    C513159   1.406   1.627  17.631  0.2127  0.4139  0.6262
  898MPD2     H13160   1.588   1.951  17.578  1.3385 -0.8749  1.7754
  898MPD2    H113161   1.283   1.680  17.464 -0.7657  0.6366  1.4762
  898MPD2    H213162   1.534   1.581   0.083  1.0560  0.6362  0.4409
  898MPD2    H313163   1.352   1.533  17.638  1.7228 -0.6166 -1.4566
  898MPD2     N13164   1.381   1.931  17.421  0.6364  0.2245 -0.5451
  898MPD2    H513165   1.424   2.023  17.418  1.9520 -0.3995 -0.9342
  898MPD2    N113166   1.713   1.792   0.055 -0.4890 -0.6467 -0.4086
  898MPD2    H713167   1.760   1.873   0.015  1.9834 -1.2988  1.2144
  899MPD2     C13168   1.950   2.553  17.229 -0.1256 -0.4518 -0.3686
  899MPD2    C113169   2.020   2.636  17.313 -1.2507  1.2904 -0.2545
  899MPD2    C213170   2.022   2.595  17.449  0.2631  0.1347  0.0388
  899MPD2    C313171   1.946   2.488  17.500 -0.6421 -0.2073 -0.4544
  899MPD2    C413172   1.888   2.405  17.410 -0.4303  0.7100 -0.1659
  899MPD2    C513173   1.896   2.436  17.280 -0.8260 -0.2562  0.0105
  899MPD2     H13174   2.064   2.664  17.521  0.4711 -1.5227  1.5253
  899MPD2    H113175   1.835   2.314  17.434  0.5984  0.1663  0.0418
  899MPD2    H213176   1.940   2.571  17.123 -2.2376 -1.8036 -0.3819
  899MPD2    H313177   1.857   2.363  17.210 -1.3170  1.2440 -1.2814
  899MPD2     N13178   1.926   2.455  17.635  0.3377  0.4860 -0.3609
  899MPD2    H513179   1.890   2.361  17.644 -2.9514  1.5707 -2.3883
  899MPD2    N113180   2.093   2.743  17.256 -0.2840  0.6414 -0.2957
  899MPD2    H713181   2.079   2.772  17.159  2.4896 -1.6170 -1.3337
  900MPD2     C13182   1.739   4.646  11.888 -0.3184 -0.4501 -0.5629
  900MPD2    C113183   1.670   4.566  11.976  0.1569 -0.2232  0.3295
  900MPD2    C213184   1.536   4.594  12.018 -0.0980 -0.3487 -0.2250
  900MPD2    C313185   1.481   4.716  11.974  0.5100  0.0922  0.1505
  900MPD2    C413186   1.555   0.071  11.883  0.2784  0.8203  0.2590
  900MPD2    C513187   1.676   0.031  11.840 -0.3701 -0.1225  0.0677
  900MPD2     H13188   1.477   4.528  12.080 -0.2963  0.8094  0.8182
  900MPD2    H113189   1.518   0.161  11.835  0.3946 -0.3625 -2.0435
  900MPD2    H213190   1.834   4.615  11.847 -0.7411 -0.3325 -1.6224
  900MPD2    H313191   1.725   0.076  11.756  0.5179 -1.6519 -0.2295
  900MPD2     N13192   1.343   0.018  11.998 -0.2870  0.5731  0.1866
  900MPD2    H513193   1.292   4.665  12.040  0.0586  0.5716  0.6122
  900MPD2    N113194   1.743   4.454  12.031 -0.2138  0.5582  0.1667
  900MPD2    H713195   1.838   4.438  11.999 -0.9483 -2.6097 -0.5023
  901MPD2     C13196   2.023   3.589  12.632 -0.1405  0.2111  0.0898
  901MPD2    C113197   1.992   3.574  12.502  0.4326  0.3565  0.2239
  901MPD2    C213198   1.954   3.680  12.424 -0.1129 -0.6339  0.5237
  901MPD2    C313199   1.931   3.803  12.484 -0.9212  0.0422  0.2112
  901MPD2    C413200   1.959   3.821  12.618  0.0515 -0.7880  0.8414
  901MPD2    C513201   2.003   3.714  12.689  0.3837  0.6608  0.3288
  901MPD2     H13202   1.921   3.663  12.322  0.7823 -0.8430  0.2735
  901MPD2    H113203   1.953   3.918  12.666  0.6929  0.7308 -2.2005
  901MPD2    H213204   2.056   3.512  12.700  1.3756 -0.9496 -1.9674
  901MPD2    H313205   2.025   3.720  12.795 -0.0752  0.1791  0.4515
  901MPD2     N13206   1.896   3.911  12.404  0.6094 -0.1374 -0.8555
  901MPD2    H513207   1.900   3.895  12.304  0.4133 -1.4686 -0.6457
  901MPD2    N113208   2.006   3.438  12.454  0.5024 -0.5222  0.8267
  901MPD2    H713209   2.019   3.362  12.520 -0.7191 -1.8228 -0.4164
  902MPD2     C13210   0.500   2.025  13.022  0.7244  0.3150  0.0744
  902MPD2    C113211   0.472   2.117  12.920  0.4772  0.1186 -0.1950
  902MPD2    C213212   0.457   2.070  12.788  0.9544 -0.3860  0.6949
  902MPD2    C313213   0.481   1.936  12.758  0.0572 -0.2675  0.5862
  902MPD2    C413214   0.510   1.854  12.859  0.4013 -0.5683 -0.0214
  902MPD2    C513215   0.511   1.891  12.991  0.1256 -0.3876  0.1496
  902MPD2     H13216   0.417   2.141  12.717  3.0386 -0.6079 -0.7168
  902MPD2    H113217   0.532   1.750  12.836  3.8887  0.0347  0.5780
  902MPD2    H213218   0.501   2.054  13.126 -0.8863  0.4197  0.0570
  902MPD2    H313219   0.526   1.820  13.072 -1.3343 -1.5222 -0.5753
  902MPD2     N13220   0.462   1.884  12.628 -0.3843  0.3076 -0.6056
  902MPD2    H513221   0.465   1.783  12.619  0.8674  0.2350  0.7032
  902MPD2    N113222   0.453   2.255  12.942 -0.7721 -0.3970 -0.5590
  902MPD2    H713223   0.424   2.315  12.866  0.8131  0.8315 -0.1956
  903MPD2     C13224   0.487   2.086  11.759 -0.4635 -0.4939  0.1193
  903MPD2    C113225   0.387   2.070  11.853 -0.5051 -0.1093  0.1885
  903MPD2    C213226   0.277   2.162  11.849 -0.0090 -0.5225 -0.5093
  903MPD2    C313227   0.273   2.273  11.775 -0.7368 -0.2130 -0.0426
  903MPD2    C413228   0.375   2.289  11.688 -0.3053  0.5422 -0.2092
  903MPD2    C513229   0.470   2.191  11.671  0.6364 -1.0761  0.0461
  903MPD2     H13230   0.189   2.147  11.911  1.1100 -1.4996  0.8438
  903MPD2    H113231   0.375   2.372  11.617  0.2327  2.3122  1.8670
  903MPD2    H213232   0.576   2.024  11.762 -0.3692 -0.3863 -0.5267
  903MPD2    H313233   0.550   2.200  11.598 -0.5257  1.0847 -0.9753
  903MPD2     N13234   0.172   2.371  11.804  0.2979  0.7945 -0.0491
  903MPD2    H513235   0.106   2.341  11.876  1.0990  1.5587  1.0049
  903MPD2    N113236   0.410   1.966  11.948 -0.1480  0.0407 -0.5188
  903MPD2    H713237   0.500   1.918  11.943  0.4158  1.0738 -0.2166
  904MPD2     C13238   0.747   0.843  13.560  0.4738 -1.1096 -0.7861
  904MPD2    C113239   0.762   0.950  13.637 -0.3210 -0.2039 -0.5290
  904MPD2    C213240   0.856   0.949  13.732  1.3059 -0.0863 -0.4766
  904MPD2    C313241   0.952   0.851  13.743  0.0864 -0.2167 -0.1970
  904MPD2    C413242   0.936   0.735  13.671  0.4581 -0.0884  0.1788
  904MPD2    C513243   0.834   0.737  13.574 -0.4084 -0.3265 -0.0015
  904MPD2     H13244   0.863   1.037  13.796 -0.2564 -0.5242  0.2994
  904MPD2    H113245   0.992   0.644  13.685 -1.1537 -0.8816  1.3056
  904MPD2    H213246   0.679   0.838  13.477  1.8627 -1.1313 -1.9246
  904MPD2    H313247   0.816   0.654  13.507  3.7258  0.3454 -1.9595
  904MPD2     N13248   1.063   0.880  13.827  0.0531  0.5829  1.1384
  904MPD2    H513249   1.060   0.973  13.869 -0.3163  0.1177  2.1358
  904MPD2    N113250   0.687   1.066  13.628 -0.1350  0.3829 -0.3512
  904MPD2    H713251   0.723   1.152  13.668  0.8866 -0.0330 -0.3802
  905MPD2     C13252   0.348   1.249  12.950  0.0698 -0.1694  0.1084
  905MPD2    C113253   0.410   1.347  13.020 -0.2163  0.1815 -0.1925
  905MPD2    C213254   0.505   1.421  12.955 -0.7463  0.0505 -0.2842
  905MPD2    C313255   0.541   1.387  12.823 -0.3175 -0.2388  0.4589
  905MPD2    C413256   0.467   1.291  12.757 -0.2033 -0.1179 -0.5580
  905MPD2    C513257   0.377   1.214  12.822 -0.4318  0.0527 -0.3781
  905MPD2     H13258   0.564   1.490  13.015  1.2719 -0.7957 -1.3177
  905MPD2    H113259   0.500   1.267  12.657 -1.9867 -2.1978 -0.6436
  905MPD2    H213260   0.281   1.178  12.998 -0.7510  2.6158  3.1161
  905MPD2    H313261   0.325   1.135  12.770 -2.5836  0.3449  1.3594
  905MPD2     N13262   0.639   1.452  12.748  0.1280 -0.2352  0.0319
  905MPD2    H513263   0.627   1.443  12.648  0.9873 -1.7239  0.0621
  905MPD2    N113264   0.399   1.335  13.161  0.2088 -0.1932 -0.4057
  905MPD2    H713265   0.361   1.255  13.210 -0.9140  1.2088  0.9930
  906MPD2     C13266   2.433   1.704  11.051  0.8083  0.2794 -0.0883
  906MPD2    C113267   2.443   1.635  10.931  0.6952  0.2551 -0.2341
  906MPD2    C213268   2.431   1.501  10.922 -0.1804  0.3540 -0.2492
  906MPD2    C313269   2.408   1.429  11.040  0.7302  0.1603 -0.1334
  906MPD2    C413270   2.402   1.496  11.160 -0.5178 -0.1894  1.0372
  906MPD2    C513271   2.421   1.632  11.169  0.9111 -0.0813  0.5008
  906MPD2     H13272   2.426   1.455  10.824  0.0765 -0.2647  0.0268
  906MPD2    H113273   2.406   1.444  11.254 -3.1741  0.5246  1.5559
  906MPD2    H213274   2.424   1.812  11.061 -1.1707  0.2857 -2.0395
  906MPD2    H313275   2.409   1.688  11.261 -2.1364  0.1799 -0.0310
  906MPD2     N13276   2.397   1.289  11.055 -0.0226 -0.4449  0.3492
  906MPD2    H513277   2.346   1.253  11.135  0.5772 -0.7824  0.5793
  906MPD2    N113278   2.465   1.699  10.801  0.9662  0.3207 -0.6418
  906MPD2    H713279   2.472   1.637  10.721 -1.6030 -1.7744  0.7608
  907MPD2     C13280   1.142   0.318  15.481  0.6190  0.0908  0.7205
  907MPD2    C113281   1.206   0.199  15.487  0.1659  0.6229  0.0995
  907MPD2    C213282   1.302   0.183  15.588  0.3783  0.5155  0.8271
  907MPD2    C313283   1.343   0.292  15.665 -0.0068  0.0362 -0.2344
  907MPD2    C413284   1.279   0.413  15.651 -0.5894 -0.3592 -0.3740
  907MPD2    C513285   1.181   0.426  15.557 -0.4047 -0.1752  1.3585
  907MPD2     H13286   1.349   0.085  15.593 -1.2415 -0.2306  1.5977
  907MPD2    H113287   1.311   0.509  15.692 -0.6331 -0.6284  0.2975
  907MPD2    H213288   1.064   0.339  15.408 -0.3916 -0.5951  1.6023
  907MPD2    H313289   1.123   0.517  15.548  1.7563  1.1249  0.6842
  907MPD2     N13290   1.437   0.267  15.765 -0.1001  0.1650  0.3386
  907MPD2    H513291   1.456   0.168  15.776  1.6627  0.6242  1.3940
  907MPD2    N113292   1.177   0.085  15.399  0.6364  0.0559  0.5183
  907MPD2    H713293   1.232   0.001  15.413  1.1623  0.3017 -0.0683
  908MPD2     C13294   4.145   2.231   9.355  0.5436 -0.1675  0.4542
  908MPD2    C113295   4.110   2.108   9.408 -0.0663 -0.0383  0.1511
  908MPD2    C213296   4.122   2.107   9.549 -0.3528 -0.4431  0.0811
  908MPD2    C313297   4.175   2.211   9.624 -0.0193 -0.6059 -0.9255
  908MPD2    C413298   4.215   2.324   9.564  0.5822 -0.1183 -0.1329
  908MPD2    C513299   4.199   2.335   9.434 -0.2477 -0.5792  0.3305
  908MPD2     H13300   4.095   2.012   9.593 -0.5500 -0.7998 -0.7996
  908MPD2    H113301   4.261   2.402   9.625  1.4293 -0.5375 -0.2269
  908MPD2    H213302   4.110   2.260   9.256 -0.2888 -0.2593  0.7172
  908MPD2    H313303   4.217   2.430   9.384 -1.8621 -1.8629 -2.6941
  908MPD2     N13304   4.187   2.197   9.768 -0.0052  0.2782  0.1721
  908MPD2    H513305   4.149   2.111   9.807  2.2987  0.0240  1.8987
  908MPD2    N113306   4.046   1.999   9.335 -0.2289 -0.3853  0.3274
  908MPD2    H713307   3.999   1.929   9.391 -0.2935  0.0614  0.8422
  909MPD2     C13308   4.359   4.199  12.097 -0.2926  0.7481 -0.5629
  909MPD2    C113309   4.397   4.303  12.005 -0.8431  0.0674 -0.7128
  909MPD2    C213310   4.352   4.430  12.024  0.2137 -0.3563 -0.1988
  909MPD2    C313311   4.267   4.453  12.139 -0.1636  0.3686 -0.8187
  909MPD2    C413312   4.233   4.354  12.231  0.3835 -0.1017  0.4290
  909MPD2    C513313   4.290   4.232  12.214 -0.0190 -0.5569  0.3664
  909MPD2     H13314   4.394   4.510  11.964 -0.3668  0.0758 -0.0202
  909MPD2    H113315   4.185   4.379  12.325  0.2155 -0.9544  0.5654
  909MPD2    H213316   4.377   4.095  12.071 -0.6187  0.8025 -1.0173
  909MPD2    H313317   4.264   4.152  12.282 -0.5370 -0.7414 -0.0529
  909MPD2     N13318   4.221   4.586  12.156 -0.5509 -0.8819  0.1869
  909MPD2    H513319   4.247   4.655  12.086  1.4450 -1.7503  0.0806
  909MPD2    N113320   4.488   4.279  11.899  0.2139  0.0059 -0.6255
  909MPD2    H713321   4.504   4.359  11.840 -0.4704  1.6392  1.4059
  910MPD2     C13322   0.981   1.224  15.918 -0.2213  0.4897  0.7852
  910MPD2    C113323   1.018   1.095  15.865  0.1633 -0.6210 -0.5079
  910MPD2    C213324   0.950   1.048  15.755  0.3465  0.2386  0.0570
  910MPD2    C313325   0.838   1.121  15.705  0.7158  1.3952 -0.1139
  910MPD2    C413326   0.799   1.238  15.761  0.3405 -0.5284  0.5958
  910MPD2    C513327   0.870   1.285  15.870 -0.2372  0.2785  0.4155
  910MPD2     H13328   0.984   0.958  15.706 -0.7807 -0.3452  0.3532
  910MPD2    H113329   0.711   1.284  15.719  0.4478 -1.1832 -0.3618
  910MPD2    H213330   1.019   1.268  16.010  0.0736 -1.0228  1.3855
  910MPD2    H313331   0.845   1.373  15.929  1.8469 -0.2342  2.0647
  910MPD2     N13332   0.755   1.080  15.597 -0.5763 -0.3054  0.0235
  910MPD2    H513333   0.704   1.155  15.551  0.2183  0.6643  0.7254
  910MPD2    N113334   1.115   1.013  15.921 -0.5838 -0.1489 -0.2474
  910MPD2    H713335   1.152   0.940  15.862 -1.8189 -0.2734 -0.8764
  911MPD2     C13336   3.453   1.249  16.123  0.1160  0.5137  0.4180
  911MPD2    C113337   3.493   1.328  16.229 -0.0987  1.0087 -0.6380
  911MPD2    C213338   3.448   1.461  16.249  0.0338 -0.7676 -0.3529
  911MPD2    C313339   3.356   1.512  16.160  0.3767  0.0363  0.0866
  911MPD2    C413340   3.320   1.431  16.048 -0.5318 -0.1102 -0.0078
  911MPD2    C513341   3.367   1.297  16.032  0.1290 -0.0854  0.5197
  911MPD2     H13342   3.474   1.526  16.332  0.4578 -0.4873 -0.7020
  911MPD2    H113343   3.248   1.474  15.979 -2.2653 -1.5370  0.8996
  911MPD2    H213344   3.476   1.143  16.119  0.2433  0.4626  2.4504
  911MPD2    H313345   3.336   1.242  15.944  0.6463 -1.5853  1.2723
  911MPD2     N13346   3.290   1.632  16.182 -0.5213  0.1094  0.3170
  911MPD2    H513347   3.203   1.646  16.132 -1.2335  0.3066  1.6210
  911MPD2    N113348   3.584   1.276  16.322 -0.1453 -0.1041  0.2607
  911MPD2    H713349   3.620   1.184  16.299 -1.0509 -0.1983 -0.7788
  912MPD2     C13350   3.019   1.505  15.771 -0.2089  0.1355  0.2201
  912MPD2    C113351   2.995   1.520  15.906  0.6174  0.2340 -0.5868
  912MPD2    C213352   2.991   1.408  15.984 -0.2656 -0.2037  0.7078
  912MPD2    C313353   3.023   1.286  15.931  0.3741 -0.0887 -0.6132
  912MPD2    C413354   3.060   1.277  15.799  0.1362  0.2928  0.0379
  912MPD2    C513355   3.041   1.383  15.718  0.3214  0.1554  0.4995
  912MPD2     H13356   2.967   1.410  16.089  1.8357 -2.0608  1.2341
  912MPD2    H113357   3.105   1.187  15.758 -0.5399  0.2105 -0.5312
  912MPD2    H213358   3.010   1.595  15.711  1.5133 -1.8569 -3.0440
  912MPD2    H313359   3.072   1.382  15.614 -0.6946  2.0782  0.1682
  912MPD2     N13360   3.046   1.193  16.033 -0.5350  0.0707  0.0920
  912MPD2    H513361   3.030   1.225  16.128  1.6422  1.5840 -0.0477
  912MPD2    N113362   2.973   1.649  15.964 -0.5784 -0.2910  0.1203
  912MPD2    H713363   2.968   1.720  15.893 -2.0107 -1.1771 -0.6725
  913MPD2     C13364   3.901   3.224  10.346 -0.5455 -0.2547 -0.2077
  913MPD2    C113365   3.894   3.321  10.440  0.4530  0.4781 -0.3282
  913MPD2    C213366   3.807   3.429  10.418  0.0258 -0.7155 -0.5937
  913MPD2    C313367   3.728   3.437  10.310  0.2812 -0.5091 -0.5849
  913MPD2    C413368   3.748   3.343  10.215 -0.1445 -0.4710 -0.0346
  913MPD2    C513369   3.835   3.239  10.228  0.0915  0.1601  0.3076
  913MPD2     H13370   3.798   3.506  10.494 -1.9529 -0.2960 -1.2383
  913MPD2    H113371   3.688   3.354  10.125  0.6937 -1.5387 -0.7137
  913MPD2    H213372   3.959   3.134  10.361 -0.3110 -0.2815 -1.3128
  913MPD2    H313373   3.836   3.160  10.155 -0.9093  1.2135 -0.8648
  913MPD2     N13374   3.651   3.551  10.276 -0.6600  0.2039  0.5550
  913MPD2    H513375   3.629   3.558  10.177 -0.1097  0.8659  0.4809
  913MPD2    N113376   3.986   3.319  10.546 -0.2373 -0.7293 -0.1425
  913MPD2    H713377   4.038   3.234  10.566 -0.6655 -0.8606  0.4239
  914MPD2     C13378   1.444   2.894  11.921  0.5790  0.4761  0.0747
  914MPD2    C113379   1.484   3.025  11.908  0.0883 -0.1291 -0.9138
  914MPD2    C213380   1.598   3.061  11.970 -0.5154  0.7284  0.0911
  914MPD2    C313381   1.666   2.970  12.052 -0.1422 -0.8775  0.5058
  914MPD2    C413382   1.620   2.840  12.074 -0.0581  0.2720  0.2784
  914MPD2    C513383   1.508   2.806  12.005  0.0197  0.5511  0.4952
  914MPD2     H13384   1.653   3.150  11.943 -0.8292  0.2207 -2.2368
  914MPD2    H113385   1.669   2.763  12.133 -0.9279  0.7828  1.6518
  914MPD2    H213386   1.357   2.860  11.866 -0.0962 -0.1821  1.5630
  914MPD2    H313387   1.473   2.704  12.014 -0.6929  0.7630  0.0744
  914MPD2     N13388   1.773   3.022  12.125 -0.3613  0.4595  0.4267
  914MPD2    H513389   1.783   3.122  12.135 -1.3449  0.7073 -1.1643
  914MPD2    N113390   1.400   3.116  11.834 -0.1064  0.3619  0.2771
  914MPD2    H713391   1.309   3.088  11.797  0.9783 -0.0716 -2.0584
  915MPD2     C13392   4.335   2.821  15.243  0.0747 -0.4612 -0.9765
  915MPD2    C113393   4.386   2.729  15.330  0.7819  0.0523 -0.5040
  915MPD2    C213394   4.430   2.771  15.453 -0.2574  0.1611  0.2588
  915MPD2    C313395   4.430   2.907  15.483 -0.4273 -0.1342 -0.6684
  915MPD2    C413396   4.390   2.993  15.389  0.4406 -0.3508 -0.5855
  915MPD2    C513397   4.345   2.956  15.268 -0.4299  0.2794  0.0422
  915MPD2     H13398   4.477   2.699  15.519  0.0243  0.8122  0.7766
  915MPD2    H113399   4.379   3.097  15.419  0.2980 -1.0190  1.7060
  915MPD2    H213400   4.296   2.792  15.147  0.7097  0.6319 -1.5578
  915MPD2    H313401   4.300   3.033  15.206  2.6564  1.3332 -0.9244
  915MPD2     N13402   4.465   2.958  15.609 -0.1175 -1.1831  0.1859
  915MPD2    H513403   4.420   3.043  15.641  0.8935 -0.0774 -1.3468
  915MPD2    N113404   4.402   2.594  15.285 -0.4342  0.5783  0.0253
  915MPD2    H713405   4.351   2.563  15.203  0.4924  1.0007 -0.7203
  916MPD2     C13406   2.700   1.083  15.917  0.5449 -0.6202  0.1122
  916MPD2    C113407   2.703   0.961  15.988 -0.0251  0.8280 -0.0110
  916MPD2    C213408   2.754   0.853  15.915 -0.5133  0.7459  0.2153
  916MPD2    C313409   2.798   0.861  15.778  0.5546 -0.1850 -0.3281
  916MPD2    C413410   2.781   0.985  15.713  0.1014  0.5389  0.0180
  916MPD2    C513411   2.744   1.090  15.783 -0.8989 -0.6639 -0.3128
  916MPD2     H13412   2.763   0.753  15.955  3.3348  0.4146 -1.5082
  916MPD2    H113413   2.816   1.009  15.613 -3.0132  3.1442 -0.4083
  916MPD2    H213414   2.665   1.179  15.955  1.5143 -0.8724  1.6175
  916MPD2    H313415   2.744   1.189  15.740 -1.6444 -0.2061  0.7443
  916MPD2     N13416   2.837   0.745  15.709 -0.4121  0.5053 -0.2757
  916MPD2    H513417   2.830   0.664  15.770  0.7961  0.1016 -0.6571
  916MPD2    N113418   2.638   0.955  16.111 -0.3898 -0.1313  0.4712
  916MPD2    H713419   2.602   1.043  16.147  2.0794  1.0463  0.0269
  917MPD2     C13420   2.942   4.076  10.822  0.4797  0.0593 -0.0201
  917MPD2    C113421   2.997   4.117  10.941 -0.2416  0.6845  1.1087
  917MPD2    C213422   3.056   4.242  10.950  0.3012 -0.1057 -0.0031
  917MPD2    C313423   3.049   4.332  10.844 -0.2104  0.4541  0.1299
  917MPD2    C413424   3.002   4.289  10.722  0.2352 -0.3400 -0.1981
  917MPD2    C513425   2.951   4.158  10.709  0.0717 -0.2409 -0.2618
  917MPD2     H13426   3.103   4.275  11.042 -0.3164 -0.6594  0.5150
  917MPD2    H113427   3.010   4.346  10.630 -0.8843 -0.2435 -0.2393
  917MPD2    H213428   2.894   3.980  10.808  0.4974 -0.0612  0.7799
  917MPD2    H313429   2.913   4.124  10.613 -0.6169 -1.2733  0.3657
  917MPD2     N13430   3.085   4.465  10.852  0.1500  0.6557  0.5358
  917MPD2    H513431   3.075   4.523  10.769 -1.0783 -0.5047 -0.1277
  917MPD2    N113432   3.003   4.023  11.046 -0.1088  0.3605  0.0004
  917MPD2    H713433   2.951   3.939  11.024  0.1579 -0.0644  0.9943
  918MPD2     C13434   3.251   3.949  12.105 -0.1018 -0.0890  0.5786
  918MPD2    C113435   3.291   3.825  12.058 -0.1759 -0.5694 -0.4454
  918MPD2    C213436   3.245   3.789  11.934 -0.2118 -0.6089 -0.4134
  918MPD2    C313437   3.174   3.871  11.849 -0.5195  0.6928  0.0919
  918MPD2    C413438   3.139   3.993  11.897 -0.0679 -0.3813  0.4984
  918MPD2    C513439   3.177   4.029  12.022 -0.3472 -0.1650 -0.4765
  918MPD2     H13440   3.271   3.692  11.895  2.4268  0.7841 -2.1683
  918MPD2    H113441   3.083   4.065  11.837 -0.6797 -1.0451  0.2695
  918MPD2    H213442   3.277   3.988  12.203 -0.9611 -1.7272  1.4560
  918MPD2    H313443   3.153   4.132  12.047  2.3807  0.6465 -1.1097
  918MPD2     N13444   3.161   3.834  11.711 -1.1353  0.3569 -0.4453
  918MPD2    H513445   3.154   3.734  11.694 -0.0978  0.1779  0.1576
  918MPD2    N113446   3.389   3.762  12.133  0.4646  0.1292  0.1961
  918MPD2    H713447   3.439   3.688  12.086  0.7475  1.5000 -1.6425
  919MPD2     C13448   3.944   3.010  11.784 -0.4019  0.6142  0.2428
  919MPD2    C113449   3.945   2.874  11.756  0.4581  0.1449  0.3496
  919MPD2    C213450   3.988   2.841  11.627 -0.8090  0.7329 -0.0444
  919MPD2    C313451   4.027   2.933  11.530 -0.0300 -0.2918 -0.6739
  919MPD2    C413452   4.054   3.059  11.569 -0.2763  0.4559 -0.1342
  919MPD2    C513453   4.009   3.098  11.690  0.1158  0.0239  0.2073
  919MPD2     H13454   3.983   2.735  11.606  1.0032  0.7034 -0.3344
  919MPD2    H113455   4.113   3.126  11.507  2.2695 -0.2754  1.5116
  919MPD2    H213456   3.927   3.049  11.883  0.9172 -1.6526  1.3741
  919MPD2    H313457   4.030   3.200  11.723 -0.1501 -0.2354  1.1939
  919MPD2     N13458   4.056   2.892  11.398  0.7036 -0.5429 -0.0369
  919MPD2    H513459   4.097   2.952  11.327 -0.2780 -1.0952 -1.0688
  919MPD2    N113460   3.901   2.777  11.846  0.0799 -0.2660  0.1815
  919MPD2    H713461   3.916   2.685  11.806  1.0174 -0.5412  1.1821
  920MPD2     C13462   3.626   3.359  10.690  0.4452  0.0611 -0.3364
  920MPD2    C113463   3.620   3.234  10.632  0.3385 -0.0142  0.1279
  920MPD2    C213464   3.688   3.124  10.691 -0.1389  0.3057  0.0038
  920MPD2    C313465   3.775   3.147  10.802  0.2896  0.2027 -0.7988
  920MPD2    C413466   3.773   3.272  10.863  0.5984  0.2243  0.4807
  920MPD2    C513467   3.693   3.373  10.810  0.3667 -0.5213  0.6788
  920MPD2     H13468   3.709   3.030  10.642  0.7028  1.5557 -2.0515
  920MPD2    H113469   3.831   3.293  10.952  0.7451  1.6384  0.0441
  920MPD2    H213470   3.572   3.440  10.643  0.0405 -0.5657 -0.9485
  920MPD2    H313471   3.690   3.469  10.860  3.6625  0.5605 -1.2953
  920MPD2     N13472   3.837   3.031  10.851  0.4106 -0.3334  0.0190
  920MPD2    H513473   3.818   2.945  10.800  0.5924  0.8878 -2.0745
  920MPD2    N113474   3.535   3.214  10.513 -0.2025  0.3957 -0.1514
  920MPD2    H713475   3.499   3.302  10.478 -2.0461 -0.7613 -1.1680
  921MPD2     C13476   4.321   1.764  16.728  0.7961 -0.1106  0.1511
  921MPD2    C113477   4.374   1.640  16.719 -0.0858  0.1508 -0.3777
  921MPD2    C213478   4.280   1.540  16.699 -0.1383 -0.0195 -0.3219
  921MPD2    C313479   4.147   1.560  16.692  0.1671  0.1276 -0.3911
  921MPD2    C413480   4.098   1.686  16.705  0.1325  0.3885  0.2785
  921MPD2    C513481   4.188   1.786  16.724 -0.4232  0.6171 -0.8651
  921MPD2     H13482   4.319   1.439  16.697 -0.0473 -0.0717  4.0449
  921MPD2    H113483   3.993   1.712  16.697 -0.4571 -1.7537  0.9704
  921MPD2    H213484   4.375   1.856  16.747 -2.2439  1.6960 -0.0064
  921MPD2    H313485   4.147   1.887  16.728  0.9983  1.2892 -3.0899
  921MPD2     N13486   4.048   1.462  16.664  0.0929  0.0480  0.4074
  921MPD2    H513487   3.953   1.497  16.655 -0.6281 -2.0585 -0.1022
  921MPD2    N113488   4.510   1.619  16.698  0.5023  0.4902 -0.7550
  921MPD2    H713489   4.561   1.706  16.685  0.7843  0.5858  1.0078
  922MPD2     C13490   0.610   3.856  17.159 -0.2351  0.6504 -0.1963
  922MPD2    C113491   0.587   3.959  17.243 -0.4701 -0.5202  0.2325
  922MPD2    C213492   0.463   3.968  17.303 -0.8985 -0.1376  0.0624
  922MPD2    C313493   0.371   3.871  17.284  0.2321  0.0167  0.2110
  922MPD2    C413494   0.410   3.764  17.216  0.4128  0.6474 -0.1402
  922MPD2    C513495   0.526   3.758  17.148 -0.6349 -0.1946  0.8371
  922MPD2     H13496   0.440   4.048  17.372 -2.7377 -0.7293  0.1358
  922MPD2    H113497   0.352   3.674  17.201 -0.2409  1.1837 -0.8796
  922MPD2    H213498   0.695   3.863  17.092  0.9180  1.5422  1.3522
  922MPD2    H313499   0.547   3.670  17.087 -0.5459 -0.5002  1.3129
  922MPD2     N13500   0.240   3.868  17.331  0.0812 -0.3060  0.2977
  922MPD2    H513501   0.178   3.802  17.285 -0.9803  0.5300  0.5337
  922MPD2    N113502   0.669   4.067  17.256  0.3571 -0.3531  0.4058
  922MPD2    H713503   0.641   4.144  17.316  1.1104  1.3622 -1.4560
  923MPD2     C13504   1.763   2.150   8.519 -0.4908  0.3826 -0.4360
  923MPD2    C113505   1.763   2.219   8.639  0.1964  0.4415  0.6395
  923MPD2    C213506   1.837   2.162   8.744 -0.6701  0.3434 -0.1784
  923MPD2    C313507   1.922   2.056   8.722  0.2561  0.1414  0.5032
  923MPD2    C413508   1.936   2.011   8.597 -0.3102  0.1499 -0.0406
  923MPD2    C513509   1.842   2.041   8.504 -0.5168  0.2382  0.1387
  923MPD2     H13510   1.843   2.214   8.839  0.7825  2.2397 -1.3075
  923MPD2    H113511   1.996   1.923   8.574 -0.4820  0.0061  0.0607
  923MPD2    H213512   1.689   2.177   8.444 -0.1009 -0.1916 -1.0315
  923MPD2    H313513   1.860   1.986   8.412  0.0140  0.8975 -0.1588
  923MPD2     N13514   1.998   1.999   8.827 -0.1164 -0.1323 -0.3506
  923MPD2    H513515   2.064   1.927   8.802 -1.1631 -1.0314 -0.5558
  923MPD2    N113516   1.684   2.335   8.644  0.1016 -0.4053 -0.5399
  923MPD2    H713517   1.639   2.363   8.558 -0.5025 -4.9973 -1.7192
  924MPD2     C13518   1.410   4.306  16.017 -0.0734 -0.0601  0.7213
  924MPD2    C113519   1.457   4.370  16.124  0.1292 -0.1104 -0.2896
  924MPD2    C213520   1.549   4.471  16.118  0.0852 -0.0733  0.1831
  924MPD2    C313521   1.595   4.514  15.992 -0.1659 -0.3280  0.8880
  924MPD2    C413522   1.547   4.452  15.882 -0.4067 -0.7448 -0.7205
  924MPD2    C513523   1.459   4.349  15.892  0.7239  0.1957 -1.0003
  924MPD2     H13524   1.576   4.526  16.208  1.4603  1.7692 -1.3506
  924MPD2    H113525   1.574   4.487  15.783  1.4629  1.6807  0.6439
  924MPD2    H213526   1.339   4.225  16.018 -0.4788  0.2819 -0.1850
  924MPD2    H313527   1.441   4.296  15.799 -2.1276 -2.2103  0.9375
  924MPD2     N13528   1.675   4.630  15.965  0.1236 -0.4042 -0.3181
  924MPD2    H513529   1.659   4.671  15.873  1.0478  0.7221  0.0188
  924MPD2    N113530   1.387   4.347  16.238 -0.1326  0.2133 -0.3351
  924MPD2    H713531   1.302   4.294  16.220 -0.2388  0.4073 -0.3958
  925MPD2     C13532   0.463   2.442  14.907 -0.7190  0.0229 -0.6365
  925MPD2    C113533   0.362   2.367  14.868  0.8847 -0.3203 -0.5374
  925MPD2    C213534   0.270   2.317  14.954 -0.0640 -0.6541 -0.1528
  925MPD2    C313535   0.265   2.360  15.088 -0.4645  0.6518 -0.2906
  925MPD2    C413536   0.366   2.449  15.120  1.2139  0.0838 -1.4983
  925MPD2    C513537   0.468   2.482  15.040  0.0212 -0.3625  0.2154
  925MPD2     H13538   0.206   2.237  14.916 -0.3617 -1.1835  1.4801
  925MPD2    H113539   0.364   2.493  15.219  0.4727 -0.2335 -1.3745
  925MPD2    H213540   0.535   2.480  14.836 -1.3003 -0.7461 -1.6428
  925MPD2    H313541   0.540   2.556  15.074 -0.6995  0.4632 -0.0458
  925MPD2     N13542   0.161   2.318  15.179  0.2550  0.2679  0.2060
  925MPD2    H513543   0.184   2.335  15.276 -1.8126 -1.5016  1.0085
  925MPD2    N113544   0.340   2.330  14.735 -0.5011 -0.2129  0.0682
  925MPD2    H713545   0.259   2.274  14.712 -1.0111  0.0981  1.0953
  926MPD2     C13546   3.823   0.407  13.313  0.2865 -0.0676 -0.1043
  926MPD2    C113547   3.738   0.477  13.234  0.7395 -1.3564 -0.0962
  926MPD2    C213548   3.795   0.569  13.139  0.4954  0.1129 -0.2132
  926MPD2    C313549   3.931   0.580  13.124 -0.4049  0.3853  0.1998
  926MPD2    C413550   4.011   0.505  13.209 -0.4396 -0.1064 -0.6446
  926MPD2    C513551   3.958   0.427  13.305 -0.1862  0.0295 -1.1539
  926MPD2     H13552   3.725   0.623  13.077  0.8839 -0.7334 -1.3849
  926MPD2    H113553   4.120   0.508  13.207 -0.3876  1.8648  3.9333
  926MPD2    H213554   3.792   0.337  13.390  1.0869 -0.3148 -0.0039
  926MPD2    H313555   4.029   0.380  13.372  0.1137  2.8991  0.5410
  926MPD2     N13556   3.988   0.667  13.030 -0.5673 -0.2718  0.1070
  926MPD2    H513557   4.089   0.672  13.020 -0.7748 -0.3764 -2.0405
  926MPD2    N113558   3.597   0.473  13.239  0.4410  0.3469  0.3337
  926MPD2    H713559   3.548   0.544  13.187 -2.1495 -0.3690  1.7792
  927MPD2     C13560   4.121   3.509   0.646 -0.0564  0.0085  0.2884
  927MPD2    C113561   4.218   3.420   0.609  0.5594 -0.0143  0.1305
  927MPD2    C213562   4.230   3.390   0.474  0.4086  0.6255  0.2294
  927MPD2    C313563   4.138   3.438   0.380  0.2133  0.7163  0.7073
  927MPD2    C413564   4.032   3.522   0.418  0.0907  0.4771 -0.1688
  927MPD2    C513565   4.026   3.551   0.557 -0.4602  0.0464  0.0312
  927MPD2     H13566   4.310   3.323   0.445  1.3599  2.8186 -2.1452
  927MPD2    H113567   3.953   3.562   0.356 -0.5819  0.4221  0.6561
  927MPD2    H213568   4.113   3.532   0.752  0.2628 -1.7197  0.6828
  927MPD2    H313569   3.943   3.610   0.594 -1.8237  0.3569 -3.5361
  927MPD2     N13570   4.155   3.385   0.250  0.1729 -0.1943 -0.3500
  927MPD2    H513571   4.227   3.316   0.235 -1.5475 -1.4926 -2.7547
  927MPD2    N113572   4.306   3.366   0.711 -0.3316  0.1047 -0.1117
  927MPD2    H713573   4.310   3.411   0.802  1.6507  1.9244 -1.1048
  928MPD2     C13574   2.148   0.869   0.760 -0.5191  0.4177  0.2651
  928MPD2    C113575   2.244   0.962   0.793 -0.2468 -0.7082  0.2434
  928MPD2    C213576   2.298   1.042   0.690 -0.0574  0.1483  0.2510
  928MPD2    C313577   2.240   1.039   0.559  0.0621 -0.2101  0.3788
  928MPD2    C413578   2.139   0.950   0.538 -0.7719  0.7959 -0.2357
  928MPD2    C513579   2.102   0.861   0.637  0.2172 -0.5132  0.8397
  928MPD2     H13580   2.381   1.109   0.710 -0.1412  0.4233 -0.3131
  928MPD2    H113581   2.095   0.949   0.439 -1.6236 -1.9387  0.1726
  928MPD2    H213582   2.115   0.795   0.832 -1.5745 -0.3546 -1.0114
  928MPD2    H313583   2.029   0.783   0.619 -0.8960  0.6717  0.2217
  928MPD2     N13584   2.285   1.122   0.455  0.3796  0.2532 -0.1223
  928MPD2    H513585   2.226   1.132   0.373 -0.7226  0.7300  0.7165
  928MPD2    N113586   2.297   0.940   0.921 -0.5255  0.5761 -0.7832
  928MPD2    H713587   2.253   0.876   0.986  0.4951  0.1853 -0.4798
  929MPD2     C13588   1.947   1.517  10.416  0.4567  0.3618  0.1154
  929MPD2    C113589   1.823   1.459  10.385 -0.2273 -0.4141  0.4195
  929MPD2    C213590   1.754   1.507  10.279  0.5018  0.3111 -0.0282
  929MPD2    C313591   1.808   1.601  10.201 -0.2984  0.4801  0.7639
  929MPD2    C413592   1.923   1.664  10.230 -0.3775 -0.0752 -0.4181
  929MPD2    C513593   1.993   1.613  10.333 -0.8304  0.4146 -0.2071
  929MPD2     H13594   1.666   1.454  10.244 -0.1567  0.9146  0.7157
  929MPD2    H113595   1.956   1.752  10.176  0.8452 -0.8930 -1.0108
  929MPD2    H213596   2.006   1.487  10.501 -1.0756 -1.2591  0.6146
  929MPD2    H313597   2.094   1.650  10.345 -0.4809 -0.8022  0.6122
  929MPD2     N13598   1.732   1.671  10.090  0.2898  0.5247 -0.1057
  929MPD2    H513599   1.768   1.754  10.044  1.3697  0.5405  0.7641
  929MPD2    N113600   1.765   1.360  10.471  0.8218  0.3462  0.0711
  929MPD2    H713601   1.819   1.344  10.555  2.2384 -0.2442 -0.9568
  930MPD2     C13602   3.911   3.304  14.431  0.0209  0.1710 -0.5297
  930MPD2    C113603   3.818   3.388  14.369  0.2688 -0.3138  0.0562
  930MPD2    C213604   3.691   3.346  14.355  0.0577 -0.1388 -0.1542
  930MPD2    C313605   3.647   3.226  14.404 -0.0304  0.9029 -0.1375
  930MPD2    C413606   3.734   3.145  14.475  0.2927  0.2971 -0.1598
  930MPD2    C513607   3.864   3.184  14.481  0.1257 -0.6390  0.1292
  930MPD2     H13608   3.612   3.391  14.296  0.6392  1.4095  0.2567
  930MPD2    H113609   3.712   3.049  14.520  0.4493 -1.0177 -2.9273
  930MPD2    H213610   4.015   3.333  14.445  0.1816  0.6091 -2.6409
  930MPD2    H313611   3.930   3.118  14.535  2.2936 -0.5903 -2.4892
  930MPD2     N13612   3.521   3.170  14.378  0.2131 -0.1198 -0.2117
  930MPD2    H513613   3.507   3.070  14.392 -0.1745  0.3954  3.1025
  930MPD2    N113614   3.863   3.512  14.312 -0.3205  0.2978 -0.7009
  930MPD2    H713615   3.958   3.544  14.327  0.2774 -0.5707 -2.6869
  931MPD2     C13616   0.082   2.698   1.148  1.0789 -0.4846  0.0663
  931MPD2    C113617   4.694   2.734   1.076  0.5340 -0.3661 -0.4242
  931MPD2    C213618   4.609   2.631   1.043 -0.3903 -0.2669 -0.1197
  931MPD2    C313619   4.639   2.500   1.076  0.5827 -0.9127 -0.7866
  931MPD2    C413620   0.039   2.468   1.137 -0.1786 -0.0429 -0.3916
  931MPD2    C513621   0.117   2.569   1.175  0.2248 -0.6121 -0.1325
  931MPD2     H13622   4.508   2.651   1.008  0.0104  2.6391  0.4008
  931MPD2    H113623   0.066   2.369   1.172  0.9230  0.4424  0.1081
  931MPD2    H213624   0.150   2.772   1.191 -1.3561  1.4703  0.5500
  931MPD2    H313625   0.202   2.548   1.240  0.5762  2.3704  0.3589
  931MPD2     N13626   4.545   2.401   1.053 -1.1520 -0.4225 -0.0720
  931MPD2    H513627   4.456   2.440   1.023 -1.0081  0.4773  0.6833
  931MPD2    N113628   4.667   2.869   1.039  0.3035 -0.1376  0.7454
  931MPD2    H713629   4.719   2.945   1.082  0.6447 -1.2229  2.2660
  932MPD2     C13630   0.780   2.406  11.383  0.3140 -0.5539  0.1424
  932MPD2    C113631   0.896   2.467  11.433  0.0036  0.4814  0.1093
  932MPD2    C213632   1.005   2.388  11.455 -0.3585  0.6862  0.6660
  932MPD2    C313633   0.997   2.257  11.410 -0.0089 -0.9403 -0.4449
  932MPD2    C413634   0.886   2.205  11.360  0.4981 -0.0812  0.3875
  932MPD2    C513635   0.772   2.277  11.344 -0.4827 -0.7994 -0.2063
  932MPD2     H13636   1.097   2.428  11.495  1.0143  1.2417 -3.0323
  932MPD2    H113637   0.886   2.103  11.322 -0.9053  0.2824 -0.6167
  932MPD2    H213638   0.687   2.458  11.364  1.3778 -0.0874 -3.6768
  932MPD2    H313639   0.682   2.241  11.296 -1.1565  2.8057 -1.6255
  932MPD2     N13640   1.112   2.173  11.431  0.5750  0.3269 -0.4170
  932MPD2    H513641   1.096   2.075  11.411  0.1488  0.6106 -1.4666
  932MPD2    N113642   0.905   2.604  11.458 -0.4733  0.1198  0.0635
  932MPD2    H713643   0.991   2.626  11.507 -0.7795 -0.1722  0.7239
  933MPD2     C13644   2.176   0.888   1.768 -0.3625 -0.1108  0.0377
  933MPD2    C113645   2.175   0.974   1.664 -0.6145 -0.0259  0.0332
  933MPD2    C213646   2.095   1.083   1.669 -0.1414  0.3914  0.3704
  933MPD2    C313647   2.014   1.113   1.778 -0.3081  0.6807  0.1626
  933MPD2    C413648   2.014   1.031   1.889 -0.9033 -0.7816 -0.4675
  933MPD2    C513649   2.098   0.919   1.883  0.0512 -0.5708 -0.0681
  933MPD2     H13650   2.099   1.156   1.589  0.8507  2.2034  2.0747
  933MPD2    H113651   1.956   1.050   1.978 -1.6195 -2.2751 -0.6294
  933MPD2    H213652   2.235   0.797   1.773 -0.2556 -0.1064 -1.2532
  933MPD2    H313653   2.100   0.842   1.960 -0.0097  0.3921  0.8960
  933MPD2     N13654   1.955   1.242   1.788 -0.6041 -0.2444 -0.2748
  933MPD2    H513655   1.967   1.307   1.710  2.9110  0.6289  0.9986
  933MPD2    N113656   2.258   0.950   1.548 -0.2915 -0.8595 -0.6172
  933MPD2    H713657   2.333   0.881   1.554  0.7407  0.4508  1.6087
  934MPD2     C13658   2.734   4.132   1.436  0.0074 -0.0378 -0.0889
  934MPD2    C113659   2.694   4.035   1.528  0.0584 -0.0634  0.0603
  934MPD2    C213660   2.591   3.946   1.493 -0.0859 -0.3051 -0.3935
  934MPD2    C313661   2.540   3.943   1.366  0.0068 -0.4559 -0.4692
  934MPD2    C413662   2.570   4.051   1.281  0.1371  0.1121 -0.6156
  934MPD2    C513663   2.664   4.146   1.321 -0.1059  0.2769  0.0756
  934MPD2     H13664   2.551   3.874   1.563  1.9339 -0.1902  0.8463
  934MPD2    H113665   2.523   4.048   1.184 -1.9609 -1.9252  0.4471
  934MPD2    H213666   2.818   4.197   1.455 -0.5974  0.6452  0.2327
  934MPD2    H313667   2.704   4.221   1.254 -1.0775  0.3549 -0.4172
  934MPD2     N13668   2.457   3.835   1.324  0.1219 -0.2498  0.0292
  934MPD2    H513669   2.414   3.834   1.232  0.3229  0.6589 -0.0736
  934MPD2    N113670   2.755   4.014   1.653 -0.6458  0.3255  0.1670
  934MPD2    H713671   2.719   3.944   1.716 -2.8869 -0.2148 -1.7160
  935MPD2     C13672   2.538   2.879   1.444 -0.5025 -0.3895 -0.1251
  935MPD2    C113673   2.409   2.897   1.392 -0.5781  0.2825 -0.1690
  935MPD2    C213674   2.347   3.022   1.409  0.1074  0.3460 -0.5634
  935MPD2    C313675   2.406   3.123   1.478 -0.1008  0.4051 -0.0415
  935MPD2    C413676   2.529   3.102   1.531 -0.4111 -0.6481 -0.2425
  935MPD2    C513677   2.589   2.980   1.519  0.5370 -0.5833  0.6074
  935MPD2     H13678   2.246   3.016   1.371  0.2063 -1.3277 -0.5927
  935MPD2    H113679   2.582   3.182   1.584 -0.1839 -1.2276  0.4096
  935MPD2    H213680   2.603   2.795   1.420  0.3500  0.4483 -0.7604
  935MPD2    H313681   2.690   2.977   1.558  0.6455  1.7351  0.5042
  935MPD2     N13682   2.353   3.253   1.486  0.0948 -0.5838 -0.2941
  935MPD2    H513683   2.408   3.319   1.540 -1.3644 -1.9501  2.8703
  935MPD2    N113684   2.354   2.808   1.296 -0.2239  0.0475 -0.7293
  935MPD2    H713685   2.274   2.841   1.242 -0.0285 -0.2709 -1.2147
  936MPD2     C13686   1.148   1.391  12.447 -0.1174 -0.4678 -0.2279
  936MPD2    C113687   1.167   1.258  12.487  0.4511  0.2340 -0.0251
  936MPD2    C213688   1.285   1.199  12.452 -0.3471 -0.0613  0.8871
  936MPD2    C313689   1.383   1.261  12.376  0.7115  0.3055 -0.0210
  936MPD2    C413690   1.359   1.388  12.348 -0.6103 -0.0557  0.2079
  936MPD2    C513691   1.251   1.454  12.384 -0.3058  0.1785 -0.6618
  936MPD2     H13692   1.309   1.103  12.496  0.6350 -1.0746 -1.8988
  936MPD2    H113693   1.424   1.443  12.281 -1.3949  1.1224  0.4037
  936MPD2    H213694   1.056   1.446  12.464  2.2824  3.3547  0.1427
  936MPD2    H313695   1.244   1.556  12.347 -0.9777 -0.0465 -1.1607
  936MPD2     N13696   1.508   1.205  12.340  0.0509 -1.1972  0.2042
  936MPD2    H513697   1.581   1.261  12.296 -0.4483 -2.2360 -1.9440
  936MPD2    N113698   1.078   1.186  12.566 -0.2586 -0.0354 -0.0167
  936MPD2    H713699   1.105   1.093  12.596 -0.5475 -0.2585 -0.4587
  937MPD2     C13700   3.918   2.083  11.838  0.0135  0.1451  0.5132
  937MPD2    C113701   3.947   2.213  11.815 -0.4614  0.3271  0.4306
  937MPD2    C213702   4.026   2.237  11.711  0.0890 -0.3779  0.2304
  937MPD2    C313703   4.100   2.150  11.646  0.2534 -0.7856 -0.3295
  937MPD2    C413704   4.083   2.016  11.673  0.6696  0.8135  0.0376
  937MPD2    C513705   3.986   1.987  11.767  0.3543 -0.1707  0.4529
  937MPD2     H13706   4.022   2.338  11.671  1.7579 -0.3768  0.0352
  937MPD2    H113707   4.141   1.939  11.625  0.8096  0.4741  0.7533
  937MPD2    H213708   3.840   2.054  11.908 -0.5616 -0.9657 -0.5957
  937MPD2    H313709   3.948   1.889  11.796 -0.0152 -0.1329  0.0932
  937MPD2     N13710   4.179   2.196  11.545 -0.3136 -0.0924 -0.1443
  937MPD2    H513711   4.176   2.295  11.524 -0.2302 -0.1428 -0.3997
  937MPD2    N113712   3.884   2.323  11.875 -0.1238  0.1197  0.2469
  937MPD2    H713713   3.910   2.414  11.837 -0.9665 -0.3908 -1.5642
  938MPD2     C13714   1.688   2.934   1.275 -0.2976  0.0430 -0.0676
  938MPD2    C113715   1.821   2.922   1.249 -0.7472 -0.4029  0.1812
  938MPD2    C213716   1.884   2.800   1.273  0.1686 -0.2881 -1.0707
  938MPD2    C313717   1.810   2.691   1.315  0.0981 -0.2999 -0.5898
  938MPD2    C413718   1.671   2.695   1.312  0.4038 -0.5931 -0.4193
  938MPD2    C513719   1.618   2.817   1.299  0.6820  0.0618  0.0183
  938MPD2     H13720   1.991   2.792   1.257  0.0509 -0.4450 -1.7900
  938MPD2    H113721   1.605   2.612   1.331 -1.3227  0.3772 -2.1658
  938MPD2    H213722   1.637   3.030   1.267 -2.0685 -0.7949  1.0131
  938MPD2    H313723   1.511   2.813   1.316  0.5272 -0.5872 -1.1193
  938MPD2     N13724   1.863   2.563   1.341  0.0393  0.4098  0.7528
  938MPD2    H513725   1.792   2.494   1.365  1.5637 -0.9845  1.2332
  938MPD2    N113726   1.889   3.041   1.203 -0.5786  0.6365  0.1643
  938MPD2    H713727   1.834   3.125   1.219 -2.3031 -0.4925  0.1151
  939MPD2     C13728   4.037   4.350   1.413  0.3276 -0.2745  0.9758
  939MPD2    C113729   3.903   4.382   1.398  0.3160  0.3870 -0.5276
  939MPD2    C213730   3.866   4.389   1.265  0.2950 -0.1739 -0.6735
  939MPD2    C313731   3.945   4.358   1.159  0.2803 -0.0605 -0.7761
  939MPD2    C413732   4.075   4.323   1.182 -0.3725 -0.1311 -0.2966
  939MPD2    C513733   4.126   4.329   1.309  0.2413  0.3334  0.3915
  939MPD2     H13734   3.763   4.420   1.251 -0.5236 -1.4452  2.4873
  939MPD2    H113735   4.144   4.312   1.099  1.0808 -1.1746  1.0632
  939MPD2    H213736   4.076   4.349   1.515 -1.6626  0.9636  1.7435
  939MPD2    H313737   4.233   4.315   1.324 -0.0164 -1.8576  0.1636
  939MPD2     N13738   3.896   4.354   1.023  0.2254 -0.2631  0.2996
  939MPD2    H513739   3.973   4.351   0.956 -0.3640 -0.3564 -0.3822
  939MPD2    N113740   3.822   4.415   1.512  0.6600 -0.0040 -0.0892
  939MPD2    H713741   3.870   4.423   1.601  0.1057  1.1783  0.0961
  940MPD2     C13742   1.646   0.299  13.052 -0.6611  0.0342 -0.2162
  940MPD2    C113743   1.775   0.294  13.101  0.0719 -0.1914  0.2065
  940MPD2    C213744   1.876   0.352  13.023  0.0508 -0.1850  0.5397
  940MPD2    C313745   1.850   0.408  12.899  0.2922 -0.6169  0.1997
  940MPD2    C413746   1.721   0.424  12.864 -0.1579 -0.3493 -0.0994
  940MPD2    C513747   1.621   0.358  12.935 -0.6642  0.2046  0.1095
  940MPD2     H13748   1.977   0.345  13.061  0.9314 -1.9412 -2.1582
  940MPD2    H113749   1.702   0.474  12.769 -2.2168 -0.0835  0.4563
  940MPD2    H213750   1.566   0.250  13.106  1.2418 -2.7936  0.0652
  940MPD2    H313751   1.522   0.371  12.893  0.3050 -0.0281 -2.2524
  940MPD2     N13752   1.953   0.461  12.809  0.3238  0.4969  0.7799
  940MPD2    H513753   1.923   0.503  12.721 -1.3730 -0.4419  0.9131
  940MPD2    N113754   1.815   0.233  13.217  0.4340 -0.1885  0.3527
  940MPD2    H713755   1.912   0.247  13.246  0.3639  0.5387  0.2219
  941MPD2     C13756   0.630   0.394   9.749 -0.5442  0.0962  0.4955
  941MPD2    C113757   0.752   0.363   9.802  0.0327 -0.7538  0.5543
  941MPD2    C213758   0.768   0.243   9.867 -0.3292  0.1452  0.3857
  941MPD2    C313759   0.663   0.150   9.873 -1.1719  0.0897  0.1344
  941MPD2    C413760   0.536   0.186   9.826 -0.2564 -0.0185 -0.6895
  941MPD2    C513761   0.520   0.307   9.770  0.6099 -0.4132 -0.0627
  941MPD2     H13762   0.861   0.222   9.919 -0.7647  2.0835  1.9612
  941MPD2    H113763   0.454   0.116   9.834 -1.0851  0.9076 -1.0712
  941MPD2    H213764   0.616   0.493   9.708 -0.8467  0.3885  1.3111
  941MPD2    H313765   0.429   0.342   9.721 -0.0313  0.1062  1.4954
  941MPD2     N13766   0.676   0.026   9.935 -1.1975 -0.1812  0.2019
  941MPD2    H513767   0.592   4.698   9.913 -1.2322 -0.2440  0.4732
  941MPD2    N113768   0.872   0.437   9.797 -0.4609 -0.4217 -0.0532
  941MPD2    H713769   0.951   0.407   9.852 -0.7197 -2.1484 -0.6125
  942MPD2     C13770   0.579   2.876   8.956  0.1581 -0.1170  0.4284
  942MPD2    C113771   0.534   2.775   9.045  0.3158  0.3641  0.6310
  942MPD2    C213772   0.612   2.664   9.068 -0.8390 -0.6917 -0.0379
  942MPD2    C313773   0.734   2.632   9.006 -1.2602 -0.6383  0.2672
  942MPD2    C413774   0.773   2.730   8.918 -0.3739  0.2611  0.3289
  942MPD2    C513775   0.702   2.845   8.900 -0.2036  0.0580  0.2557
  942MPD2     H13776   0.587   2.606   9.156 -0.6138 -0.5457  0.1227
  942MPD2    H113777   0.861   2.716   8.856 -2.0839  2.9159 -2.7224
  942MPD2    H213778   0.515   2.957   8.922  2.0448  1.1050 -0.2157
  942MPD2    H313779   0.747   2.920   8.835  0.2474 -0.5833 -0.1795
  942MPD2     N13780   0.825   2.532   9.045  0.0970 -0.2662  0.1072
  942MPD2    H513781   0.913   2.528   8.995  0.2942  1.7005  0.3301
  942MPD2    N113782   0.407   2.778   9.104 -0.3027  0.5014 -0.8339
  942MPD2    H713783   0.370   2.697   9.152 -1.8443 -0.3653 -3.4642
  943MPD2     C13784   4.240   0.139   9.614  0.9784 -0.6168 -0.3749
  943MPD2    C113785   4.326   0.119   9.719 -0.0418 -0.5785 -0.3362
  943MPD2    C213786   4.398   0.224   9.766  0.1855 -0.2633  0.6309
  943MPD2    C313787   4.372   0.357   9.720 -0.0702  0.9252 -0.5044
  943MPD2    C413788   4.282   0.374   9.619 -0.5522 -0.6571 -0.9854
  943MPD2    C513789   4.219   0.263   9.567  0.6818 -0.0458 -0.6338
  943MPD2     H13790   4.472   0.207   9.843 -1.3502  0.0238  2.1822
  943MPD2    H113791   4.256   0.474   9.585 -0.4835  0.4125  2.0688
  943MPD2    H213792   4.181   0.055   9.578 -0.9232  0.3186  0.5885
  943MPD2    H313793   4.149   0.274   9.485  0.8035  1.3324 -0.5578
  943MPD2     N13794   4.423   0.476   9.778  0.1565  0.8323 -0.3506
  943MPD2    H513795   4.404   0.566   9.735 -0.4337  0.6558 -0.4625
  943MPD2    N113796   4.356   4.709   9.766 -0.2595 -0.8603 -0.7887
  943MPD2    H713797   4.301   4.636   9.722 -1.7776 -0.0252 -0.2824
  944MPD2     C13798   3.860   3.766  10.803  0.6048  0.0584 -0.0984
  944MPD2    C113799   3.981   3.822  10.786  0.1165 -0.1408 -0.2414
  944MPD2    C213800   4.059   3.846  10.896  0.3336 -0.2917 -0.3752
  944MPD2    C313801   4.008   3.823  11.025 -0.1556 -0.0853 -0.1902
  944MPD2    C413802   3.878   3.769  11.040 -0.4016 -0.8168 -0.0137
  944MPD2    C513803   3.802   3.752  10.925 -0.0937 -0.2089 -0.0026
  944MPD2     H13804   4.167   3.859  10.895 -0.2953  4.9107 -1.2059
  944MPD2    H113805   3.829   3.747  11.134 -0.7743  1.0391  0.2260
  944MPD2    H213806   3.800   3.727  10.721  0.2376  0.1783  0.1118
  944MPD2    H313807   3.702   3.713  10.931  0.1960 -0.8028  0.9401
  944MPD2     N13808   4.094   3.852  11.134  0.3772 -0.1281  0.2630
  944MPD2    H513809   4.182   3.896  11.110 -0.4647  0.2938 -2.0899
  944MPD2    N113810   4.024   3.839  10.648 -0.1817  0.7743  0.2762
  944MPD2    H713811   3.969   3.791  10.578 -1.3351 -0.4646  2.0245
    1TCq1    O113812   2.682   3.729  14.050  0.6460  0.0422 -0.6341
    1TCq1    C113813   2.779   3.829  14.052  0.5835  0.0044  0.1111
    1TCq1    O213814   2.820   3.877  13.948 -0.7391 -0.1125  0.5035
    1TCq1    C213815   2.860   3.813  14.171  0.0755  0.0306 -0.1638
    1TCq1    C313816   2.894   3.693  14.215 -0.3712  0.7693 -0.5872
    1TCq1    C413817   2.993   3.683  14.314 -0.2649 -0.0850 -0.0096
    1TCq1    C513818   3.071   3.786  14.350 -0.0393  0.1025 -0.2549
    1TCq1    C613819   3.045   3.904  14.287  0.2514 -0.8695  0.6380
    1TCq1    C713820   2.942   3.917  14.198 -0.3545  0.2390 -0.1039
    1TCq1    C813821   3.068   4.016  14.380  0.1088  0.0257  0.4910
    1TCq1    O413822   3.156   4.004  14.462  0.4209  0.1511 -0.2782
    1TCq1    C913823   3.025   3.554  14.360 -0.4235 -0.8035 -0.2201
    1TCq1    O513824   3.134   3.540  14.421  0.2434  0.8074 -0.1845
    1TCq1    O613825   2.936   3.463  14.342  0.3270  0.8319 -0.1030
    1TCq1    H113826   2.678   3.703  14.145  0.9126  1.3895 -0.2549
    1TCq1    H213827   2.835   3.607  14.185  1.2069 -0.9387  1.2859
    1TCq1    H313828   3.155   3.784  14.419  0.7328 -0.5029 -1.2042
    1TCq1    H413829   2.948   4.003  14.132 -0.0702  2.0199  2.2214
    2MPD2     C13830   2.847   4.427  14.602  0.1735  0.2383  0.2588
    2MPD2    C113831   2.773   4.394  14.487 -0.5362 -0.2780 -0.2021
    2MPD2    C213832   2.822   4.294  14.408  0.1015 -0.1511 -1.0676
    2MPD2    C313833   2.936   4.219  14.440 -0.4814  0.2495 -0.4408
    2MPD2    C413834   3.008   4.256  14.554 -0.3398  0.1587  0.2874
    2MPD2    C513835   2.961   4.358  14.632 -0.2356 -0.2012 -0.1258
    2MPD2     H13836   2.769   4.272  14.316 -0.9053  1.8046 -0.9753
    2MPD2    H113837   3.093   4.199  14.590  1.6329  2.5111 -0.6714
    2MPD2    H213838   2.812   4.509  14.665 -1.5374  1.3403 -2.1362
    2MPD2    H313839   3.019   4.395  14.716  0.3680 -2.5240  0.5049
    2MPD2     N13840   2.971   4.110  14.364  0.4182  0.4668  0.1960
    2MPD2    H513841   2.910   4.088  14.286  2.5364  0.2852 -1.4111
    2MPD2    N113842   2.652   4.454  14.466  0.6111 -0.2550 -0.4786
    2MPD2    H713843   2.621   4.525  14.531  1.7280  0.2981 -0.5515
    3TMC2    C113844   2.453   4.524  14.344  0.1255  0.3452 -0.2020
    3TMC2    C213845   2.419   4.614  14.444  0.1344  0.2722 -0.0799
    3TMC2    C313846   2.302   4.678  14.433 -0.2276  0.4066 -0.7988
    3TMC2    C413847   2.371   4.504  14.237 -0.1389 -0.0873 -0.4707
    3TMC2    C513848   2.262   4.584  14.225 -0.0595  0.1194 -0.9474
    3TMC2    C613849   2.231   4.675  14.323 -0.5681 -0.0872 -0.2808
    3TMC2     C13850   2.572   4.438  14.352 -0.4420 -0.2605  0.2324
    3TMC2     O13851   2.592   4.373  14.250  0.3028  0.0363  0.0346
    3TMC2     H13852   2.487   4.622  14.528 -0.3693 -2.9191  0.6392
    3TMC2    H113853   2.418   4.443  14.161 -0.0473  0.5114 -0.8968
    3TMC2    H213854   2.142   0.011  14.324 -0.5250  0.0031 -2.2849
    3TMC2    C713855   2.247   4.624  14.088  0.5518 -0.2488 -0.0516
    3TMC2    C813856   2.255   0.042  14.545 -0.0554  0.2944  0.0473
    3TMC2    O113857   2.265   4.545  13.998 -0.1539  0.1739 -0.3787
    3TMC2    O213858   2.141   0.088  14.547  0.0646 -0.0352  0.3387
    3TMC2    O513859   2.359   0.120  14.584 -0.6487 -0.1998 -0.6463
    3TMC2    H513860   2.435   0.107  14.523  0.5391 -1.0077  1.0183
    4MPD2     C13861   1.356   0.869  13.451 -0.1695  0.0276  0.0533
    4MPD2    C113862   1.474   0.928  13.416  0.3847 -0.6031 -0.6201
    4MPD2    C213863   1.590   0.908  13.490  0.9193  0.3465 -0.5625
    4MPD2    C313864   1.588   0.817  13.599 -0.5158  0.5155  1.5324
    4MPD2    C413865   1.462   0.762  13.630  0.4735 -0.4246  0.4582
    4MPD2    C513866   1.346   0.788  13.553  0.8542  0.1456  0.1464
    4MPD2     H13867   1.682   0.953  13.456  0.9264  1.1706  0.5660
    4MPD2    H113868   1.453   0.695  13.715 -0.5152 -2.2794 -1.0892
    4MPD2    H213869   1.275   0.866  13.378 -1.0544  1.4071  0.9885
    4MPD2    H313870   1.252   0.739  13.576  0.0198  2.1574  1.0254
    4MPD2     N13871   1.708   0.797  13.672 -0.9092  0.7477  0.3296
    4MPD2    H513872   1.793   0.834  13.631  0.3278  0.2018  2.3823
    4MPD2    N113873   1.464   0.998  13.292  0.0161 -1.1667 -0.3255
    4MPD2    H713874   1.374   0.996  13.247 -0.2102 -2.9197  0.2173
    5TCq2    C113875   1.718   0.735  13.790 -0.2371  0.2039 -0.0661
    5TCq2    O213876   1.642   0.661  13.848 -0.4812 -0.2301  0.3846
    5TCq2    C213877   1.850   0.755  13.849 -0.2426 -0.3821 -0.3511
    5TCq2    C313878   1.920   0.869  13.835 -1.0074 -0.2348 -0.2930
    5TCq2    C413879   2.035   0.880  13.904  0.1438 -0.0836 -0.1156
    5TCq2    C513880   2.079   0.772  13.980 -0.6147  0.6488 -0.6457
    5TCq2    C613881   2.008   0.656  13.995 -0.6701  0.1072 -0.0982
    5TCq2    C713882   1.898   0.645  13.915  0.0012 -0.1814  0.7885
    5TCq2    C813883   2.077   0.532  14.005  0.0863 -1.1784  0.0272
    5TCq2    O413884   2.152   0.514  14.099  0.2698 -0.3416  0.2061
    5TCq2    C913885   2.125   0.994  13.888  0.0150 -0.5137 -0.2762
    5TCq2    O513886   2.235   0.994  13.950  0.2005 -0.1693 -0.6921
    5TCq2    O613887   2.089   1.077  13.801 -0.2569  0.3136 -0.2694
    5TCq2    H213888   1.885   0.949  13.772 -0.0881 -1.2826 -2.1471
    5TCq2    H313889   2.178   0.776  14.024 -0.1211 -0.2415 -1.6710
    5TCq2    H413890   1.840   0.554  13.919 -2.1184  1.1068 -0.7627
    6MPD1     C13891   1.063   2.794  12.603 -0.5745 -0.2672 -0.1397
    6MPD1    C113892   1.047   2.709  12.494 -0.1378  0.1482 -0.4796
    6MPD1    C213893   1.066   2.578  12.516 -0.7083  0.0920  0.4976
    6MPD1    C313894   1.132   2.522  12.627  0.1771 -0.0411  0.4817
    6MPD1    C413895   1.153   2.603  12.731  0.6516  0.1567  0.3904
    6MPD1    C513896   1.116   2.736  12.715  0.4526 -0.0369 -0.2782
    6MPD1     H13897   1.039   2.505  12.440  1.4931 -0.9527  0.7222
    6MPD1    H113898   1.200   2.564  12.820 -1.2724 -0.3386  1.1932
    6MPD1    H213899   1.044   2.900  12.591  0.4013  0.0738  1.3602
    6MPD1    H313900   1.130   2.804  12.799 -1.7278  0.3075 -0.1920
    6MPD1     N13901   1.163   2.380  12.641 -0.5148 -0.1539  0.1103
    6MPD1    H513902   1.193   2.346  12.732 -0.0358 -0.1365 -0.0423
    6MPD1    N113903   0.995   2.756  12.373 -0.4088  0.1128  0.3582
    6MPD1    H613904   1.028   2.708  12.289  0.3499 -1.4859  1.5790
    6MPD1    H713905   1.021   2.854  12.366 -0.5054  0.1874  1.1379
    7MPD2     C13906   1.121   1.804  13.133 -0.1646  0.4940  0.4441
    7MPD2    C113907   1.152   1.743  13.011  0.4470 -0.2384  0.0713
    7MPD2    C213908   1.179   1.609  12.998  0.0084  0.3253  0.1558
    7MPD2    C313909   1.193   1.531  13.106 -0.4512  0.1270  0.1742
    7MPD2    C413910   1.161   1.587  13.227  0.2528  0.4176  0.2461
    7MPD2    C513911   1.122   1.718  13.242 -0.0976  1.0581 -0.0757
    7MPD2     H13912   1.195   1.573  12.897  3.7545  1.5716  0.3234
    7MPD2    H113913   1.164   1.535  13.322 -0.2033  0.7814  0.4610
    7MPD2    H213914   1.105   1.910  13.144 -1.1782  0.5290 -1.4292
    7MPD2    H313915   1.099   1.759  13.339 -1.2975  1.6417 -0.6111
    7MPD2     N13916   1.231   1.387  13.097 -0.0096 -0.3471 -0.1926
    7MPD2    H513917   1.248   1.332  13.181 -1.0222 -0.6732 -0.2107
    7MPD2    N113918   1.157   1.830  12.894 -0.0634  0.6094  0.2036
    7MPD2    H713919   1.165   1.773  12.811  1.5109 -0.7949  1.3166
    8TMC3    C113920   1.331   1.192  12.980 -0.9771 -0.5136  0.1150
    8TMC3    C213921   1.391   1.172  13.100  0.1708 -0.5132 -0.3294
    8TMC3    C313922   1.516   1.118  13.100  0.3780 -0.6719  0.2662
    8TMC3    C413923   1.386   1.169  12.863  0.5308  0.6858  0.2059
    8TMC3    C513924   1.523   1.139  12.862 -0.2287  0.9999 -0.5430
    8TMC3    C613925   1.589   1.103  12.984 -0.6031 -0.8872  0.8863
    8TMC3     C13926   1.251   1.317  12.982 -0.0979 -0.6115  1.1713
    8TMC3     O13927   1.243   1.361  12.866  0.2608  0.7913  0.3663
    8TMC3     H13928   1.336   1.178  13.193  0.3187 -2.3964 -0.1340
    8TMC3    H113929   1.331   1.180  12.771  0.6782  0.3075  0.0724
    8TMC3    H213930   1.697   1.093  12.980 -0.6976 -0.7801 -1.4985
    8TMC3    C713931   1.600   1.212  12.759 -0.0651  0.1777 -0.0321
    8TMC3    C813932   1.569   1.053  13.218  0.0957 -0.3142 -0.5514
    8TMC3    O113933   1.713   1.177  12.728 -0.1009  0.1031  0.0733
    8TMC3    O213934   1.689   1.064  13.235  0.4232 -0.1732 -0.4621
    9TMC3    C113935   1.195   2.153  12.577 -0.6844 -0.3530  0.1206
    9TMC3    C213936   1.284   2.072  12.507 -0.0605 -0.0045  0.0333
    9TMC3    C313937   1.314   1.949  12.560  0.0621  0.3668 -0.5741
    9TMC3    C413938   1.147   2.127  12.703 -0.5915  0.5071  0.7474
    9TMC3    C513939   1.197   2.011  12.748 -0.0390  0.4678  0.2486
    9TMC3    C613940   1.280   1.928  12.690  0.2268  0.3454  0.3712
    9TMC3     C13941   1.178   2.294  12.533  0.1372  0.8226  0.5384
    9TMC3     O13942   1.182   2.327  12.417  0.5472  0.1268 -0.5991
    9TMC3     H13943   1.317   2.100  12.407 -0.2098 -0.2349 -0.0812
    9TMC3    H113944   1.068   2.179  12.756 -0.5463  0.2390  1.0738
    9TMC3    H213945   1.328   1.852  12.749 -0.7562  0.0847  0.8286
    9TMC3    C713946   1.150   1.973  12.877  0.2722 -0.1721  0.5163
    9TMC3    C813947   1.405   1.861  12.486 -0.5356  0.4603  0.1752
    9TMC3    O113948   1.103   2.056  12.954  0.4449 -0.0062  0.3184
    9TMC3    O213949   1.483   1.900  12.397  0.2438  0.1109  0.0440
   10MPD2     C13950   1.677   1.426  12.576 -0.4931 -0.2805  0.5861
   10MPD2    C113951   1.558   1.428  12.643  0.2862 -0.1979  0.1995
   10MPD2    C213952   1.467   1.526  12.620  0.4181 -0.1489 -0.0814
   10MPD2    C313953   1.493   1.634  12.541  1.0033 -0.9526 -0.6183
   10MPD2    C413954   1.610   1.636  12.473 -0.3131  0.4097  0.2831
   10MPD2    C513955   1.699   1.529  12.485 -0.3249  0.4834 -0.0719
   10MPD2     H13956   1.373   1.519  12.673  0.0357 -0.4557 -0.7907
   10MPD2    H113957   1.640   1.722  12.414  2.1167 -0.0068  0.9176
   10MPD2    H213958   1.746   1.342  12.578  2.2726  2.0127  0.4499
   10MPD2    H313959   1.800   1.526  12.445 -0.7369  1.4502 -1.1764
   10MPD2     N13960   1.396   1.738  12.539 -0.0518 -0.5826 -0.8187
   10MPD2    H513961   1.311   1.727  12.593 -0.9631  1.3864 -1.8205
   10MPD2    N113962   1.525   1.324  12.736  0.4690  0.1307  0.0958
   10MPD2    H713963   1.444   1.342  12.794 -0.5355 -1.9925 -0.6416
   11MPD2     C13964   2.189   0.057  13.857 -0.0254 -0.1839  0.1629
   11MPD2    C113965   2.183   0.112  13.986  0.6750  0.1024 -0.7743
   11MPD2    C213966   2.132   0.238  14.000  0.7225 -0.0226  0.2394
   11MPD2    C313967   2.101   0.312  13.889  0.0548  1.2185  0.6114
   11MPD2    C413968   2.101   0.252  13.764  0.4912  0.3998  0.0885
   11MPD2    C513969   2.135   0.124  13.749  0.3491 -0.0894 -0.3228
   11MPD2     H13970   2.138   0.282  14.099  0.6654  1.9475 -0.6414
   11MPD2    H113971   2.063   0.304  13.678 -0.1970  0.0935  0.2102
   11MPD2    H213972   2.218   4.680  13.831 -0.6381 -0.5300  0.8265
   11MPD2    H313973   2.137   0.084  13.649 -1.5806 -0.8480 -0.0512
   11MPD2     N13974   2.056   0.449  13.898 -0.7761 -0.8881  0.7126
   11MPD2    H513975   2.011   0.489  13.816 -1.6650 -0.9933  1.1574
   11MPD2    N113976   2.223   0.039  14.093 -0.4154  0.7398 -0.5675
   11MPD2    H713977   2.220   0.075  14.188 -0.5184  1.5362 -0.8699
    1MPD1     C13978   0.166   2.012  17.361  0.0991  0.5880  0.1474
    1MPD1    C113979   0.279   2.019  17.289  0.8790  0.2891  0.2579
    1MPD1    C213980   0.291   1.958  17.165 -0.0661 -0.7857  0.0310
    1MPD1    C313981   0.175   1.911  17.106 -0.2409 -0.3055 -0.1063
    1MPD1    C413982   0.063   1.902  17.183  0.0336 -0.3173  0.3891
    1MPD1    C513983   0.055   1.949  17.314 -1.2511 -0.2789  0.1606
    1MPD1     H13984   0.391   1.965  17.122  0.3772  1.2107  1.4343
    1MPD1    H113985   4.696   1.869  17.135 -0.8194 -0.5677  2.1959
    1MPD1    H213986   0.172   2.058  17.459 -1.2077 -1.9555  1.4183
    1MPD1    H313987   4.686   1.949  17.370 -0.2962  1.2323  1.7223
    1MPD1     N13988   0.168   1.879  16.969  0.4331  0.0792 -0.1906
    1MPD1    H513989   0.072   1.854  16.946  0.9817 -1.7891 -0.4341
    1MPD1    N113990   0.396   2.057  17.355 -0.8150  0.0372  0.5203
    1MPD1    H613991   0.377   2.142  17.408 -0.3053  0.8612 -0.6257
    1MPD1    H713992   0.478   2.076  17.298 -2.0348  1.3154 -0.8155
    2MPD1     C13993   0.898   1.561  16.342 -0.0005  0.6354 -0.2392
    2MPD1    C113994   0.899   1.639  16.456  0.4907 -0.5543 -0.5229
    2MPD1    C213995   0.777   1.679  16.516 -0.5008  0.2097 -0.3248
    2MPD1    C313996   0.659   1.661  16.444  0.1608  0.2898  0.6217
    2MPD1    C413997   0.665   1.598  16.322  0.2900 -0.5921  0.0440
    2MPD1    C513998   0.780   1.539  16.275  0.0066 -0.0169 -0.1076
    2MPD1     H13999   0.783   1.726  16.614  0.9666  0.2980 -0.4602
    2MPD1    H114000   0.572   1.578  16.271 -0.3135  1.3915  0.3780
    2MPD1    H214001   0.986   1.510  16.305 -0.9708 -1.4062  0.2440
    2MPD1    H314002   0.775   1.500  16.174  0.9710 -0.6039  0.0732
    2MPD1     N14003   0.538   1.705  16.506  0.5906  0.4363 -0.4033
    2MPD1    H514004   0.553   1.746  16.598  1.8127 -0.7868 -0.0613
    2MPD1    N114005   1.019   1.669  16.522  0.2450 -0.0747 -0.3157
    2MPD1    H614006   1.092   1.681  16.453 -1.4318  1.2728 -1.8602
    2MPD1    H714007   1.009   1.752  16.580 -0.4419 -0.4142  0.0629
    3TMC3    C114008   0.310   1.749  16.539 -0.2211 -0.0462  0.1253
    3TMC3    C214009   0.190   1.782  16.479  0.1583 -0.4400  0.2024
    3TMC3    C314010   0.104   1.852  16.563 -0.1607  0.4838  0.7969
    3TMC3    C414011   0.339   1.776  16.672 -0.4683 -0.2293  0.3085
    3TMC3    C514012   0.243   1.823  16.750  0.0528 -0.1904 -0.1038
    3TMC3    C614013   0.125   1.865  16.695 -0.6630 -0.4981 -0.1619
    3TMC3     C14014   0.410   1.695  16.452  0.1113  0.1277 -1.1384
    3TMC3     O14015   0.371   1.657  16.347  0.3761 -0.1712 -0.2017
    3TMC3     H14016   0.166   1.771  16.374  0.6898 -0.5849  0.0970
    3TMC3    H114017   0.427   1.736  16.721 -1.4610 -0.9283  1.5096
    3TMC3    H214018   0.051   1.908  16.761  0.7201 -0.5213  1.4173
    3TMC3    C714019   0.277   1.872  16.881  0.2532  0.0725 -0.0135
    3TMC3    C814020   4.690   1.864  16.527 -0.1963 -0.7454  0.1573
    3TMC3    O114021   0.397   1.878  16.902 -0.2289  0.6570  0.1304
    3TMC3    O214022   4.615   1.850  16.624 -0.5188 -0.3120  0.0046
    4MPD1     C14023   4.277   1.882  16.225  0.2825 -0.4324  0.2866
    4MPD1    C114024   4.383   1.839  16.152  0.6501 -1.1555 -0.2016
    4MPD1    C214025   4.510   1.830  16.215 -0.5296  0.3734 -0.2338
    4MPD1    C314026   4.526   1.862  16.346 -0.4944  0.0803 -0.0167
    4MPD1    C414027   4.413   1.891  16.421 -0.0662 -0.1907 -0.5972
    4MPD1    C514028   4.287   1.909  16.361  0.2154  0.3878 -0.8054
    4MPD1     H14029   4.591   1.794  16.152  1.1737  2.1481  0.9888
    4MPD1    H114030   4.431   1.916  16.525 -0.6162  2.1483 -1.0625
    4MPD1    H214031   4.175   1.886  16.190 -0.1041 -2.5310  1.2130
    4MPD1    H314032   4.197   1.943  16.411  0.7410  1.3821 -0.5364
    4MPD1     N14033   4.656   1.852  16.397 -0.4039  0.0111 -0.6016
    4MPD1    H514034   4.723   1.849  16.321 -1.7279 -0.5545 -1.7323
    4MPD1    N114035   4.366   1.839  16.015  0.4440  0.9263 -0.7275
    4MPD1    H614036   4.410   1.755  15.979 -0.4026  0.1590  0.0224
    4MPD1    H714037   4.270   1.828  15.983  0.8026 -0.1925 -1.4127
    1TCq1    O114038   1.093   1.821  12.358 -0.2345 -0.3634 -0.7819
    1TCq1    C114039   1.038   1.931  12.316 -0.5618  0.5520 -0.0156
    1TCq1    O214040   1.086   2.022  12.245  0.8606 -0.2057  0.2763
    1TCq1    C214041   0.894   1.938  12.350 -0.5342 -0.7296  0.8638
    1TCq1    C314042   0.828   2.008  12.254  0.0620  0.4969 -0.3365
    1TCq1    C414043   0.727   2.094  12.298  0.2615  0.8541  0.7283
    1TCq1    C514044   0.713   2.134  12.428 -0.1833  0.0758  0.2438
    1TCq1    C614045   0.787   2.062  12.520  0.1368  0.4349  0.4335
    1TCq1    C714046   0.876   1.959  12.484 -0.7524  0.5215 -0.4573
    1TCq1    C814047   0.793   2.111  12.658 -0.9282  0.7806  0.1890
    1TCq1    O414048   0.829   2.032  12.745  0.3622  0.1288 -0.0751
    1TCq1    C914049   0.697   2.188  12.189 -0.6146 -0.1489 -0.0694
    1TCq1    O514050   0.640   2.290  12.230  0.6866  0.2510  0.5072
    1TCq1    O614051   0.715   2.162  12.070 -0.0728 -0.2226  0.6153
    1TCq1    H114052   1.028   1.764  12.404 -0.3871 -0.5009 -1.1671
    1TCq1    H214053   0.871   2.032  12.158  0.5034 -0.2779 -0.3300
    1TCq1    H314054   0.642   2.214  12.448  0.0792  0.8231 -1.7725
    1TCq1    H414055   0.944   1.922  12.560 -2.8852 -1.2077  0.6448
    2MPD1     C14056   0.784   2.495  12.981  0.0217  0.1111 -0.5606
    2MPD1    C114057   0.760   2.548  12.860 -0.0059 -0.1134  0.1506
    2MPD1    C214058   0.746   2.459  12.755  0.3864 -0.3221 -1.2063
    2MPD1    C314059   0.774   2.322  12.771  0.2075 -0.0816 -0.0099
    2MPD1    C414060   0.801   2.270  12.900  0.2183 -0.1991  0.0978
    2MPD1    C514061   0.799   2.359  13.004 -0.4598 -0.9701  0.2719
    2MPD1     H14062   0.717   2.499  12.659  0.0828 -0.2078 -1.0651
    2MPD1    H114063   0.822   2.168  12.929  0.7355 -0.0042  0.4245
    2MPD1    H214064   0.790   2.563  13.066  2.7490  0.7996 -1.3186
    2MPD1    H314065   0.814   2.326  13.106 -2.3879 -1.2507  0.4728
    2MPD1     N14066   0.773   2.244  12.652 -0.8232 -0.6158  0.9643
    2MPD1    H514067   0.767   2.288  12.561  0.1311  0.6157  1.4960
    2MPD1    N114068   0.722   2.681  12.838 -0.0246 -0.2847  0.0197
    2MPD1    H614069   0.778   2.735  12.904  1.7046  0.5703 -2.1343
    2MPD1    H714070   0.752   2.709  12.745  1.1193  0.2561  0.5517
    1TCq1    O114071   0.700   2.889   1.333  0.3551  0.4505  0.1318
    1TCq1    C114072   0.719   2.962   1.221  0.6409 -0.7861  0.1811
    1TCq1    O214073   0.749   3.082   1.228 -0.5655 -0.2336 -0.1340
    1TCq1    C214074   0.597   2.927   1.153  0.5602 -0.4930 -0.5141
    1TCq1    C314075   0.491   3.007   1.183 -0.6979  0.1498 -0.6425
    1TCq1    C414076   0.369   2.987   1.127  0.3013  0.1445  0.5599
    1TCq1    C514077   0.360   2.884   1.041  0.1799  0.3226 -0.3185
    1TCq1    C614078   0.473   2.803   1.020  0.6833 -0.5257  0.3934
    1TCq1    C714079   0.597   2.818   1.073 -0.1706 -0.3221 -0.6634
    1TCq1    C814080   0.443   2.666   0.974  0.2062 -0.8291  0.3556
    1TCq1    O414081   0.337   2.645   0.914  0.3138  0.2258  0.5678
    1TCq1    C914082   0.251   3.026   1.207  0.5525 -0.7719 -0.7833
    1TCq1    O514083   0.266   3.090   1.309 -0.9588  0.0609 -0.1147
    1TCq1    O614084   0.146   3.033   1.132  0.2370 -0.1122  0.1843
    1TCq1    H114085   0.637   2.817   1.313 -0.0251  0.8091  0.0435
    1TCq1    H214086   0.501   3.072   1.269  1.1836  0.7189 -1.2918
    1TCq1    H314087   0.262   2.853   1.008  0.3614 -0.7657  0.1859
    1TCq1    H414088   0.680   2.759   1.036  1.3588  0.9267  0.7475
    2MPD1     C14089   0.482   2.163   1.026  0.6699 -0.2481 -0.4725
    2MPD1    C114090   0.585   2.224   1.094  0.2884  0.2986  0.4161
    2MPD1    C214091   0.596   2.359   1.089 -0.2003  0.0459 -0.2848
    2MPD1    C314092   0.514   2.433   1.010 -0.4086 -0.2958 -0.4264
    2MPD1    C414093   0.415   2.367   0.934  0.2490 -0.2211  0.6197
    2MPD1    C514094   0.401   2.232   0.939 -0.0950  0.3694  0.0123
    2MPD1     H14095   0.653   2.411   1.166 -0.6336 -0.0493  0.1042
    2MPD1    H114096   0.345   2.416   0.866  0.6524 -0.3507  0.1125
    2MPD1    H214097   0.471   2.056   1.028 -0.3287 -0.1194  1.3824
    2MPD1    H314098   0.323   2.186   0.880 -0.1036  0.2971  0.0792
    2MPD1     N14099   0.528   2.577   1.027  0.3922  0.3470  0.1820
    2MPD1    H514100   0.599   2.607   1.094 -0.4521  2.7331  0.0238
    2MPD1    N114101   0.636   2.160   1.203  0.4689  0.4354  0.5123
    2MPD1    H614102   0.725   2.191   1.241  0.1750  1.5453  0.2786
    2MPD1    H714103   0.650   2.060   1.186  3.0628  0.9302 -0.2919
    1MPD1     C14104   2.439   1.965  11.612 -0.3895 -0.3389  0.2774
    1MPD1    C114105   2.437   2.089  11.558 -0.4539  0.7507 -0.2012
    1MPD1    C214106   2.551   2.162  11.593  0.1888  0.1475  0.2129
    1MPD1    C314107   2.638   2.137  11.693  0.8380  0.0196  0.8103
    1MPD1    C414108   2.617   2.031  11.767 -0.2549  0.5875  0.0189
    1MPD1    C514109   2.517   1.945  11.727 -0.0214  0.0044 -0.4458
    1MPD1     H14110   2.569   2.246  11.527 -1.5750  0.0846 -0.3366
    1MPD1    H114111   2.677   1.996  11.849  0.9015 -0.1152 -1.1255
    1MPD1    H214112   2.376   1.884  11.578 -2.3227  1.2438  0.1205
    1MPD1    H314113   2.501   1.854  11.784  1.4916 -1.5774 -2.5005
    1MPD1     N14114   2.745   2.232  11.719 -0.3748 -0.0988  0.0199
    1MPD1    H514115   2.755   2.298  11.642 -1.2283  1.4644  1.2382
    1MPD1    N114116   2.362   2.122  11.447  0.6172  0.1142 -0.3810
    1MPD1    H614117   2.269   2.083  11.442  0.9640 -0.4102 -2.7209
    1MPD1    H714118   2.361   2.221  11.424 -0.1935 -0.1931 -1.6387
    2MPD1     C14119   2.220   2.755  10.954 -0.9669  0.1106  0.4166
    2MPD1    C114120   2.301   2.850  11.003  0.1774  0.6970  0.1226
    2MPD1    C214121   2.419   2.814  11.067 -0.0353 -0.8563  0.0719
    2MPD1    C314122   2.454   2.674  11.068 -0.1228  0.1542  0.6471
    2MPD1    C414123   2.369   2.580  11.014 -0.4919 -0.4821  0.5884
    2MPD1    C514124   2.249   2.621  10.971  0.6200  0.7004  0.1934
    2MPD1     H14125   2.488   2.888  11.106 -2.9389  0.5626  2.5235
    2MPD1    H114126   2.394   2.474  11.017 -1.0694 -0.6758 -1.1146
    2MPD1    H214127   2.136   2.790  10.896 -1.6656 -0.7260  0.9317
    2MPD1    H314128   2.184   2.546  10.925  2.4534 -0.7019 -0.0880
    2MPD1     N14129   2.577   2.620  11.113 -0.2520 -0.3470  0.4256
    2MPD1    H514130   2.587   2.520  11.123  0.4442 -0.5562 -2.3200
    2MPD1    N114131   2.283   2.980  10.974  0.4989  0.3116  0.7331
    2MPD1    H614132   2.189   3.013  10.993 -0.0433 -0.1866 -1.1443
    2MPD1    H714133   2.332   3.043  11.038  0.1657  1.2717  0.0425
    3MPD1     C14134   2.846   1.880  11.518  0.3638  0.0905 -1.2379
    3MPD1    C114135   2.750   1.904  11.420  0.1724  0.3621 -0.8074
    3MPD1    C214136   2.756   2.027  11.352 -0.7216 -0.0918  0.7507
    3MPD1    C314137   2.849   2.124  11.383  0.5243 -0.4896  0.1235
    3MPD1    C414138   2.937   2.094  11.481  1.0020  0.1295 -0.0342
    3MPD1    C514139   2.942   1.974  11.544  0.5366 -0.2922  0.4263
    3MPD1     H14140   2.679   2.047  11.279 -1.3327 -2.0296  0.8698
    3MPD1    H114141   3.007   2.165  11.522  0.1787  0.7924  0.2353
    3MPD1    H214142   2.857   1.782  11.563  3.5131 -0.0413 -2.2954
    3MPD1    H314143   3.008   1.959  11.629 -0.2368 -0.1805  1.0420
    3MPD1     N14144   2.849   2.250  11.315  0.0803  0.0862 -0.3728
    3MPD1    H514145   2.774   2.274  11.251  0.1588  1.3335 -0.0066
    3MPD1    N114146   2.660   1.810  11.387  0.0911 -0.0382  0.1141
    3MPD1    H614147   2.638   1.760  11.472 -2.8765  2.3391  0.7173
    3MPD1    H714148   2.579   1.849  11.339  1.5332  2.3359 -0.3932
    4MPD2     C14149   2.996   2.853  11.391  0.7526 -0.5806  0.0842
    4MPD2    C114150   3.085   2.833  11.499  0.6083 -0.2057 -0.3703
    4MPD2    C214151   3.191   2.916  11.519 -0.2509  0.0169  0.3252
    4MPD2    C314152   3.230   3.011  11.431 -0.5357  0.6753 -0.2534
    4MPD2    C414153   3.145   3.026  11.321  0.5083  0.0623  0.9765
    4MPD2    C514154   3.034   2.947  11.304  0.1788 -0.6102  0.0826
    4MPD2     H14155   3.263   2.884  11.593  0.5342  1.6752  0.2718
    4MPD2    H114156   3.166   3.092  11.238 -0.0659  0.6811  1.3213
    4MPD2    H214157   2.907   2.793  11.382 -0.2243  1.1899 -2.0554
    4MPD2    H314158   2.962   2.969  11.226 -0.9898 -1.6787  0.8604
    4MPD2     N14159   3.359   3.070  11.455  0.1814 -0.1573 -0.2034
    4MPD2    H514160   3.411   3.032  11.533 -2.0983  0.3085  1.5357
    4MPD2    N114161   3.067   2.729  11.589 -0.3508  0.8948  0.2119
    4MPD2    H714162   3.126   2.714  11.671 -0.0228  1.1551  0.0222
    5TMC3    C114163   2.994   2.528  11.689 -0.8856 -0.2686  0.3704
    5TMC3    C214164   2.896   2.445  11.741 -0.0981 -0.7021  0.4313
    5TMC3    C314165   2.934   2.336  11.818  0.4812 -0.0985  0.2404
    5TMC3    C414166   3.126   2.488  11.698 -0.1567 -0.2652 -0.5626
    5TMC3    C514167   3.163   2.379  11.777  0.0308  0.3018 -0.8734
    5TMC3    C614168   3.063   2.297  11.824 -0.0767 -0.6590  0.0243
    5TMC3     C14169   2.963   2.630  11.593 -0.6436 -0.3108  0.2719
    5TMC3     O14170   2.862   2.612  11.529 -0.5375  0.4439 -0.0725
    5TMC3     H14171   2.791   2.464  11.727 -0.1450  1.0941  3.1536
    5TMC3    H114172   3.203   2.546  11.648  0.6330 -2.0378 -1.3774
    5TMC3    H214173   3.091   2.206  11.874 -1.2503 -2.0831 -1.8856
    5TMC3    C714174   3.306   2.345  11.779  0.1291 -0.0539  0.4314
    5TMC3    C814175   2.839   2.220  11.819 -1.1529  0.0708  0.8117
    5TMC3    O114176   3.342   2.234  11.809 -0.2047 -0.5361 -0.1431
    5TMC3    O214177   2.852   2.139  11.909 -0.7523 -0.2935  0.0322
    6TMC3    C114178   2.811   2.628  11.150  0.0309  0.0724 -0.2384
    6TMC3    C214179   2.820   2.514  11.226 -0.2581  0.8616  0.0777
    6TMC3    C314180   2.941   2.449  11.236  0.7688 -0.2486  0.0928
    6TMC3    C414181   2.918   2.670  11.078 -0.0603 -0.7514  0.7787
    6TMC3    C514182   3.040   2.607  11.102 -0.4320  0.0241 -0.1294
    6TMC3    C614183   3.053   2.496  11.181 -0.1282  0.5057 -0.0820
    6TMC3     C14184   2.690   2.699  11.116 -0.5840 -0.3985  0.3449
    6TMC3     O14185   2.700   2.812  11.069 -0.0572 -0.2176 -0.3953
    6TMC3     H14186   2.731   2.475  11.275 -0.3244 -0.0859 -0.8018
    6TMC3    H114187   2.906   2.756  11.012  0.1091 -1.2762  0.0549
    6TMC3    H214188   3.142   2.433  11.179 -1.1524 -0.8771 -2.0042
    6TMC3    C714189   3.159   2.676  11.064  0.5938 -0.1364  0.0629
    6TMC3    C814190   2.961   2.334  11.318 -0.3353 -0.8467 -0.2106
    6TMC3    O114191   3.253   2.658  11.137 -0.5259 -0.1184 -0.1600
    6TMC3    O214192   3.073   2.317  11.366  0.2121  0.3219  0.1643
    7MPD2     C14193   3.755   2.495  11.584  0.3056  0.1087  0.0694
    7MPD2    C114194   3.678   2.604  11.604 -0.2329 -0.1497  0.2311
    7MPD2    C214195   3.561   2.596  11.681 -0.5000  0.5082 -0.7976
    7MPD2    C314196   3.513   2.470  11.711 -0.2843  0.1854  0.1392
    7MPD2    C414197   3.591   2.357  11.683 -0.3393 -0.2711  0.2588
    7MPD2    C514198   3.706   2.375  11.613 -0.0132 -0.4237 -0.7720
    7MPD2     H14199   3.502   2.682  11.710 -2.4000 -0.9803 -0.2098
    7MPD2    H114200   3.551   2.257  11.686 -0.6763 -0.1600 -0.6162
    7MPD2    H214201   3.849   2.510  11.531 -0.6785  1.1484 -1.4081
    7MPD2    H314202   3.751   2.283  11.579  1.5323  1.2314 -3.1996
    7MPD2     N14203   3.382   2.457  11.767  0.9982 -0.4055 -0.7239
    7MPD2    H514204   3.338   2.547  11.780 -1.5937 -1.7395 -0.3375
    7MPD2    N114205   3.711   2.731  11.541  0.3031  0.6115  0.5312
    7MPD2    H714206   3.794   2.733  11.482 -0.7252 -0.0615 -0.9525
    8TMC3    C114207   3.674   2.957  11.455  0.6269 -0.2648  0.0462
    8TMC3    C214208   3.720   2.936  11.328  0.0533 -0.0595  0.0192
    8TMC3    C314209   3.681   3.032  11.229  0.0003  0.1848  0.0565
    8TMC3    C414210   3.599   3.067  11.478 -0.5483 -0.1069 -0.2157
    8TMC3    C514211   3.558   3.154  11.383  0.1656  0.3050 -0.6205
    8TMC3    C614212   3.617   3.143  11.265  0.5461 -0.5545 -0.4033
    8TMC3     C14213   3.624   2.844  11.522  0.5039 -0.2480 -0.4594
    8TMC3     O14214   3.503   2.839  11.537  0.6380  0.4075 -0.1146
    8TMC3     H14215   3.759   2.839  11.299 -0.7899 -0.7271  1.1552
    8TMC3    H114216   3.562   3.072  11.580 -1.9915 -0.7921 -0.7037
    8TMC3    H214217   3.563   3.201  11.191  0.8301 -0.3261 -0.4293
    8TMC3    C714218   3.415   3.164  11.372 -0.3487 -0.3792 -0.1211
    8TMC3    C814219   3.596   2.957  11.133 -0.0782 -0.3965  0.3246
    8TMC3    O114220   3.366   3.219  11.271 -0.0475  0.2533 -0.5884
    8TMC3    O214221   3.602   2.836  11.145  0.1268 -0.1710 -0.4966
    9MPD2     C14222   3.382   3.093  10.872 -0.1692  0.1169 -0.8522
    9MPD2    C114223   3.423   3.003  10.967  0.0759  0.2251 -0.3063
    9MPD2    C214224   3.345   2.896  10.996 -0.2173  0.0738  0.6895
    9MPD2    C314225   3.221   2.877  10.934 -0.5815 -0.2488 -0.2627
    9MPD2    C414226   3.185   2.968  10.839 -0.3674  0.6640 -0.1198
    9MPD2    C514227   3.253   3.079  10.819  0.4863  1.0485  0.0494
    9MPD2     H14228   3.367   2.832  11.080  0.9642 -1.6860 -0.9816
    9MPD2    H114229   3.086   2.969  10.795 -0.4515 -0.9329  0.0510
    9MPD2    H214230   3.447   3.174  10.841  0.6121  0.3245  1.3640
    9MPD2    H314231   3.216   3.148  10.744 -0.6609 -0.7309 -1.0193
    9MPD2     N14232   3.133   2.775  10.967  0.8053 -0.3903  0.2999
    9MPD2    H514233   3.053   2.758  10.906  1.7172  0.6904 -1.2008
    9MPD2    N114234   3.542   3.032  11.035 -0.6938 -0.4996  0.0517
    9MPD2    H714235   3.580   3.124  11.019 -2.3522 -0.0613 -1.2563
    1MPD1     C14236   2.626   0.838  16.645 -0.3910  0.1247 -0.4834
    1MPD1    C114237   2.734   0.897  16.587 -0.3966  0.1083  0.5704
    1MPD1    C214238   2.845   0.811  16.554  0.4831 -0.3951  0.0589
    1MPD1    C314239   2.837   0.674  16.572  0.1530 -0.2318 -0.7008
    1MPD1    C414240   2.721   0.624  16.621 -0.8204 -0.6577  0.0584
    1MPD1    C514241   2.612   0.704  16.656  0.4612  0.2116 -0.2507
    1MPD1     H14242   2.936   0.859  16.518  0.4241  0.0433  0.4945
    1MPD1    H114243   2.699   0.518  16.617 -0.1665 -0.7113 -2.0922
    1MPD1    H214244   2.543   0.899  16.680 -0.4221  0.3213 -0.9054
    1MPD1    H314245   2.530   0.669  16.717  0.6064  0.8153  0.2909
    1MPD1     N14246   2.930   0.576  16.533  0.2481 -0.6021 -0.4560
    1MPD1    H514247   2.903   0.480  16.548 -2.3758  0.2384  0.2110
    1MPD1    N114248   2.742   1.037  16.584  0.1172 -0.6812  0.4796
    1MPD1    H614249   2.654   1.088  16.574  0.5691 -0.6313 -3.2291
    1MPD1    H714250   2.804   1.073  16.512  0.1101 -2.6769 -0.5367
    2MPD1     C14251   3.307   4.404  16.710 -0.2608 -0.8341 -0.1393
    2MPD1    C114252   3.320   4.432  16.576  0.1041 -0.9406 -0.6381
    2MPD1    C214253   3.300   4.561  16.537 -0.4821 -0.4044  0.2632
    2MPD1    C314254   3.257   4.659  16.626 -0.6994 -0.2530 -0.0948
    2MPD1    C414255   3.238   4.622  16.754  0.5168 -0.3275 -0.3362
    2MPD1    C514256   3.266   4.496  16.806 -0.1143  0.6703  0.8761
    2MPD1     H14257   3.318   4.583  16.432  0.7536  1.0184  0.7701
    2MPD1    H114258   3.215   4.705  16.820  1.3400 -0.5207  0.2005
    2MPD1    H214259   3.323   4.302  16.743 -1.5555 -1.0916 -0.3316
    2MPD1    H314260   3.262   4.474  16.912 -0.0995  1.2401  0.9947
    2MPD1     N14261   3.243   0.065  16.571 -0.4936 -0.0435  0.5687
    2MPD1    H514262   3.257   0.076  16.471  0.8672  2.3422  1.0097
    2MPD1    N114263   3.375   4.330  16.493  0.8717  0.5261 -0.0194
    2MPD1    H614264   3.335   4.238  16.509  1.2599  0.5966  1.2757
    2MPD1    H714265   3.353   4.346  16.394 -0.0087  1.2738  0.3017
    3TCq2    C114266   3.202   0.174  16.632 -0.8317 -1.0669 -0.0259
    3TCq2    O214267   3.138   0.191  16.733  0.2151 -0.2580 -0.4881
    3TCq2    C214268   3.223   0.290  16.556 -0.6845  0.2233 -0.0537
    3TCq2    C314269   3.332   0.297  16.475  0.6529 -0.1337  0.0570
    3TCq2    C414270   3.340   0.412  16.389 -0.2788  1.1428 -0.4188
    3TCq2    C514271   3.239   0.505  16.377 -0.3856 -0.1046  1.0872
    3TCq2    C614272   3.132   0.491  16.461 -0.5683 -0.1226 -0.5312
    3TCq2    C714273   3.120   0.387  16.548  0.0621  0.6027  0.5963
    3TCq2    C814274   3.055   0.609  16.484 -0.6377 -0.3391 -0.5611
    3TCq2    O414275   3.106   0.720  16.484 -0.0075  0.2753 -0.4894
    3TCq2    C914276   3.455   0.417  16.302  0.0142  0.0157 -0.2315
    3TCq2    O514277   3.529   0.313  16.294  0.2605 -0.1286 -0.3703
    3TCq2    O614278   3.457   0.500  16.209 -0.3002  0.1886  0.0674
    3TCq2    H214279   3.412   0.224  16.475  1.1855  0.4528  0.3455
    3TCq2    H314280   3.231   0.593  16.314  1.9602 -1.8924 -1.6999
    3TCq2    H414281   3.041   0.377  16.622 -0.0682  2.5508  0.7308
    1TCq1    O114282   0.349   4.638  12.726  0.3304 -0.2889 -0.7851
    1TCq1    C114283   0.432   4.575  12.640 -0.4559  0.5127  0.2590
    1TCq1    O214284   0.407   4.540  12.525 -0.0707 -0.0847  0.1246
    1TCq1    C214285   0.568   4.570  12.695 -0.6475  0.1109 -0.0842
    1TCq1    C314286   0.574   4.546  12.825  0.2710 -0.4336  0.2570
    1TCq1    C414287   0.697   4.559  12.885 -0.5263 -0.8929  0.3125
    1TCq1    C514288   0.807   4.596  12.816 -0.3569  0.0062 -0.8599
    1TCq1    C614289   0.793   4.619  12.676 -0.7300  0.0764  0.7114
    1TCq1    C714290   0.675   4.597  12.622 -0.4902  0.2429 -0.2656
    1TCq1    C814291   0.902   4.633  12.577 -0.6816  0.7149  0.1387
    1TCq1    O414292   0.869   4.658  12.460 -0.3766 -0.5814  0.5168
    1TCq1    C914293   0.699   4.560  13.024  0.2589 -0.7976 -0.1781
    1TCq1    O514294   0.809   4.559  13.080  0.2375  0.2705  0.3389
    1TCq1    O614295   0.586   4.575  13.081  0.4348 -0.6238 -0.0099
    1TCq1    H114296   0.396   4.657  12.810 -0.8975  1.2817 -0.4397
    1TCq1    H214297   0.491   4.497  12.874 -1.7615  0.7076 -2.0211
    1TCq1    H314298   0.903   4.612  12.863 -0.8550 -0.9167  0.4543
    1TCq1    H414299   0.659   4.618  12.517  1.3303  2.7082 -0.0436
    2MPD2     C14300   1.157   4.701  12.444 -0.0545  0.4802  0.2681
    2MPD2    C114301   1.148   4.673  12.580 -0.7530  0.5001  0.2590
    2MPD2    C214302   1.264   4.676  12.656  0.6582  0.5772  0.8447
    2MPD2    C314303   1.384   4.713  12.594  0.2272  0.2184  0.0455
    2MPD2    C414304   1.391   0.007  12.462 -0.0394  0.4034 -0.3436
    2MPD2    C514305   1.278   0.006  12.382 -0.1030 -0.2998  0.0806
    2MPD2     H14306   1.257   4.666  12.764 -1.1581 -0.0517  0.6725
    2MPD2    H114307   1.486   0.025  12.415  1.0937  2.2186  2.6493
    2MPD2    H214308   1.074   4.692  12.375  0.7087 -1.5615 -0.3944
    2MPD2    H314309   1.291   0.024  12.276 -1.0419 -1.2650 -0.2035
    2MPD2     N14310   1.497   4.722  12.679 -0.4356  0.8210 -0.5144
    2MPD2    H514311   1.475   4.700  12.776  0.6298  0.6299 -0.3222
    2MPD2    N114312   1.024   4.638  12.642 -0.3933 -0.3447 -0.5981
    2MPD2    H714313   1.034   4.595  12.734 -0.3162  1.4002  0.2111
    3TCq1    O114314   2.117   4.701  12.775 -0.4506 -0.4179  0.3180
    3TCq1    C114315   2.058   0.097  12.766  0.0645  0.4418 -0.4537
    3TCq1    O214316   2.093   0.178  12.682 -0.2705 -0.3906  0.5883
    3TCq1    C214317   1.929   0.078  12.828 -0.2769  0.4561  0.0042
    3TCq1    C314318   1.914   4.723  12.939  0.5005 -0.2635  0.1917
    3TCq1    C414319   1.790   4.668  12.956 -0.7937  1.1462  0.4542
    3TCq1    C514320   1.684   4.687  12.870 -0.6840 -0.3386  0.5036
    3TCq1    C614321   1.702   0.048  12.768 -0.0212 -0.0567  0.2295
    3TCq1    C714322   1.825   0.103  12.743  0.0869  0.3938 -0.5237
    3TCq1    C814323   1.616   0.054  12.654  0.0392 -0.2219  0.0432
    3TCq1    O414324   1.658   0.109  12.552 -0.2337 -0.1574  0.1127
    3TCq1    C914325   1.758   4.587  13.077  0.0810 -0.4237  1.2309
    3TCq1    O514326   1.853   4.548  13.153 -0.4042 -0.3039 -0.5979
    3TCq1    O614327   1.630   4.574  13.098  0.2501  0.1081 -0.1001
    3TCq1    H114328   2.076   4.644  12.843  0.3348 -2.2821 -0.7933
    3TCq1    H214329   1.984   4.703  13.019 -0.9545 -1.2124  1.2173
    3TCq1    H314330   1.597   4.625  12.889  0.5399 -1.8119  1.3252
    3TCq1    H414331   1.849   0.158  12.652 -2.5015 -0.1466 -1.5358
    1MPD2     C14332   4.601   0.658  15.066 -0.1688  0.7979  0.3606
    1MPD2    C114333   4.608   0.572  14.956  0.0810  0.1118 -0.2025
    1MPD2    C214334   4.711   0.476  14.946 -0.3688 -0.1537  0.3950
    1MPD2    C314335   0.102   0.484  15.020  0.0843 -0.4701  0.0976
    1MPD2    C414336   0.091   0.570  15.129  0.3705  0.0250  0.0230
    1MPD2    C514337   4.709   0.654  15.151  0.1032  0.2176 -0.5708
    1MPD2     H14338   4.708   0.406  14.863 -0.9945 -1.7675  1.7686
    1MPD2    H114339   0.178   0.581  15.192  1.2062 -0.8472 -0.9830
    1MPD2    H214340   4.517   0.722  15.088 -0.3620  0.4094  0.7678
    1MPD2    H314341   4.715   0.722  15.235  0.0279 -0.8151  0.2688
    1MPD2     N14342   0.213   0.392  15.017 -0.2572  0.9152  0.4707
    1MPD2    H514343   0.284   0.406  15.088  0.7237 -0.2554 -0.2916
    1MPD2    N114344   4.495   0.572  14.868 -0.2859 -0.4693 -0.2036
    1MPD2    H714345   4.420   0.637  14.890 -0.3448 -1.7844  3.4661
    2TMC3    C114346   4.339   0.502  14.703 -0.0467  0.2876 -0.6420
    2TMC3    C214347   4.296   0.369  14.708  0.2944 -0.0448  0.4820
    2TMC3    C314348   4.255   0.299  14.596 -0.0170 -0.2791 -0.3578
    2TMC3    C414349   4.339   0.549  14.578  0.7144 -0.8475  0.2389
    2TMC3    C514350   4.281   0.487  14.471 -0.1095 -0.3843  1.1758
    2TMC3    C614351   4.247   0.355  14.474 -0.0913 -0.6002  0.2243
    2TMC3     C14352   4.469   0.490  14.759 -0.1309  0.2678 -0.3234
    2TMC3     O14353   4.538   0.402  14.712 -0.3050  0.2395 -0.5242
    2TMC3     H14354   4.316   0.311  14.797 -1.6691  0.7276  1.4277
    2TMC3    H114355   4.376   0.651  14.571  0.7749 -0.7969  1.2196
    2TMC3    H214356   4.206   0.312  14.384 -0.0857  0.8282 -0.4565
    2TMC3    C714357   4.288   0.556  14.344 -0.6614 -0.2671 -0.4792
    2TMC3    C814358   4.311   0.168  14.586  0.2240 -0.2525 -0.1546
    2TMC3    O114359   4.212   0.533  14.254  1.2271 -0.0591 -0.1745
    2TMC3    O214360   4.253   0.096  14.505 -0.5685 -0.0336 -0.2147
    3TCq1    O114361   0.532   1.133  13.926 -0.4682  0.1884 -0.3608
    3TCq1    C114362   0.444   1.227  13.965  0.3174  0.1177  0.4263
    3TCq1    O214363   0.389   1.310  13.893 -0.2335 -0.2493  0.1221
    3TCq1    C214364   0.385   1.182  14.091  0.5482  0.4298  0.1073
    3TCq1    C314365   0.463   1.091  14.152 -0.4543  0.1327  0.1518
    3TCq1    C414366   0.406   0.999  14.234  0.4558 -1.0302  0.4478
    3TCq1    C514367   0.277   0.971  14.215 -0.2826  0.5702 -0.5700
    3TCq1    C614368   0.199   1.052  14.138 -0.1891 -0.0297 -0.0204
    3TCq1    C714369   0.251   1.162  14.080 -0.2718 -0.2152 -0.8479
    3TCq1    C814370   0.070   1.010  14.083 -0.0204 -1.0915 -0.2018
    3TCq1    O414371   0.024   1.072  13.987 -0.7447  0.1026 -0.6187
    3TCq1    C914372   0.488   0.910  14.313 -0.0061 -0.2303 -0.4301
    3TCq1    O514373   0.430   0.843  14.401 -0.6525 -0.6021  0.0808
    3TCq1    O614374   0.615   0.928  14.307  0.0955  0.1362 -0.0524
    3TCq1    H114375   0.520   1.041  13.957  0.8763 -0.0253 -0.4561
    3TCq1    H214376   0.569   1.115  14.161 -0.8695  2.0668 -0.0600
    3TCq1    H314377   0.246   0.877  14.260  2.5212 -0.0422  0.0723
    3TCq1    H414378   0.192   1.216  14.007 -0.0959  3.6089  1.7829
    4MPD2     C14379   4.520   0.900  14.047  0.2493  0.2438 -0.4116
    4MPD2    C114380   4.607   0.855  14.147  0.0845 -0.4241 -0.1038
    4MPD2    C214381   4.566   0.773  14.245 -0.4889 -0.0583 -0.9091
    4MPD2    C314382   4.438   0.713  14.233  0.2159 -0.5669 -0.8606
    4MPD2    C414383   4.351   0.750  14.128  0.1964 -0.6010  0.1825
    4MPD2    C514384   4.396   0.843  14.038 -0.2578  0.0043 -0.5001
    4MPD2     H14385   4.625   0.743  14.330 -2.2202 -0.2992  0.1966
    4MPD2    H114386   4.268   0.686  14.099  0.2994 -0.4670 -0.3948
    4MPD2    H214387   4.547   0.966  13.965  1.0155  1.5702  0.9182
    4MPD2    H314388   4.331   0.878  13.959  0.3262 -0.3820 -1.1463
    4MPD2     N14389   4.402   0.630  14.339 -0.0974 -0.1397 -0.0276
    4MPD2    H514390   4.470   0.609  14.412  0.7341  2.6620 -0.0074
    4MPD2    N114391   0.012   0.907  14.158  0.0938 -0.5784  0.6032
    4MPD2    H714392   0.063   0.878  14.242  0.3926 -1.4972  0.1062
    5TMC2    C114393   0.327   4.693  14.876 -0.7522  0.0838 -0.4117
    5TMC2    C214394   0.340   4.655  15.009  0.6074  0.1703  0.0869
    5TMC2    C314395   0.338   0.028  15.107  0.4210 -0.4191  0.0535
    5TMC2    C414396   0.317   0.101  14.846  0.1910 -0.1683  0.2686
    5TMC2    C514397   0.322   0.197  14.951  0.0405 -0.0815  0.8155
    5TMC2    C614398   0.339   0.161  15.079  0.8143  0.3918 -0.6151
    5TMC2     C14399   0.232   4.619  14.797 -1.4953 -0.1441  0.1486
    5TMC2     O14400   0.257   4.510  14.749 -0.3239 -0.0461 -0.3701
    5TMC2     H14401   0.342   4.549  15.032 -0.0002 -0.2409 -1.7506
    5TMC2    H114402   0.308   0.117  14.739  2.6063 -1.5343 -0.1288
    5TMC2    H214403   0.321   0.229  15.161  3.2489 -0.6887  0.8031
    5TMC2    C714404   0.218   0.290  14.933 -0.0126  0.3075 -0.6633
    5TMC2    C814405   0.370   4.714  15.242  0.8580 -0.3206  0.2699
    5TMC2    O114406   0.143   0.252  14.847 -0.1892 -0.4752  0.0999
    5TMC2    O214407   0.332   4.603  15.276  0.2860  0.2038  0.0228
    5TMC2    O514408   0.440   0.079  15.313 -0.6347  0.0412 -0.0199
    5TMC2    H514409   0.467   0.154  15.255 -0.1692 -0.7119 -0.7792
    6MPD2     C14410   4.512   4.662  14.560  0.2302  0.7531 -0.3271
    6MPD2    C114411   4.525   0.048  14.639  0.5085  0.1065 -0.3651
    6MPD2    C214412   4.638   0.052  14.715 -0.6747 -0.3670 -0.2560
    6MPD2    C314413   0.013   4.682  14.707  0.3451  0.1055 -0.9339
    6MPD2    C414414   4.721   4.577  14.625  0.4988  0.2412 -0.2094
    6MPD2    C514415   4.606   4.563  14.555  0.4391 -0.2436 -0.0444
    6MPD2     H14416   4.658   0.139  14.775  0.9687 -0.8838 -0.0493
    6MPD2    H114417   0.068   4.496  14.620  1.0273  0.7168 -0.3251
    6MPD2    H214418   4.423   4.648  14.500  0.2515  0.1915 -0.2337
    6MPD2    H314419   4.602   4.485  14.479  1.0184  0.8109 -1.1636
    6MPD2     N14420   0.124   4.700  14.786 -0.0180  0.5005  0.4556
    6MPD2    H514421   0.139   0.066  14.831  2.6209 -1.0571  2.7136
    6MPD2    N114422   4.438   0.158  14.640 -0.3514 -0.2682  0.4351
    6MPD2    H714423   4.478   0.239  14.687 -0.8484 -0.2650  0.8532
  945NH3     N114424   2.911   0.369   1.777 -0.7273 -0.2962  0.4040
  945NH3     H214425   2.957   0.291   1.732 -1.6072 -1.6560  1.8793
  945NH3     H314426   2.830   0.377   1.717  0.3609  2.0755 -0.7876
  945NH3     H414427   2.868   0.326   1.858 -0.7026  1.5437  1.3960
  946SOD     NA14428   2.657   4.221   0.062  0.2578  0.1308 -0.1362
  947SOD     NA14429   2.120   1.111  15.335 -0.3299  0.2076 -0.0889
  948SOD     NA14430   3.080   0.552   1.829 -0.0919  0.5153 -0.5085
  949SOD     NA14431   0.210   4.256  10.194  0.0723 -0.1251 -0.1178
  950SOD     NA14432   1.901   2.058  16.552  0.2043 -0.1665  0.4896
  951SOD     NA14433   2.249   2.166   0.830 -0.2196 -0.1242  0.1635
  952SOD     NA14434   2.966   0.970  12.566 -0.2713 -0.4360  0.2263
  953SOD     NA14435   3.477   3.222   1.086  0.3569 -0.3266 -0.2170
  954SOD     NA14436   3.794   4.259  12.438  0.0623 -0.3647 -0.0007
  955SOD     NA14437   3.176   4.722  11.725  0.2328 -0.4198 -0.1136
  956SOD     NA14438   0.213   4.581  10.122  0.0989  0.7735 -0.2566
  957SOD     NA14439   3.196   2.197  10.939 -0.4282 -0.1815 -0.0987
  958SOD     NA14440   0.384   2.472   6.913 -0.6736  0.4601 -0.2959
  959SOD     NA14441   2.099   1.126  13.578  0.3551  0.2791 -0.3697
  960SOD     NA14442   3.622   0.385  16.112 -0.3344 -0.0721 -0.1419
  961SOD     NA14443   3.202   1.074   3.653 -0.0061  0.2563 -0.2484
  962SOD     NA14444   1.470   0.428  11.900  0.4497 -0.3779  0.5957
  963SOD     NA14445   0.616   1.095   9.270  0.2774 -0.3796  0.2549
  964SOD     NA14446   1.143   0.642  11.918 -0.4375 -0.1579  0.3541
  965SOD     NA14447   4.628   4.385  10.661 -0.1390 -0.4313  0.2941
  966SOD     NA14448   2.046   4.153  14.674  0.0323  0.2546 -0.3919
  967SOD     NA14449   3.003   0.421   0.196 -0.1600 -0.8857 -0.3199
  968SOD     NA14450   3.566   2.223   1.911  0.5052 -0.0517  0.1113
  969SOD     NA14451   4.458   0.319  10.326 -0.2755  0.1483  0.2023
  970SOD     NA14452   1.979   3.099   3.456 -0.1706  0.4011 -0.7440
  971SOD     NA14453   1.745   0.511  12.041  0.1778 -0.1194 -0.6453
  972SOD     NA14454   4.516   2.441   0.510 -0.1948 -0.3815 -0.6881
  973SOD     NA14455   4.713   4.028  10.119 -0.5984  0.4364 -0.0765
  974SOD     NA14456   2.101   4.105  12.997  0.4760 -0.5867 -0.0992
  975SOD     NA14457   0.594   0.424  10.236  0.3073 -0.4627 -0.0239
  976SOD     NA14458   3.346   3.531  14.486 -0.2955  0.1636  0.3330
  977SOD     NA14459   0.372   2.598   6.492  0.1192 -0.5019  0.1148
  978SOD     NA14460   0.077   3.212   1.316  0.0286  0.3530 -0.0323
  979SOD     NA14461   1.475   4.688  13.182  0.1626 -0.5321 -0.0753
  980SOD     NA14462   0.663   0.870  14.516  0.2078  0.0064  0.6587
  981SOD     NA14463   3.182   3.451   1.957 -0.2409 -0.1320  0.5055
  982SOD     NA14464   3.515   4.339   1.212  0.3130  0.0730  0.2398
  983SOD     NA14465   4.224   0.801   1.232  0.5625  0.3924  0.4107
  984SOD     NA14466   4.689   4.206  10.376 -0.4647  0.1033 -0.0200
  985SOD     NA14467   0.234   3.555  15.412 -0.0631 -0.3659 -0.2932
  986SOD     NA14468   0.346   0.981  10.223 -0.0386 -0.6103  0.3709
  987SOD     NA14469   2.935   2.312  15.659  0.0608  0.0896 -0.2881
  988SOD     NA14470   1.043   3.104   2.127 -0.0375 -0.0660  0.0449
  989SOD     NA14471   2.187   0.101  15.818 -0.0023 -0.0232  0.3042
  990SOD     NA14472   3.455   0.356   8.169 -0.8611  0.5031 -0.3171
  991SOD     NA14473   1.176   0.587   1.358 -0.1449  0.0286 -0.1812
  992SOD     NA14474   3.083   1.653  14.170 -0.1519  0.3455 -0.3438
  993SOD     NA14475   3.518   4.023  12.757 -0.3296 -0.0897 -0.1249
  994SOD     NA14476   1.286   4.472  11.881 -0.3594  0.0356 -0.2979
  995SOD     NA14477   0.859   0.593  14.096 -0.0396 -0.3951  0.5555
  996SOD     NA14478   2.927   3.302   9.530 -0.1723 -0.6248 -0.2250
  997SOD     NA14479   1.442   0.660   1.615  0.0176  0.0567 -0.2759
  998SOD     NA14480   1.700   2.996  16.431  0.5856  0.3433  0.4565
  999SOD     NA14481   3.866   2.985   8.201  0.5202 -0.0812  0.5750
 1000SOD     NA14482   1.590   2.465  17.104  0.4837 -0.4189  0.0009
 1001SOD     NA14483   4.067   3.335  13.151 -0.2649  0.1505 -0.2321
 1002SOD     NA14484   2.144   1.277  13.831  0.5753 -0.2388  0.1219
 1003SOD     NA14485   1.740   1.771  11.966 -0.1372  0.0798 -0.1200
 1004SOD     NA14486   0.754   2.679  12.359  0.4868  0.0350  0.2497
 1005SOD     NA14487   4.342   3.178  14.756  0.2295 -0.1901  0.0240
 1006SOD     NA14488   0.893   0.903   5.692 -0.3461  0.7452 -0.1607
 1007SOD     NA14489   4.642   3.783   3.693 -0.1867  0.3970  0.1591
 1008SOD     NA14490   4.687   1.348  13.702 -0.0554  0.3212  0.2606
 1009SOD     NA14491   3.976   0.467  17.614  0.0714 -0.2304 -0.3392
 1010SOD     NA14492   4.585   2.677   9.990  0.2252  0.1704  0.0389
 1011SOD     NA14493   1.086   4.191  11.888 -0.3734  0.4653 -0.5359
 1012SOL     OW14494   1.287   0.143  13.232  0.2123  0.1857 -0.4000
 1012SOL    HW114495   1.193   0.141  13.216  0.0202  1.3988  0.5304
 1012SOL    HW214496   1.309   0.221  13.180  1.8070 -0.3755 -0.5650
 1013SOL     OW14497   2.049   0.365   5.663  0.1258 -0.2058 -0.5513
 1013SOL    HW114498   2.067   0.441   5.718 -0.7240 -1.1091  0.9773
 1013SOL    HW214499   1.983   0.383   5.595 -0.4760 -2.8141 -0.6553
 1014SOL     OW14500   3.468   0.701   7.259  0.8015  0.4943  0.6887
 1014SOL    HW114501   3.401   0.763   7.287  0.6319  0.8841 -0.5722
 1014SOL    HW214502   3.468   0.725   7.166 -0.8963 -0.8504  0.3297
 1015SOL     OW14503   2.408   0.624   5.317  0.4347  0.2834  0.2826
 1015SOL    HW114504   2.455   0.689   5.369 -0.3445  0.4911  0.7266
 1015SOL    HW214505   2.475   0.556   5.311  0.1217 -0.0332  0.4193
 1016SOL     OW14506   3.132   3.662   5.231  0.0117 -0.7637 -0.0845
 1016SOL    HW114507   3.188   3.634   5.303  0.8795 -0.7477 -0.7515
 1016SOL    HW214508   3.142   3.580   5.183  1.2050  0.5446 -2.0652
 1017SOL     OW14509   1.332   0.480  13.732  0.1285  0.0767  0.3276
 1017SOL    HW114510   1.277   0.556  13.748  1.9971  1.3683  0.5662
 1017SOL    HW214511   1.353   0.461  13.823  0.8611 -0.0206  0.1391
 1018SOL     OW14512   3.511   1.043   7.358 -0.0367 -0.6802 -0.5836
 1018SOL    HW114513   3.485   1.113   7.299 -1.0394 -1.4161 -1.0107
 1018SOL    HW214514   3.458   0.975   7.316 -0.8649 -1.0732  1.0860
 1019SOL     OW14515   2.979   3.020   6.183 -0.3012  0.2745  0.6789
 1019SOL    HW114516   3.056   2.974   6.216 -0.3645  0.2743  0.8272
 1019SOL    HW214517   2.942   3.060   6.261 -0.7420  0.0959  0.5606
 1020SOL     OW14518   2.082   2.038   2.905 -0.4932  0.5376  0.1325
 1020SOL    HW114519   2.000   2.078   2.935  1.4500  2.6119  2.7074
 1020SOL    HW214520   2.095   2.078   2.819 -1.7990 -0.1213 -0.3746
 1021SOL     OW14521   0.169   0.158   1.554  0.2323 -0.1391  0.6417
 1021SOL    HW114522   0.247   0.213   1.561 -0.9813  1.7310 -0.6809
 1021SOL    HW214523   0.116   0.197   1.623 -0.3996  0.3336 -0.1167
 1022SOL     OW14524   0.588   1.184   4.455 -0.2793  0.1472 -0.2260
 1022SOL    HW114525   0.549   1.132   4.385  0.0547 -0.2059 -0.1529
 1022SOL    HW214526   0.534   1.262   4.459 -0.3769 -0.0388  2.2503
 1023SOL     OW14527   4.652   3.646   3.223  0.5136 -0.0560  0.5426
 1023SOL    HW114528   4.676   3.739   3.224  0.4588 -0.0165 -0.8448
 1023SOL    HW214529   0.014   3.614   3.198  0.1291 -1.2361  0.7592
 1024SOL     OW14530   3.557   1.597   4.746  0.3219  0.4493  0.1356
 1024SOL    HW114531   3.629   1.656   4.770  0.3575  1.1891 -1.7603
 1024SOL    HW214532   3.520   1.559   4.825  0.0463 -1.6863 -1.0319
 1025SOL     OW14533   4.572   4.442  10.867 -0.4324  0.1087  0.2415
 1025SOL    HW114534   4.494   4.474  10.911 -1.5007  0.5729 -1.9807
 1025SOL    HW214535   4.624   4.405  10.939  0.0457 -0.0874 -0.2008
 1026SOL     OW14536   0.064   2.144   5.479  0.4058  0.0949  0.1568
 1026SOL    HW114537   0.002   2.180   5.544  0.3540 -1.9214  1.2282
 1026SOL    HW214538   0.027   2.176   5.397 -0.9241 -1.7890  0.0215
 1027SOL     OW14539   0.503   3.467   5.478 -0.7088  0.0688  0.3666
 1027SOL    HW114540   0.500   3.400   5.409  0.5837 -0.3182  0.6871
 1027SOL    HW214541   0.577   3.434   5.529 -0.1411 -0.6099 -0.9025
 1028SOL     OW14542   3.563   1.096  12.709 -0.5280  0.1072  0.9800
 1028SOL    HW114543   3.560   1.010  12.751 -1.5205  0.1473  1.0050
 1028SOL    HW214544   3.653   1.124  12.694 -0.4999 -0.3524  0.3367
 1029SOL     OW14545   1.915   0.417   2.109 -0.5367  0.9166  0.2650
 1029SOL    HW114546   1.958   0.501   2.123  2.1707 -0.3341 -0.5860
 1029SOL    HW214547   1.823   0.420   2.136 -1.3965 -0.6123 -2.4959
 1030SOL     OW14548   3.461   2.577  10.993  0.4608 -0.2358 -0.1623
 1030SOL    HW114549   3.521   2.648  10.972 -1.3083  1.0637 -0.8737
 1030SOL    HW214550   3.408   2.609  11.066 -1.0676  0.2665 -1.4743
 1031SOL     OW14551   4.083   2.688   5.081  0.3062 -0.2183  0.0587
 1031SOL    HW114552   4.167   2.648   5.107  1.9772  2.2975 -1.4654
 1031SOL    HW214553   4.114   2.770   5.043 -1.6621  0.1670 -0.7059
 1032SOL     OW14554   4.185   1.958   2.738 -0.1119 -0.7725  0.3662
 1032SOL    HW114555   4.114   1.924   2.684  0.2533  0.4961 -0.9192
 1032SOL    HW214556   4.149   2.022   2.800  0.1284 -0.1292 -0.1514
 1033SOL     OW14557   2.946   2.604  10.778 -0.0294  0.1916  0.0720
 1033SOL    HW114558   2.996   2.662  10.720 -2.0284  1.2913 -0.5415
 1033SOL    HW214559   2.859   2.641  10.763  0.5468  0.5825 -2.2281
 1034SOL     OW14560   2.572   4.205   4.674 -0.5508 -0.2151  0.4562
 1034SOL    HW114561   2.605   4.287   4.639  0.6693 -0.8696  0.0893
 1034SOL    HW214562   2.541   4.231   4.761 -0.7503  0.6712  0.1194
 1035SOL     OW14563   1.904   2.213  10.162  0.1589 -0.2057  0.4861
 1035SOL    HW114564   1.974   2.241  10.104 -0.9472  1.0973 -0.2247
 1035SOL    HW214565   1.851   2.293  10.157 -0.2897 -0.4449  1.3891
 1036SOL     OW14566   2.902   1.617   2.809  0.0360 -0.7067 -0.0149
 1036SOL    HW114567   2.816   1.620   2.766  0.3531  0.4927 -0.5504
 1036SOL    HW214568   2.953   1.646   2.734  0.0969  1.2047  0.7678
 1037SOL     OW14569   2.387   0.228  10.152 -0.3442 -0.3159  0.1256
 1037SOL    HW114570   2.458   0.165  10.148  1.0671  1.2627  0.3509
 1037SOL    HW214571   2.383   0.246  10.246  1.2810  0.4343  0.0441
 1038SOL     OW14572   3.797   2.339   4.621  0.2422 -0.2198 -0.2060
 1038SOL    HW114573   3.731   2.406   4.603  0.5906  0.7448  2.1116
 1038SOL    HW214574   3.865   2.354   4.555  2.2880 -2.7493  1.3174
 1039SOL     OW14575   1.506   0.077   2.671 -0.4305 -0.1387  0.0747
 1039SOL    HW114576   1.521   4.720   2.719  0.0411 -0.2880 -0.3122
 1039SOL    HW214577   1.413   0.089   2.688 -0.0069 -1.2336  3.2044
 1040SOL     OW14578   2.801   1.018   4.811 -0.5766  0.0648  0.2189
 1040SOL    HW114579   2.869   0.952   4.820  0.4006  1.0911  0.4029
 1040SOL    HW214580   2.752   0.997   4.891  2.4192  2.2682  2.6274
 1041SOL     OW14581   2.586   0.062   8.692  0.3042 -0.0865  0.3981
 1041SOL    HW114582   2.527   0.028   8.759  1.3098  1.1527  1.9026
 1041SOL    HW214583   2.589   0.154   8.716 -1.3637  0.3429 -1.0846
 1042SOL     OW14584   3.425   0.970   4.568 -0.0272 -0.0952 -0.2233
 1042SOL    HW114585   3.365   0.922   4.511  1.0122 -1.2565 -0.3481
 1042SOL    HW214586   3.398   0.951   4.658  0.3316  1.4630  0.2020
 1043SOL     OW14587   2.515   2.045   5.789  0.6407 -0.2024 -0.1312
 1043SOL    HW114588   2.577   1.993   5.737  0.6713  2.5453 -2.8287
 1043SOL    HW214589   2.512   1.991   5.867  0.1589 -0.2434 -0.1796
 1044SOL     OW14590   0.065   2.795   5.666  0.0848 -0.0886 -0.1298
 1044SOL    HW114591   0.142   2.830   5.621  0.2653 -0.6300 -0.2422
 1044SOL    HW214592   0.067   2.701   5.649 -2.8844 -0.2749  0.6551
 1045SOL     OW14593   2.274   3.705   2.476  0.3435 -0.0923  0.4296
 1045SOL    HW114594   2.362   3.699   2.438 -0.0518 -2.3305 -0.0969
 1045SOL    HW214595   2.233   3.701   2.389 -0.6841 -2.0916  1.0125
 1046SOL     OW14596   3.204   0.696  17.169  0.1589  0.0364 -0.4380
 1046SOL    HW114597   3.165   0.767  17.221  0.4840 -1.0813  1.3464
 1046SOL    HW214598   3.265   0.657  17.232 -0.3198  2.2624  1.4190
 1047SOL     OW14599   3.524   3.560   8.140  0.0502  0.4130 -0.8826
 1047SOL    HW114600   3.499   3.548   8.232 -2.4062 -0.5308 -1.6583
 1047SOL    HW214601   3.550   3.652   8.140 -1.4492  0.8498  0.1355
 1048SOL     OW14602   1.524   4.602   1.843 -0.4214  0.4979 -0.2930
 1048SOL    HW114603   1.501   4.533   1.780 -1.6632  0.1402  0.5711
 1048SOL    HW214604   1.617   4.604   1.817 -0.3705  1.9090  0.0300
 1049SOL     OW14605   4.187   2.827   7.628  0.2360 -0.1684  0.7841
 1049SOL    HW114606   4.213   2.911   7.666  1.8279  0.2434 -1.1841
 1049SOL    HW214607   4.179   2.776   7.709  1.1746 -1.7450 -0.1281
 1050SOL     OW14608   0.214   1.882   1.770 -0.0235  0.4652 -0.1354
 1050SOL    HW114609   0.270   1.807   1.788  0.9432  0.9626 -1.1148
 1050SOL    HW214610   0.234   1.932   1.849  0.7585  1.5572 -1.0219
 1051SOL     OW14611   0.871   3.165   7.356 -0.1218 -0.1602 -0.0931
 1051SOL    HW114612   0.946   3.201   7.402 -0.8808 -1.1493  1.9217
 1051SOL    HW214613   0.881   3.073   7.377  2.0444  0.2920  0.8530
 1052SOL     OW14614   4.430   0.307   3.001 -0.0348 -0.5085 -0.2441
 1052SOL    HW114615   4.447   0.400   2.989 -1.4167 -0.2256 -0.1029
 1052SOL    HW214616   4.456   0.268   2.917 -0.4622 -0.7424 -0.2732
 1053SOL     OW14617   1.413   3.264  16.849  0.4924  0.4766  0.2469
 1053SOL    HW114618   1.446   3.248  16.938  1.6540 -0.5621 -0.3787
 1053SOL    HW214619   1.368   3.179  16.842  0.9931  0.2407 -0.1420
 1054SOL     OW14620   1.661   4.228   8.598  0.5978 -0.2631 -0.0679
 1054SOL    HW114621   1.752   4.258   8.593  1.0622 -1.3287  1.9673
 1054SOL    HW214622   1.633   4.312   8.635  3.0177  1.3458 -1.8470
 1055SOL     OW14623   4.124   3.544   5.430 -0.1635  0.2500  0.0005
 1055SOL    HW114624   4.131   3.483   5.356  0.8213  2.0364 -1.3944
 1055SOL    HW214625   4.202   3.520   5.480 -1.8177 -1.0088  1.9845
 1056SOL     OW14626   3.733   0.025  12.063  0.9837  0.4726 -0.4571
 1056SOL    HW114627   3.699   4.665  12.033  3.1708 -1.4731  2.5671
 1056SOL    HW214628   3.690   0.030  12.148 -0.7565  0.3596 -1.3370
 1057SOL     OW14629   1.291   2.518   2.904  0.0148  0.3632  0.0251
 1057SOL    HW114630   1.205   2.516   2.862 -1.2998 -0.7407  2.7196
 1057SOL    HW214631   1.269   2.496   2.995  0.3282 -2.2784 -0.5486
 1058SOL     OW14632   0.776   0.429   5.965  0.0282  0.1372  0.1213
 1058SOL    HW114633   0.726   0.509   5.976  0.9815  0.8568 -0.7892
 1058SOL    HW214634   0.712   0.359   5.956  1.5271 -1.1885 -0.2880
 1059SOL     OW14635   3.718   2.938   6.209 -0.0682  0.3486  0.0144
 1059SOL    HW114636   3.668   2.962   6.131 -0.4453  1.4294  0.5938
 1059SOL    HW214637   3.746   3.024   6.239 -0.3982 -0.0620  1.4706
 1060SOL     OW14638   1.224   1.598   5.204 -0.2297  0.1321 -0.3761
 1060SOL    HW114639   1.192   1.562   5.286 -0.3718 -2.4902 -1.5939
 1060SOL    HW214640   1.182   1.683   5.215 -1.0968  0.1219 -3.5330
 1061SOL     OW14641   3.676   0.620   6.793  0.1896 -0.5207  0.2417
 1061SOL    HW114642   3.659   0.701   6.745  2.4869  1.0890  2.1404
 1061SOL    HW214643   3.691   0.549   6.731 -0.9676 -1.1792  0.7080
 1062SOL     OW14644   3.948   3.599   4.091 -0.2227  0.1711 -0.3394
 1062SOL    HW114645   3.952   3.673   4.152 -0.3032  1.2270 -1.6233
 1062SOL    HW214646   3.928   3.644   4.009  2.4411 -0.0815 -1.1183
 1063SOL     OW14647   3.240   3.588   5.466  0.1310 -0.4355  0.2313
 1063SOL    HW114648   3.286   3.509   5.494  0.4022 -0.5489 -0.5391
 1063SOL    HW214649   3.315   3.642   5.440 -0.6917  0.9363  0.7125
 1064SOL     OW14650   2.494   3.791  11.773  0.6839 -0.2997 -0.9505
 1064SOL    HW114651   2.557   3.727  11.806  0.7780 -1.0256 -2.5557
 1064SOL    HW214652   2.446   3.815  11.852  2.4000 -0.1650  0.0517
 1065SOL     OW14653   1.139   4.711   8.532 -0.3500  0.7310  0.2585
 1065SOL    HW114654   1.149   0.013   8.624  1.2134  1.8028 -0.2344
 1065SOL    HW214655   1.047   0.008   8.514 -0.9811 -2.7441 -0.7956
 1066SOL     OW14656   1.715   0.348   6.469  0.4815  0.4134  0.0702
 1066SOL    HW114657   1.698   0.361   6.376 -1.1716 -1.8187  0.0585
 1066SOL    HW214658   1.709   0.440   6.495  3.1726  0.3407  0.9347
 1067SOL     OW14659   0.687   1.183  14.958  0.1523 -0.2387 -0.1229
 1067SOL    HW114660   0.664   1.215  14.871 -0.3661  2.7196  1.1125
 1067SOL    HW214661   0.646   1.097  14.957 -0.4650  0.0705 -1.2702
 1068SOL     OW14662   4.259   2.517   3.943  0.2439  0.1251 -0.6152
 1068SOL    HW114663   4.193   2.549   3.882 -0.9108  0.6979  0.9512
 1068SOL    HW214664   4.327   2.474   3.890  1.9301  1.7715  0.2055
 1069SOL     OW14665   2.366   0.240  15.781  0.0657 -0.4094 -0.0539
 1069SOL    HW114666   2.447   0.291  15.778 -1.6663  2.3450 -0.6799
 1069SOL    HW214667   2.312   0.264  15.705 -0.9559  1.9678  1.4128
 1070SOL     OW14668   0.647   0.002   2.889  0.0392 -0.2269  0.4372
 1070SOL    HW114669   0.678   4.655   2.945  0.8972  0.9174  1.4380
 1070SOL    HW214670   0.553   4.719   2.909 -0.1245  1.0407  0.1691
 1071SOL     OW14671   0.862   3.742   7.354  0.5659  0.3343  0.6638
 1071SOL    HW114672   0.867   3.712   7.263 -1.0082 -0.1343  0.7242
 1071SOL    HW214673   0.930   3.680   7.379  1.3085  0.3642 -1.2668
 1072SOL     OW14674   1.032   0.314   5.997 -0.1664  0.3168  0.2456
 1072SOL    HW114675   1.039   0.309   5.902  1.2831 -1.6054  0.4603
 1072SOL    HW214676   0.961   0.377   6.013  0.9081  1.0256  2.2306
 1073SOL     OW14677   1.805   1.388  14.023 -0.0432 -0.1670 -0.3284
 1073SOL    HW114678   1.898   1.409  14.017 -0.6304  1.8475 -2.1524
 1073SOL    HW214679   1.772   1.453  13.961  0.8422 -1.1221 -1.7869
 1074SOL     OW14680   1.566   0.965   0.791 -0.0507  0.7094 -0.3609
 1074SOL    HW114681   1.644   0.985   0.738  2.3318 -1.5960  2.2337
 1074SOL    HW214682   1.543   1.054   0.814 -0.4449  0.3081  0.7910
 1075SOL     OW14683   0.677   0.097  17.682  0.7275  0.0862 -0.0654
 1075SOL    HW114684   0.724   0.141   0.053 -1.3457  2.1494  0.0454
 1075SOL    HW214685   0.683   0.160  17.610 -0.4259 -1.4800 -1.5357
 1076SOL     OW14686   3.842   2.943   0.055  0.3530 -0.0195  0.4150
 1076SOL    HW114687   3.763   2.929   0.002  0.9404 -0.8903 -0.2243
 1076SOL    HW214688   3.801   3.005   0.117 -0.2799  0.6475 -0.6670
 1077SOL     OW14689   4.044   0.257   4.991  0.5523  0.3111  0.4609
 1077SOL    HW114690   3.993   0.267   4.911 -1.5188 -0.2745  1.6898
 1077SOL    HW214691   4.061   0.163   5.002 -0.4459  0.1177  0.3978
 1078SOL     OW14692   2.176   0.068   1.521  0.5126 -0.3078 -0.0537
 1078SOL    HW114693   2.153   0.052   1.612  0.5473  0.4348  0.0851
 1078SOL    HW214694   2.159   4.709   1.477 -0.4424  1.1388 -2.4369
 1079SOL     OW14695   4.555   1.030   5.699  0.1004 -0.2266  0.1105
 1079SOL    HW114696   4.647   1.010   5.682  0.0945 -0.5260  0.4216
 1079SOL    HW214697   4.564   1.100   5.763 -1.1028  1.4689 -1.5828
 1080SOL     OW14698   2.886   2.276   6.281 -0.1648 -0.0495 -0.1827
 1080SOL    HW114699   2.932   2.296   6.363 -0.7382  1.7605 -0.2966
 1080SOL    HW214700   2.798   2.254   6.311  1.0106 -3.0225  1.0279
 1081SOL     OW14701   4.050   3.316  11.213 -0.2014 -0.0517  0.1467
 1081SOL    HW114702   4.016   3.254  11.148  0.1353 -1.0083  0.8775
 1081SOL    HW214703   3.989   3.388  11.195 -1.7888 -0.8251  2.3929
 1082SOL     OW14704   2.877   4.588   5.727 -0.3122  0.4562 -0.3211
 1082SOL    HW114705   2.870   4.523   5.797 -0.8780 -1.2786 -2.0010
 1082SOL    HW214706   2.788   4.623   5.724 -0.4925  0.2119  2.2133
 1083SOL     OW14707   4.634   0.953   3.945  0.1006  0.3430  0.1089
 1083SOL    HW114708   4.674   0.988   3.865  1.6081 -0.1716  0.6165
 1083SOL    HW214709   4.604   0.877   3.894 -0.8114  2.3589 -2.3402
 1084SOL     OW14710   0.729   2.375   3.240 -0.6897 -0.2975  0.0765
 1084SOL    HW114711   0.669   2.399   3.169 -3.4399 -2.3078  1.6927
 1084SOL    HW214712   0.791   2.319   3.193  0.0157  0.3884  0.1993
 1085SOL     OW14713   0.440   4.008   1.770  1.2103  0.3299  0.4832
 1085SOL    HW114714   0.355   3.983   1.732  0.2585  1.8828  1.5796
 1085SOL    HW214715   0.476   4.060   1.699  0.5646 -1.6982 -1.3295
 1086SOL     OW14716   0.546   0.318   5.758  0.4537 -0.1152 -0.0737
 1086SOL    HW114717   0.479   0.383   5.735 -0.6849 -0.6527  1.7158
 1086SOL    HW214718   0.626   0.351   5.717  0.4578  0.9405  0.7776
 1087SOL     OW14719   0.141   4.408   1.137 -0.1885 -0.0803 -0.4236
 1087SOL    HW114720   0.105   4.346   1.074  0.3715 -0.1548 -0.6680
 1087SOL    HW214721   0.169   4.476   1.075  0.9944 -0.6538 -0.5250
 1088SOL     OW14722   1.457   3.752   2.119 -0.0127  0.1531 -0.1114
 1088SOL    HW114723   1.521   3.823   2.129  0.8984 -0.9729  2.1359
 1088SOL    HW214724   1.509   3.672   2.123 -1.2057 -0.6768 -1.2047
 1089SOL     OW14725   1.167   4.136  16.198  0.4170  0.8161 -0.5701
 1089SOL    HW114726   1.121   4.061  16.236  2.2942 -0.2984 -0.4740
 1089SOL    HW214727   1.131   4.145  16.109  1.0637  1.8611 -0.7250
 1090SOL     OW14728   3.756   2.167   7.722 -0.1880  0.1215 -0.2291
 1090SOL    HW114729   3.681   2.211   7.681 -0.0196  0.4462 -0.1844
 1090SOL    HW214730   3.797   2.246   7.757 -1.5005  1.2889 -1.2821
 1091SOL     OW14731   1.940   3.028   1.812  0.2805  0.6332 -0.2285
 1091SOL    HW114732   1.935   3.057   1.721  2.5399 -1.5612 -1.0503
 1091SOL    HW214733   2.036   3.023   1.813  0.2312 -0.6557 -1.1321
 1092SOL     OW14734   3.615   2.155   6.971  0.0139  0.1915  0.3379
 1092SOL    HW114735   3.591   2.208   7.047 -0.1632 -1.3769  1.3744
 1092SOL    HW214736   3.669   2.221   6.928  1.7782 -0.1021  2.0926
 1093SOL     OW14737   2.202   0.555   5.174 -0.0877  0.6533  0.1204
 1093SOL    HW114738   2.279   0.585   5.223  1.1584  1.5687 -2.4191
 1093SOL    HW214739   2.247   0.490   5.120 -1.4323 -1.0329  1.0147
 1094SOL     OW14740   0.388   1.168  10.054  0.3042 -0.1429 -0.2488
 1094SOL    HW114741   0.434   1.143   9.974 -0.0478 -0.0426 -0.4838
 1094SOL    HW214742   0.456   1.223  10.094 -0.3464 -0.8287  1.8194
 1095SOL     OW14743   3.279   1.064   5.241  0.0214  0.6483  0.4457
 1095SOL    HW114744   3.269   1.012   5.161  1.3332  1.9691 -0.5715
 1095SOL    HW214745   3.361   1.104   5.213 -0.0793 -0.8274 -1.9337
 1096SOL     OW14746   4.523   3.297   4.188  0.3396 -0.7250 -0.2726
 1096SOL    HW114747   4.542   3.387   4.160  0.2215 -0.6153  0.0016
 1096SOL    HW214748   4.600   3.274   4.239  0.6437 -0.8568 -0.7957
 1097SOL     OW14749   0.083   0.505   6.982 -0.4492 -0.2365 -0.3489
 1097SOL    HW114750   4.720   0.539   6.967 -0.7557 -0.5605  0.7606
 1097SOL    HW214751   0.123   0.585   7.015  1.8028 -1.2574 -0.5491
 1098SOL     OW14752   0.974   4.162   7.672  0.2205  0.3184 -0.4609
 1098SOL    HW114753   0.915   4.091   7.645  2.0436 -1.1655 -0.5460
 1098SOL    HW214754   1.032   4.174   7.597 -0.2190  0.3633 -0.7941
 1099SOL     OW14755   0.443   0.500   6.350  0.9004 -0.1384 -0.6352
 1099SOL    HW114756   0.363   0.513   6.400  0.3437  0.4499 -1.6959
 1099SOL    HW214757   0.466   0.415   6.388 -1.8163 -0.3742  0.5047
 1100SOL     OW14758   4.549   3.555   8.289  0.7251  0.2449  0.0226
 1100SOL    HW114759   4.486   3.562   8.360  1.7293  1.2747  0.8204
 1100SOL    HW214760   4.568   3.462   8.307  1.7749  0.6198  0.8978
 1101SOL     OW14761   1.652   4.715  14.891 -0.6372 -0.4464 -0.0256
 1101SOL    HW114762   1.745   4.692  14.891 -0.6191 -0.3663 -2.0769
 1101SOL    HW214763   1.664   0.076  14.850  0.6974 -1.6972 -2.1972
 1102SOL     OW14764   3.870   1.194   6.990 -0.3786 -0.4409 -0.0680
 1102SOL    HW114765   3.800   1.133   6.967  0.7524 -1.4963 -0.7469
 1102SOL    HW214766   3.936   1.141   7.036  2.0392  2.7407  0.1249
 1103SOL     OW14767   3.147   2.480  13.074  0.4257 -0.1878 -0.2730
 1103SOL    HW114768   3.119   2.565  13.107 -1.2175 -1.1303  0.7699
 1103SOL    HW214769   3.223   2.509  13.023  0.8185  1.1519  1.1087
 1104SOL     OW14770   2.000   4.541   3.721 -0.1409  0.0334 -0.4319
 1104SOL    HW114771   2.060   4.603   3.762 -0.3198 -0.8378  1.1315
 1104SOL    HW214772   1.909   4.559   3.742  0.9007  1.2366  3.0086
 1105SOL     OW14773   2.074   3.574  13.813 -0.0161  0.1859 -0.4223
 1105SOL    HW114774   2.146   3.550  13.872  0.4477  0.0902 -1.0338
 1105SOL    HW214775   2.119   3.615  13.740 -1.0294  0.0996 -1.0931
 1106SOL     OW14776   2.825   4.630   3.450  0.1215 -0.1526 -0.0198
 1106SOL    HW114777   2.754   4.680   3.410  2.3630  1.3952 -2.0786
 1106SOL    HW214778   2.825   4.548   3.401  1.5131 -0.2069  0.0536
 1107SOL     OW14779   3.422   3.125  17.604 -0.1704 -0.5363 -0.6062
 1107SOL    HW114780   3.515   3.108  17.591 -0.2341 -0.3650 -1.3075
 1107SOL    HW214781   3.387   3.036  17.610  0.3832 -0.7453 -0.5023
 1108SOL     OW14782   3.426   3.434   4.659 -0.0566  0.1462  0.0409
 1108SOL    HW114783   3.454   3.523   4.682  0.2604 -0.0738  0.5168
 1108SOL    HW214784   3.448   3.431   4.566  3.5447  0.1708  0.8963
 1109SOL     OW14785   0.423   0.073   4.492 -0.0985 -0.0919  0.0318
 1109SOL    HW114786   0.331   0.048   4.496  0.0242 -0.4613  0.4727
 1109SOL    HW214787   0.429   0.082   4.397 -1.1749  2.0194  0.1638
 1110SOL     OW14788   3.928   3.206   8.141 -0.1661  0.0613  0.6191
 1110SOL    HW114789   3.980   3.244   8.071 -1.5033  1.9325  0.6494
 1110SOL    HW214790   3.917   3.291   8.184 -0.0310  0.1382  0.5000
 1111SOL     OW14791   0.407   3.224   7.811 -0.1780  0.3078 -0.0836
 1111SOL    HW114792   0.490   3.224   7.859  0.1114  1.3383 -0.5790
 1111SOL    HW214793   0.356   3.149   7.840 -0.8224  0.1606 -1.6117
 1112SOL     OW14794   4.274   1.778  13.132  0.1595  0.4756  0.0434
 1112SOL    HW114795   4.312   1.752  13.048  3.1336  0.2798  1.4174
 1112SOL    HW214796   4.349   1.831  13.161  0.6527 -1.5150  2.3593
 1113SOL     OW14797   0.842   2.314  11.879 -0.3339  0.1398 -0.0116
 1113SOL    HW114798   0.807   2.279  11.962  0.1262 -0.2248  0.0314
 1113SOL    HW214799   0.877   2.237  11.835  0.4924  1.3816 -1.5030
 1114SOL     OW14800   1.853   2.503   3.839 -0.2567  0.2188  0.3022
 1114SOL    HW114801   1.869   2.475   3.929 -0.7355 -0.0847  0.2931
 1114SOL    HW214802   1.860   2.423   3.788  1.5373  1.6202 -1.6912
 1115SOL     OW14803   2.010   0.081   7.578  0.0240 -0.4542  0.2461
 1115SOL    HW114804   2.063   0.143   7.527  0.1508  0.0798  1.0194
 1115SOL    HW214805   2.066   0.062   7.653  1.2316  1.7082 -0.0854
 1116SOL     OW14806   2.957   4.680   8.905  0.1747  0.1666  0.3682
 1116SOL    HW114807   3.020   0.014   8.862 -0.2047 -0.3902 -0.9567
 1116SOL    HW214808   2.970   4.597   8.859  4.2406  1.3896 -0.6498
 1117SOL     OW14809   1.923   2.270  11.955 -0.5307  0.7285 -0.1142
 1117SOL    HW114810   1.847   2.296  11.903 -1.0585  1.2578  0.9399
 1117SOL    HW214811   1.976   2.233  11.884  2.2655 -0.1587  2.4585
 1118SOL     OW14812   2.994   4.628   1.081  0.0429 -0.2103  0.2900
 1118SOL    HW114813   3.042   4.562   1.131  1.9001  1.0795  0.1791
 1118SOL    HW214814   3.029   4.611   0.994 -1.6061  1.7630 -0.7756
 1119SOL     OW14815   4.074   2.360   7.878  0.0130  0.5673  0.1487
 1119SOL    HW114816   4.086   2.270   7.848 -5.2998 -0.1673  0.3356
 1119SOL    HW214817   4.087   2.353   7.973  0.4964 -1.4935 -0.0695
 1120SOL     OW14818   0.714   3.589  10.355 -0.4727  0.0866 -0.2586
 1120SOL    HW114819   0.774   3.653  10.316 -0.9763  0.9868  0.4461
 1120SOL    HW214820   0.654   3.650  10.397  1.6584  1.2385  1.1157
 1121SOL     OW14821   0.899   2.836   8.235 -0.8185  0.4136 -0.1802
 1121SOL    HW114822   0.865   2.925   8.227 -0.5798  0.5188 -0.0221
 1121SOL    HW214823   0.936   2.835   8.323  0.2124  0.1553 -0.6158
 1122SOL     OW14824   4.469   0.173   2.732  0.0552  0.1292 -0.3665
 1122SOL    HW114825   4.394   0.177   2.673  1.5608 -0.9241 -2.3699
 1122SOL    HW214826   4.462   0.091   2.781 -1.2177  0.2407 -0.3819
 1123SOL     OW14827   0.491   1.185   9.439  0.1983  0.2840 -0.1716
 1123SOL    HW114828   0.488   1.280   9.426 -1.9162  0.4637  1.5859
 1123SOL    HW214829   0.418   1.173   9.500  1.9338  0.5814  1.9856
 1124SOL     OW14830   3.125   0.272   7.134 -0.5028  0.3246  0.0185
 1124SOL    HW114831   3.139   0.337   7.203 -0.1027  0.9685 -0.6674
 1124SOL    HW214832   3.052   0.227   7.177  0.2698 -0.9191  0.0486
 1125SOL     OW14833   1.033   3.778   2.959  0.1314  0.2095  0.3666
 1125SOL    HW114834   1.125   3.799   2.976  0.4700 -1.4092  0.5125
 1125SOL    HW214835   1.027   3.822   2.874  0.9967 -1.8792 -0.7586
 1126SOL     OW14836   1.449   0.384   5.031  0.0425  0.2390 -0.5664
 1126SOL    HW114837   1.458   0.342   4.945  0.9401 -2.4387  0.8405
 1126SOL    HW214838   1.535   0.428   5.031 -0.2973  0.9180  0.9487
 1127SOL     OW14839   1.199   0.162  10.614  0.1995 -0.6272  0.2183
 1127SOL    HW114840   1.158   0.076  10.612  1.3699 -1.1565 -0.7743
 1127SOL    HW214841   1.227   0.187  10.527 -0.7822  4.4701  1.3494
 1128SOL     OW14842   2.607   2.190   7.404  0.5864  0.6106  0.0029
 1128SOL    HW114843   2.623   2.148   7.488 -1.9751  1.2915  0.8348
 1128SOL    HW214844   2.666   2.145   7.343  0.8669  2.6583 -1.2374
 1129SOL     OW14845   0.414   2.072   6.732 -0.1832 -0.0574 -0.1821
 1129SOL    HW114846   0.329   2.031   6.751 -1.0844  1.3674 -1.1035
 1129SOL    HW214847   0.449   2.061   6.820  0.8434  0.6611 -0.5026
 1130SOL     OW14848   2.449   0.502   1.012 -0.1206 -0.6190  0.5021
 1130SOL    HW114849   2.439   0.412   1.044  1.0942 -0.9819 -0.1335
 1130SOL    HW214850   2.498   0.482   0.932 -0.2507 -0.1058  0.2950
 1131SOL     OW14851   1.171   3.949   4.551 -0.0976  0.0665  0.7464
 1131SOL    HW114852   1.156   4.024   4.493 -1.5347  0.9739  2.2906
 1131SOL    HW214853   1.251   3.906   4.521 -0.4799  1.3216 -2.1071
 1132SOL     OW14854   1.536   1.943   4.973  0.4605  0.1719  0.4025
 1132SOL    HW114855   1.549   1.849   4.983  3.7278  0.6039  0.0681
 1132SOL    HW214856   1.529   1.975   5.063 -1.7659 -0.5137  0.4666
 1133SOL     OW14857   1.476   1.509   7.332 -0.8682  0.2531  0.0401
 1133SOL    HW114858   1.434   1.531   7.416  2.3456  0.1654  1.6499
 1133SOL    HW214859   1.428   1.429   7.311  0.0694 -0.1204 -0.6728
 1134SOL     OW14860   0.890   3.066   3.047  0.0784  0.4229  0.0174
 1134SOL    HW114861   0.939   3.145   3.068  3.4274 -1.3359 -1.2065
 1134SOL    HW214862   0.904   3.051   2.953  2.4995  0.5076  0.3732
 1135SOL     OW14863   0.811   0.650   3.061 -0.0034  0.3919 -0.0574
 1135SOL    HW114864   0.846   0.736   3.084  2.3689 -0.7720  0.7736
 1135SOL    HW214865   0.729   0.656   3.109 -0.4799  1.6572 -1.0590
 1136SOL     OW14866   0.126   1.146   6.629 -0.1875  0.4270 -0.3517
 1136SOL    HW114867   0.079   1.075   6.585 -0.8208  0.5792  0.0806
 1136SOL    HW214868   0.061   1.177   6.691 -2.4353 -1.1034 -1.9705
 1137SOL     OW14869   4.391   1.861   3.956  0.5821  0.9407 -0.7486
 1137SOL    HW114870   4.438   1.883   3.875  1.1974  0.3925 -0.5452
 1137SOL    HW214871   4.299   1.869   3.933  0.3985 -2.2043 -1.0484
 1138SOL     OW14872   1.295   2.890  14.928  0.0803 -0.2882  0.1757
 1138SOL    HW114873   1.202   2.877  14.943  0.4091 -1.6645  0.9857
 1138SOL    HW214874   1.300   2.985  14.914  2.3380 -0.1244  1.9797
 1139SOL     OW14875   0.075   1.146  16.384  0.0433  0.0696  0.0619
 1139SOL    HW114876   4.718   1.112  16.420  0.1093 -1.3348 -1.1177
 1139SOL    HW214877   0.037   1.170  16.299  0.0309  4.8882  1.4062
 1140SOL     OW14878   0.496   1.356  15.584  0.2410 -0.4922 -0.2180
 1140SOL    HW114879   0.461   1.306  15.658 -2.1491  2.0247  0.3940
 1140SOL    HW214880   0.456   1.318  15.507  0.6246 -0.8331 -0.2490
 1141SOL     OW14881   2.529   2.072   3.698 -0.0814  0.0147  0.1153
 1141SOL    HW114882   2.492   2.049   3.613  1.2020 -4.1780  0.6853
 1141SOL    HW214883   2.568   2.158   3.686  1.6633 -0.7961  0.0471
 1142SOL     OW14884   2.537   0.704  11.560 -0.2867 -0.0238  0.1965
 1142SOL    HW114885   2.587   0.639  11.609 -0.0792  1.8699  2.4714
 1142SOL    HW214886   2.600   0.725  11.491  0.8062 -0.8042  0.9525
 1143SOL     OW14887   2.507   1.167   1.624  0.3121  0.1852 -0.7734
 1143SOL    HW114888   2.442   1.237   1.632 -0.2702 -0.2977 -1.3396
 1143SOL    HW214889   2.516   1.142   1.716 -0.2007 -0.7990 -0.9877
 1144SOL     OW14890   1.468   2.810   4.050  0.1375 -0.1861 -0.9282
 1144SOL    HW114891   1.387   2.860   4.052 -0.6073 -1.4636  1.6323
 1144SOL    HW214892   1.453   2.764   4.133  3.0135  0.5659  0.0231
 1145SOL     OW14893   0.905   3.465   2.595  0.0725  0.6329  0.0257
 1145SOL    HW114894   0.956   3.458   2.676 -1.9484 -0.0879  1.2164
 1145SOL    HW214895   0.899   3.560   2.583  2.6437  0.9846  1.4886
 1146SOL     OW14896   2.512   0.257  16.963 -0.1886 -0.2789  0.4767
 1146SOL    HW114897   2.501   0.294  17.051 -0.5212  1.4459 -0.2797
 1146SOL    HW214898   2.597   0.214  16.973 -0.8516 -2.1998 -2.2383
 1147SOL     OW14899   2.014   1.384   0.016 -0.0999 -0.0297  0.3332
 1147SOL    HW114900   2.027   1.312  17.653  0.9303 -1.4897  2.2317
 1147SOL    HW214901   1.920   1.395   0.024 -0.0885  0.2122  0.1277
 1148SOL     OW14902   2.568   0.565   4.326  0.6675  0.8512 -0.6698
 1148SOL    HW114903   2.515   0.579   4.247 -0.0457 -3.2496 -0.9225
 1148SOL    HW214904   2.612   0.649   4.321  2.8002 -0.2576 -0.5845
 1149SOL     OW14905   1.142   1.153  13.652 -0.2516  0.4067 -0.5480
 1149SOL    HW114906   1.099   1.106  13.581  0.0316 -0.2508 -0.2854
 1149SOL    HW214907   1.086   1.230  13.655  0.7536  1.1860 -2.2284
 1150SOL     OW14908   1.291   2.640   1.053 -0.6906 -0.1919 -0.2508
 1150SOL    HW114909   1.260   2.553   1.079 -3.2249  0.8596  0.2234
 1150SOL    HW214910   1.229   2.701   1.093  0.6815  0.6836  0.5655
 1151SOL     OW14911   3.908   0.233  13.878  0.3371 -0.0271  0.4127
 1151SOL    HW114912   3.845   0.164  13.897 -1.3193  1.5183  0.4711
 1151SOL    HW214913   3.966   0.225  13.954  2.1860  0.6201 -0.9378
 1152SOL     OW14914   0.878   0.246   7.620  0.5951 -0.5134 -0.0170
 1152SOL    HW114915   0.834   0.241   7.535  1.0924  0.7220 -0.3355
 1152SOL    HW214916   0.944   0.304   7.583  1.7102 -0.5488  1.9226
 1153SOL     OW14917   0.224   0.576  11.581 -0.1178 -0.3565 -0.0003
 1153SOL    HW114918   0.257   0.515  11.515  1.2610  0.0622  0.3112
 1153SOL    HW214919   0.130   0.591  11.568 -0.1009  0.2095  0.5143
 1154SOL     OW14920   3.267   0.337   6.538  0.0706  0.5256 -0.0996
 1154SOL    HW114921   3.306   0.339   6.451  1.7681  2.7780  0.7069
 1154SOL    HW214922   3.270   0.241   6.543  0.8494  0.5376 -0.3062
 1155SOL     OW14923   3.726   0.856  12.130 -0.6310 -0.2364  0.1546
 1155SOL    HW114924   3.776   0.776  12.117 -2.0466 -1.3756  1.8848
 1155SOL    HW214925   3.744   0.875  12.222 -1.0558  0.3718  0.1106
 1156SOL     OW14926   4.473   1.835   7.102 -0.2749 -0.1110 -0.1784
 1156SOL    HW114927   4.413   1.873   7.167  0.6833 -2.6316  2.2052
 1156SOL    HW214928   4.469   1.744   7.131  0.4438  0.1894  0.8936
 1157SOL     OW14929   1.218   1.294  13.363 -0.0821  0.1328  0.2982
 1157SOL    HW114930   1.277   1.345  13.419  1.4487 -0.4176 -0.8102
 1157SOL    HW214931   1.177   1.244  13.433 -0.6230  1.3997  0.8922
 1158SOL     OW14932   0.364   3.621   8.483  0.7836 -0.3624 -1.2707
 1158SOL    HW114933   0.324   3.548   8.435  1.9063  0.4611 -3.4879
 1158SOL    HW214934   0.336   3.609   8.573  0.9621 -1.6194 -1.3697
 1159SOL     OW14935   2.658   1.787   8.882  0.1706  0.1014  0.2636
 1159SOL    HW114936   2.646   1.856   8.817  1.9639 -0.2859 -0.4664
 1159SOL    HW214937   2.671   1.706   8.831  0.9801  0.2474  0.2469
 1160SOL     OW14938   3.719   1.774   4.856  0.5813 -0.0206 -0.0216
 1160SOL    HW114939   3.703   1.841   4.788 -0.2851 -2.3670 -2.1314
 1160SOL    HW214940   3.814   1.785   4.861  0.9768 -2.0674 -3.2474
 1161SOL     OW14941   3.661   2.225   4.826  0.5176  0.1124 -0.3634
 1161SOL    HW114942   3.703   2.300   4.784 -0.9688  1.5562  0.7357
 1161SOL    HW214943   3.671   2.161   4.755  2.9622 -0.9513  0.9581
 1162SOL     OW14944   3.037   0.153   8.176 -0.0925 -0.2741 -0.5230
 1162SOL    HW114945   3.042   0.179   8.268  0.0830  1.1911 -0.9468
 1162SOL    HW214946   2.977   0.216   8.137 -0.4026 -0.9963 -1.2220
 1163SOL     OW14947   0.584   2.184   4.538  0.1988  0.1153 -0.0544
 1163SOL    HW114948   0.593   2.267   4.490 -1.5494  0.4856  0.2583
 1163SOL    HW214949   0.600   2.120   4.469 -1.0229 -0.7553  0.4650
 1164SOL     OW14950   3.475   2.930   6.744 -0.7159 -0.3665  0.3513
 1164SOL    HW114951   3.469   3.018   6.706 -0.3620 -1.0815 -1.3740
 1164SOL    HW214952   3.391   2.910   6.786  1.4373 -2.1741  3.7491
 1165SOL     OW14953   0.067   2.485   5.607 -0.0693 -0.3553  0.1550
 1165SOL    HW114954   0.054   2.437   5.689  0.2723 -0.5371  0.1034
 1165SOL    HW214955   4.702   2.514   5.591  0.1307  1.4181  2.3009
 1166SOL     OW14956   3.632   1.257   4.079  0.2606 -0.2043 -0.1778
 1166SOL    HW114957   3.649   1.341   4.036 -0.4517  0.6288  1.1649
 1166SOL    HW214958   3.577   1.292   4.149 -1.1835  0.1322 -1.4666
 1167SOL     OW14959   3.590   3.908   4.928  0.3086  0.1871 -0.5935
 1167SOL    HW114960   3.551   3.836   4.977  0.7950  0.6478  0.4667
 1167SOL    HW214961   3.666   3.909   4.985 -0.0517 -2.7628 -0.0526
 1168SOL     OW14962   2.443   4.385   7.180 -0.1387  0.0317  0.3361
 1168SOL    HW114963   2.369   4.445   7.191 -0.7071 -0.4198 -1.0642
 1168SOL    HW214964   2.450   4.355   7.271  0.0985 -1.6547 -0.2357
 1169SOL     OW14965   2.337   2.532  17.139 -0.1506  0.2465  0.1032
 1169SOL    HW114966   2.309   2.457  17.191  3.5359 -0.4108  1.1648
 1169SOL    HW214967   2.397   2.588  17.189 -0.4505 -1.2122  2.0740
 1170SOL     OW14968   4.687   3.593   3.812 -0.1651  0.3480 -0.1627
 1170SOL    HW114969   4.661   3.563   3.899  0.5868 -0.1671 -0.1105
 1170SOL    HW214970   0.029   3.531   3.781  1.5430  2.5991 -1.0441
 1171SOL     OW14971   1.702   4.264   9.245 -0.1383 -0.2462 -0.2060
 1171SOL    HW114972   1.658   4.196   9.195  3.9126 -3.5179  0.6324
 1171SOL    HW214973   1.674   4.346   9.206  2.2590 -0.1377 -1.7341
 1172SOL     OW14974   3.349   1.282   9.786  0.4933 -0.2022 -0.4056
 1172SOL    HW114975   3.395   1.292   9.869  3.0651  2.7336 -2.1871
 1172SOL    HW214976   3.269   1.332   9.802 -0.0288 -1.3916  0.6680
 1173SOL     OW14977   1.819   1.664   5.579  0.6271 -0.2253 -0.5550
 1173SOL    HW114978   1.851   1.637   5.665 -0.6025 -0.1227 -0.0605
 1173SOL    HW214979   1.883   1.735   5.571  2.3688 -2.0540 -2.9954
 1174SOL     OW14980   4.323   2.827   5.370  0.3673 -0.0847 -0.3240
 1174SOL    HW114981   4.229   2.846   5.370  0.1686 -1.0317  0.9805
 1174SOL    HW214982   4.362   2.911   5.394 -1.1809  0.0598  1.6934
 1175SOL     OW14983   1.057   1.736   1.598 -0.0802  0.0615  0.2646
 1175SOL    HW114984   1.146   1.726   1.563  0.2432  1.4138  0.7155
 1175SOL    HW214985   1.009   1.673   1.544 -0.9160 -0.4384  1.6192
 1176SOL     OW14986   2.368   0.547   2.597 -0.2769  0.5292  0.0777
 1176SOL    HW114987   2.453   0.505   2.583 -0.2519  0.7188 -0.3357
 1176SOL    HW214988   2.356   0.519   2.688 -0.3219  0.6044  0.0950
 1177SOL     OW14989   2.731   0.456   7.472 -0.6024 -0.0697  0.1926
 1177SOL    HW114990   2.680   0.512   7.531 -2.8109 -2.1499  0.2331
 1177SOL    HW214991   2.822   0.486   7.475 -0.9618  0.9987  0.6119
 1178SOL     OW14992   0.152   0.210  11.315  0.0369 -0.8383  0.3726
 1178SOL    HW114993   0.136   0.175  11.403  1.1139 -0.4711  0.7183
 1178SOL    HW214994   0.092   0.154  11.265 -0.1852  0.4120 -0.7768
 1179SOL     OW14995   4.115   4.708  11.775 -0.7434 -0.0019  0.2096
 1179SOL    HW114996   4.051   4.637  11.771  0.4732 -1.0859 -0.2980
 1179SOL    HW214997   4.098   0.043  11.701  1.5841  0.2236 -0.1619
 1180SOL     OW14998   4.294   2.890   4.432  0.6093  0.6416  0.2918
 1180SOL    HW114999   4.296   2.797   4.408 -1.1393  0.4574  0.9097
 1180SOL    HW215000   4.383   2.916   4.406  2.2274 -3.8890  1.1363
 1181SOL     OW15001   3.252   2.682   9.046  0.4770  0.5894  0.8317
 1181SOL    HW115002   3.258   2.778   9.049  1.5813  0.5310  0.3970
 1181SOL    HW215003   3.249   2.663   9.140  0.0180 -1.3966  0.3948
 1182SOL     OW15004   1.466   1.100   5.365 -0.3650  0.2492 -0.8641
 1182SOL    HW115005   1.384   1.102   5.415  0.3620 -1.7783  0.4304
 1182SOL    HW215006   1.437   1.078   5.276 -0.3580 -1.7905 -0.3693
 1183SOL     OW15007   2.423   0.100  16.465  0.2072 -0.2461 -0.1088
 1183SOL    HW115008   2.441   0.188  16.431  0.5690 -0.0829  0.5182
 1183SOL    HW215009   2.397   0.061  16.381  1.3145 -0.6609 -0.2486
 1184SOL     OW15010   2.482   0.507   8.220  0.0649 -0.4502  0.0779
 1184SOL    HW115011   2.469   0.418   8.251  1.3057 -0.2767  1.1106
 1184SOL    HW215012   2.577   0.522   8.220 -0.0505  0.2767 -0.1587
 1185SOL     OW15013   2.283   4.649   8.897 -0.2422 -0.0439  0.3437
 1185SOL    HW115014   2.298   4.707   8.822 -0.3056  2.0763  1.9979
 1185SOL    HW215015   2.374   4.628   8.919 -0.4293 -0.4874  0.7017
 1186SOL     OW15016   1.280   0.843  17.656 -0.4637 -0.4450  0.4660
 1186SOL    HW115017   1.248   0.916  17.602  2.8564  0.6286 -0.0545
 1186SOL    HW215018   1.201   0.804  17.693 -1.9465  1.5243 -0.6167
 1187SOL     OW15019   3.601   4.191  16.005  0.2628 -0.4529 -0.0828
 1187SOL    HW115020   3.529   4.143  16.047 -0.5033  1.4008  0.7066
 1187SOL    HW215021   3.557   4.245  15.939  0.9149  0.2056  0.0226
 1188SOL     OW15022   0.566   3.940   2.822 -0.1215  0.1909 -0.5283
 1188SOL    HW115023   0.601   3.982   2.900 -1.5174  1.5441 -0.6456
 1188SOL    HW215024   0.611   3.856   2.830 -0.0916  0.3050  0.5068
 1189SOL     OW15025   0.005   4.137   8.359  0.3055  0.1427 -0.5816
 1189SOL    HW115026   0.075   4.109   8.300 -0.8241 -1.3801 -1.1685
 1189SOL    HW215027   0.027   4.102   8.446 -0.8202 -1.6479 -1.0293
 1190SOL     OW15028   3.157   2.050   6.218 -0.0568  0.1405 -0.2062
 1190SOL    HW115029   3.193   2.110   6.284  2.2423  0.4976 -1.7659
 1190SOL    HW215030   3.140   1.970   6.268  3.3998 -2.1875 -2.6568
 1191SOL     OW15031   1.603   1.168   5.097 -0.3720 -0.3158  0.3758
 1191SOL    HW115032   1.538   1.238   5.094 -0.0796  0.0497  2.2492
 1191SOL    HW215033   1.577   1.123   5.017  2.5754 -0.0896 -0.7268
 1192SOL     OW15034   0.645   2.498   2.368  0.0451  0.0756  0.1165
 1192SOL    HW115035   0.600   2.552   2.303 -0.8452 -0.7162  0.0859
 1192SOL    HW215036   0.725   2.548   2.386  0.7907 -1.2308  0.4836
 1193SOL     OW15037   4.444   0.936   1.106  0.5226 -0.3867 -0.4472
 1193SOL    HW115038   4.539   0.942   1.121  0.0616  3.2646  0.7819
 1193SOL    HW215039   4.413   1.019   1.142  2.4228  0.1792 -0.0848
 1194SOL     OW15040   0.296   1.039   8.899  0.1153 -0.3677 -0.2454
 1194SOL    HW115041   0.365   0.998   8.847  0.2765 -0.8348  0.3372
 1194SOL    HW215042   0.285   1.121   8.851  0.8661 -0.9558 -1.4183
 1195SOL     OW15043   1.952   3.294   5.667  0.4780 -0.2664 -0.1699
 1195SOL    HW115044   1.933   3.200   5.678 -0.4098 -0.2911 -1.8453
 1195SOL    HW215045   1.897   3.316   5.592 -0.8319  2.3368  1.5630
 1196SOL     OW15046   3.506   3.708   5.091 -0.8908  0.3953 -0.1423
 1196SOL    HW115047   3.507   3.612   5.087 -0.5268  0.3556  0.9572
 1196SOL    HW215048   3.487   3.728   5.182 -0.5922  0.1044 -0.0157
 1197SOL     OW15049   2.510   3.043   4.980 -0.0038 -0.1014  1.1663
 1197SOL    HW115050   2.426   3.088   4.990  0.3822  0.6528  0.9463
 1197SOL    HW215051   2.575   3.112   4.972 -1.0902  0.8499  0.6207
 1198SOL     OW15052   1.787   3.932  13.470 -0.1192  0.2961 -0.5131
 1198SOL    HW115053   1.875   3.941  13.507 -0.3099  0.9216 -0.2128
 1198SOL    HW215054   1.797   3.858  13.409 -1.2688  0.2440 -0.6401
 1199SOL     OW15055   1.834   3.458   9.616 -0.2375  0.2073 -0.8702
 1199SOL    HW115056   1.880   3.533   9.654  2.0368 -1.5017 -0.2623
 1199SOL    HW215057   1.771   3.431   9.683  1.2239 -0.1738  0.3370
 1200SOL     OW15058   3.579   1.106   3.876  0.1399  0.0735 -0.2200
 1200SOL    HW115059   3.664   1.090   3.836  0.0777 -0.6425 -0.0630
 1200SOL    HW215060   3.604   1.103   3.969 -1.9261 -1.3983  0.2808
 1201SOL     OW15061   1.269   0.834   4.013 -0.2449  0.1479 -0.5153
 1201SOL    HW115062   1.324   0.815   4.089 -1.0304 -0.3940 -0.0731
 1201SOL    HW215063   1.198   0.889   4.046 -0.1482 -0.1810  0.2572
 1202SOL     OW15064   0.386   1.183   6.412  0.1099  0.2871 -0.6610
 1202SOL    HW115065   0.386   1.165   6.506  0.0434 -1.3484 -0.9630
 1202SOL    HW215066   0.305   1.234   6.403  0.6452  1.8179  3.3059
 1203SOL     OW15067   1.747   1.107   3.981  0.6444  0.5133  0.1259
 1203SOL    HW115068   1.770   1.194   3.950  2.3244 -0.4517 -1.3572
 1203SOL    HW215069   1.807   1.096   4.055  1.2413 -0.7993 -0.5492
 1204SOL     OW15070   3.740   0.851   4.256  0.5180 -0.2307 -0.5159
 1204SOL    HW115071   3.678   0.827   4.324  2.3674  0.1016  1.2681
 1204SOL    HW215072   3.756   0.945   4.263 -0.8125  0.1052 -1.8732
 1205SOL     OW15073   1.187   0.720  15.269  1.4598  0.2147  0.3606
 1205SOL    HW115074   1.254   0.739  15.203 -1.6221  2.9630 -2.0312
 1205SOL    HW215075   1.164   0.629  15.253 -0.9144  0.9293 -0.4168
 1206SOL     OW15076   0.870   4.045   8.856  0.2847  0.2147  0.5618
 1206SOL    HW115077   0.845   3.994   8.933 -2.1968 -0.1687 -0.4971
 1206SOL    HW215078   0.796   4.035   8.796 -1.2515  0.5002  2.4156
 1207SOL     OW15079   4.463   3.389   2.812  0.9162  0.0577  0.5687
 1207SOL    HW115080   4.431   3.360   2.727 -2.2046  1.3153  1.3239
 1207SOL    HW215081   4.515   3.461   2.776 -1.2953  2.1275  1.5162
 1208SOL     OW15082   2.786   3.666  15.761  0.3880  0.0152  0.4231
 1208SOL    HW115083   2.854   3.598  15.755 -0.2997 -0.8500  2.4207
 1208SOL    HW215084   2.731   3.633  15.690  0.9319  1.1710 -0.5214
 1209SOL     OW15085   3.343   2.418  11.419 -0.1216 -0.0233 -0.0531
 1209SOL    HW115086   3.361   2.512  11.416  2.6934 -0.5828 -0.2667
 1209SOL    HW215087   3.253   2.414  11.385 -0.4471  3.4082  0.3596
 1210SOL     OW15088   4.552   3.682   4.717  0.3747  0.7172  0.3389
 1210SOL    HW115089   4.501   3.757   4.747 -0.1629 -0.4118  2.2736
 1210SOL    HW215090   4.527   3.672   4.625 -0.6924 -0.1469  0.7272
 1211SOL     OW15091   3.053   3.188   4.831  0.2125  0.1837  0.2764
 1211SOL    HW115092   3.021   3.149   4.750  1.5946  1.7748 -1.0452
 1211SOL    HW215093   2.975   3.202   4.884 -0.8769 -0.1393 -1.2562
 1212SOL     OW15094   0.056   4.010   8.962  0.6731  0.0933 -0.2973
 1212SOL    HW115095   0.113   4.028   9.037  0.4971  1.6955 -0.5481
 1212SOL    HW215096   4.719   3.943   8.995  0.1980 -0.4172 -2.1982
 1213SOL     OW15097   4.661   4.313  16.454  0.5726 -0.5626  0.1910
 1213SOL    HW115098   4.586   4.273  16.411  0.5782  0.9099 -1.2052
 1213SOL    HW215099   4.712   4.362  16.389  1.8045 -1.1781  0.6779
 1214SOL     OW15100   0.884   3.147   1.443  0.4753  0.4835 -1.0422
 1214SOL    HW115101   0.826   3.113   1.375 -0.5302 -0.1939  0.1538
 1214SOL    HW215102   0.943   3.073   1.455 -1.9526 -1.2940 -0.2313
 1215SOL     OW15103   2.302   0.633  13.312  0.3662 -0.4215 -0.0223
 1215SOL    HW115104   2.244   0.571  13.355 -1.7282  0.8898 -0.9933
 1215SOL    HW215105   2.386   0.598  13.343  0.0600  0.5534  1.9448
 1216SOL     OW15106   2.390   1.071  15.969 -0.0980  0.0681 -0.7794
 1216SOL    HW115107   2.334   1.145  15.946  2.4142  2.1718 -0.1153
 1216SOL    HW215108   2.331   1.019  16.023  0.1390 -0.2414 -0.8158
 1217SOL     OW15109   2.601   2.786   9.269 -0.3547  0.5174  0.2201
 1217SOL    HW115110   2.643   2.870   9.288  0.0705  0.0586  1.3009
 1217SOL    HW215111   2.624   2.763   9.179  0.6725  0.1454  0.5804
 1218SOL     OW15112   3.250   3.602   1.208  0.0558 -0.4098 -0.2435
 1218SOL    HW115113   3.253   3.682   1.155 -0.6182 -0.9034 -1.0295
 1218SOL    HW215114   3.309   3.628   1.279 -1.3815 -0.8610  1.1030
 1219SOL     OW15115   0.738   2.813   8.505  0.1360 -0.5855 -0.2856
 1219SOL    HW115116   0.828   2.843   8.515 -0.1432  0.7344 -1.7921
 1219SOL    HW215117   0.685   2.892   8.513 -1.0849 -1.2473 -1.6849
 1220SOL     OW15118   1.205   2.837   6.286 -0.7624 -0.1011  0.0979
 1220SOL    HW115119   1.141   2.784   6.334  0.6557 -0.0883  1.9860
 1220SOL    HW215120   1.288   2.790   6.287  1.2201  3.4156  0.8258
 1221SOL     OW15121   3.720   1.789   7.375 -0.1152  0.1386  0.1157
 1221SOL    HW115122   3.663   1.851   7.329 -0.1205 -1.4299 -1.9551
 1221SOL    HW215123   3.717   1.836   7.459  1.0462  2.1336 -0.9564
 1222SOL     OW15124   3.056   2.107  11.101 -0.7580  0.1370 -0.3433
 1222SOL    HW115125   3.049   2.115  11.196  2.5319 -1.7080  0.0404
 1222SOL    HW215126   3.105   2.025  11.097  0.4458  0.8593 -0.3903
 1223SOL     OW15127   4.164   1.349   4.585  0.5953 -0.4163 -0.4133
 1223SOL    HW115128   4.092   1.288   4.597 -1.2067  1.7474 -0.1940
 1223SOL    HW215129   4.204   1.317   4.504  0.1262 -3.1038  0.4231
 1224SOL     OW15130   0.178   1.407   0.615 -0.0424 -0.3341 -0.0746
 1224SOL    HW115131   0.137   1.482   0.659  0.2376  1.1027 -2.2586
 1224SOL    HW215132   0.265   1.445   0.600  0.5901 -1.8635 -0.2793
 1225SOL     OW15133   0.960   1.369   6.487  0.3207  0.0089 -0.1387
 1225SOL    HW115134   0.888   1.423   6.518  0.0796  0.8333 -2.0953
 1225SOL    HW215135   0.975   1.405   6.399  0.5112 -1.4409 -0.7013
 1226SOL     OW15136   2.829   0.826   6.538 -0.2997  0.3383 -0.9490
 1226SOL    HW115137   2.918   0.858   6.531  0.1711 -0.5456  1.0809
 1226SOL    HW215138   2.856   0.743   6.578 -2.2781  0.0302 -0.2169
 1227SOL     OW15139   0.040   3.466  12.323 -0.2313  0.0326 -0.2084
 1227SOL    HW115140   0.130   3.434  12.334  0.0987  1.4479  1.2343
 1227SOL    HW215141   0.051   3.512  12.240  0.1955  0.3805  0.0418
 1228SOL     OW15142   2.333   3.821   3.290  0.2905 -0.2588  0.3383
 1228SOL    HW115143   2.275   3.896   3.290  0.8094  0.1374 -0.9498
 1228SOL    HW215144   2.323   3.792   3.199 -3.3674 -0.0753  0.7023
 1229SOL     OW15145   1.985   4.150  15.443  0.2073 -0.7212 -0.0330
 1229SOL    HW115146   1.992   4.245  15.433 -1.4856 -0.6545 -0.6644
 1229SOL    HW215147   2.012   4.133  15.533 -0.6138  1.5779  0.6486
 1230SOL     OW15148   2.000   4.006   7.646 -0.6247 -0.3452 -0.4312
 1230SOL    HW115149   1.962   4.094   7.639  0.0753 -0.0462 -0.4905
 1230SOL    HW215150   1.928   3.959   7.686 -2.5622  2.3133 -0.8077
 1231SOL     OW15151   3.956   4.021   6.936 -0.0644 -0.0899 -0.0408
 1231SOL    HW115152   4.037   3.979   6.964  0.0824 -0.1528 -0.5517
 1231SOL    HW215153   3.983   4.042   6.847  1.8598  1.7745  1.0116
 1232SOL     OW15154   0.511   1.470   6.561 -0.3200 -0.2470 -0.1837
 1232SOL    HW115155   0.470   1.433   6.483 -0.1455 -1.3878  0.2771
 1232SOL    HW215156   0.467   1.420   6.629 -1.2869  1.2287  0.2779
 1233SOL     OW15157   1.806   2.050  11.454 -0.2561  0.5011  0.4217
 1233SOL    HW115158   1.869   2.107  11.499  1.0106  0.2283 -0.9936
 1233SOL    HW215159   1.754   2.023  11.530 -1.1809  0.0121 -0.3954
 1234SOL     OW15160   4.692   3.879   6.077  0.0060  0.2398  0.0086
 1234SOL    HW115161   0.063   3.885   6.068  0.1309 -1.7714  0.0396
 1234SOL    HW215162   4.684   3.786   6.058 -0.2682 -0.0010  1.3061
 1235SOL     OW15163   0.612   1.507  17.588  0.6113 -0.3167  0.0340
 1235SOL    HW115164   0.672   1.544  17.523 -3.2621  1.0032 -2.7401
 1235SOL    HW215165   0.570   1.446  17.527 -0.7709  2.0654 -1.3642
 1236SOL     OW15166   0.753   2.247   2.561  0.4946  0.3524 -0.0826
 1236SOL    HW115167   0.695   2.210   2.628  1.2079  0.8567  0.8205
 1236SOL    HW215168   0.695   2.228   2.488 -0.2845  0.4914  0.4958
 1237SOL     OW15169   3.998   0.708   9.431 -0.0678  0.0076  0.6592
 1237SOL    HW115170   4.033   0.694   9.343 -1.1239 -2.3612  0.5862
 1237SOL    HW215171   4.064   0.767   9.467 -0.6482 -0.0585  1.8246
 1238SOL     OW15172   4.344   2.545  11.351 -0.0718  0.6699  0.0922
 1238SOL    HW115173   4.261   2.524  11.394  0.0961  1.8969  1.0034
 1238SOL    HW215174   4.368   2.461  11.311 -0.4361 -0.2030  1.7208
 1239SOL     OW15175   1.431   0.710   3.173 -0.4342  0.6173 -0.3500
 1239SOL    HW115176   1.522   0.716   3.203 -0.8244  0.4964  0.8364
 1239SOL    HW215177   1.426   0.615   3.188 -0.1744  0.6190 -0.2596
 1240SOL     OW15178   3.981   1.358   7.529 -0.6321 -0.0984 -0.6507
 1240SOL    HW115179   3.908   1.326   7.582 -0.3751  1.6602  0.7831
 1240SOL    HW215180   3.966   1.453   7.524 -0.0434  0.2145  3.3222
 1241SOL     OW15181   4.291   0.458   6.741  0.4401  0.3709  0.1959
 1241SOL    HW115182   4.313   0.367   6.721 -0.9427  0.0667  0.0629
 1241SOL    HW215183   4.238   0.441   6.819 -2.3669  0.0323 -1.7833
 1242SOL     OW15184   4.667   2.203   1.864 -0.3172 -0.4064 -0.0987
 1242SOL    HW115185   4.580   2.204   1.902 -1.1667  1.1593 -2.0597
 1242SOL    HW215186   4.662   2.134   1.797  0.5994  0.4705 -1.0795
 1243SOL     OW15187   0.802   0.324   6.872 -0.4959 -0.1765 -0.2285
 1243SOL    HW115188   0.832   0.351   6.959 -3.1596 -0.9693  0.9539
 1243SOL    HW215189   0.835   0.394   6.817  2.4429 -2.0006 -0.8162
 1244SOL     OW15190   2.705   0.490   5.597  0.2395  0.7710  0.7846
 1244SOL    HW115191   2.702   0.546   5.675 -0.8282  0.6596  0.8248
 1244SOL    HW215192   2.621   0.444   5.599  0.5957  0.0925 -0.4165
 1245SOL     OW15193   0.227   3.011   2.482 -0.6668  0.5469 -0.1764
 1245SOL    HW115194   0.177   2.956   2.542 -0.0664  0.9394  0.6936
 1245SOL    HW215195   0.156   3.021   2.419  0.5012  0.1982 -1.5377
 1246SOL     OW15196   1.641   1.683  16.284 -0.0889 -0.0513  0.0377
 1246SOL    HW115197   1.630   1.713  16.194  0.1290 -0.0650  0.0077
 1246SOL    HW215198   1.641   1.589  16.263 -0.7623 -0.6563  2.8110
 1247SOL     OW15199   3.205   3.351   0.089 -1.1175  0.3821  0.7891
 1247SOL    HW115200   3.143   3.336   0.160 -1.3425 -1.5454  0.1930
 1247SOL    HW215201   3.202   3.444   0.067 -2.3236 -0.6528 -3.4242
 1248SOL     OW15202   2.548   3.840   9.645 -0.3222 -0.3130 -0.0756
 1248SOL    HW115203   2.617   3.860   9.582  1.3037 -1.6581  1.2699
 1248SOL    HW215204   2.599   3.832   9.726  0.9144  1.6660 -0.6673
 1249SOL     OW15205   2.733   2.410   9.420  0.9643  0.3469  0.6199
 1249SOL    HW115206   2.801   2.471   9.390 -0.0298  1.7144  1.1056
 1249SOL    HW215207   2.666   2.432   9.356  0.4546 -0.6719  0.8118
 1250SOL     OW15208   2.499   0.621   8.533 -0.3058 -0.5313 -0.2851
 1250SOL    HW115209   2.549   0.691   8.575 -0.7736  0.1260 -0.8160
 1250SOL    HW215210   2.506   0.645   8.440  0.5713  2.1150  0.4624
 1251SOL     OW15211   0.058   1.242  15.164  0.0810 -0.0244 -0.0041
 1251SOL    HW115212   0.064   1.308  15.233  0.1766  0.9056 -0.9042
 1251SOL    HW215213   0.148   1.210  15.170 -1.2360 -3.3256  2.1997
 1252SOL     OW15214   3.165   1.048   3.127 -0.4153  0.3553  0.4292
 1252SOL    HW115215   3.126   0.981   3.070 -0.5261 -0.7000  1.7209
 1252SOL    HW215216   3.211   1.001   3.197  4.2760  1.5508 -1.8727
 1253SOL     OW15217   3.268   0.476   8.233 -0.1691  0.4672  0.3026
 1253SOL    HW115218   3.241   0.492   8.323  0.7063  0.8653  0.4977
 1253SOL    HW215219   3.191   0.507   8.186 -0.6272  0.6988  1.1994
 1254SOL     OW15220   2.493   0.636   6.860 -0.1262 -0.0260  0.5118
 1254SOL    HW115221   2.565   0.643   6.923  0.9075  0.0459 -0.6867
 1254SOL    HW215222   2.414   0.666   6.907 -0.1920  0.5193  0.0561
 1255SOL     OW15223   1.533   0.661   6.342 -0.3194  0.0548 -0.4355
 1255SOL    HW115224   1.456   0.717   6.337 -0.8341 -0.4281  2.5735
 1255SOL    HW215225   1.539   0.654   6.437 -0.0437  1.0961 -0.3814
 1256SOL     OW15226   1.092   3.288   8.343 -0.8054  0.6594 -0.0813
 1256SOL    HW115227   1.163   3.237   8.304 -0.5662  1.8699 -1.2164
 1256SOL    HW215228   1.086   3.371   8.296 -3.6006  1.8425  2.4106
 1257SOL     OW15229   3.637   1.440   5.275 -0.0451  0.0535  0.1449
 1257SOL    HW115230   3.707   1.428   5.210  1.4547  0.4142  1.6988
 1257SOL    HW215231   3.599   1.524   5.248 -0.8703  0.0845  1.4450
 1258SOL     OW15232   0.923   3.847   2.109 -0.2267 -0.2672  0.1879
 1258SOL    HW115233   0.998   3.893   2.146 -0.4539  0.9668 -0.8699
 1258SOL    HW215234   0.858   3.841   2.179  0.5249 -0.5620  0.8574
 1259SOL     OW15235   0.468   2.591  16.837  0.1821  0.2598  0.4130
 1259SOL    HW115236   0.461   2.678  16.797  2.3594  0.2243 -0.0474
 1259SOL    HW215237   0.434   2.541  16.764  0.8541 -2.5019  2.0069
 1260SOL     OW15238   1.167   1.793   7.278 -0.0835 -0.2715  0.4154
 1260SOL    HW115239   1.158   1.702   7.249  1.7111 -0.1363 -0.5561
 1260SOL    HW215240   1.260   1.790   7.301  0.7707  1.1408 -2.8916
 1261SOL     OW15241   0.988   4.143  15.711 -0.0082  0.3521 -0.5910
 1261SOL    HW115242   0.999   4.168  15.619  3.0453  0.2841 -0.2406
 1261SOL    HW215243   0.910   4.189  15.742  0.0778  0.1970 -0.1354
 1262SOL     OW15244   0.863   4.481   8.276  0.4665  0.3390  0.3682
 1262SOL    HW115245   0.853   4.474   8.371 -1.2377 -1.1456  0.0679
 1262SOL    HW215246   0.791   4.541   8.261 -0.3496 -0.8209 -0.3540
 1263SOL     OW15247   3.670   0.627  16.158 -0.2453 -0.9053  0.1028
 1263SOL    HW115248   3.657   0.666  16.244  0.2557  0.0082 -0.2401
 1263SOL    HW215249   3.579   0.599  16.166 -1.0080  1.5800  0.1483
 1264SOL     OW15250   4.481   3.608   4.460 -0.3850 -0.1107  0.3487
 1264SOL    HW115251   4.393   3.625   4.424 -0.2802 -0.1341  0.0785
 1264SOL    HW215252   4.535   3.627   4.383  0.8822 -0.5957  1.1221
 1265SOL     OW15253   0.661   1.142   0.158 -0.6927 -0.4284 -0.1530
 1265SOL    HW115254   0.631   1.211   0.099  1.4371  1.6081  1.1260
 1265SOL    HW215255   0.576   1.099   0.163 -0.3029 -1.1425  0.3246
 1266SOL     OW15256   1.705   3.532   1.239  0.4692  0.8267 -0.2272
 1266SOL    HW115257   1.749   3.514   1.156  2.6885  0.0332  1.1138
 1266SOL    HW215258   1.740   3.616   1.269  0.5431  0.0082  1.9945
 1267SOL     OW15259   0.651   4.020   8.681 -0.0946  0.2853  0.3627
 1267SOL    HW115260   0.626   3.972   8.603 -1.5114 -0.2598  1.1629
 1267SOL    HW215261   0.648   4.111   8.653  0.0372  0.2645  0.2824
 1268SOL     OW15262   0.224   1.589  14.604 -0.4524 -0.1734  0.6493
 1268SOL    HW115263   0.154   1.527  14.625 -1.5964  1.0274  0.3797
 1268SOL    HW215264   0.197   1.621  14.518  1.2357  1.1033  0.5828
 1269SOL     OW15265   1.394   1.962  16.127  0.3282 -0.0853  0.1162
 1269SOL    HW115266   1.399   1.891  16.064  0.4962  0.2687 -0.2694
 1269SOL    HW215267   1.317   1.930  16.174  2.3854 -4.0716  0.7329
 1270SOL     OW15268   4.257   2.880   9.428  0.1776 -0.2263 -0.3808
 1270SOL    HW115269   4.296   2.828   9.498  2.0311 -2.0199 -2.7634
 1270SOL    HW215270   4.230   2.950   9.488  2.1794  0.0622  0.1917
 1271SOL     OW15271   0.623   4.446  17.639 -0.3504 -0.5116  0.2818
 1271SOL    HW115272   0.698   4.503  17.623 -0.1710 -0.6241  0.7143
 1271SOL    HW215273   0.641   4.433   0.033 -3.0721  1.4562  1.0514
 1272SOL     OW15274   3.346   1.476   8.794  0.2580 -0.0941 -0.1355
 1272SOL    HW115275   3.313   1.557   8.833 -0.6480 -0.5386  0.0098
 1272SOL    HW215276   3.436   1.479   8.827  0.2679  1.3229 -0.2994
 1273SOL     OW15277   2.578   0.099   9.847 -0.5876  0.1098 -0.1318
 1273SOL    HW115278   2.644   0.167   9.837 -0.1792 -0.1833  0.5782
 1273SOL    HW215279   2.498   0.134   9.808 -1.2692 -0.2655  0.9080
 1274SOL     OW15280   2.312   2.346   2.680  0.5028 -0.4248  0.2721
 1274SOL    HW115281   2.251   2.334   2.607 -1.7975  0.2127  2.0610
 1274SOL    HW215282   2.252   2.339   2.755 -0.6796  0.8387 -0.5530
 1275SOL     OW15283   0.512   1.859   5.420 -0.0384  0.0649 -0.1496
 1275SOL    HW115284   0.573   1.912   5.368  1.0802  0.1675  1.2596
 1275SOL    HW215285   0.447   1.922   5.451 -0.6457 -0.7910  0.2992
 1276SOL     OW15286   1.601   4.370   3.040 -0.6577 -0.0179  0.2609
 1276SOL    HW115287   1.576   4.306   2.973  1.6094 -0.6498  0.0161
 1276SOL    HW215288   1.663   4.425   2.993 -2.6279  1.1819 -0.9495
 1277SOL     OW15289   0.376   4.520   5.163 -0.1039 -0.3428 -0.5398
 1277SOL    HW115290   0.331   4.496   5.082 -0.4261 -0.5300 -0.3034
 1277SOL    HW215291   0.446   4.577   5.130 -0.3104  1.0801  1.4340
 1278SOL     OW15292   3.054   3.076   1.746 -0.0503 -0.1990 -0.8139
 1278SOL    HW115293   2.996   3.004   1.770 -0.1950  0.5344  1.0821
 1278SOL    HW215294   3.040   3.077   1.652 -1.3689 -0.8922 -0.6244
 1279SOL     OW15295   0.171   2.499   6.601  0.1051  0.3578  0.6039
 1279SOL    HW115296   0.117   2.434   6.555  0.2971  0.9965 -0.5135
 1279SOL    HW215297   0.199   2.463   6.685 -3.5335 -2.3053  0.6590
 1280SOL     OW15298   4.716   4.655   6.097  0.6541  0.2490 -0.1190
 1280SOL    HW115299   4.671   4.628   6.017  0.1903 -1.8076  0.8493
 1280SOL    HW215300   0.030   4.569   6.116  2.5810  1.0813 -0.2130
 1281SOL     OW15301   0.147   4.492   6.799  0.3963  0.0197  0.0215
 1281SOL    HW115302   0.060   4.530   6.810  0.8655  0.5529  2.0222
 1281SOL    HW215303   0.199   4.569   6.775  1.5370 -0.4160  1.0652
 1282SOL     OW15304   0.355   4.050   5.299  0.2028 -0.0863  0.2115
 1282SOL    HW115305   0.335   4.129   5.350 -1.5063 -0.5203  0.2167
 1282SOL    HW215306   0.446   4.063   5.274 -0.3545  1.4868 -0.9826
 1283SOL     OW15307   4.322   0.620   3.813 -0.0353 -0.4220 -0.0340
 1283SOL    HW115308   4.253   0.675   3.852 -0.3012 -0.6268 -0.2235
 1283SOL    HW215309   4.274   0.539   3.803 -1.0296  0.4939 -2.6611
 1284SOL     OW15310   4.659   0.627   3.287 -0.7055  0.5067 -0.3411
 1284SOL    HW115311   4.626   0.552   3.336  0.6053 -0.6750 -1.2676
 1284SOL    HW215312   4.649   0.693   3.356  2.4685  1.2913 -0.6229
 1285SOL     OW15313   0.841   1.548   2.589  0.2240 -0.0084  0.3808
 1285SOL    HW115314   0.854   1.549   2.494 -1.7408 -1.2699  0.1104
 1285SOL    HW215315   0.881   1.626   2.628  0.7170 -0.2038  0.2685
 1286SOL     OW15316   4.111   4.031   3.133  0.3415 -0.1241 -0.0347
 1286SOL    HW115317   4.105   4.116   3.177 -0.8431 -0.3247  0.1827
 1286SOL    HW215318   4.203   4.012   3.151  0.8060  1.7499 -0.4360
 1287SOL     OW15319   2.578   3.826  15.086 -0.8721  0.6225 -0.2320
 1287SOL    HW115320   2.513   3.790  15.146  0.4773  0.2352  1.0153
 1287SOL    HW215321   2.643   3.756  15.084  0.5254  1.9152 -0.0577
 1288SOL     OW15322   1.883   0.445   0.231 -0.3417 -0.2803  0.5862
 1288SOL    HW115323   1.806   0.500   0.216 -0.7491 -1.6543 -2.5068
 1288SOL    HW215324   1.941   0.477   0.162 -2.3874  0.1388 -0.9530
 1289SOL     OW15325   3.412   0.684  11.046  0.1496 -0.2661 -0.4014
 1289SOL    HW115326   3.348   0.751  11.025 -0.1569  0.0708  1.5983
 1289SOL    HW215327   3.366   0.601  11.055 -0.2694  0.1547  1.2941
 1290SOL     OW15328   4.234   1.532   3.617 -0.4100  0.0144  0.1061
 1290SOL    HW115329   4.304   1.596   3.601  2.5704 -4.3738 -4.5925
 1290SOL    HW215330   4.186   1.537   3.535  0.6918  0.3346 -0.5198
 1291SOL     OW15331   3.297   3.940  12.737 -0.4248 -0.2613 -0.3175
 1291SOL    HW115332   3.288   3.845  12.732  1.3852 -0.4121 -0.4385
 1291SOL    HW215333   3.203   3.953  12.753 -0.6448 -0.5060 -1.4063
 1292SOL     OW15334   2.180   0.850   2.727  0.1087  0.0330 -0.6400
 1292SOL    HW115335   2.232   0.910   2.780 -1.0866  0.8667 -0.4118
 1292SOL    HW215336   2.104   0.905   2.708  0.5508  0.1725 -2.0068
 1293SOL     OW15337   3.903   3.332   1.253 -0.1816 -0.3264 -0.1410
 1293SOL    HW115338   3.952   3.415   1.256  0.0231 -0.4658  0.5138
 1293SOL    HW215339   3.947   3.278   1.319 -1.0550 -0.0402  0.6923
 1294SOL     OW15340   1.811   4.204  11.074 -0.3515  0.1013 -0.1666
 1294SOL    HW115341   1.838   4.131  11.130  0.0736  1.1425  0.9826
 1294SOL    HW215342   1.846   4.285  11.110 -1.2283  0.7182 -0.7158
 1295SOL     OW15343   3.980   1.692   4.615 -0.2750  0.5026 -0.7252
 1295SOL    HW115344   3.983   1.708   4.710  1.5576  2.6094 -1.1517
 1295SOL    HW215345   3.975   1.781   4.579 -2.3779  0.3217 -0.9050
 1296SOL     OW15346   0.184   2.571  10.673  0.2730 -0.1562  0.2920
 1296SOL    HW115347   0.260   2.597  10.621  0.1848 -0.3045  0.0920
 1296SOL    HW215348   0.161   2.646  10.728 -1.7416 -1.2931  0.9823
 1297SOL     OW15349   2.506   3.210   5.823  0.0108 -0.0255 -1.1953
 1297SOL    HW115350   2.457   3.228   5.904  1.6742 -0.8032 -0.0078
 1297SOL    HW215351   2.596   3.213   5.855  0.0992  1.1987 -1.5567
 1298SOL     OW15352   2.975   3.317   3.532 -0.0717  0.4871 -0.0675
 1298SOL    HW115353   3.009   3.250   3.591  0.6618  2.3114  1.6007
 1298SOL    HW215354   2.912   3.271   3.477 -2.1155  0.7905  2.0034
 1299SOL     OW15355   1.420   1.072   7.375 -0.1419 -0.1976 -0.2485
 1299SOL    HW115356   1.471   1.138   7.422 -1.0026 -0.1001  0.5568
 1299SOL    HW215357   1.478   0.997   7.392 -1.3034 -0.4913  2.2904
 1300SOL     OW15358   2.442   0.465   5.863 -0.3413 -0.5560  0.0394
 1300SOL    HW115359   2.442   0.449   5.769 -1.3746 -1.3289  0.1759
 1300SOL    HW215360   2.353   0.443   5.890 -0.1594 -2.8267 -1.2849
 1301SOL     OW15361   4.281   0.731  14.992  0.5446 -0.1439  0.1328
 1301SOL    HW115362   4.186   0.725  14.999  0.6417 -0.4630  1.1212
 1301SOL    HW215363   4.289   0.826  15.001 -0.3667 -0.0607  0.0219
 1302SOL     OW15364   0.412   1.538  14.224  0.0032 -0.5029 -0.2293
 1302SOL    HW115365   0.417   1.624  14.268 -1.1860 -0.7599  0.4013
 1302SOL    HW215366   0.502   1.508  14.236  0.0918 -0.1981 -0.1072
 1303SOL     OW15367   2.264   4.300   1.966 -0.4010  0.3769  0.3640
 1303SOL    HW115368   2.175   4.315   1.934 -0.6920 -0.2125  0.8975
 1303SOL    HW215369   2.288   4.383   2.006 -0.9951  0.2094  1.0583
 1304SOL     OW15370   1.478   0.863   5.114 -0.7111 -0.1335  0.0410
 1304SOL    HW115371   1.562   0.899   5.085 -1.3421  0.1750 -1.4105
 1304SOL    HW215372   1.469   0.787   5.057  1.1714 -1.0389  0.9691
 1305SOL     OW15373   3.607   1.843   0.821 -0.4387  0.1542  0.5558
 1305SOL    HW115374   3.533   1.784   0.838  0.9394 -2.3237 -2.0437
 1305SOL    HW215375   3.675   1.799   0.872 -0.6778 -1.4424 -0.4948
 1306SOL     OW15376   3.783   1.521   8.665 -0.6598 -0.1564  0.3242
 1306SOL    HW115377   3.779   1.506   8.571  3.2570  0.1251  0.1458
 1306SOL    HW215378   3.873   1.499   8.689 -0.3658  0.4977 -0.1971
 1307SOL     OW15379   3.799   0.578   3.721  0.2888 -0.0010  0.0820
 1307SOL    HW115380   3.736   0.523   3.674 -0.2828  1.4653 -0.8613
 1307SOL    HW215381   3.861   0.597   3.651  0.8136 -0.4086  0.4367
 1308SOL     OW15382   1.116   0.248   3.231 -0.0397  0.4461 -0.1639
 1308SOL    HW115383   1.079   0.178   3.284  0.0988  0.5087  0.0164
 1308SOL    HW215384   1.067   0.237   3.150  1.9777 -3.2313 -0.8395
 1309SOL     OW15385   3.541   2.260   5.702  0.2706 -0.3845  0.2719
 1309SOL    HW115386   3.592   2.203   5.760 -0.4498 -1.7013 -0.4057
 1309SOL    HW215387   3.480   2.312   5.755 -0.9487  0.9845 -2.4500
 1310SOL     OW15388   3.371   2.739  10.587 -0.2794 -0.3353  0.1415
 1310SOL    HW115389   3.361   2.679  10.662 -1.6459  0.3386  0.5036
 1310SOL    HW215390   3.448   2.787  10.617  0.5272 -1.2731 -0.4347
 1311SOL     OW15391   0.086   1.259   9.091 -0.0381 -0.5736 -0.4371
 1311SOL    HW115392   0.007   1.209   9.110 -0.0103 -0.4120  0.1297
 1311SOL    HW215393   0.046   1.317   9.027 -1.4965 -0.9133  0.1643
 1312SOL     OW15394   2.495   1.320   3.654  0.5266 -0.3876  1.2932
 1312SOL    HW115395   2.483   1.257   3.726  1.8138  0.6872  2.4434
 1312SOL    HW215396   2.417   1.375   3.652 -0.4718 -1.9009 -2.4024
 1313SOL     OW15397   4.680   3.689   4.269 -0.3364  0.9867 -0.8145
 1313SOL    HW115398   0.037   3.700   4.220  0.4083  3.5728  1.0337
 1313SOL    HW215399   4.639   3.769   4.236 -0.5205  1.1984 -0.0809
 1314SOL     OW15400   1.831   2.364   6.970  0.3511 -0.2288 -0.1283
 1314SOL    HW115401   1.901   2.342   6.909  0.7198 -0.4714  0.3823
 1314SOL    HW215402   1.863   2.440   7.019 -3.0057  1.1708 -0.0984
 1315SOL     OW15403   0.164   1.037   6.047 -0.4312  0.2928 -0.0129
 1315SOL    HW115404   0.256   1.020   6.067 -0.1278  0.7543 -1.0493
 1315SOL    HW215405   0.119   0.960   6.083 -0.9012  0.4606 -0.2428
 1316SOL     OW15406   0.846   2.567  12.166  0.7031 -0.3731  0.1671
 1316SOL    HW115407   0.838   2.476  12.195  0.6912  0.2500  2.1660
 1316SOL    HW215408   0.792   2.571  12.087 -1.6042  0.7901  1.8142
 1317SOL     OW15409   0.026   2.050   0.440  0.0745 -0.2173 -0.4193
 1317SOL    HW115410   4.691   1.976   0.429  0.1139 -0.5114  1.4248
 1317SOL    HW215411   0.029   2.053   0.536  0.3440  1.6895 -0.4801
 1318SOL     OW15412   1.796   1.709   1.189  0.1359 -0.1065  0.0751
 1318SOL    HW115413   1.820   1.771   1.259  0.2196 -1.0424  0.8697
 1318SOL    HW215414   1.796   1.759   1.107 -0.2136 -0.3599 -0.0791
 1319SOL     OW15415   1.027   3.717   7.996  0.0364  0.3570 -0.6918
 1319SOL    HW115416   1.055   3.803   7.964 -2.3854  1.3158 -0.2365
 1319SOL    HW215417   1.104   3.662   7.978  1.8864  2.3776  1.1111
 1320SOL     OW15418   0.772   3.055   4.710 -0.0783 -0.0703 -0.2268
 1320SOL    HW115419   0.722   3.004   4.774  1.3895 -0.8460  0.3074
 1320SOL    HW215420   0.786   2.990   4.641  1.5614  0.2609 -0.2055
 1321SOL     OW15421   3.583   1.730   5.217 -0.0260 -0.1165 -0.3264
 1321SOL    HW115422   3.564   1.750   5.126  1.2346  1.9785 -0.1300
 1321SOL    HW215423   3.528   1.797   5.258 -1.1732 -1.5289  0.4320
 1322SOL     OW15424   3.429   2.681   6.991  0.5593 -0.3234  0.1732
 1322SOL    HW115425   3.350   2.669   7.043 -1.3130  1.9025 -2.1517
 1322SOL    HW215426   3.481   2.737   7.049 -0.9483  1.7185 -0.4519
 1323SOL     OW15427   2.121   4.544  11.560  0.3027  0.2786 -0.0065
 1323SOL    HW115428   2.215   4.560  11.552  0.3211  0.4038  0.4254
 1323SOL    HW215429   2.101   4.621  11.506 -3.6979 -0.5639  0.2711
 1324SOL     OW15430   2.039   0.090   8.057  0.0486 -0.3847 -0.3281
 1324SOL    HW115431   2.040   4.723   8.084 -2.0557 -0.2299  0.3027
 1324SOL    HW215432   2.091   0.125   8.129 -0.4563  1.3686 -0.8091
 1325SOL     OW15433   1.314   2.034  13.850  0.4727  0.5322  0.4558
 1325SOL    HW115434   1.311   2.014  13.756  0.0702  1.6061  0.2457
 1325SOL    HW215435   1.399   2.078  13.855 -0.1090  1.8166 -0.9172
 1326SOL     OW15436   2.874   1.637   5.338  0.2471 -0.2090 -0.0127
 1326SOL    HW115437   2.869   1.546   5.365 -2.7141 -0.1915 -0.5404
 1326SOL    HW215438   2.808   1.675   5.396 -0.9554  2.0502 -2.8673
 1327SOL     OW15439   4.123   4.132   4.028 -0.0466 -0.3141 -0.0676
 1327SOL    HW115440   4.116   4.201   4.093  1.4243 -0.9924  0.8332
 1327SOL    HW215441   4.169   4.062   4.076  0.2955 -0.4106 -0.5312
 1328SOL     OW15442   0.073   0.875  14.461  0.1244  0.2430 -0.1308
 1328SOL    HW115443   0.120   0.896  14.541  0.2371 -0.9092  0.1067
 1328SOL    HW215444   0.041   0.786  14.471 -0.5403  0.4981  0.0176
 1329SOL     OW15445   0.353   0.290  16.463  0.1225  0.6056 -0.4534
 1329SOL    HW115446   0.299   0.368  16.478  1.7612  2.0590 -2.0536
 1329SOL    HW215447   0.421   0.323  16.403 -1.7161  1.0225 -2.3155
 1330SOL     OW15448   0.181   3.246  16.868  0.7033  0.1132  0.3610
 1330SOL    HW115449   0.147   3.159  16.890 -1.2284  0.6997 -0.3739
 1330SOL    HW215450   0.096   3.288  16.857  1.5492  1.4581 -1.0119
 1331SOL     OW15451   4.388   3.659   8.534  0.5152  0.1048  0.5080
 1331SOL    HW115452   4.439   3.664   8.615 -1.1695  1.2117  1.4943
 1331SOL    HW215453   4.431   3.734   8.492 -1.5403  2.2538  2.2467
 1332SOL     OW15454   2.750   2.430   5.219 -0.4406  0.0262 -0.3390
 1332SOL    HW115455   2.692   2.494   5.178  0.5169 -0.0844 -1.8471
 1332SOL    HW215456   2.679   2.384   5.264  0.5234  0.0609  1.2229
 1333SOL     OW15457   0.030   0.779   2.326  0.4390 -0.2862 -0.4341
 1333SOL    HW115458   0.079   0.699   2.306 -1.5823 -1.5495 -0.3308
 1333SOL    HW215459   0.022   0.816   2.238  1.1845  2.0551  0.4834
 1334SOL     OW15460   3.174   1.460   4.272 -0.2662 -0.3201 -0.3040
 1334SOL    HW115461   3.090   1.431   4.306  0.1869  0.7253  1.7849
 1334SOL    HW215462   3.175   1.552   4.299 -0.2511 -0.5757  0.5843
 1335SOL     OW15463   3.763   0.596   8.636 -0.3993 -0.0557 -0.0766
 1335SOL    HW115464   3.742   0.679   8.678 -0.5843  1.6939 -3.6636
 1335SOL    HW215465   3.827   0.613   8.568 -0.0942  1.1741  0.5238
 1336SOL     OW15466   0.514   3.201   5.339  0.5981 -0.3890 -0.3318
 1336SOL    HW115467   0.530   3.192   5.245  0.6942  2.7625 -0.6117
 1336SOL    HW215468   0.503   3.109   5.365 -0.6058 -0.5609 -1.4523
 1337SOL     OW15469   3.846   2.315  11.365 -0.3124 -0.0471  0.1121
 1337SOL    HW115470   3.845   2.226  11.401  1.1868 -0.7270 -1.5332
 1337SOL    HW215471   3.765   2.304  11.314  0.4550 -0.1755 -1.0785
 1338SOL     OW15472   1.656   2.552   6.235  0.3435  1.3393 -0.2885
 1338SOL    HW115473   1.717   2.532   6.307 -0.4791 -2.9610 -0.8014
 1338SOL    HW215474   1.711   2.531   6.159  0.8995 -3.0952  1.3512
 1339SOL     OW15475   3.112   1.328   3.760 -0.1242 -0.4987 -0.5951
 1339SOL    HW115476   3.151   1.327   3.848 -0.8890 -2.3026 -0.2758
 1339SOL    HW215477   3.022   1.311   3.789  0.2078 -1.8582 -0.3943
 1340SOL     OW15478   0.348   4.255   4.190  0.4111 -0.3292 -0.0587
 1340SOL    HW115479   0.368   4.169   4.152  0.3435  0.0063 -0.8681
 1340SOL    HW215480   0.426   4.300   4.156  1.4021 -3.0378 -1.4086
 1341SOL     OW15481   4.460   0.848   4.342  0.1782  0.6604 -0.2721
 1341SOL    HW115482   4.404   0.794   4.398  0.4915 -0.1314 -0.7250
 1341SOL    HW215483   4.461   0.797   4.261 -1.4411 -2.0026  1.3834
 1342SOL     OW15484   4.718   0.194   9.788  0.7698 -0.3653  0.5178
 1342SOL    HW115485   4.691   0.203   9.696  2.9587 -0.2668 -0.1034
 1342SOL    HW215486   4.646   0.162   9.842 -2.5369  1.5524 -2.6879
 1343SOL     OW15487   2.441   3.686  13.902 -0.3765  0.1447  0.2471
 1343SOL    HW115488   2.520   3.721  13.944 -0.3184 -0.0517  0.3028
 1343SOL    HW215489   2.470   3.596  13.885 -1.0726 -0.2644  1.2353
 1344SOL     OW15490   3.561   2.611   5.173 -0.0442  0.3041 -0.2892
 1344SOL    HW115491   3.651   2.584   5.188  0.0527  0.9918  0.3510
 1344SOL    HW215492   3.524   2.536   5.221 -0.0766 -0.1909 -1.0855
 1345SOL     OW15493   1.283   2.618  11.713  0.1693 -0.2634  0.2577
 1345SOL    HW115494   1.241   2.654  11.635  0.6974 -3.9224 -1.7079
 1345SOL    HW215495   1.215   2.568  11.759  0.3376 -1.3402 -0.6634
 1346SOL     OW15496   0.056   1.306  12.343  0.1930  0.6829 -0.1197
 1346SOL    HW115497   0.058   1.289  12.437  0.6586 -0.5073 -0.3509
 1346SOL    HW215498   0.040   1.400  12.334 -1.4609  0.4831  0.7289
 1347SOL     OW15499   3.269   2.702   9.731  0.0714  0.3095 -0.0897
 1347SOL    HW115500   3.362   2.676   9.729 -0.1575 -0.5444  0.1601
 1347SOL    HW215501   3.241   2.662   9.813 -0.4429  0.5520 -0.1518
 1348SOL     OW15502   2.654   4.542   7.964  0.2315 -0.0345  0.2762
 1348SOL    HW115503   2.561   4.562   7.961 -0.4717 -3.4062 -0.9072
 1348SOL    HW215504   2.684   4.586   8.043 -0.6446 -0.4289  0.8199
 1349SOL     OW15505   0.344   2.820   2.830  0.3187  0.3895 -0.0794
 1349SOL    HW115506   0.368   2.912   2.822  1.2063  0.1710 -0.0366
 1349SOL    HW215507   0.349   2.788   2.740 -2.3057 -0.2794  0.0164
 1350SOL     OW15508   0.589   2.622  16.428 -0.6018  0.3400 -0.0826
 1350SOL    HW115509   0.624   2.705  16.462 -0.5676  0.5925 -0.7236
 1350SOL    HW215510   0.529   2.593  16.496  0.2898 -1.0212  0.1281
 1351SOL     OW15511   2.231   0.134   0.057 -0.2165 -0.7167  0.1437
 1351SOL    HW115512   2.200   0.058   0.008  0.4552 -1.3370  0.6671
 1351SOL    HW215513   2.197   0.211   0.012  1.3735  1.3849  2.5030
 1352SOL     OW15514   1.001   3.868  17.476 -0.0673 -0.5097  0.8125
 1352SOL    HW115515   1.027   3.954  17.509 -2.0999 -0.0257  1.1338
 1352SOL    HW215516   0.942   3.888  17.403  0.8381  0.5658  0.3729
 1353SOL     OW15517   3.676   4.427   6.013  0.9293  0.7910 -0.2066
 1353SOL    HW115518   3.733   4.430   5.937  2.3985 -3.2847  0.7336
 1353SOL    HW215519   3.596   4.466   5.978 -0.4092 -0.3352  1.5184
 1354SOL     OW15520   0.042   4.142   9.435 -0.0849  1.0799 -0.4670
 1354SOL    HW115521   0.028   4.192   9.354  1.1774 -1.0070 -1.9552
 1354SOL    HW215522   0.039   4.215   9.498 -0.8765 -1.0646  1.9622
 1355SOL     OW15523   3.745   4.616  14.601  0.0353  0.4617 -0.1820
 1355SOL    HW115524   3.712   4.701  14.630  1.1788  0.3726  1.3972
 1355SOL    HW215525   3.708   4.600  14.514  0.3898  3.3856 -0.8706
 1356SOL     OW15526   3.299   1.197   2.845 -0.2017 -0.5120 -0.2329
 1356SOL    HW115527   3.276   1.248   2.922  0.8415 -1.5325  0.7468
 1356SOL    HW215528   3.246   1.239   2.777  0.3387  1.0385  0.2976
 1357SOL     OW15529   2.333   0.362  13.098  0.2546  0.1351 -0.0583
 1357SOL    HW115530   2.282   0.340  13.020  0.7454 -1.5403  0.0939
 1357SOL    HW215531   2.286   0.431  13.145  0.5088  0.4987 -0.3389
 1358SOL     OW15532   2.460   3.736   8.738 -0.1644 -0.0738  0.6364
 1358SOL    HW115533   2.554   3.747   8.727  0.1625 -3.8235 -0.1120
 1358SOL    HW215534   2.435   3.806   8.677  0.1970  1.0775  1.7978
 1359SOL     OW15535   2.077   2.665  14.454  0.0080 -0.1983  0.0714
 1359SOL    HW115536   2.092   2.657  14.360 -1.8932  1.3209 -0.3605
 1359SOL    HW215537   2.167   2.658  14.484  0.3256  0.7465 -0.6656
 1360SOL     OW15538   4.538   2.882   5.641 -0.0396  0.1212  0.3562
 1360SOL    HW115539   4.521   2.933   5.562  1.7519 -0.9334 -0.7134
 1360SOL    HW215540   4.633   2.879   5.642 -0.0146  0.4872 -0.7094
 1361SOL     OW15541   4.407   4.651   2.397 -0.1902 -0.8070 -0.3953
 1361SOL    HW115542   4.500   4.632   2.390 -0.1811 -0.9837  0.2630
 1361SOL    HW215543   4.381   4.582   2.336  0.0719 -1.7832  0.6126
 1362SOL     OW15544   3.368   3.135   8.441  0.4662 -0.1286 -1.0061
 1362SOL    HW115545   3.344   3.183   8.362 -0.7542 -1.5745 -1.4933
 1362SOL    HW215546   3.381   3.045   8.412 -2.9822 -0.5739 -1.1568
 1363SOL     OW15547   3.952   0.704   3.913  0.5792  0.5079 -0.0426
 1363SOL    HW115548   3.875   0.670   3.868  0.2093  1.4644 -0.1298
 1363SOL    HW215549   3.945   0.659   3.998 -0.1659  0.3540 -0.1853
 1364SOL     OW15550   0.253   2.680   9.952 -0.1914 -0.2367 -0.5283
 1364SOL    HW115551   0.320   2.622   9.916 -0.7315  0.1955 -2.2471
 1364SOL    HW215552   0.294   2.765   9.935  0.0523  0.3061  2.8121
 1365SOL     OW15553   3.761   0.876   2.483 -0.0697 -0.6052  0.2471
 1365SOL    HW115554   3.828   0.873   2.415 -3.2309  3.5518 -3.1220
 1365SOL    HW215555   3.785   0.809   2.547  0.3103  0.8463  1.6254
 1366SOL     OW15556   3.923   4.116  16.113  0.2297 -0.0651  0.0791
 1366SOL    HW115557   3.932   4.055  16.039  0.5279 -0.5014  0.4753
 1366SOL    HW215558   3.838   4.079  16.134 -0.0622  2.5721  3.4032
 1367SOL     OW15559   3.231   1.587   2.886 -0.0138 -0.3505  0.7512
 1367SOL    HW115560   3.233   1.544   2.800 -1.7827 -0.4985  0.7738
 1367SOL    HW215561   3.324   1.577   2.902  0.0706 -1.6259 -0.5652
 1368SOL     OW15562   3.397   3.728   7.274 -0.5389  0.0075 -0.0892
 1368SOL    HW115563   3.352   3.646   7.294  0.2882 -1.1459 -3.0482
 1368SOL    HW215564   3.372   3.774   7.355 -2.9709  0.3376 -1.0173
 1369SOL     OW15565   1.991   2.542   5.145 -0.2945 -0.1425  0.4462
 1369SOL    HW115566   1.987   2.634   5.118  0.0447 -0.9624 -2.2877
 1369SOL    HW215567   2.014   2.549   5.238 -1.4433  1.1936  0.6377
 1370SOL     OW15568   3.711   4.043  10.564  0.8725  0.6695  0.2628
 1370SOL    HW115569   3.707   4.095  10.644 -1.7911  0.9699 -0.0763
 1370SOL    HW215570   3.670   3.964  10.599  1.6522  0.0713 -0.1787
 1371SOL     OW15571   2.694   2.619   2.601 -0.0824  0.1731 -0.1923
 1371SOL    HW115572   2.661   2.668   2.677  1.1082 -0.5235  0.7867
 1371SOL    HW215573   2.605   2.593   2.576 -0.2442  2.1018 -1.5869
 1372SOL     OW15574   2.518   1.109   4.290  0.2487 -0.0742  0.3633
 1372SOL    HW115575   2.500   1.053   4.365  1.6260 -0.4065  0.4378
 1372SOL    HW215576   2.571   1.173   4.338  0.3842  1.0865 -1.3315
 1373SOL     OW15577   0.952   2.377   7.161 -0.1282  0.4349 -0.1781
 1373SOL    HW115578   0.940   2.465   7.126 -0.1517  0.9540  1.1081
 1373SOL    HW215579   1.008   2.397   7.236 -0.7864 -0.0791  0.4526
 1374SOL     OW15580   4.015   0.025   1.424 -0.6150 -0.3092  0.2895
 1374SOL    HW115581   4.085   0.089   1.427 -0.4624 -0.4831  0.4536
 1374SOL    HW215582   4.033   4.695   1.501  1.1178  0.1870  0.2131
 1375SOL     OW15583   1.560   2.998   1.730  0.4304  0.0584 -0.0879
 1375SOL    HW115584   1.619   2.927   1.703 -0.8239 -1.1662  0.3515
 1375SOL    HW215585   1.496   2.956   1.787  1.4937 -2.0158 -0.3789
 1376SOL     OW15586   1.025   3.445   6.629 -0.0198  0.4679  0.0624
 1376SOL    HW115587   0.967   3.508   6.587  0.7052 -0.0437 -1.6902
 1376SOL    HW215588   1.101   3.503   6.631  0.4368 -0.1088 -0.6135
 1377SOL     OW15589   0.070   0.536   0.791  0.0765 -0.2100  0.0824
 1377SOL    HW115590   0.078   0.443   0.814 -0.6197 -0.6653 -1.5318
 1377SOL    HW215591   0.144   0.572   0.839  1.2356 -2.2385 -0.1717
 1378SOL     OW15592   3.749   3.171  13.103  0.3493 -0.1969 -0.4975
 1378SOL    HW115593   3.705   3.087  13.114  0.8020 -0.5269 -1.1878
 1378SOL    HW215594   3.675   3.231  13.111  2.0619  2.3280 -3.1246
 1379SOL     OW15595   3.756   4.219   2.156  0.1879  0.1881  0.3831
 1379SOL    HW115596   3.808   4.180   2.085 -0.4457  0.7879 -0.4164
 1379SOL    HW215597   3.764   4.312   2.133  0.7894 -0.1484 -0.7871
 1380SOL     OW15598   0.164   4.558   6.393  0.1175 -0.2925 -0.1463
 1380SOL    HW115599   0.147   4.492   6.327  2.1409 -0.0991 -0.8871
 1380SOL    HW215600   0.259   4.562   6.407  0.0544  0.9559 -0.0173
 1381SOL     OW15601   1.722   1.752   6.944  0.3292 -0.8668 -0.3506
 1381SOL    HW115602   1.644   1.721   6.990  1.1779  0.1637  1.7498
 1381SOL    HW215603   1.718   1.710   6.858  0.1144 -2.0229  0.2235
 1382SOL     OW15604   4.503   2.769   2.535 -0.4345  0.2845 -0.5796
 1382SOL    HW115605   4.418   2.779   2.492  0.1724 -0.4798 -1.9770
 1382SOL    HW215606   4.470   2.747   2.622 -0.8183 -0.5183 -0.9315
 1383SOL     OW15607   1.870   3.747   0.793 -0.3983 -0.1625 -0.6002
 1383SOL    HW115608   1.919   3.758   0.712 -2.8140  2.2585 -1.7595
 1383SOL    HW215609   1.918   3.684   0.847 -1.1292  0.6602  1.0328
 1384SOL     OW15610   1.423   0.448  10.224  0.1579  0.3589  0.0818
 1384SOL    HW115611   1.348   0.464  10.167  0.1436  1.7822  0.4991
 1384SOL    HW215612   1.481   0.501  10.169 -0.8449  0.1096 -1.2164
 1385SOL     OW15613   4.133   2.829  12.964  0.3875 -0.1114  0.2602
 1385SOL    HW115614   4.122   2.774  12.886  0.0636  0.6716 -0.2456
 1385SOL    HW215615   4.223   2.854  12.942 -0.5557  2.0365 -1.0653
 1386SOL     OW15616   4.098   3.212   2.733 -0.1217 -0.1952 -0.1292
 1386SOL    HW115617   4.029   3.278   2.729  2.1889  2.1742 -0.5057
 1386SOL    HW215618   4.042   3.148   2.777  1.9512 -2.6885 -1.0495
 1387SOL     OW15619   4.603   1.805   0.849  0.0260  0.4050 -0.4076
 1387SOL    HW115620   4.655   1.805   0.929  0.5147  1.5029 -0.7195
 1387SOL    HW215621   4.527   1.753   0.875 -1.7423  1.7701 -2.8221
 1388SOL     OW15622   4.056   3.311   2.316 -0.2504  0.3401  0.2978
 1388SOL    HW115623   3.982   3.253   2.331 -1.7675  2.6252  1.7074
 1388SOL    HW215624   4.059   3.369   2.393  2.6295 -0.3253  0.7098
 1389SOL     OW15625   2.340   0.921   4.514  0.3088 -0.4475  0.7675
 1389SOL    HW115626   2.427   0.942   4.549  0.5289  1.1527 -0.7642
 1389SOL    HW215627   2.280   0.916   4.588  0.2621  0.0103  0.7583
 1390SOL     OW15628   2.316   3.198   6.354 -0.3188  0.0317  0.1350
 1390SOL    HW115629   2.308   3.169   6.263 -0.7842  0.0042  0.1839
 1390SOL    HW215630   2.409   3.218   6.352  0.1070 -1.7374  2.3409
 1391SOL     OW15631   0.657   1.287   4.171  0.0841 -0.3406  0.6389
 1391SOL    HW115632   0.743   1.297   4.129 -0.0808  3.5836  1.3326
 1391SOL    HW215633   0.682   1.300   4.262 -0.6569  4.2662  0.1480
 1392SOL     OW15634   3.057   3.090  15.026  0.1490 -0.0947  0.5447
 1392SOL    HW115635   2.987   3.100  14.962 -0.0410 -0.3936  0.7056
 1392SOL    HW215636   3.106   3.015  14.994 -1.3534  0.3225 -2.7510
 1393SOL     OW15637   4.266   0.130   1.462 -0.3484 -0.0402  0.6708
 1393SOL    HW115638   4.359   0.108   1.458  0.2377  2.3573  0.9889
 1393SOL    HW215639   4.258   0.164   1.551  1.2896 -0.6242  1.0476
 1394SOL     OW15640   1.285   1.437   8.128 -0.4421  0.0774  0.1579
 1394SOL    HW115641   1.360   1.487   8.097  0.4883 -1.4071  0.0678
 1394SOL    HW215642   1.220   1.503   8.154 -1.3770 -0.8455  0.1564
 1395SOL     OW15643   4.596   0.378   3.886 -0.5325 -0.1153 -0.1474
 1395SOL    HW115644   4.590   0.284   3.902 -1.2153  0.2580  1.8751
 1395SOL    HW215645   4.533   0.386   3.814 -2.3990  1.9928  1.6961
 1396SOL     OW15646   0.248   3.756   4.483  0.5955  0.2207 -0.2619
 1396SOL    HW115647   0.213   3.746   4.571  0.2171  0.7960 -0.3500
 1396SOL    HW215648   0.250   3.851   4.468 -0.4132  0.3816  0.6671
 1397SOL     OW15649   4.149   0.029   3.117  0.1187  0.3854  0.1302
 1397SOL    HW115650   4.187   0.021   3.030  0.8280  0.4210  0.4426
 1397SOL    HW215651   4.101   0.112   3.125 -0.1615  0.2685 -0.3052
 1398SOL     OW15652   3.231   3.077   7.308  0.0891  0.2409 -0.4361
 1398SOL    HW115653   3.140   3.053   7.321  0.2780 -0.3818 -0.2788
 1398SOL    HW215654   3.258   3.013   7.242  4.3741  0.8485  0.7307
 1399SOL     OW15655   0.998   0.488  12.650 -0.1704 -0.1542  0.0102
 1399SOL    HW115656   1.031   0.570  12.611  1.0014  0.0595  1.4393
 1399SOL    HW215657   0.969   0.451  12.567 -0.9394  0.7383 -0.1178
 1400SOL     OW15658   4.428   1.932  16.986  0.6212  0.3123 -0.1356
 1400SOL    HW115659   4.443   2.001  17.051 -1.8641  0.8875 -0.1744
 1400SOL    HW215660   4.430   1.979  16.903  2.6026  0.3753 -0.0387
 1401SOL     OW15661   3.103   0.906   3.541 -0.3687 -0.5165  0.1929
 1401SOL    HW115662   3.146   0.871   3.463  2.5237 -0.1631  1.6181
 1401SOL    HW215663   3.085   0.827   3.591 -1.2778 -0.5576 -0.2103
 1402SOL     OW15664   1.838   4.603   1.296 -0.3371 -0.8370  0.1924
 1402SOL    HW115665   1.845   4.620   1.390  1.1986 -0.9216  0.0949
 1402SOL    HW215666   1.796   4.683   1.266 -1.3624 -1.6443 -0.5236
 1403SOL     OW15667   2.192   3.012   5.236 -0.2538  0.1143 -0.6805
 1403SOL    HW115668   2.224   3.087   5.184  0.4526  0.3567  0.0936
 1403SOL    HW215669   2.105   3.018   5.198 -0.8711  0.3493  0.7911
 1404SOL     OW15670   2.556   1.819   7.607 -0.3279  0.2967 -0.8286
 1404SOL    HW115671   2.548   1.835   7.701  0.6431 -0.4104 -0.6296
 1404SOL    HW215672   2.600   1.901   7.581 -0.6313  1.9104  3.7629
 1405SOL     OW15673   0.335   3.277   8.605  0.3475 -0.1719 -0.2073
 1405SOL    HW115674   0.304   3.240   8.687  1.2665  1.4114  0.8603
 1405SOL    HW215675   0.407   3.326   8.644  0.1817 -0.8097  0.8817
 1406SOL     OW15676   2.261   3.946  12.975 -0.4706 -0.1269 -0.1477
 1406SOL    HW115677   2.279   3.907  12.890  0.3564  0.7748 -0.3825
 1406SOL    HW215678   2.237   3.874  13.034 -1.2134 -1.4393 -2.0699
 1407SOL     OW15679   3.564   4.097  12.113  0.2350  0.5542  0.7761
 1407SOL    HW115680   3.620   4.121  12.039 -0.6760 -1.4644 -0.5739
 1407SOL    HW215681   3.482   4.064  12.078 -0.0704 -0.3494  2.3257
 1408SOL     OW15682   0.741   0.712   7.525 -0.3213 -0.4600 -0.4084
 1408SOL    HW115683   0.675   0.764   7.480 -1.3083  0.8515  2.5572
 1408SOL    HW215684   0.696   0.633   7.554 -1.1210  0.4302  0.7314
 1409SOL     OW15685   0.145   4.393   6.164 -0.1025 -0.4193 -0.2051
 1409SOL    HW115686   0.086   4.318   6.156 -0.7685  0.0206  0.7425
 1409SOL    HW215687   0.202   4.375   6.088  0.8834  0.6854  0.2668
 1410SOL     OW15688   1.245   2.743   6.949  0.4551 -0.0736 -0.2571
 1410SOL    HW115689   1.175   2.759   6.886 -0.3035 -1.6828  0.1773
 1410SOL    HW215690   1.227   2.802   7.022  1.3064  0.6504 -0.6306
 1411SOL     OW15691   0.697   0.321  17.516  0.6539  0.0323  0.2480
 1411SOL    HW115692   0.696   0.365  17.430  2.6866 -1.5025 -0.5772
 1411SOL    HW215693   0.785   0.344  17.546  0.8721 -0.5462  0.0579
 1412SOL     OW15694   3.618   1.274   2.331 -0.3623 -0.2108 -0.4819
 1412SOL    HW115695   3.685   1.242   2.271  0.0387 -1.7715  0.8017
 1412SOL    HW215696   3.546   1.219   2.301  0.8692 -1.5997 -0.8998
 1413SOL     OW15697   1.105   3.810   3.671 -0.2134  0.4966 -0.4654
 1413SOL    HW115698   1.044   3.741   3.646 -0.1808 -0.1866  1.3392
 1413SOL    HW215699   1.068   3.827   3.757 -0.3467 -2.1764  0.0147
 1414SOL     OW15700   0.155   1.294  10.142 -0.2290  0.4484 -0.9162
 1414SOL    HW115701   0.187   1.370  10.190  2.7908  0.6445 -3.2801
 1414SOL    HW215702   0.233   1.254  10.104 -0.0071  0.9005 -0.9364
 1415SOL     OW15703   1.467   0.655   9.355  0.1901  0.6714 -0.9465
 1415SOL    HW115704   1.454   0.595   9.428 -0.0794  2.0764  0.1699
 1415SOL    HW215705   1.470   0.595   9.281  1.7716  1.7878 -1.7883
 1416SOL     OW15706   1.531   0.226   9.589 -0.1860 -0.1574 -0.4569
 1416SOL    HW115707   1.460   0.287   9.607 -1.1549 -1.3667 -0.2248
 1416SOL    HW215708   1.491   0.141   9.606 -1.5469  0.4914 -0.4635
 1417SOL     OW15709   0.780   1.603  10.036 -0.4055 -0.0094 -0.1349
 1417SOL    HW115710   0.853   1.663  10.020 -1.0189 -0.2225 -3.7109
 1417SOL    HW215711   0.816   1.528  10.083 -0.8737  0.1439  0.4687
 1418SOL     OW15712   2.787   1.002   3.204  0.4527 -0.1176  0.2373
 1418SOL    HW115713   2.822   1.077   3.157  1.3299 -1.4406 -1.1951
 1418SOL    HW215714   2.701   1.039   3.225 -0.0729 -0.9548 -0.4608
 1419SOL     OW15715   4.299   3.730   3.207 -0.3144  0.7333 -0.0280
 1419SOL    HW115716   4.380   3.778   3.224 -0.6351  1.5083 -0.6848
 1419SOL    HW215717   4.328   3.642   3.233 -0.1591  0.7779 -0.0490
 1420SOL     OW15718   3.875   2.948   5.536 -0.3103  0.0064  0.1895
 1420SOL    HW115719   3.784   2.923   5.551 -0.9016  1.8839 -0.1879
 1420SOL    HW215720   3.907   2.968   5.624 -0.6810 -0.6403  0.4644
 1421SOL     OW15721   0.778   1.978   6.751 -0.0804 -0.1798  0.3316
 1421SOL    HW115722   0.710   1.911   6.760 -0.8996  0.2582 -2.7459
 1421SOL    HW215723   0.787   2.007   6.842 -3.3180 -0.4379  0.7239
 1422SOL     OW15724   2.182   4.014   2.567 -0.0308 -0.2334 -0.3689
 1422SOL    HW115725   2.112   3.949   2.578  0.7156 -0.7107  1.4153
 1422SOL    HW215726   2.255   3.960   2.537  1.7578  0.9937  1.8285
 1423SOL     OW15727   2.988   0.485  11.333 -0.7068  0.1577 -0.0116
 1423SOL    HW115728   3.046   0.427  11.284 -2.1552 -1.9136  0.7370
 1423SOL    HW215729   2.956   0.528  11.254 -0.2394  1.9386  0.7780
 1424SOL     OW15730   1.468   1.485  15.503  0.7273  0.4135  0.1075
 1424SOL    HW115731   1.429   1.570  15.521  0.4197  0.7515 -2.1395
 1424SOL    HW215732   1.560   1.498  15.479  0.4803 -0.4040 -1.3072
 1425SOL     OW15733   0.690   0.235  12.518  0.0804 -0.0028 -0.0875
 1425SOL    HW115734   0.642   0.192  12.447  0.0463  0.8986 -0.6070
 1425SOL    HW215735   0.653   0.323  12.521 -1.3490 -0.5874 -0.1721
 1426SOL     OW15736   0.841   4.275   1.628  0.8829 -0.6639 -0.3371
 1426SOL    HW115737   0.922   4.228   1.643  1.4418  0.7117  0.9136
 1426SOL    HW215738   0.863   4.342   1.563  0.4545 -0.4126 -0.2261
 1427SOL     OW15739   1.212   1.916  14.311 -0.6823  0.5467  0.0517
 1427SOL    HW115740   1.216   1.871  14.227 -1.3617  0.1962  0.1968
 1427SOL    HW215741   1.155   1.987  14.282 -0.4512  1.0330  0.7849
 1428SOL     OW15742   2.917   2.882  16.403 -0.1256 -0.1556  0.4496
 1428SOL    HW115743   2.967   2.912  16.327  1.4104 -1.3935  0.9760
 1428SOL    HW215744   2.926   2.957  16.462  1.5043 -0.0774  0.0922
 1429SOL     OW15745   1.750   0.989   8.356  0.0449 -0.9549  0.3583
 1429SOL    HW115746   1.688   0.921   8.384 -0.6618 -0.7175 -0.6370
 1429SOL    HW215747   1.773   1.025   8.442 -3.2539 -2.4422  1.8440
 1430SOL     OW15748   4.419   1.198   3.757 -0.0859  0.0688  0.8492
 1430SOL    HW115749   4.474   1.213   3.833 -3.3357 -1.3025  3.4913
 1430SOL    HW215750   4.425   1.282   3.710  0.4866 -1.0658 -1.0928
 1431SOL     OW15751   1.744   3.895  17.573 -0.1365  0.1102  0.6092
 1431SOL    HW115752   1.657   3.891  17.614 -0.5039  1.3433 -0.0492
 1431SOL    HW215753   1.791   3.863  17.650  0.9869 -2.5695 -1.2083
 1432SOL     OW15754   0.375   0.817  10.383 -0.1640  0.5998 -0.3834
 1432SOL    HW115755   0.406   0.741  10.432 -1.1891  1.8179  2.1377
 1432SOL    HW215756   0.412   0.892  10.429 -0.0292 -0.1461  0.7228
 1433SOL     OW15757   4.232   2.498   6.429  0.6492 -0.3126  0.5344
 1433SOL    HW115758   4.274   2.415   6.452  1.1956 -0.3981 -0.7500
 1433SOL    HW215759   4.140   2.481   6.451  0.3041  1.0973  0.1619
 1434SOL     OW15760   1.442   0.183   4.001  0.0653 -0.3331 -0.2384
 1434SOL    HW115761   1.470   0.249   4.063 -0.1875 -1.8446  1.4843
 1434SOL    HW215762   1.468   0.226   3.920  0.9850  2.3285  1.4937
 1435SOL     OW15763   1.002   3.131   3.389  0.2587  0.2086  0.2196
 1435SOL    HW115764   1.096   3.112   3.384  0.1238 -0.4421  0.1939
 1435SOL    HW215765   1.002   3.224   3.415 -0.5240  0.5794 -1.0945
 1436SOL     OW15766   4.235   0.616  12.158  0.3968  0.2679  0.1435
 1436SOL    HW115767   4.313   0.595  12.106 -1.4176 -4.2233 -0.7409
 1436SOL    HW215768   4.204   0.696  12.114  2.5588  1.3898  0.6852
 1437SOL     OW15769   4.588   1.192   1.402  0.2014 -0.2227  0.4324
 1437SOL    HW115770   4.540   1.201   1.320  1.9119 -1.6894 -0.7117
 1437SOL    HW215771   4.644   1.270   1.394  0.8586 -0.8297 -0.8248
 1438SOL     OW15772   1.384   2.342   3.318  0.5990  0.3019  0.3733
 1438SOL    HW115773   1.434   2.296   3.250  2.2657  0.3351  1.5784
 1438SOL    HW215774   1.428   2.311   3.398  0.9813 -0.4140 -0.1129
 1439SOL     OW15775   1.245   3.043   0.330 -0.8727 -0.1264 -0.1875
 1439SOL    HW115776   1.301   2.965   0.328 -1.2531 -0.3918 -0.9048
 1439SOL    HW215777   1.215   3.046   0.420  1.1217 -1.1037  0.4945
 1440SOL     OW15778   1.015   3.903   2.698 -0.3595  0.8624  0.3799
 1440SOL    HW115779   0.930   3.871   2.666 -0.8440  1.3137  1.2051
 1440SOL    HW215780   1.050   3.953   2.624 -0.8585 -2.5761 -2.2256
 1441SOL     OW15781   2.058   3.229   6.992  0.4991 -0.3406 -0.0662
 1441SOL    HW115782   2.042   3.227   6.897  1.0424 -1.4276 -0.1269
 1441SOL    HW215783   2.130   3.290   7.005 -1.5860  2.0918  0.1833
 1442SOL     OW15784   3.500   2.050   6.316 -0.1320 -0.3109 -0.4190
 1442SOL    HW115785   3.587   2.014   6.329  0.2463  0.7880  0.0673
 1442SOL    HW215786   3.468   1.994   6.245 -0.1547 -2.0109  0.9046
 1443SOL     OW15787   0.112   2.393  16.467 -0.3118 -0.1499  0.3197
 1443SOL    HW115788   0.114   2.334  16.392  0.4753 -0.6382  0.7328
 1443SOL    HW215789   0.119   2.481  16.428  0.2637 -0.5175 -0.4122
 1444SOL     OW15790   0.055   2.108   2.084  0.0777  0.3859  0.3077
 1444SOL    HW115791   0.036   2.131   1.993  0.1340  0.6086  0.3517
 1444SOL    HW215792   0.033   2.191   2.125 -1.5907  0.6532 -1.1235
 1445SOL     OW15793   0.169   4.518   0.651  0.0083  0.3995  0.2280
 1445SOL    HW115794   0.131   4.602   0.674  0.4841  0.3728  1.0878
 1445SOL    HW215795   0.208   4.532   0.565  1.3054  1.2349  0.9623
 1446SOL     OW15796   3.752   2.326   6.603  0.1572  0.2094 -0.1311
 1446SOL    HW115797   3.695   2.402   6.590  0.3908  0.4070  0.0018
 1446SOL    HW215798   3.698   2.278   6.666 -0.2943 -0.0090 -0.6815
 1447SOL     OW15799   2.275   3.960  13.664 -0.0180 -0.4292  0.5654
 1447SOL    HW115800   2.330   3.965  13.742  1.6840  1.3845 -0.7353
 1447SOL    HW215801   2.270   4.055  13.651 -3.2540 -0.7474 -0.5868
 1448SOL     OW15802   2.681   1.925   7.012 -0.0004 -0.2474  0.3900
 1448SOL    HW115803   2.686   1.840   7.055 -0.3254 -0.5931 -0.2671
 1448SOL    HW215804   2.776   1.939   7.013 -0.3067  1.6875  2.5084
 1449SOL     OW15805   0.821   0.612   2.808  0.2921 -0.6726 -0.4024
 1449SOL    HW115806   0.853   0.524   2.790  0.8765 -0.2003 -1.6454
 1449SOL    HW215807   0.838   0.614   2.902 -0.5278 -4.2842 -0.1921
 1450SOL     OW15808   1.061   3.972  14.603  0.2518  0.1390 -0.2414
 1450SOL    HW115809   1.026   4.021  14.529  0.4705  0.8706  0.1409
 1450SOL    HW215810   1.063   4.038  14.673 -0.3505 -0.3118  0.1988
 1451SOL     OW15811   2.163   0.062   7.813  0.4846 -0.2092 -0.7119
 1451SOL    HW115812   2.107   0.067   7.891  0.8647 -0.3652 -0.4289
 1451SOL    HW215813   2.191   0.151   7.793 -0.6365  0.4417  0.6449
 1452SOL     OW15814   3.307   4.065   3.294  0.0485 -0.1752 -0.1961
 1452SOL    HW115815   3.266   4.118   3.362 -0.6788  0.3011 -1.0142
 1452SOL    HW215816   3.240   4.041   3.231 -0.9603  1.0369  0.4086
 1453SOL     OW15817   1.701   1.840  16.878 -0.9236 -0.9318  0.1336
 1453SOL    HW115818   1.794   1.817  16.877  0.1813  3.5654  0.5913
 1453SOL    HW215819   1.680   1.792  16.798  0.7261 -0.7717 -0.3949
 1454SOL     OW15820   3.554   0.929   7.798  0.6767  0.0690  0.0317
 1454SOL    HW115821   3.637   0.933   7.844 -0.1613  0.5443  1.5055
 1454SOL    HW215822   3.513   1.013   7.821 -0.1311 -0.2493 -0.2286
 1455SOL     OW15823   2.745   3.347  10.631 -0.6565 -0.4986 -0.3765
 1455SOL    HW115824   2.685   3.332  10.557  2.0439 -1.3363 -2.4171
 1455SOL    HW215825   2.749   3.264  10.679 -2.2654  0.7678  1.9094
 1456SOL     OW15826   4.319   4.687   4.578 -0.3268  0.1265  0.0096
 1456SOL    HW115827   4.388   4.667   4.515 -1.5525  0.9755 -1.5965
 1456SOL    HW215828   4.300   0.050   4.543 -0.1256  0.2461  0.1999
 1457SOL     OW15829   4.224   2.318  12.049  0.1599  0.1223  0.4643
 1457SOL    HW115830   4.169   2.283  12.119  0.0285 -2.5346 -0.9717
 1457SOL    HW215831   4.166   2.392  12.030 -1.1025 -0.8634  0.5421
 1458SOL     OW15832   0.378   1.255   7.884 -0.1981  0.8089 -0.3076
 1458SOL    HW115833   0.450   1.224   7.830  1.3175  2.7378  0.6326
 1458SOL    HW215834   0.323   1.178   7.899  1.6088 -0.6398 -1.1362
 1459SOL     OW15835   0.977   4.601   1.036 -0.0952 -0.1334 -0.7380
 1459SOL    HW115836   1.063   4.634   1.012  0.1311 -0.7802 -0.8097
 1459SOL    HW215837   0.977   4.615   1.131  3.5852  0.4167 -0.8364
 1460SOL     OW15838   1.913   3.200   4.031 -0.2368 -0.2706  0.7970
 1460SOL    HW115839   1.950   3.155   3.955  0.9602  0.5734  0.8761
 1460SOL    HW215840   1.839   3.147   4.059 -1.2919  0.4727 -0.5439
 1461SOL     OW15841   0.531   0.890  10.115 -0.8623 -0.2812 -0.1932
 1461SOL    HW115842   0.617   0.886  10.156 -1.3045  1.9241  0.9448
 1461SOL    HW215843   0.548   0.834  10.039 -1.2290  0.2399 -0.6550
 1462SOL     OW15844   3.464   2.901  14.436 -0.1537 -0.2816  0.0724
 1462SOL    HW115845   3.515   2.866  14.509  3.9544  4.0758 -0.7164
 1462SOL    HW215846   3.445   2.819  14.391  1.3384 -0.4339 -0.2761
 1463SOL     OW15847   2.212   0.898  16.077  0.3312 -0.2425  0.2471
 1463SOL    HW115848   2.205   0.810  16.115  1.7064  0.6133  2.4912
 1463SOL    HW215849   2.127   0.892  16.034  0.0750  2.4194  0.3738
 1464SOL     OW15850   3.876   0.668   4.564  0.0221  0.2522  0.2343
 1464SOL    HW115851   3.921   0.625   4.490 -0.5840  1.3609 -0.7682
 1464SOL    HW215852   3.803   0.720   4.531 -0.6190 -1.5207 -1.1798
 1465SOL     OW15853   3.844   3.535   3.599 -0.3775 -0.3547  0.0015
 1465SOL    HW115854   3.856   3.511   3.507  1.2235  0.1112  0.0905
 1465SOL    HW215855   3.864   3.452   3.643 -2.1797  0.2436  1.9961
 1466SOL     OW15856   1.240   0.114   5.163 -0.2902  0.2267  0.2286
 1466SOL    HW115857   1.220   0.205   5.140 -1.2472 -0.1876 -0.5803
 1466SOL    HW215858   1.335   0.113   5.164 -0.3201 -0.7102  1.7325
 1467SOL     OW15859   1.115   4.007  15.929  0.3292  0.1119  0.3219
 1467SOL    HW115860   1.205   4.013  15.896  0.8931 -0.9635  1.6702
 1467SOL    HW215861   1.072   4.060  15.861 -0.0775 -0.6291  0.0035
 1468SOL     OW15862   2.208   0.591   1.953 -0.1849 -0.5438 -0.2248
 1468SOL    HW115863   2.135   0.618   2.009  2.2323  0.5787  2.3520
 1468SOL    HW215864   2.170   0.519   1.903 -0.0035  0.1010 -1.2965
 1469SOL     OW15865   3.689   1.240   4.612 -1.0752  0.2052 -0.5015
 1469SOL    HW115866   3.624   1.225   4.681 -0.1110  0.9996  0.5953
 1469SOL    HW215867   3.646   1.220   4.529 -1.7705 -1.3148  0.2389
 1470SOL     OW15868   2.627   2.348  10.670 -0.5446  0.2779 -0.0371
 1470SOL    HW115869   2.705   2.321  10.719 -0.5230 -0.7932 -0.6530
 1470SOL    HW215870   2.626   2.443  10.665  1.2548  0.1767 -2.2875
 1471SOL     OW15871   0.796   0.077   1.929 -0.2142  0.0903 -0.7030
 1471SOL    HW115872   0.763   0.083   1.839  0.5899  0.1215 -1.0013
 1471SOL    HW215873   0.866   0.143   1.928 -2.5987  2.6424  1.4405
 1472SOL     OW15874   2.815   2.326  14.366 -0.5212 -0.0373  0.6858
 1472SOL    HW115875   2.812   2.242  14.319 -0.3964  0.4077 -0.1164
 1472SOL    HW215876   2.863   2.379  14.302 -0.2511  0.4226  1.2701
 1473SOL     OW15877   0.986   4.630   1.296 -0.2757  0.1119 -0.2085
 1473SOL    HW115878   0.914   4.588   1.343  0.7078  1.4409  2.4806
 1473SOL    HW215879   1.054   4.569   1.322 -0.3089  0.2945  0.3008
 1474SOL     OW15880   1.690   1.178   6.066  0.3578 -0.0104  0.1515
 1474SOL    HW115881   1.757   1.128   6.020 -0.0728  0.2941 -0.8093
 1474SOL    HW215882   1.732   1.265   6.070 -0.4901  0.3639  0.8628
 1475SOL     OW15883   0.910   3.954   1.610  0.5435 -0.2366 -0.8944
 1475SOL    HW115884   0.958   3.930   1.690 -0.3191  0.1191 -0.2700
 1475SOL    HW215885   0.819   3.931   1.626  0.1968  1.5799 -0.2769
 1476SOL     OW15886   0.676   3.345   2.076 -0.1615  0.4305  0.1819
 1476SOL    HW115887   0.746   3.306   2.128  0.4092  2.3572  0.8501
 1476SOL    HW215888   0.727   3.420   2.046  0.2721  1.0689  2.4918
 1477SOL     OW15889   2.801   2.476   2.366 -0.0498 -0.5624  0.1026
 1477SOL    HW115890   2.739   2.485   2.294 -1.2418  0.6964  1.2637
 1477SOL    HW215891   2.763   2.534   2.432 -0.6710 -0.8441 -0.0042
 1478SOL     OW15892   3.975   0.230   4.706 -0.7619  0.5285 -0.0755
 1478SOL    HW115893   3.929   0.146   4.713  0.7414 -0.4916 -2.4518
 1478SOL    HW215894   4.038   0.206   4.639 -0.4938  2.2070 -0.4154
 1479SOL     OW15895   3.798   3.244   8.943 -0.0688  0.2531  0.0610
 1479SOL    HW115896   3.802   3.339   8.957 -1.1924  0.3878 -0.4745
 1479SOL    HW215897   3.773   3.237   8.851 -0.3936  0.4697  0.1294
 1480SOL     OW15898   2.282   0.780   4.105  0.2205  0.3744 -0.1291
 1480SOL    HW115899   2.221   0.710   4.085  0.7139 -0.8598  2.7036
 1480SOL    HW215900   2.265   0.790   4.199  1.1389 -1.0588  0.1954
 1481SOL     OW15901   2.081   4.542   1.107 -0.1416 -0.4961  0.4684
 1481SOL    HW115902   1.996   4.509   1.134 -1.2831  2.9127  1.0890
 1481SOL    HW215903   2.107   4.479   1.040 -1.5184 -0.4900 -0.0766
 1482SOL     OW15904   0.699   2.212   6.353 -0.0588  0.4937 -0.5001
 1482SOL    HW115905   0.718   2.208   6.259  0.8220 -1.9736 -0.2123
 1482SOL    HW215906   0.631   2.147   6.370 -1.1622  1.8130  0.1261
 1483SOL     OW15907   0.106   4.392   5.762 -0.5462 -0.1009  0.2718
 1483SOL    HW115908   0.088   4.298   5.762  1.1214 -0.4189 -0.1786
 1483SOL    HW215909   0.048   4.424   5.831 -0.4951 -0.0246  0.2789
 1484SOL     OW15910   2.673   4.219   7.074  0.3212 -0.4768 -0.0764
 1484SOL    HW115911   2.725   4.278   7.020  0.5901  0.9324  1.6984
 1484SOL    HW215912   2.591   4.266   7.091  0.4990 -0.5807  1.0780
 1485SOL     OW15913   4.262   3.070   1.989 -0.0049 -0.5837 -0.1540
 1485SOL    HW115914   4.243   3.163   1.981  0.4291 -0.2069  3.0003
 1485SOL    HW215915   4.278   3.049   1.897  0.9023  1.1902 -0.4033
 1486SOL     OW15916   4.447   3.929   7.258  0.0548  0.0517 -0.3200
 1486SOL    HW115917   4.528   3.944   7.209  0.1377 -0.7193 -0.4188
 1486SOL    HW215918   4.470   3.877   7.336 -0.6038  0.6994  0.2982
 1487SOL     OW15919   3.010   0.788  11.568 -0.1511 -0.6938  0.4000
 1487SOL    HW115920   3.100   0.783  11.603 -0.1724  1.5544  0.7972
 1487SOL    HW215921   2.981   0.702  11.599  2.4701 -1.2760  1.2775
 1488SOL     OW15922   0.092   3.334   1.508 -0.2640  0.3638  0.2690
 1488SOL    HW115923   0.114   3.426   1.494 -3.2809  1.4524  2.7179
 1488SOL    HW215924   0.073   3.333   1.602  0.6296  0.3201  0.4564
 1489SOL     OW15925   3.359   1.141   6.462 -0.5557  0.2548  0.8519
 1489SOL    HW115926   3.351   1.090   6.381  1.3727 -2.5399  2.4344
 1489SOL    HW215927   3.379   1.228   6.428  0.8033 -0.3681  0.0225
 1490SOL     OW15928   2.048   1.159  14.473 -0.3240  0.4950 -0.2238
 1490SOL    HW115929   2.052   1.119  14.386  1.4282  0.2089 -0.0289
 1490SOL    HW215930   1.954   1.172  14.485 -0.7845 -1.4730 -1.8627
 1491SOL     OW15931   0.329   1.472   3.919 -0.0317  0.2308  0.2652
 1491SOL    HW115932   0.247   1.517   3.899 -1.3578 -3.0348 -1.6702
 1491SOL    HW215933   0.355   1.436   3.834 -0.0853  1.7013 -0.3647
 1492SOL     OW15934   2.935   1.286   6.190 -0.0748  0.3265  0.6782
 1492SOL    HW115935   2.969   1.278   6.101  0.0349 -0.2516  0.7678
 1492SOL    HW215936   2.841   1.287   6.171  0.5357 -0.3908 -2.3626
 1493SOL     OW15937   2.514   0.085   6.581  0.1884 -0.1793 -0.1293
 1493SOL    HW115938   2.443   0.098   6.644 -1.8021 -1.1203 -2.2116
 1493SOL    HW215939   2.540   4.721   6.606  1.0315 -0.7510 -3.1173
 1494SOL     OW15940   1.447   0.130  14.320 -0.6957 -0.3323  0.1611
 1494SOL    HW115941   1.440   0.221  14.290  0.1979 -0.7063 -1.1995
 1494SOL    HW215942   1.540   0.131  14.344  0.0083  1.0032 -2.6092
 1495SOL     OW15943   0.154   2.486   2.492 -0.7068 -0.2403 -0.1193
 1495SOL    HW115944   0.224   2.489   2.427 -0.1683  1.3333  0.5419
 1495SOL    HW215945   0.102   2.563   2.472  0.8945  0.9624  0.3791
 1496SOL     OW15946   3.651   1.484   2.528  0.1883  0.2680  0.7718
 1496SOL    HW115947   3.734   1.446   2.557 -0.8378 -0.1564  3.1904
 1496SOL    HW215948   3.638   1.432   2.449  1.0769 -0.3794  1.0542
 1497SOL     OW15949   3.105   1.889   6.446 -0.3977 -0.0727  0.4854
 1497SOL    HW115950   3.134   1.958   6.506  0.8704  0.4909 -0.7605
 1497SOL    HW215951   3.117   1.810   6.498 -0.7299  0.0705  0.7797
 1498SOL     OW15952   1.636   4.059  10.634  0.4766 -0.7052 -0.3008
 1498SOL    HW115953   1.549   4.019  10.636  1.0511 -1.9209  0.3175
 1498SOL    HW215954   1.635   4.131  10.698  0.9318 -1.6413  0.7470
 1499SOL     OW15955   4.147   0.972   4.747 -0.3196 -0.5547  0.0636
 1499SOL    HW115956   4.054   0.969   4.770 -0.7979 -1.2874 -2.0012
 1499SOL    HW215957   4.141   0.995   4.654 -0.3905 -0.9148 -0.0198
 1500SOL     OW15958   0.035   1.385   8.427  0.0182  0.0320 -0.4517
 1500SOL    HW115959   0.023   1.451   8.359 -2.3993 -0.3513 -0.4201
 1500SOL    HW215960   0.064   1.320   8.364  1.7694 -1.8425  2.2836
 1501SOL     OW15961   3.028   0.045   6.917 -0.0300  0.2165  0.2319
 1501SOL    HW115962   2.981   4.699   6.963 -0.5997  1.7680  2.0107
 1501SOL    HW215963   3.109   0.047   6.967  0.9463  0.2656 -1.3673
 1502SOL     OW15964   3.699   0.177  14.288  0.2194  0.2858 -0.1915
 1502SOL    HW115965   3.786   0.196  14.325 -0.7566 -0.2412  2.3960
 1502SOL    HW215966   3.716   0.182  14.194 -1.3620 -1.9733 -0.5907
 1503SOL     OW15967   4.010   2.957   7.199  0.0894 -0.5345  0.0733
 1503SOL    HW115968   4.104   2.938   7.191 -0.3589 -2.1994 -1.1806
 1503SOL    HW215969   4.025   2.995   7.286 -0.5032 -2.2350  0.9195
 1504SOL     OW15970   1.295   0.380  11.566  0.1776  0.5252  0.6289
 1504SOL    HW115971   1.331   0.293  11.586 -1.5299 -0.1084  0.9506
 1504SOL    HW215972   1.364   0.425  11.518  1.3366 -1.3950  0.5138
 1505SOL     OW15973   2.255   0.120   2.104 -0.0921 -0.4221  0.0802
 1505SOL    HW115974   2.228   0.072   2.183  1.3828  1.5479  1.7687
 1505SOL    HW215975   2.220   0.208   2.118  3.0392  0.5302  1.8790
 1506SOL     OW15976   4.591   3.935   1.630 -0.3676  0.0609 -0.4896
 1506SOL    HW115977   4.627   3.907   1.715 -2.4388  1.5710  0.8829
 1506SOL    HW215978   4.567   4.027   1.644  0.9416  0.1203  1.5088
 1507SOL     OW15979   4.520   1.806   6.383  0.3669  0.0510  0.1511
 1507SOL    HW115980   4.431   1.797   6.349  0.3754  0.0739  0.1226
 1507SOL    HW215981   4.499   1.793   6.475  0.1638 -0.7693 -0.0080
 1508SOL     OW15982   3.977   2.848   9.093 -0.1239 -0.1052  0.1924
 1508SOL    HW115983   3.924   2.772   9.070  0.2629 -0.5402  0.7663
 1508SOL    HW215984   3.939   2.910   9.030 -1.6096 -2.4959 -1.2554
 1509SOL     OW15985   4.582   1.848   4.312 -0.0561 -0.4439 -0.4379
 1509SOL    HW115986   4.511   1.799   4.352  1.0149 -0.3514  1.5758
 1509SOL    HW215987   4.614   1.785   4.246  0.7371  0.6391 -1.0798
 1510SOL     OW15988   3.007   1.181  11.372 -0.4278 -0.1805  0.9859
 1510SOL    HW115989   3.009   1.276  11.362  1.1565 -0.2521  0.5804
 1510SOL    HW215990   3.043   1.147  11.290  1.7790  2.2979  0.9452
 1511SOL     OW15991   1.689   3.326   9.813  0.1066 -0.1355 -0.2764
 1511SOL    HW115992   1.605   3.292   9.844 -0.3951 -0.4670 -2.0042
 1511SOL    HW215993   1.746   3.272   9.869 -0.2114 -2.0527 -1.8199
 1512SOL     OW15994   2.733   0.120  12.320 -0.6766 -0.5335  0.3746
 1512SOL    HW115995   2.715   0.057  12.391 -1.0040  1.7203  2.2919
 1512SOL    HW215996   2.659   0.095  12.265  1.3466 -1.8044 -1.7577
 1513SOL     OW15997   3.462   2.596   2.823 -0.3204  0.0000  0.4486
 1513SOL    HW115998   3.459   2.583   2.728 -0.5474  2.3702  0.1344
 1513SOL    HW215999   3.373   2.565   2.844 -0.6827  0.1166 -0.9132
 1514SOL     OW16000   2.201   0.966   6.837 -0.1385  0.4282 -0.1187
 1514SOL    HW116001   2.191   0.887   6.890  3.0126 -0.6148 -1.1268
 1514SOL    HW216002   2.128   0.944   6.778 -1.1272 -0.3076  1.3662
 1515SOL     OW16003   0.284   0.534  13.258 -0.3390  0.2942  0.3914
 1515SOL    HW116004   0.236   0.501  13.334 -1.7976 -0.6692 -0.9476
 1515SOL    HW216005   0.371   0.496  13.268 -0.2791 -0.0791 -1.5467
 1516SOL     OW16006   0.588   1.217   2.874 -0.4741 -0.0066  0.1788
 1516SOL    HW116007   0.640   1.221   2.794 -1.9067  1.2655 -0.7100
 1516SOL    HW216008   0.651   1.218   2.945 -1.5669 -0.5055  1.1651
 1517SOL     OW16009   2.193   3.722   4.923  0.1117  0.3137  0.8015
 1517SOL    HW116010   2.271   3.679   4.957 -0.0368 -0.1214  0.5900
 1517SOL    HW216011   2.210   3.809   4.961 -2.1284  1.3967 -0.6575
 1518SOL     OW16012   0.758   4.339  14.139  0.1992 -0.7646 -0.5551
 1518SOL    HW116013   0.695   4.393  14.186  0.6641 -1.7575  1.1966
 1518SOL    HW216014   0.775   4.386  14.057 -1.8100 -0.4519 -0.7843
 1519SOL     OW16015   1.050   3.383   3.465  0.4029  0.0113  0.1547
 1519SOL    HW116016   1.002   3.422   3.538 -0.7035 -2.4409  0.7738
 1519SOL    HW216017   1.138   3.379   3.502  0.5547 -3.0773 -0.5156
 1520SOL     OW16018   3.248   0.112   4.341 -0.0455  0.2333 -0.2537
 1520SOL    HW116019   3.339   0.102   4.312  0.3523 -1.1284  1.4560
 1520SOL    HW216020   3.259   0.153   4.427 -0.2504 -1.8609  0.7571
 1521SOL     OW16021   3.047   1.200   6.771  0.1396 -0.3109 -0.1906
 1521SOL    HW116022   3.107   1.128   6.794  0.6646  0.7557  1.7233
 1521SOL    HW216023   2.961   1.159   6.773 -0.7750  1.6699  0.7727
 1522SOL     OW16024   0.558   2.731   5.087 -0.6517  1.0738 -0.4653
 1522SOL    HW116025   0.565   2.635   5.084 -0.4777  1.0698  0.1090
 1522SOL    HW216026   0.630   2.753   5.146 -0.9029  1.2402 -0.2207
 1523SOL     OW16027   3.833   2.670   6.236  0.1342 -0.0509  0.0277
 1523SOL    HW116028   3.812   2.763   6.226  0.1070  0.2118  2.4912
 1523SOL    HW216029   3.926   2.674   6.260 -0.2667  0.9924  1.4001
 1524SOL     OW16030   2.643   1.997   8.708 -0.4610  0.0865  0.0517
 1524SOL    HW116031   2.645   2.005   8.613  2.5536  1.7023  0.2516
 1524SOL    HW216032   2.666   2.085   8.737 -0.0946  0.5981 -1.8268
 1525SOL     OW16033   2.255   3.317   8.441  0.6164 -0.4320 -0.1395
 1525SOL    HW116034   2.280   3.311   8.533 -1.1454 -1.0828  0.2875
 1525SOL    HW216035   2.182   3.257   8.425  1.2498 -1.3275  0.3497
 1526SOL     OW16036   0.682   2.522   3.923 -0.3956  0.0923  0.0654
 1526SOL    HW116037   0.616   2.459   3.950  1.0756 -1.4642  0.0593
 1526SOL    HW216038   0.646   2.600   3.965 -0.1533  1.5109 -2.3197
 1527SOL     OW16039   4.041   1.155   6.447 -0.2410 -0.7134 -0.5157
 1527SOL    HW116040   4.110   1.221   6.451  1.2787 -2.3369  0.2461
 1527SOL    HW216041   4.032   1.126   6.538 -1.2770 -1.0464 -0.7260
 1528SOL     OW16042   0.689   4.311   1.873 -0.3334 -0.4260  0.2297
 1528SOL    HW116043   0.762   4.293   1.813 -1.0225  3.1396 -1.6930
 1528SOL    HW216044   0.645   4.384   1.829 -0.2987 -0.3058  0.3946
 1529SOL     OW16045   0.031   2.862   4.014 -0.4112  0.1661 -0.3057
 1529SOL    HW116046   4.702   2.895   4.086  0.8009 -0.2033  0.7755
 1529SOL    HW216047   0.118   2.880   4.051 -0.3023  0.9738 -0.9462
 1530SOL     OW16048   2.008   4.108   2.889  0.6330  0.2166 -0.0046
 1530SOL    HW116049   2.092   4.145   2.917  0.5363  1.7274 -1.6792
 1530SOL    HW216050   1.963   4.187   2.858 -0.1234  0.6518  2.2554
 1531SOL     OW16051   1.618   4.577   4.429  0.2293 -0.0890  0.1163
 1531SOL    HW116052   1.532   4.560   4.391  0.9442  0.1921 -1.6287
 1531SOL    HW216053   1.636   4.667   4.400 -0.9091  1.2219  3.3980
 1532SOL     OW16054   2.885   0.656  13.492  0.3899 -0.1993 -0.0093
 1532SOL    HW116055   2.925   0.587  13.545  2.6949 -0.1763 -1.7229
 1532SOL    HW216056   2.845   0.706  13.564 -0.6664 -1.0598  0.0118
 1533SOL     OW16057   3.616   1.092  10.362  0.4169 -0.2249  0.3079
 1533SOL    HW116058   3.673   1.168  10.378 -0.1091  0.3852 -0.7742
 1533SOL    HW216059   3.650   1.052  10.282  0.0777 -1.1021  0.5990
 1534SOL     OW16060   3.679   4.106  10.833  0.3210 -0.0828  0.4186
 1534SOL    HW116061   3.771   4.134  10.825  0.2903  0.1355  0.8397
 1534SOL    HW216062   3.684   4.014  10.859 -0.5169 -0.0282  0.7472
 1535SOL     OW16063   0.907   2.751   4.267 -0.5480 -0.2018 -0.1404
 1535SOL    HW116064   0.863   2.818   4.215  1.1670  0.6595 -0.4506
 1535SOL    HW216065   0.886   2.664   4.231 -0.5233  0.5226 -1.9060
 1536SOL     OW16066   2.514   1.268   8.269 -0.1300 -0.7906  0.2174
 1536SOL    HW116067   2.479   1.237   8.185 -2.3447 -0.5008  1.0307
 1536SOL    HW216068   2.577   1.199   8.288  0.3986 -0.7375 -1.3839
 1537SOL     OW16069   1.830   3.175   3.063 -0.2747  0.3512  0.2231
 1537SOL    HW116070   1.739   3.167   3.090 -0.2375 -0.8663 -0.0188
 1537SOL    HW216071   1.823   3.190   2.969 -1.0591  0.8476  0.3638
 1538SOL     OW16072   2.765   1.658   7.097 -0.6460 -0.1292 -0.2526
 1538SOL    HW116073   2.803   1.586   7.046 -0.0822  1.6546 -2.3948
 1538SOL    HW216074   2.838   1.664   7.158  1.5595  0.3022 -2.9229
 1539SOL     OW16075   2.197   2.647  11.927  0.8056  0.8014 -0.5272
 1539SOL    HW116076   2.141   2.593  11.982  0.4264 -0.7499 -2.4266
 1539SOL    HW216077   2.210   2.727  11.978  1.1083  1.3116 -1.4028
 1540SOL     OW16078   0.031   4.233   0.599 -0.2400  0.1690 -0.0647
 1540SOL    HW116079   0.085   4.308   0.624 -1.3076  1.2488 -0.9650
 1540SOL    HW216080   4.686   4.277   0.550  0.4229  0.8503 -0.4058
 1541SOL     OW16081   1.190   2.094   1.164 -0.3726 -0.1334 -0.9879
 1541SOL    HW116082   1.118   2.113   1.224 -2.5796 -1.5683 -3.1260
 1541SOL    HW216083   1.248   2.040   1.218  1.3144  1.5165 -1.1526
 1542SOL     OW16084   0.073   4.514   9.448  0.2651  0.1150  0.3904
 1542SOL    HW116085   0.123   4.464   9.514 -1.6188 -2.0283  0.2048
 1542SOL    HW216086   0.049   4.443   9.388 -1.3791 -1.7040  3.1646
 1543SOL     OW16087   2.901   3.337   1.678  0.5908 -0.5440 -0.0634
 1543SOL    HW116088   2.907   3.378   1.764 -0.7713  0.0166 -0.2361
 1543SOL    HW216089   2.942   3.404   1.623  1.6002 -1.3542 -0.2952
 1544SOL     OW16090   4.037   3.820   5.271  0.1787 -0.3009  0.2190
 1544SOL    HW116091   3.990   3.882   5.327 -0.7893 -0.7700 -0.0781
 1544SOL    HW216092   4.037   3.734   5.313  0.6783 -1.6547 -2.5048
 1545SOL     OW16093   2.478   4.566   3.698  0.2446 -0.0702  0.2450
 1545SOL    HW116094   2.385   4.543   3.694  0.1789  0.2688 -0.1876
 1545SOL    HW216095   2.475   4.658   3.727  2.3491  0.1870 -0.3320
 1546SOL     OW16096   2.734   2.086  14.277  0.1075 -0.4909 -0.2217
 1546SOL    HW116097   2.771   2.014  14.328 -2.1078 -0.4124  1.4708
 1546SOL    HW216098   2.660   2.044  14.233 -2.3457  2.1460  1.4109
 1547SOL     OW16099   3.818   1.011   5.666  0.1809 -0.3992 -0.1335
 1547SOL    HW116100   3.733   1.015   5.711  0.6484  0.6538  0.6738
 1547SOL    HW216101   3.809   0.961   5.585 -1.8891  0.5451 -0.4907
 1548SOL     OW16102   2.007   3.468   6.798  0.0310 -0.2416 -0.6397
 1548SOL    HW116103   1.994   3.374   6.803  0.5184 -0.1821  2.1121
 1548SOL    HW216104   2.097   3.464   6.832  0.4067 -0.2046 -1.6420
 1549SOL     OW16105   2.496   2.971  10.400  0.1993  0.1494  1.0197
 1549SOL    HW116106   2.530   3.060  10.401  1.0090 -0.1358 -0.4985
 1549SOL    HW216107   2.438   2.975  10.476 -1.5284 -0.8184 -0.2413
 1550SOL     OW16108   4.557   0.300   4.949 -0.3952  0.0476  0.3555
 1550SOL    HW116109   4.493   0.365   4.977 -2.2678 -2.5223  2.0896
 1550SOL    HW216110   4.557   0.241   5.025 -0.0783 -0.0528  0.2803
 1551SOL     OW16111   3.983   3.858   4.201 -0.3842 -0.1802 -0.2568
 1551SOL    HW116112   3.920   3.903   4.145 -0.2877  0.0126 -0.2071
 1551SOL    HW216113   4.056   3.919   4.207 -1.1035  0.4874  1.6030
 1552SOL     OW16114   1.814   3.354   1.888  0.1787  0.4838 -0.7189
 1552SOL    HW116115   1.802   3.262   1.909 -2.8191  1.5941  2.3611
 1552SOL    HW216116   1.909   3.357   1.898 -0.0247  0.0091  1.3895
 1553SOL     OW16117   0.186   4.132  13.346 -0.3324  0.4745 -0.0470
 1553SOL    HW116118   0.152   4.059  13.295 -1.2688  2.2130 -1.9303
 1553SOL    HW216119   0.277   4.107  13.360 -0.6748 -0.1114  1.0936
 1554SOL     OW16120   0.391   0.593   7.017 -1.1052  0.0016 -0.6467
 1554SOL    HW116121   0.345   0.575   6.935 -1.5662 -2.3809  0.1260
 1554SOL    HW216122   0.365   0.685   7.024  0.3982  0.5005 -1.5448
 1555SOL     OW16123   4.418   2.595   5.993 -0.1589 -0.6598  0.0054
 1555SOL    HW116124   4.339   2.616   6.042  0.7388  1.2733  0.6492
 1555SOL    HW216125   4.388   2.618   5.906  0.1994 -0.7825 -0.1527
 1556SOL     OW16126   1.534   0.533   7.821 -0.3630 -0.8352  0.7331
 1556SOL    HW116127   1.464   0.495   7.768  1.1295 -1.1402 -1.0264
 1556SOL    HW216128   1.490   0.580   7.891 -2.7219 -1.1879 -0.5151
 1557SOL     OW16129   3.409   4.099  14.001  0.6056  0.3255 -0.1515
 1557SOL    HW116130   3.337   4.156  14.025  0.3736 -0.9393  2.2298
 1557SOL    HW216131   3.409   4.100  13.906  0.3776  0.2134 -0.1516
 1558SOL     OW16132   2.777   3.249   4.509 -0.6264 -0.1502 -0.1687
 1558SOL    HW116133   2.833   3.319   4.477 -0.9996  0.2974  0.1504
 1558SOL    HW216134   2.712   3.245   4.439 -1.3636  1.4630  0.4272
 1559SOL     OW16135   1.719   2.632   4.186 -0.4742 -0.2836 -0.0206
 1559SOL    HW116136   1.693   2.544   4.161 -2.6618 -0.3364  2.4718
 1559SOL    HW216137   1.649   2.661   4.245  0.2277  1.4446 -0.0391
 1560SOL     OW16138   3.342   0.354   0.628  0.6300 -0.7391  0.1494
 1560SOL    HW116139   3.376   0.317   0.546  1.7728 -1.4538  0.9448
 1560SOL    HW216140   3.422   0.381   0.674  0.6988  1.2741 -1.1534
 1561SOL     OW16141   0.680   4.184   4.654  0.2140  0.2332 -0.5355
 1561SOL    HW116142   0.687   4.089   4.667 -0.3904  0.1929 -0.5006
 1561SOL    HW216143   0.747   4.221   4.712  0.9043 -1.3826 -0.2957
 1562SOL     OW16144   3.376   3.544   3.413 -0.1046 -0.3165 -0.1435
 1562SOL    HW116145   3.298   3.538   3.468 -1.0440 -0.5204 -1.4769
 1562SOL    HW216146   3.369   3.636   3.386  1.1414 -0.5404 -1.2541
 1563SOL     OW16147   1.083   3.768   1.487  0.3225 -0.3619  0.4970
 1563SOL    HW116148   1.041   3.829   1.548 -0.8341  0.6761 -1.3384
 1563SOL    HW216149   1.096   3.690   1.541  3.1530  0.0777  0.4498
 1564SOL     OW16150   0.004   3.792   5.544  0.1453  0.1814  0.2943
 1564SOL    HW116151   4.647   3.778   5.497  1.5870 -2.2772 -1.4366
 1564SOL    HW216152   4.697   3.820   5.630  0.6449  0.7003  0.3115
 1565SOL     OW16153   1.818   0.167   8.718  0.2958  0.3363  0.1966
 1565SOL    HW116154   1.828   0.206   8.805 -0.7570 -0.9840  0.9076
 1565SOL    HW216155   1.783   0.242   8.670  1.7342  1.7198  1.2968
 1566SOL     OW16156   0.789   0.015   6.904  0.5728  0.7300 -0.2814
 1566SOL    HW116157   0.763   0.103   6.876 -1.0134  0.6711  1.0511
 1566SOL    HW216158   0.757   4.681   6.836 -1.6027  1.2741  0.2818
 1567SOL     OW16159   2.639   3.283   4.961  0.5414  0.2668  0.2211
 1567SOL    HW116160   2.658   3.363   5.011 -3.6509  1.7061 -0.4156
 1567SOL    HW216161   2.587   3.328   4.894  1.7450 -0.6564 -1.3135
 1568SOL     OW16162   4.382   4.003  11.013  0.0950 -0.0898  0.2713
 1568SOL    HW116163   4.460   3.960  10.978  0.6371 -1.2763  2.8923
 1568SOL    HW216164   4.428   4.069  11.065 -0.9038 -1.5806  3.0635
 1569SOL     OW16165   3.563   0.602   5.955  0.5423  0.1151 -0.0671
 1569SOL    HW116166   3.527   0.620   5.868  2.4279 -1.1835 -1.1025
 1569SOL    HW216167   3.563   0.684   6.005  1.4175 -0.5262  0.9686
 1570SOL     OW16168   0.109   0.134   6.371 -0.4661 -0.2439 -0.6063
 1570SOL    HW116169   0.116   0.039   6.367  0.0263 -0.1774 -1.3140
 1570SOL    HW216170   0.168   0.149   6.445 -1.6940  3.6099 -0.3847
 1571SOL     OW16171   0.873   4.141   6.458  0.2720  0.2302 -0.2601
 1571SOL    HW116172   0.799   4.199   6.475  0.1296  1.0161 -3.4578
 1571SOL    HW216173   0.947   4.203   6.457  0.4712  0.0055  2.4196
 1572SOL     OW16174   2.107   2.475   3.207 -0.0097  0.6359  0.1817
 1572SOL    HW116175   2.137   2.468   3.117  1.1064  1.3007  0.4943
 1572SOL    HW216176   2.101   2.570   3.219 -1.2301  0.2771  2.3852
 1573SOL     OW16177   0.582   2.902   4.842 -0.1855 -0.2349  0.0981
 1573SOL    HW116178   0.534   2.984   4.833 -0.5778 -0.3587  1.1042
 1573SOL    HW216179   0.540   2.866   4.920 -0.9463  0.6750  0.1076
 1574SOL     OW16180   0.007   3.152   7.174 -0.2440  0.0160  0.0390
 1574SOL    HW116181   0.101   3.145   7.157 -0.3299 -0.2623 -0.3223
 1574SOL    HW216182   0.004   3.064   7.211  0.4632  0.2891  0.7411
 1575SOL     OW16183   3.381   3.792   3.270 -0.4598 -0.1808  0.4361
 1575SOL    HW116184   3.323   3.867   3.261  0.8443  0.5535 -1.5605
 1575SOL    HW216185   3.345   3.737   3.200 -1.8286 -0.1629  1.1179
 1576SOL     OW16186   0.957   2.645   1.311  0.2705  0.1154 -0.6891
 1576SOL    HW116187   1.047   2.671   1.290 -0.0620  0.9852 -1.0085
 1576SOL    HW216188   0.916   2.642   1.225 -1.3547  1.4398  0.0535
 1577SOL     OW16189   0.544   2.272   9.363  0.2243  0.0466  0.0352
 1577SOL    HW116190   0.612   2.215   9.398  0.7836  0.6256 -0.0914
 1577SOL    HW216191   0.592   2.304   9.287 -0.9350  0.7904 -0.3883
 1578SOL     OW16192   0.227   2.388   3.396 -0.1908 -0.1671  1.0421
 1578SOL    HW116193   0.147   2.352   3.434 -1.3673 -0.8816 -2.1440
 1578SOL    HW216194   0.198   2.379   3.305  4.1393 -1.3083 -0.2302
 1579SOL     OW16195   3.685   1.377  11.546  0.2704  0.4555 -0.1374
 1579SOL    HW116196   3.730   1.326  11.613 -0.8821  0.2083  0.4354
 1579SOL    HW216197   3.666   1.459  11.592 -0.7966  0.3362 -0.3680
 1580SOL     OW16198   1.315   0.099  11.655 -0.2856 -0.1977  0.2471
 1580SOL    HW116199   1.344   0.052  11.577  0.0592 -2.4419  1.7259
 1580SOL    HW216200   1.295   0.023  11.710 -1.2177 -0.1827 -0.0549
 1581SOL     OW16201   3.030   1.584   8.012 -0.1871  0.9589 -0.4123
 1581SOL    HW116202   3.051   1.527   8.086  0.2725  0.3825 -0.9961
 1581SOL    HW216203   3.077   1.667   8.025  2.2925 -0.9484  2.9746
 1582SOL     OW16204   2.516   0.238   7.705  0.2303 -0.6428  0.2261
 1582SOL    HW116205   2.479   0.326   7.707  0.0777 -0.6864 -0.5916
 1582SOL    HW216206   2.438   0.184   7.713 -0.2571  0.0595  0.2185
 1583SOL     OW16207   1.157   2.543   5.799 -0.6791  0.4048  0.2310
 1583SOL    HW116208   1.107   2.610   5.846 -3.1674 -0.3091 -1.4433
 1583SOL    HW216209   1.201   2.596   5.732 -1.4158 -1.2262 -1.5346
 1584SOL     OW16210   0.092   2.712   3.177  0.3317 -0.1654 -0.6406
 1584SOL    HW116211   0.020   2.649   3.185  0.0453  0.2115 -0.2292
 1584SOL    HW216212   0.161   2.681   3.118 -2.1187 -2.1569 -2.4261
 1585SOL     OW16213   0.421   1.311   5.743  0.6048 -0.1510 -0.2720
 1585SOL    HW116214   0.338   1.271   5.769 -0.9924  2.0156 -2.1191
 1585SOL    HW216215   0.411   1.315   5.648  0.1558 -3.1333 -0.3676
 1586SOL     OW16216   1.919   2.616   7.022  0.2321 -0.3199 -0.0003
 1586SOL    HW116217   2.014   2.630   7.015  0.3506  0.6079  3.3557
 1586SOL    HW216218   1.894   2.648   6.935 -1.4696  1.6659  1.2353
 1587SOL     OW16219   3.114   1.862   4.905  0.5173  0.7913 -0.1058
 1587SOL    HW116220   3.106   1.956   4.889 -0.2438  0.9088  0.9436
 1587SOL    HW216221   3.202   1.849   4.870  0.8816  1.2861  0.6235
 1588SOL     OW16222   0.182   1.526   2.585  0.2782  0.3612  0.2778
 1588SOL    HW116223   0.249   1.594   2.595  1.6404 -1.1097  0.9981
 1588SOL    HW216224   0.200   1.496   2.496 -0.9709  0.2068  0.0704
 1589SOL     OW16225   3.399   1.636   5.598  0.4855  0.0790  0.8646
 1589SOL    HW116226   3.479   1.689   5.588 -0.5820  1.2346 -1.4509
 1589SOL    HW216227   3.332   1.691   5.558  1.5381 -0.8185 -2.1327
 1590SOL     OW16228   2.381   1.945   4.132  0.1035  0.1181  0.0259
 1590SOL    HW116229   2.301   1.943   4.079  1.1813 -2.1120 -1.5260
 1590SOL    HW216230   2.442   1.941   4.058 -1.1458  0.1502 -1.0046
 1591SOL     OW16231   1.495   1.109  17.249  0.1746 -0.1786  0.1708
 1591SOL    HW116232   1.497   1.029  17.196  1.1982 -0.5978  0.8407
 1591SOL    HW216233   1.471   1.169  17.178 -1.2752 -2.3847 -1.2117
 1592SOL     OW16234   3.038   1.491  11.333  0.0081 -0.0494 -0.2557
 1592SOL    HW116235   3.066   1.450  11.251 -1.8958 -0.3444 -0.7507
 1592SOL    HW216236   2.948   1.519  11.315 -0.0843 -1.1819 -1.5129
 1593SOL     OW16237   1.513   2.349   8.329  0.7497 -0.1020 -0.0209
 1593SOL    HW116238   1.452   2.341   8.255 -1.8935  0.3867  2.1136
 1593SOL    HW216239   1.459   2.309   8.398  0.9027 -1.7415 -0.8347
 1594SOL     OW16240   0.268   3.557   8.742 -0.2436  0.2437  0.3306
 1594SOL    HW116241   0.278   3.616   8.817  0.9031 -2.5280  2.3589
 1594SOL    HW216242   0.258   3.476   8.792 -0.5090 -0.1393 -0.3419
 1595SOL     OW16243   0.875   1.863   5.796  0.8278  0.2760 -0.9034
 1595SOL    HW116244   0.862   1.779   5.751 -0.8655 -0.3137  0.6835
 1595SOL    HW216245   0.919   1.923   5.735  2.9227 -1.1228 -0.7737
 1596SOL     OW16246   1.479   0.650  14.914 -0.4256  1.3417  0.1342
 1596SOL    HW116247   1.450   0.710  14.983  0.8530  0.3756  1.5136
 1596SOL    HW216248   1.520   0.578  14.961 -0.4673  0.7155 -0.7789
 1597SOL     OW16249   1.157   2.015  10.388  0.1558 -0.2047  0.4778
 1597SOL    HW116250   1.173   2.103  10.422  0.1730 -0.1328  0.2805
 1597SOL    HW216251   1.219   1.969  10.444  0.2113 -1.3616 -0.5493
 1598SOL     OW16252   0.549   3.117   8.757  0.0903  0.5352  0.1937
 1598SOL    HW116253   0.471   3.147   8.803 -2.1610 -2.7740 -1.4560
 1598SOL    HW216254   0.612   3.174   8.802 -0.4445  1.7320 -0.5727
 1599SOL     OW16255   2.638   4.144   9.509 -0.0419 -0.5328 -0.4201
 1599SOL    HW116256   2.681   4.065   9.477 -0.8244  0.0958 -2.9755
 1599SOL    HW216257   2.710   4.175   9.564 -0.5222  1.8292 -1.1053
 1600SOL     OW16258   0.966   3.411   6.946 -0.5773  0.5478 -0.5016
 1600SOL    HW116259   0.977   3.394   6.852  0.0272 -0.6869 -0.1986
 1600SOL    HW216260   0.880   3.455   6.947  0.1676  2.0019 -0.7879
 1601SOL     OW16261   2.967   2.166   2.292  0.1106  0.1353 -0.1460
 1601SOL    HW116262   2.933   2.229   2.356  0.9169  0.6686 -0.2486
 1601SOL    HW216263   2.890   2.151   2.238 -0.2119 -1.2442  0.7075
 1602SOL     OW16264   2.843   0.737   2.918 -0.5157  0.3134 -0.2103
 1602SOL    HW116265   2.782   0.706   2.985 -0.6227 -2.3257 -1.5411
 1602SOL    HW216266   2.832   0.669   2.851 -1.7752  3.0935 -2.8314
 1603SOL     OW16267   3.059   2.460   0.178  0.3001  0.0712 -0.1155
 1603SOL    HW116268   2.984   2.431   0.127 -0.1954  2.4770 -0.7692
 1603SOL    HW216269   3.120   2.488   0.109  0.9361 -1.8432 -0.3439
 1604SOL     OW16270   3.388   2.482   0.809 -0.1395  0.2906  0.2977
 1604SOL    HW116271   3.411   2.575   0.805  0.7288  0.0299 -0.8566
 1604SOL    HW216272   3.295   2.492   0.828  0.0624  0.2042  1.3158
 1605SOL     OW16273   1.945   2.898   3.559  0.0787 -0.8945 -0.0438
 1605SOL    HW116274   2.005   2.846   3.612 -0.6527 -0.8911  0.7808
 1605SOL    HW216275   1.865   2.847   3.575 -0.1548 -0.1536  1.1369
 1606SOL     OW16276   0.633   2.539  11.105  0.2907 -0.1150 -0.4254
 1606SOL    HW116277   0.632   2.605  11.036 -3.0070  0.8144  0.4761
 1606SOL    HW216278   0.672   2.573  11.186  1.5933  3.5884 -2.6288
 1607SOL     OW16279   1.449   3.169   4.940  0.3169 -0.3868 -0.2700
 1607SOL    HW116280   1.475   3.258   4.966  1.7091 -0.9278  0.2186
 1607SOL    HW216281   1.363   3.170   4.982  1.3394  1.6108  1.7928
 1608SOL     OW16282   0.338   4.526   5.460 -0.4301  0.4573 -0.1042
 1608SOL    HW116283   0.429   4.550   5.477 -0.4877  0.0051  0.8379
 1608SOL    HW216284   0.344   4.539   5.365  1.7430 -0.8928 -0.1650
 1609SOL     OW16285   1.938   4.500  11.187  0.4187  0.0831 -0.1017
 1609SOL    HW116286   2.023   4.531  11.219  0.6373  0.4632 -1.0386
 1609SOL    HW216287   1.893   4.579  11.157 -0.7149 -0.4586  0.1734
 1610SOL     OW16288   3.514   3.408  17.578  0.2175  0.0087 -0.1058
 1610SOL    HW116289   3.488   3.473  17.513  2.6695  0.1296 -0.9642
 1610SOL    HW216290   3.451   3.337  17.572  0.4717 -0.2344  0.0991
 1611SOL     OW16291   4.409   2.844  12.950  0.3752  0.1623 -0.2476
 1611SOL    HW116292   4.413   2.765  12.897  2.4217 -0.1892  0.4436
 1611SOL    HW216293   4.420   2.915  12.886  1.9352  0.6007  0.5087
 1612SOL     OW16294   1.164   4.680   4.448 -0.1806  0.3576 -0.2961
 1612SOL    HW116295   1.103   4.628   4.396  1.1765 -0.8856 -0.6233
 1612SOL    HW216296   1.241   4.633   4.418  1.4476  3.0722 -0.3576
 1613SOL     OW16297   1.174   2.037   6.354 -0.0240 -0.0088  0.1631
 1613SOL    HW116298   1.090   2.049   6.308  0.7904  1.8467 -0.8534
 1613SOL    HW216299   1.213   2.117   6.319  0.4493 -0.4213 -0.2595
 1614SOL     OW16300   2.274   4.503   7.791 -0.0374  0.2526 -0.4155
 1614SOL    HW116301   2.278   4.597   7.771  0.4756  0.0883 -1.0666
 1614SOL    HW216302   2.195   4.494   7.844 -0.1256 -1.5572 -0.8656
 1615SOL     OW16303   2.627   0.331  15.724  0.5510  0.0832  0.0626
 1615SOL    HW116304   2.664   0.308  15.639  1.4774  0.5282  0.3339
 1615SOL    HW216305   2.665   0.261  15.778  1.5618 -0.0341 -0.8053
 1616SOL     OW16306   4.443   0.492   4.095  0.5738  0.1546 -0.1760
 1616SOL    HW116307   4.488   0.452   4.021  0.8135  0.3401 -0.1311
 1616SOL    HW216308   4.376   0.427   4.115 -0.6320  1.1194 -1.0933
 1617SOL     OW16309   1.275   2.644  15.817 -0.0460  0.0440 -0.0238
 1617SOL    HW116310   1.273   2.667  15.909  2.5048  0.1215  0.0080
 1617SOL    HW216311   1.184   2.618  15.799 -0.5820  2.1162 -0.2463
 1618SOL     OW16312   0.775   2.787   5.213 -0.3159 -0.0584 -0.5864
 1618SOL    HW116313   0.846   2.724   5.224 -1.1831 -0.6715  1.6697
 1618SOL    HW216314   0.786   2.826   5.300 -1.3234  0.0382 -0.4945
 1619SOL     OW16315   0.985   0.206  10.218  0.1573  0.1193 -0.0663
 1619SOL    HW116316   0.996   0.130  10.274 -0.6325  0.3417  0.3838
 1619SOL    HW216317   0.968   0.154  10.139 -2.8406 -3.7183  3.1736
 1620SOL     OW16318   0.023   3.312   0.748  0.5301 -0.2079 -0.1448
 1620SOL    HW116319   0.077   3.283   0.821  0.2408  0.7223  0.4311
 1620SOL    HW216320   0.032   3.406   0.765 -1.0293  0.2720 -1.8710
 1621SOL     OW16321   0.837   1.926  14.779  0.0195  0.1594 -0.1667
 1621SOL    HW116322   0.776   1.998  14.793  1.2112  0.7710  1.7812
 1621SOL    HW216323   0.874   1.954  14.695  1.4681 -1.7249 -0.1535
 1622SOL     OW16324   2.798   2.494   4.638  0.4678  0.0814 -1.0884
 1622SOL    HW116325   2.718   2.536   4.606 -0.8840  0.4367  2.7897
 1622SOL    HW216326   2.757   2.425   4.690  4.1047 -0.7590  0.7149
 1623SOL     OW16327   0.711   0.898   8.440  0.4863  0.1528 -0.0034
 1623SOL    HW116328   0.802   0.912   8.468  0.2641  0.1453  0.7273
 1623SOL    HW216329   0.707   0.802   8.448  1.1082  0.0906 -0.3993
 1624SOL     OW16330   4.436   3.886  17.533 -0.0966  0.3738  0.2916
 1624SOL    HW116331   4.430   3.826  17.608 -0.7988  1.4822  1.1335
 1624SOL    HW216332   4.360   3.943  17.546  1.6071  2.4582  1.0597
 1625SOL     OW16333   3.035   2.878  15.368 -0.1746  0.0059  0.1162
 1625SOL    HW116334   3.070   2.823  15.299 -1.1435 -1.7499  1.0284
 1625SOL    HW216335   3.013   2.810  15.432  0.5075  0.6567  1.0485
 1626SOL     OW16336   1.535   1.138   3.446  0.3728 -0.2774 -0.1475
 1626SOL    HW116337   1.443   1.165   3.449  0.1294 -1.3695  2.1750
 1626SOL    HW216338   1.541   1.148   3.351 -0.1106 -2.4161 -0.3990
 1627SOL     OW16339   3.638   0.619   3.329 -0.1497  0.4551 -0.1142
 1627SOL    HW116340   3.617   0.710   3.352  2.9734  0.5938  2.1409
 1627SOL    HW216341   3.563   0.602   3.272 -0.2918  1.6022 -0.2809
 1628SOL     OW16342   2.906   3.414   7.793  0.5013  0.5296  0.0683
 1628SOL    HW116343   2.864   3.500   7.792  0.3037  0.4321 -0.0536
 1628SOL    HW216344   2.836   3.357   7.762  0.4434  0.3521  0.5288
 1629SOL     OW16345   2.663   2.086   7.656 -0.0090 -0.2714  0.2103
 1629SOL    HW116346   2.757   2.088   7.644 -0.6202  0.9269 -4.3290
 1629SOL    HW216347   2.641   2.149   7.725 -0.5699 -0.7581  0.4830
 1630SOL     OW16348   0.734   4.281   3.146 -0.0954 -0.2583 -0.6303
 1630SOL    HW116349   0.716   4.342   3.075  1.9310  1.3218  0.2258
 1630SOL    HW216350   0.679   4.212   3.110  0.9246 -2.5672  2.2696
 1631SOL     OW16351   0.584   4.549   3.792 -1.0234  0.0556  0.2670
 1631SOL    HW116352   0.618   4.460   3.797  1.4167  0.9152 -0.9490
 1631SOL    HW216353   0.570   4.538   3.698 -1.4235 -1.6832  0.5321
 1632SOL     OW16354   2.360   3.476  12.560 -0.6925  0.2161  0.7531
 1632SOL    HW116355   2.335   3.554  12.512  1.3127  0.1723 -0.3736
 1632SOL    HW216356   2.439   3.492  12.612 -0.3951 -0.5476  0.5361
 1633SOL     OW16357   1.170   1.566   3.777 -0.3855  0.3863  0.3295
 1633SOL    HW116358   1.114   1.612   3.714 -1.4765 -0.2087  0.8689
 1633SOL    HW216359   1.201   1.489   3.730 -0.8512  0.5490 -0.2530
 1634SOL     OW16360   1.389   0.177   3.213 -0.2923 -0.0552 -0.4181
 1634SOL    HW116361   1.296   0.196   3.221 -0.4175 -1.3875  1.2676
 1634SOL    HW216362   1.416   0.144   3.299  1.7079  3.0214  0.1416
 1635SOL     OW16363   3.458   3.894   7.765 -0.0077 -0.6747  0.3182
 1635SOL    HW116364   3.491   3.805   7.752  1.2239 -0.3381  1.0953
 1635SOL    HW216365   3.518   3.929   7.832  0.2505 -0.5914  0.0463
 1636SOL     OW16366   1.486   1.584  14.298 -0.6831 -0.6294 -0.0296
 1636SOL    HW116367   1.540   1.505  14.299  1.9111  1.1552  0.9841
 1636SOL    HW216368   1.406   1.554  14.341  0.2712 -1.8065  0.9626
 1637SOL     OW16369   4.461   0.141   7.251  0.1622 -0.0899 -0.5676
 1637SOL    HW116370   4.413   0.217   7.282 -1.6716 -1.8500  0.8594
 1637SOL    HW216371   4.494   0.185   7.172 -2.4943  2.6327 -0.1203
 1638SOL     OW16372   1.765   0.634  12.235 -0.3378  0.1014  0.4493
 1638SOL    HW116373   1.711   0.604  12.308  0.0412 -1.2607  0.1746
 1638SOL    HW216374   1.846   0.661  12.276  0.5144 -0.8263 -0.6040
 1639SOL     OW16375   2.184   0.667  17.255  0.0142  0.1430  0.6523
 1639SOL    HW116376   2.215   0.580  17.230  0.7570  1.0208 -1.4189
 1639SOL    HW216377   2.247   0.732  17.224  0.6148 -0.3309  0.8736
 1640SOL     OW16378   4.042   2.168   8.652 -0.3657  0.1826  0.8924
 1640SOL    HW116379   4.081   2.184   8.738  0.8736  1.5656  0.0801
 1640SOL    HW216380   4.041   2.072   8.644 -0.1236  0.4528 -2.3600
 1641SOL     OW16381   3.809   3.837   5.064 -0.2199 -0.2432  0.0003
 1641SOL    HW116382   3.863   3.847   5.143 -0.6685  3.2880 -0.1587
 1641SOL    HW216383   3.800   3.742   5.075 -4.3552  0.0741 -0.7370
 1642SOL     OW16384   0.420   3.909   9.171 -0.2558 -0.0967  0.6424
 1642SOL    HW116385   0.505   3.873   9.146 -0.9960 -1.8097  0.5918
 1642SOL    HW216386   0.431   3.899   9.266  2.0087  2.4276  0.6230
 1643SOL     OW16387   3.842   2.381  13.970 -0.3799 -0.0948  0.1223
 1643SOL    HW116388   3.749   2.356  13.970 -0.4902  0.3463 -3.1991
 1643SOL    HW216389   3.856   2.384  13.876  0.9703 -3.9396  0.2212
 1644SOL     OW16390   3.583   2.524   4.647 -0.3675 -0.3044  0.3359
 1644SOL    HW116391   3.609   2.579   4.720 -1.9565  0.5652  0.2598
 1644SOL    HW216392   3.488   2.516   4.659 -0.3486  0.1159  0.7451
 1645SOL     OW16393   4.413   3.674   8.811 -0.2808  0.0192 -0.0159
 1645SOL    HW116394   4.378   3.761   8.789  2.1886  0.6256 -1.4596
 1645SOL    HW216395   4.335   3.641   8.856 -1.8718  1.0630 -1.9836
 1646SOL     OW16396   0.693   3.887   9.687 -0.3727  0.1569  0.0329
 1646SOL    HW116397   0.776   3.878   9.640  0.0354 -1.2719  1.0240
 1646SOL    HW216398   0.684   3.981   9.702  0.6931  0.1534  0.7272
 1647SOL     OW16399   1.350   3.174   5.396  0.0088 -1.2171  0.1917
 1647SOL    HW116400   1.302   3.141   5.472 -0.7643  0.5765  0.4803
 1647SOL    HW216401   1.288   3.164   5.324 -1.7238 -1.1495  1.6694
 1648SOL     OW16402   3.359   2.987  13.607 -0.0051 -0.8740 -0.4360
 1648SOL    HW116403   3.350   3.077  13.637 -2.0292 -0.7693 -1.3597
 1648SOL    HW216404   3.364   2.953  13.696 -0.7913  3.0737  1.0968
 1649SOL     OW16405   2.729   3.434   6.586 -0.0121 -0.0598 -0.3151
 1649SOL    HW116406   2.671   3.413   6.660  0.2892 -1.4240 -0.4518
 1649SOL    HW216407   2.796   3.490   6.624  2.8329 -1.2829 -3.5474
 1650SOL     OW16408   3.125   1.478   3.281 -0.5361  0.1585  0.6450
 1650SOL    HW116409   3.098   1.473   3.372  0.7489 -2.1584  0.8900
 1650SOL    HW216410   3.191   1.546   3.290 -2.9624  2.3873  1.5539
 1651SOL     OW16411   3.264   0.502   3.465 -0.5564 -0.0802 -0.1024
 1651SOL    HW116412   3.303   0.484   3.380  0.5061 -0.1172  0.3900
 1651SOL    HW216413   3.184   0.550   3.446  0.0568  1.1194  0.3449
 1652SOL     OW16414   2.882   1.431  10.445  0.2092  0.2875 -0.4475
 1652SOL    HW116415   2.787   1.427  10.438  0.3711 -0.7129 -2.2585
 1652SOL    HW216416   2.904   1.403  10.356  1.0250  2.1212 -0.8135
 1653SOL     OW16417   4.431   3.523   6.337 -0.0943 -0.0244  0.3421
 1653SOL    HW116418   4.520   3.499   6.364 -0.0305 -1.1108 -0.8466
 1653SOL    HW216419   4.391   3.572   6.408  0.2228  2.3725 -1.1254
 1654SOL     OW16420   0.836   4.023  16.923  0.3627  0.5329 -0.6063
 1654SOL    HW116421   0.766   4.088  16.913 -0.8262 -0.4390  1.4377
 1654SOL    HW216422   0.825   3.984  16.836  1.3697 -2.4212  0.5909
 1655SOL     OW16423   2.669   1.954  13.180  0.9302  0.3210 -0.3020
 1655SOL    HW116424   2.660   1.948  13.275 -2.8627  0.8262 -0.6144
 1655SOL    HW216425   2.579   1.927  13.162  1.4403 -1.5306 -0.0841
 1656SOL     OW16426   0.243   0.294   3.285  0.6783 -0.1633 -0.5832
 1656SOL    HW116427   0.326   0.248   3.297 -0.1279 -0.8535  2.3933
 1656SOL    HW216428   0.237   0.320   3.193  0.2631  1.4900 -0.0874
 1657SOL     OW16429   2.079   4.117   9.197  0.4535  0.4996  0.0622
 1657SOL    HW116430   2.024   4.045   9.166  0.0358  0.4360  0.9311
 1657SOL    HW216431   2.103   4.093   9.287 -0.6206 -1.2171 -0.1239
 1658SOL     OW16432   3.836   3.210   4.461  0.0225 -0.1795 -0.0137
 1658SOL    HW116433   3.898   3.161   4.407  1.2465 -0.3137  1.5412
 1658SOL    HW216434   3.768   3.143   4.475  1.2006 -1.2637  0.5172
 1659SOL     OW16435   3.278   0.457  11.594  0.6448 -0.1386  0.2392
 1659SOL    HW116436   3.328   0.538  11.607 -0.9142  1.0304 -0.9544
 1659SOL    HW216437   3.190   0.485  11.620  0.2740  1.0330 -2.2274
 1660SOL     OW16438   3.189   0.225   9.418  0.2309  0.0161  0.0366
 1660SOL    HW116439   3.249   0.290   9.456  1.2916 -2.0560  1.8777
 1660SOL    HW216440   3.245   0.184   9.352  1.5280 -1.0054  1.7895
 1661SOL     OW16441   1.664   1.809   3.394  0.2994 -0.2710 -0.0248
 1661SOL    HW116442   1.602   1.744   3.359 -1.3249  0.8980  0.6828
 1661SOL    HW216443   1.703   1.843   3.314 -0.4384  1.1108  0.2042
 1662SOL     OW16444   0.231   1.282   2.059 -0.1688  0.6807 -0.1773
 1662SOL    HW116445   0.275   1.358   2.022  0.9985  0.1209  0.0493
 1662SOL    HW216446   0.144   1.296   2.024 -0.6252  1.2350  1.1675
 1663SOL     OW16447   2.770   1.249  11.649 -0.4211  0.2296  0.8437
 1663SOL    HW116448   2.693   1.193  11.642 -0.1067 -0.0175 -0.5613
 1663SOL    HW216449   2.841   1.186  11.657 -0.2696  0.4014  0.8727
 1664SOL     OW16450   1.375   2.442   4.002  0.0233 -0.2826 -0.3366
 1664SOL    HW116451   1.323   2.496   4.062 -0.6420 -0.1718 -1.0159
 1664SOL    HW216452   1.363   2.358   4.046 -1.5734 -0.1407 -0.5034
 1665SOL     OW16453   1.706   3.783   4.235  0.4151 -0.2220 -0.1117
 1665SOL    HW116454   1.760   3.705   4.245 -2.1368 -1.5965  2.6872
 1665SOL    HW216455   1.632   3.765   4.293  1.7153 -1.5175  1.1287
 1666SOL     OW16456   4.657   3.188   5.936  0.1973  0.2929 -0.0133
 1666SOL    HW116457   4.656   3.241   6.015 -1.1324 -0.9658  0.8019
 1666SOL    HW216458   0.024   3.170   5.911  0.0031  0.1318 -0.6042
 1667SOL     OW16459   4.671   4.091   1.103  0.0082 -0.0390  0.4433
 1667SOL    HW116460   4.677   3.997   1.088 -0.8583 -0.1379  0.7197
 1667SOL    HW216461   4.645   4.091   1.195  1.5246  0.5854  0.8729
 1668SOL     OW16462   1.816   0.854  17.410  0.6564 -0.2203  0.0344
 1668SOL    HW116463   1.895   0.805  17.432  1.8722  0.8322 -2.0542
 1668SOL    HW216464   1.837   0.942  17.443  0.6439 -0.6994  1.3358
 1669SOL     OW16465   3.624   0.531   9.668 -0.1270  0.0227 -0.6089
 1669SOL    HW116466   3.657   0.454   9.715 -0.4300  0.8240  0.9189
 1669SOL    HW216467   3.651   0.605   9.722 -0.2350  1.2477 -2.2339
 1670SOL     OW16468   0.565   4.069  14.394  0.6886 -0.0014 -0.0827
 1670SOL    HW116469   0.510   4.018  14.335  0.5638 -0.7716  0.7034
 1670SOL    HW216470   0.559   4.155  14.353 -1.9927 -0.4700 -0.6502
 1671SOL     OW16471   1.111   2.490   7.370  0.3456 -0.1630 -0.0675
 1671SOL    HW116472   1.205   2.509   7.369 -0.1205  2.1264  0.8827
 1671SOL    HW216473   1.093   2.451   7.456  0.0392 -0.2016 -0.1494
 1672SOL     OW16474   4.635   1.457   6.473  0.0309 -0.0222  0.1385
 1672SOL    HW116475   4.575   1.412   6.413 -0.1248  0.3096  0.0429
 1672SOL    HW216476   4.665   1.526   6.415  1.6681 -1.2888 -0.5122
 1673SOL     OW16477   3.005   0.234   6.569 -0.0619  0.7134 -0.3632
 1673SOL    HW116478   2.976   0.227   6.660  3.1528 -1.4026  0.5206
 1673SOL    HW216479   3.093   0.273   6.567  0.2421  0.0631  0.3257
 1674SOL     OW16480   0.284   1.971   1.276  0.4436  0.1969 -0.3302
 1674SOL    HW116481   0.318   1.909   1.212 -1.6012  0.2858 -1.5112
 1674SOL    HW216482   0.234   2.016   1.208  0.8243  0.1822 -0.6164
 1675SOL     OW16483   0.128   2.934   8.845  0.3366  0.3109 -0.0589
 1675SOL    HW116484   0.190   2.982   8.790  0.7027  2.5896  2.3201
 1675SOL    HW216485   0.187   2.860   8.861  1.0733  0.9264  0.0792
 1676SOL     OW16486   1.882   2.579   7.952  0.2634 -0.1558 -0.4227
 1676SOL    HW116487   1.967   2.568   7.910  0.9946  0.3839  0.9025
 1676SOL    HW216488   1.922   2.581   8.039  0.7338 -1.6640 -0.6182
 1677SOL     OW16489   0.092   2.415   8.416  0.0133  0.0452 -0.3027
 1677SOL    HW116490   0.052   2.501   8.404  3.6807  1.6610 -1.1436
 1677SOL    HW216491   0.034   2.366   8.358  1.7254 -1.7258 -0.5165
 1678SOL     OW16492   1.486   1.699   8.464  0.3651 -0.2172 -0.3232
 1678SOL    HW116493   1.472   1.789   8.432  0.5188 -0.3330 -0.7205
 1678SOL    HW216494   1.396   1.690   8.495 -0.1161 -1.5466 -2.1106
 1679SOL     OW16495   3.728   1.176   3.494 -0.3205  0.0112 -0.2467
 1679SOL    HW116496   3.800   1.128   3.534  2.0200  1.0350 -3.2106
 1679SOL    HW216497   3.725   1.127   3.412  0.4655 -1.2551  0.4776
 1680SOL     OW16498   3.070   0.474   6.082  0.3582 -0.3915 -0.2310
 1680SOL    HW116499   3.034   0.391   6.112 -1.9405  0.8044  0.3030
 1680SOL    HW216500   3.008   0.543   6.109  0.0922 -0.9511  0.5928
 1681SOL     OW16501   2.075   3.956   7.978 -0.1292  0.4848 -0.1497
 1681SOL    HW116502   1.982   3.979   7.985 -0.7988 -1.8373 -1.2231
 1681SOL    HW216503   2.078   3.884   8.042 -0.9442  0.5940  0.0161
 1682SOL     OW16504   1.574   0.107   0.677 -0.2322  0.2878  0.1197
 1682SOL    HW116505   1.572   0.155   0.594  2.4318 -0.0882 -0.1676
 1682SOL    HW216506   1.479   0.092   0.677 -0.4849  1.8994 -1.0189
 1683SOL     OW16507   4.463   0.639   6.644  0.3166  0.3116  0.4090
 1683SOL    HW116508   4.403   0.709   6.617 -0.2624 -0.6938 -0.8983
 1683SOL    HW216509   4.409   0.563   6.627 -0.1361  0.1884  2.4614
 1684SOL     OW16510   2.083   0.194   8.327 -0.0457  0.5025 -0.4326
 1684SOL    HW116511   2.034   0.263   8.371 -0.8903  0.0409 -0.6550
 1684SOL    HW216512   2.053   0.115   8.372  1.8289  2.1715  3.7437
 1685SOL     OW16513   3.818   2.955   8.424  0.1850  0.2176 -0.5812
 1685SOL    HW116514   3.819   2.997   8.510 -1.4417 -1.0053  0.0332
 1685SOL    HW216515   3.737   2.905   8.433 -0.4760  1.3664 -0.0451
 1686SOL     OW16516   1.707   2.402  10.221  0.0591  0.7084  0.1716
 1686SOL    HW116517   1.664   2.327  10.262 -0.4315  0.4722 -0.7817
 1686SOL    HW216518   1.738   2.462  10.288 -0.4340 -0.9499  1.8923
 1687SOL     OW16519   3.633   4.355   6.477 -0.4108 -0.2836 -0.4746
 1687SOL    HW116520   3.727   4.334   6.484 -0.3232 -0.2619 -1.5256
 1687SOL    HW216521   3.647   4.434   6.424 -1.3875 -0.4067 -0.9011
 1688SOL     OW16522   4.643   4.055   2.965 -0.0048 -0.7677  0.4559
 1688SOL    HW116523   4.713   4.119   2.950 -1.9146  0.8230 -1.6970
 1688SOL    HW216524   4.678   3.978   2.921 -1.2944 -0.5577 -0.9506
 1689SOL     OW16525   3.583   3.451   2.310 -0.0252  0.3692  0.1494
 1689SOL    HW116526   3.637   3.456   2.389 -1.9717  0.2738  1.5021
 1689SOL    HW216527   3.542   3.365   2.320  2.5138 -0.9091 -0.5967
 1690SOL     OW16528   1.077   3.297  16.240 -0.2339 -0.6452 -0.7048
 1690SOL    HW116529   1.058   3.223  16.296  0.5415  0.4324  0.9720
 1690SOL    HW216530   1.159   3.264  16.202 -2.0348 -3.1274 -2.4498
 1691SOL     OW16531   0.546   1.202   7.163 -0.4062  0.1140 -0.3253
 1691SOL    HW116532   0.624   1.205   7.220  0.7273 -0.0303 -1.8749
 1691SOL    HW216533   0.520   1.111   7.175  0.4377 -0.0096  0.6215
 1692SOL     OW16534   0.575   4.654  14.555  0.4153 -0.3497  0.0359
 1692SOL    HW116535   0.484   4.652  14.524  0.8305 -0.4204 -1.1600
 1692SOL    HW216536   0.591   0.016  14.591 -3.0339  0.1256  0.4652
 1693SOL     OW16537   3.094   1.939   8.366 -0.0226 -0.0455 -0.2008
 1693SOL    HW116538   3.062   1.999   8.433  1.3485 -0.9387  1.2778
 1693SOL    HW216539   3.145   1.873   8.414 -0.6155  0.1862  0.7453
 1694SOL     OW16540   3.210   3.609   2.127  0.9046 -0.2147 -0.7011
 1694SOL    HW116541   3.221   3.703   2.139  0.0105 -0.3522  1.1113
 1694SOL    HW216542   3.274   3.581   2.191 -0.5091 -0.3896  0.6370
 1695SOL     OW16543   1.433   4.707  15.044 -0.1841 -0.5882  0.3458
 1695SOL    HW116544   1.511   4.719  14.990 -1.1688 -1.4730 -1.2854
 1695SOL    HW216545   1.366   4.718  14.976 -1.4136 -2.2092  1.2899
 1696SOL     OW16546   2.983   3.145   7.680 -0.1723 -0.1253 -0.3676
 1696SOL    HW116547   2.891   3.143   7.706 -0.2699 -0.8680 -0.7706
 1696SOL    HW216548   2.982   3.185   7.593 -2.9624  0.1164 -0.2330
 1697SOL     OW16549   0.465   3.313   5.972  0.5266 -0.0899  0.8732
 1697SOL    HW116550   0.529   3.325   6.042  0.3294  0.3239  0.9846
 1697SOL    HW216551   0.394   3.376   5.988  0.2972 -0.4070  1.0925
 1698SOL     OW16552   4.710   2.666   8.396  0.1921 -0.1901 -0.3734
 1698SOL    HW116553   4.722   2.761   8.403  1.1929 -0.3139 -0.3450
 1698SOL    HW216554   4.630   2.657   8.448 -1.7090  1.8080 -2.9894
 1699SOL     OW16555   3.853   2.041   5.131 -0.8116  0.1023 -0.6204
 1699SOL    HW116556   3.779   2.072   5.182 -0.4657 -1.3405  0.7909
 1699SOL    HW216557   3.867   2.111   5.068 -1.0190  2.7972  2.3669
 1700SOL     OW16558   2.121   3.538   6.285 -0.5487  0.3056  0.4833
 1700SOL    HW116559   2.087   3.531   6.374 -2.0792  0.8471 -0.0400
 1700SOL    HW216560   2.062   3.603   6.246 -0.8016 -0.2877 -0.1374
 1701SOL     OW16561   1.275   1.215   5.727 -0.4957 -0.3696 -0.3075
 1701SOL    HW116562   1.286   1.282   5.794  0.8345 -1.2478  0.3469
 1701SOL    HW216563   1.295   1.267   5.649 -2.2603 -1.5726 -1.5608
 1702SOL     OW16564   3.689   3.701  11.856  0.4930 -0.5556  0.0347
 1702SOL    HW116565   3.744   3.744  11.791 -0.2734 -1.8980 -1.4983
 1702SOL    HW216566   3.755   3.716  11.924  0.6251  1.2842 -0.5196
 1703SOL     OW16567   0.044   2.976  10.916  0.1096  0.0258 -0.4541
 1703SOL    HW116568   0.128   3.019  10.927 -0.8356  1.2802  1.9038
 1703SOL    HW216569   0.004   3.021  10.990  1.7001  2.2824 -0.9650
 1704SOL     OW16570   0.553   1.993   2.115 -0.4738 -0.3980 -0.6957
 1704SOL    HW116571   0.557   2.070   2.172 -1.8976 -1.1202  0.3467
 1704SOL    HW216572   0.471   2.010   2.070  0.4057  1.4707 -1.6029
 1705SOL     OW16573   4.302   2.161   5.916 -0.1842 -0.6652  0.3850
 1705SOL    HW116574   4.215   2.198   5.902  0.6536  1.2903  0.3369
 1705SOL    HW216575   4.282   2.098   5.985 -0.1189 -0.1064  0.9174
 1706SOL     OW16576   2.555   1.333   2.414  0.5864  0.0109 -0.1386
 1706SOL    HW116577   2.500   1.411   2.414  1.4072  0.5980 -2.6067
 1706SOL    HW216578   2.501   1.274   2.362  0.5797  0.5163 -0.7103
 1707SOL     OW16579   0.182   0.667   3.142  0.6050 -0.0198 -0.3106
 1707SOL    HW116580   0.093   0.647   3.171 -0.2538  3.5832 -0.4878
 1707SOL    HW216581   0.169   0.743   3.085 -1.0050 -1.1923 -1.5575
 1708SOL     OW16582   4.007   1.744   7.732  0.2130 -0.0931 -0.0019
 1708SOL    HW116583   3.959   1.807   7.785  2.4311  0.6923  1.0370
 1708SOL    HW216584   3.940   1.677   7.717 -0.1457  0.8304 -2.4794
 1709SOL     OW16585   1.288   3.399   3.130  0.3807 -0.0962  0.0201
 1709SOL    HW116586   1.258   3.476   3.179 -0.9585 -0.7348  0.2195
 1709SOL    HW216587   1.323   3.445   3.054  0.0173 -1.4479 -0.9603
 1710SOL     OW16588   3.896   1.059  15.503  0.6480 -0.1044  0.2928
 1710SOL    HW116589   3.902   1.006  15.423  0.6068 -1.9001  1.4687
 1710SOL    HW216590   3.920   0.996  15.572 -0.1602 -2.8184 -1.8990
 1711SOL     OW16591   0.665   3.840   1.036 -0.0911 -0.1583 -0.3493
 1711SOL    HW116592   0.659   3.878   0.949  2.0023 -2.6923 -1.5927
 1711SOL    HW216593   0.750   3.796   1.028 -0.2616 -0.5618  0.0142
 1712SOL     OW16594   1.712   1.360   7.059 -0.2068 -0.2487  0.1565
 1712SOL    HW116595   1.689   1.450   7.036 -1.5983 -0.3487  1.1507
 1712SOL    HW216596   1.634   1.319   7.022 -0.7560  1.1573 -0.2800
 1713SOL     OW16597   4.104   2.329   7.025  0.1812  0.5762 -1.0949
 1713SOL    HW116598   4.032   2.343   7.087 -0.7228  0.1058 -2.0470
 1713SOL    HW216599   4.057   2.319   6.942 -0.0360 -1.1598 -0.7654
 1714SOL     OW16600   0.359   2.743   2.032  0.3230  0.0246 -0.0223
 1714SOL    HW116601   0.361   2.831   2.070 -0.6686  0.6076 -1.3191
 1714SOL    HW216602   0.310   2.761   1.952 -0.3852 -0.6083  0.2806
 1715SOL     OW16603   3.733   3.224   3.299  0.0831  0.2405  0.3784
 1715SOL    HW116604   3.682   3.237   3.220  0.4478 -3.2807 -0.4490
 1715SOL    HW216605   3.791   3.300   3.300 -0.3321  0.5563  0.1855
 1716SOL     OW16606   0.953   1.597   4.435  0.2758 -0.2629 -0.0909
 1716SOL    HW116607   0.866   1.563   4.413 -0.6730  1.5252  0.8357
 1716SOL    HW216608   0.934   1.689   4.417 -1.1759 -0.2442  1.6170
 1717SOL     OW16609   0.122   3.210  11.784 -0.5053 -0.3359 -0.2572
 1717SOL    HW116610   0.030   3.211  11.758 -1.1377  0.9551  1.9848
 1717SOL    HW216611   0.169   3.189  11.703  1.3594 -1.0052  1.0012
 1718SOL     OW16612   4.251   1.715   8.087 -0.6238  0.0101  0.4250
 1718SOL    HW116613   4.230   1.638   8.034  0.4958  2.7306 -3.9313
 1718SOL    HW216614   4.337   1.742   8.054  0.4525 -0.7095  2.6105
 1719SOL     OW16615   1.033   0.734   1.849  0.7113  0.8730 -0.5650
 1719SOL    HW116616   0.971   0.787   1.799 -0.5144 -0.6933 -0.7013
 1719SOL    HW216617   0.996   0.650   1.822  0.0093  0.8477  0.4680
 1720SOL     OW16618   2.455   0.290   4.122 -0.5895 -0.3821  0.3578
 1720SOL    HW116619   2.431   0.377   4.090  0.5028 -0.4424 -0.6142
 1720SOL    HW216620   2.527   0.309   4.182 -1.4623  0.6410  1.0886
 1721SOL     OW16621   4.596   0.358   9.201 -0.3987  0.0136 -0.0040
 1721SOL    HW116622   4.664   0.327   9.260  2.0469  0.1401 -2.7572
 1721SOL    HW216623   4.548   0.411   9.264  0.1293  1.2235 -0.6160
 1722SOL     OW16624   4.504   3.599   7.159 -0.2451 -0.3307 -0.1892
 1722SOL    HW116625   4.532   3.516   7.198 -1.8882 -1.1493 -0.7849
 1722SOL    HW216626   4.424   3.592   7.211 -0.1562  0.4487  0.0491
 1723SOL     OW16627   4.535   4.183   4.163 -0.0775  0.3408  0.2097
 1723SOL    HW116628   4.526   4.192   4.258  0.3281 -2.1842  0.4989
 1723SOL    HW216629   4.630   4.185   4.158 -0.1444  0.7188 -0.8153
 1724SOL     OW16630   0.965   3.577   3.881  0.4274  0.8736 -0.3548
 1724SOL    HW116631   1.003   3.500   3.922 -0.8292  0.7537  0.6046
 1724SOL    HW216632   0.963   3.552   3.789 -4.6237 -1.1945  0.3223
 1725SOL     OW16633   1.985   4.126   6.894  0.5024  0.0329 -0.3197
 1725SOL    HW116634   1.952   4.124   6.804 -2.5501  0.3886  0.7836
 1725SOL    HW216635   2.065   4.178   6.891 -0.0791  0.7720 -2.7636
 1726SOL     OW16636   1.408   3.722  12.825 -0.0766  0.0511  0.1899
 1726SOL    HW116637   1.358   3.664  12.767  1.2466 -1.3357  0.4395
 1726SOL    HW216638   1.473   3.748  12.761  1.8030  1.0671  2.5172
 1727SOL     OW16639   1.631   4.535   5.863 -0.7553 -0.5225  0.4912
 1727SOL    HW116640   1.603   4.565   5.950 -0.9864  0.9212 -0.0786
 1727SOL    HW216641   1.543   4.527   5.826 -0.2772 -0.3047 -0.6648
 1728SOL     OW16642   2.844   0.212   5.706 -0.8031  0.2223  0.0339
 1728SOL    HW116643   2.791   0.160   5.645  0.5993 -0.9602 -0.1779
 1728SOL    HW216644   2.839   0.298   5.664 -2.3316  0.1569  0.0982
 1729SOL     OW16645   1.478   1.293   2.918 -0.2103  0.5880 -0.4313
 1729SOL    HW116646   1.408   1.227   2.918  1.7354 -1.4734  0.1061
 1729SOL    HW216647   1.462   1.344   2.839  1.5047  0.3461 -0.9296
 1730SOL     OW16648   4.579   1.303   9.844  0.1660 -0.4951 -0.4453
 1730SOL    HW116649   4.601   1.364   9.774 -1.2121 -0.3622 -0.7664
 1730SOL    HW216650   4.593   1.216   9.806 -0.6916 -1.4833  1.4859
 1731SOL     OW16651   3.928   1.906   6.222  0.9090 -0.1793 -0.2666
 1731SOL    HW116652   3.873   1.897   6.144 -1.9357  0.2622  1.6746
 1731SOL    HW216653   3.939   1.811   6.223 -2.5529 -0.5548  3.6503
 1732SOL     OW16654   3.898   4.336  12.214 -0.5372 -0.4483 -0.2857
 1732SOL    HW116655   3.945   4.418  12.231  0.6753 -1.1476 -0.3013
 1732SOL    HW216656   3.972   4.275  12.219 -0.1471  0.0756  0.3984
 1733SOL     OW16657   0.014   2.794   2.201  0.5700  0.1751 -0.5588
 1733SOL    HW116658   0.029   2.723   2.138  1.0409  0.2122 -0.4926
 1733SOL    HW216659   4.699   2.742   2.272 -0.9766  1.5281 -0.4440
 1734SOL     OW16660   1.957   0.980  13.227 -0.2055  0.1138  0.2917
 1734SOL    HW116661   1.948   0.928  13.147  0.0176  1.4037 -0.5615
 1734SOL    HW216662   1.863   0.996  13.240 -0.3011 -0.4695  0.3307
 1735SOL     OW16663   1.762   0.027   6.674 -0.6853  0.2653 -0.3023
 1735SOL    HW116664   1.683   4.700   6.686 -1.5492  1.3640 -1.3030
 1735SOL    HW216665   1.750   0.088   6.747  2.4585  2.3380 -1.4963
 1736SOL     OW16666   0.333   3.666   0.776 -0.4718 -0.0744  0.3447
 1736SOL    HW116667   0.248   3.631   0.750 -0.8526  0.2494  1.1364
 1736SOL    HW216668   0.366   3.711   0.698 -0.2468 -2.8150 -1.1386
 1737SOL     OW16669   4.332   1.957   7.316 -0.1098 -0.6893 -0.6300
 1737SOL    HW116670   4.336   2.051   7.330  1.2232 -0.9335  0.6402
 1737SOL    HW216671   4.387   1.931   7.390 -1.8607  0.1699  0.9427
 1738SOL     OW16672   1.969   1.871   8.087 -0.1905 -0.3157  0.4887
 1738SOL    HW116673   1.954   1.782   8.058  1.6910 -0.2399 -0.6873
 1738SOL    HW216674   2.061   1.857   8.111  0.5000  2.6530 -0.3897
 1739SOL     OW16675   2.178   1.981   4.704 -0.6967  0.1573  0.5608
 1739SOL    HW116676   2.129   2.033   4.640 -0.6644  0.6430  0.9267
 1739SOL    HW216677   2.109   1.928   4.745  0.8291 -2.2819  0.0005
 1740SOL     OW16678   1.922   1.941  11.988 -0.2675  0.0235  0.9925
 1740SOL    HW116679   1.996   1.885  12.014 -1.0324 -1.3491  0.2209
 1740SOL    HW216680   1.911   2.003  12.060 -0.2099 -0.2370  1.2268
 1741SOL     OW16681   1.871   3.070  15.105 -0.2331  0.4659 -0.0435
 1741SOL    HW116682   1.832   3.053  15.019 -3.1464  0.9664  1.1567
 1741SOL    HW216683   1.943   3.009  15.096 -0.0847  0.3967  1.5602
 1742SOL     OW16684   4.689   1.114  14.424 -0.6925  0.0204  0.1198
 1742SOL    HW116685   0.046   1.154  14.395  0.5021 -1.0560  1.9863
 1742SOL    HW216686   4.723   1.027  14.447  2.1288  1.4154  1.1548
 1743SOL     OW16687   1.755   2.547   4.838  0.0856  0.7978  0.8331
 1743SOL    HW116688   1.680   2.547   4.778 -0.0640 -1.5752  1.0151
 1743SOL    HW216689   1.811   2.490   4.786 -0.6242  2.4928 -1.8237
 1744SOL     OW16690   4.137   0.550   3.148 -0.2505 -0.4244  0.2230
 1744SOL    HW116691   4.217   0.560   3.200  0.0305  0.0769 -0.3160
 1744SOL    HW216692   4.067   0.582   3.204 -1.3159 -1.5964 -0.4319
 1745SOL     OW16693   0.426   1.471   7.100 -0.5907 -0.3206  0.0927
 1745SOL    HW116694   0.388   1.409   7.038  2.0746 -0.8486 -0.9887
 1745SOL    HW216695   0.497   1.424   7.144 -0.0851  0.4949  0.1436
 1746SOL     OW16696   2.402   1.080   8.085  0.1707  0.4734  0.0616
 1746SOL    HW116697   2.471   1.014   8.085  0.1306  0.4226  1.7741
 1746SOL    HW216698   2.330   1.035   8.130  1.7928 -2.9094 -0.7313
 1747SOL     OW16699   2.165   1.087  13.367  0.1830 -0.2217  0.3921
 1747SOL    HW116700   2.232   1.040  13.317  1.1594  1.9053 -0.3038
 1747SOL    HW216701   2.083   1.057  13.326  1.3053 -0.9140 -1.3821
 1748SOL     OW16702   0.729   3.833   7.918  0.0324 -0.0855 -0.2778
 1748SOL    HW116703   0.788   3.763   7.889  1.3545  1.7954 -2.1363
 1748SOL    HW216704   0.767   3.861   8.001 -1.6613 -0.2197  0.5264
 1749SOL     OW16705   2.879   4.218  13.012 -0.2364 -0.1219  0.4517
 1749SOL    HW116706   2.926   4.212  13.095  0.3179 -0.1579  0.1330
 1749SOL    HW216707   2.931   4.290  12.978 -0.9696  0.4923  0.6127
 1750SOL     OW16708   4.333   2.677   5.752  0.0568  0.0064 -0.0479
 1750SOL    HW116709   4.362   2.764   5.725  0.7850 -0.0575  0.5235
 1750SOL    HW216710   4.265   2.663   5.686 -0.9870  1.6820  0.6642
 1751SOL     OW16711   2.693   4.665  11.456 -0.0530 -0.0241  0.2506
 1751SOL    HW116712   2.722   4.581  11.490  3.0071  1.4844  1.4383
 1751SOL    HW216713   2.757   4.688  11.388 -1.0668 -1.6672 -1.2693
 1752SOL     OW16714   1.913   4.271   3.491  0.1637  0.3563 -0.3745
 1752SOL    HW116715   1.820   4.267   3.471  0.3144 -1.0914 -0.7666
 1752SOL    HW216716   1.944   4.183   3.469  2.0561  0.8956  0.1084
 1753SOL     OW16717   3.655   1.162   8.652  0.0350 -0.0993  0.3702
 1753SOL    HW116718   3.624   1.073   8.666 -0.5705  0.0711  0.1455
 1753SOL    HW216719   3.675   1.156   8.558 -0.1095  0.9421  0.2700
 1754SOL     OW16720   3.425   3.668   2.267  0.4270  0.3659  0.2997
 1754SOL    HW116721   3.492   3.606   2.296  1.4343  0.2646 -2.2963
 1754SOL    HW216722   3.461   3.692   2.182  0.0149 -2.4129 -0.6494
 1755SOL     OW16723   2.614   4.447   4.560 -0.4887  0.9380  0.3129
 1755SOL    HW116724   2.529   4.421   4.524 -0.3779  0.1071  0.6676
 1755SOL    HW216725   2.636   4.520   4.501  0.0990  0.6510  0.1752
 1756SOL     OW16726   0.698   3.578   3.765  0.4900 -0.1265  0.6406
 1756SOL    HW116727   0.684   3.483   3.769 -0.8581  0.0719  0.4405
 1756SOL    HW216728   0.688   3.596   3.858 -0.6540 -0.9764  0.6741
 1757SOL     OW16729   2.544   2.340   6.757  0.8165  0.2926 -0.2280
 1757SOL    HW116730   2.614   2.403   6.739  1.7255 -1.4069 -2.5848
 1757SOL    HW216731   2.605   2.275   6.791 -0.1188  0.4891  1.8388
 1758SOL     OW16732   1.608   2.398  16.456  0.1310 -0.1909 -0.0173
 1758SOL    HW116733   1.566   2.464  16.401  1.6037  0.4869 -0.3376
 1758SOL    HW216734   1.682   2.382  16.398  0.9638 -0.3679  1.0819
 1759SOL     OW16735   1.512   1.625   4.669  0.5321  0.3037  0.0153
 1759SOL    HW116736   1.598   1.660   4.694  0.7901  0.8950 -1.7551
 1759SOL    HW216737   1.456   1.677   4.727 -0.2542 -0.8959  0.3354
 1760SOL     OW16738   1.301   0.936   5.974  0.2080 -0.2816 -0.0751
 1760SOL    HW116739   1.222   0.990   5.978 -0.1913 -0.8816  0.3239
 1760SOL    HW216740   1.351   0.992   6.034  0.1106  2.1122 -2.2585
 1761SOL     OW16741   1.135   4.226   3.376  0.0406 -1.0433 -0.7805
 1761SOL    HW116742   1.230   4.213   3.372  0.1183 -0.3029 -1.3930
 1761SOL    HW216743   1.119   4.211   3.469  0.1530 -1.9202 -0.8989
 1762SOL     OW16744   1.311   4.244   6.262 -0.5161 -0.3353  0.3673
 1762SOL    HW116745   1.222   4.275   6.249 -0.9436 -1.1357  1.3422
 1762SOL    HW216746   1.345   4.322   6.307  2.5068 -0.8574 -1.0487
 1763SOL     OW16747   4.221   3.960   3.719  0.3316 -0.6914  0.0653
 1763SOL    HW116748   4.290   3.899   3.695  2.4054  0.5927  2.7751
 1763SOL    HW216749   4.234   4.034   3.660 -1.5105  0.8680  1.5806
 1764SOL     OW16750   1.597   1.179   9.519  0.4250  0.3735 -0.0526
 1764SOL    HW116751   1.614   1.090   9.551  2.5997 -0.2200 -2.8958
 1764SOL    HW216752   1.578   1.227   9.600 -0.3903  1.5939 -0.9693
 1765SOL     OW16753   3.344   2.541  10.762 -0.6846  0.4904  0.3713
 1765SOL    HW116754   3.278   2.471  10.758  1.0525 -1.1267  0.4620
 1765SOL    HW216755   3.381   2.540  10.850 -0.3197  0.6187  0.2164
 1766SOL     OW16756   4.202   4.366   2.477 -0.4373 -0.3681 -0.1185
 1766SOL    HW116757   4.155   4.356   2.561 -1.3807  0.2168 -0.5790
 1766SOL    HW216758   4.188   4.276   2.446 -0.1102  0.0117 -1.3579
 1767SOL     OW16759   1.943   4.363   2.318 -0.2607 -0.3769  0.1748
 1767SOL    HW116760   1.984   4.277   2.308 -1.3427 -0.6260 -2.2455
 1767SOL    HW216761   1.884   4.352   2.392 -0.8409 -1.6678 -0.4721
 1768SOL     OW16762   1.044   1.865   9.186  1.1696  0.2512 -0.1307
 1768SOL    HW116763   1.114   1.818   9.231  1.1487  0.1994 -0.1522
 1768SOL    HW216764   1.049   1.809   9.108  1.2815 -0.3149  0.2827
 1769SOL     OW16765   2.287   1.369   7.638  0.6698 -0.0880  0.2698
 1769SOL    HW116766   2.280   1.425   7.715 -0.8823 -1.3820  1.0661
 1769SOL    HW216767   2.373   1.337   7.665  0.1976  0.9587  2.9498
 1770SOL     OW16768   2.517   3.575  12.987 -0.0243  0.1037 -0.6472
 1770SOL    HW116769   2.519   3.649  13.048 -2.2445 -1.2329  1.0642
 1770SOL    HW216770   2.529   3.499  13.043 -0.7799  0.0549 -0.5443
 1771SOL     OW16771   1.269   3.070   3.398 -0.2924 -0.2925  0.0457
 1771SOL    HW116772   1.284   3.001   3.462  1.9469 -1.2071 -1.4880
 1771SOL    HW216773   1.301   3.143   3.452  2.0779 -2.0721  1.0282
 1772SOL     OW16774   0.206   3.040   5.478 -0.4962 -0.0911  0.2919
 1772SOL    HW116775   0.208   3.110   5.412  0.9112 -2.0220 -1.7428
 1772SOL    HW216776   0.148   3.078   5.543 -0.0094 -1.3468  1.4460
 1773SOL     OW16777   3.363   1.088   7.913  0.2681  0.6485  0.2071
 1773SOL    HW116778   3.289   1.130   7.869  2.0792  1.9729 -1.5826
 1773SOL    HW216779   3.321   1.058   7.993 -2.0033  1.3430 -0.7405
 1774SOL     OW16780   1.420   3.973   8.201 -0.0722  0.4236 -0.6824
 1774SOL    HW116781   1.460   3.905   8.255  1.6965  2.9135  1.1058
 1774SOL    HW216782   1.351   3.924   8.157  0.1296  0.0948 -0.6371
 1775SOL     OW16783   2.345   2.833   3.472  0.6625 -0.4826 -0.0587
 1775SOL    HW116784   2.353   2.742   3.501  0.8488 -0.0027  1.3790
 1775SOL    HW216785   2.399   2.880   3.536  2.3647  0.6730 -2.3097
 1776SOL     OW16786   3.928   1.331   1.510  0.2168  0.3561  0.6214
 1776SOL    HW116787   3.978   1.395   1.460 -0.9724  0.7985  0.0046
 1776SOL    HW216788   3.897   1.275   1.438  0.7914  0.7139  0.0943
 1777SOL     OW16789   0.378   2.457   1.456  0.2498  0.0497 -1.0856
 1777SOL    HW116790   0.292   2.462   1.498 -0.1661  1.4323 -2.1292
 1777SOL    HW216791   0.393   2.364   1.441 -0.4347 -0.1908 -0.2560
 1778SOL     OW16792   3.741   3.334   6.385 -0.3978 -0.2283 -0.1441
 1778SOL    HW116793   3.731   3.383   6.467  0.4266  0.4550 -0.4566
 1778SOL    HW216794   3.754   3.243   6.415 -1.0514 -0.7592 -1.4885
 1779SOL     OW16795   2.528   2.175  10.920 -0.0649  0.6901  0.0088
 1779SOL    HW116796   2.499   2.084  10.933 -2.4591  1.1781 -2.0169
 1779SOL    HW216797   2.615   2.161  10.883 -0.5565  2.6883 -1.9026
 1780SOL     OW16798   0.607   4.411   4.439  0.0544  0.0377  0.3881
 1780SOL    HW116799   0.511   4.418   4.441 -0.0010 -0.3290 -1.4180
 1780SOL    HW216800   0.619   4.345   4.507 -0.3580  0.0850  0.5117
 1781SOL     OW16801   3.936   1.871  16.023 -0.0016  0.6843 -0.5225
 1781SOL    HW116802   3.955   1.946  15.966 -1.1271  1.1562 -0.2755
 1781SOL    HW216803   3.972   1.801  15.969  0.1873  0.7993 -0.5453
 1782SOL     OW16804   2.978   2.278  13.051  0.3405 -0.2765 -0.3157
 1782SOL    HW116805   3.045   2.346  13.055  1.8750 -1.8306  0.4647
 1782SOL    HW216806   2.973   2.254  12.959 -0.0694  0.9092 -0.6015
 1783SOL     OW16807   2.914   0.048   6.374 -0.2296 -0.2690 -0.5876
 1783SOL    HW116808   2.937   0.108   6.445  0.6751 -1.0186 -0.2527
 1783SOL    HW216809   2.907   0.119   6.310  0.2723 -0.4382 -0.8281
 1784SOL     OW16810   0.857   4.525   4.474 -0.2369 -0.0664  0.3865
 1784SOL    HW116811   0.765   4.506   4.459 -0.5988  0.9254  1.4037
 1784SOL    HW216812   0.855   4.570   4.558  0.2634  2.6664 -1.0777
 1785SOL     OW16813   2.113   1.996   3.748  0.1783  0.1053  0.0070
 1785SOL    HW116814   2.051   1.945   3.799 -0.4204  0.0920 -0.7478
 1785SOL    HW216815   2.123   2.080   3.795 -0.5539  0.0323  0.2879
 1786SOL     OW16816   0.454   0.542   2.898 -0.2561 -0.0740  0.2572
 1786SOL    HW116817   0.540   0.501   2.908 -0.1114 -0.1495 -1.2430
 1786SOL    HW216818   0.494   0.628   2.889 -1.9341  0.8684  1.9531
 1787SOL     OW16819   0.936   0.702   9.004 -0.5081 -0.0936  0.5876
 1787SOL    HW116820   0.892   0.644   9.065  0.4539  0.1375  1.4986
 1787SOL    HW216821   0.864   0.731   8.948  0.2092  2.3283  0.9085
 1788SOL     OW16822   0.602   3.902   0.769  0.1190  0.1202 -0.0839
 1788SOL    HW116823   0.571   3.831   0.713 -1.4516  0.7809 -0.0318
 1788SOL    HW216824   0.532   3.966   0.762 -1.0071 -1.3944 -2.6840
 1789SOL     OW16825   3.357   4.070  13.713 -0.0069  0.2837 -0.3359
 1789SOL    HW116826   3.382   3.985  13.677 -0.7750 -1.1352  2.4731
 1789SOL    HW216827   3.266   4.085  13.689 -0.3209 -0.1846  0.5620
 1790SOL     OW16828   3.574   1.777  13.540 -0.4176  0.0480  0.1669
 1790SOL    HW116829   3.499   1.800  13.485 -0.6487 -0.8146  0.1211
 1790SOL    HW216830   3.637   1.748  13.473  0.6970 -0.0001  1.2453
 1791SOL     OW16831   0.142   1.667   5.332  0.6332  0.4207 -0.2596
 1791SOL    HW116832   0.238   1.661   5.333  0.7229  1.9258 -0.0009
 1791SOL    HW216833   0.115   1.579   5.305 -0.5520  1.2783 -1.8793
 1792SOL     OW16834   1.449   2.503  16.886  0.5140  0.2497  0.1550
 1792SOL    HW116835   1.365   2.503  16.840 -0.0707 -3.3004  1.2946
 1792SOL    HW216836   1.478   2.592  16.866 -1.1660  0.6834 -0.3094
 1793SOL     OW16837   3.338   2.018  10.974  0.3726 -0.1220 -0.4522
 1793SOL    HW116838   3.308   1.932  11.002 -0.5198 -0.0360 -1.1117
 1793SOL    HW216839   3.404   2.047  11.036  0.2252 -0.2314 -0.2436
 1794SOL     OW16840   0.960   0.413  17.637 -0.0378 -0.2117 -0.0386
 1794SOL    HW116841   0.980   0.339  17.695  0.2108  0.7025  1.0536
 1794SOL    HW216842   1.047   0.422  17.598 -0.2647  0.5039 -0.3770
 1795SOL     OW16843   2.443   4.240   8.566  0.0127 -0.1581  0.5195
 1795SOL    HW116844   2.475   4.236   8.656  0.1471 -1.9456  0.3945
 1795SOL    HW216845   2.351   4.228   8.587 -0.2419  0.7692 -0.0587
 1796SOL     OW16846   2.171   2.370   4.533  0.5667 -0.1907 -0.0098
 1796SOL    HW116847   2.229   2.331   4.598  0.8473  1.0397  0.4866
 1796SOL    HW216848   2.189   2.309   4.462 -0.8225 -0.8694  0.2097
 1797SOL     OW16849   3.468   3.876   4.330 -0.4539 -0.4955  0.1868
 1797SOL    HW116850   3.531   3.818   4.285  0.9033  2.4607 -1.7516
 1797SOL    HW216851   3.391   3.820   4.326 -0.5189 -0.3724 -0.3033
 1798SOL     OW16852   2.434   1.936  11.266  0.5036 -0.0075 -0.1769
 1798SOL    HW116853   2.339   1.938  11.268  0.5536  1.6777  0.2781
 1798SOL    HW216854   2.458   1.989  11.341  1.3183 -0.5704 -0.0275
 1799SOL     OW16855   2.647   0.956  14.045  0.2817  0.2347 -0.0674
 1799SOL    HW116856   2.668   0.863  14.056 -0.1356  0.3938  2.1611
 1799SOL    HW216857   2.722   0.981  13.992  0.0834 -0.3898 -0.6462
 1800SOL     OW16858   4.089   3.469  11.640 -0.6309 -0.0425 -0.3679
 1800SOL    HW116859   4.041   3.510  11.711  0.8763  1.7808 -0.4129
 1800SOL    HW216860   4.021   3.420  11.593 -0.6797 -0.3872  0.0692
 1801SOL     OW16861   1.916   0.883  13.497  0.4110  0.0747  0.0111
 1801SOL    HW116862   1.912   0.933  13.416  0.4061 -0.0616 -0.0731
 1801SOL    HW216863   1.975   0.815  13.466  1.9655  1.1714  0.5762
 1802SOL     OW16864   2.150   1.847  10.911 -0.0711  0.7461 -0.6187
 1802SOL    HW116865   2.206   1.900  10.855 -0.9057  0.2225 -1.9687
 1802SOL    HW216866   2.084   1.825  10.845  2.3192 -1.0626 -2.3683
 1803SOL     OW16867   3.443   3.751  11.550 -0.3314  0.6583  0.3806
 1803SOL    HW116868   3.495   3.681  11.589  1.7041  1.2550 -1.2521
 1803SOL    HW216869   3.491   3.833  11.568  0.9836  0.1666 -0.8981
 1804SOL     OW16870   1.906   4.284   7.698 -0.1247  0.4072 -0.6582
 1804SOL    HW116871   1.921   4.340   7.622  1.2103 -1.6942 -1.9483
 1804SOL    HW216872   1.858   4.347   7.752 -3.1905 -0.4746 -2.4060
 1805SOL     OW16873   2.339   0.233   1.793 -1.3624 -0.5145  0.5460
 1805SOL    HW116874   2.296   0.248   1.709  1.3282  0.4717 -0.6360
 1805SOL    HW216875   2.282   0.291   1.845  1.7211  0.8943  2.3295
 1806SOL     OW16876   3.097   3.497   2.903  0.1357  0.4740  0.4931
 1806SOL    HW116877   3.071   3.555   2.831  1.1615  1.5769  0.9960
 1806SOL    HW216878   3.039   3.426   2.877 -0.1136  0.5837  0.7554
 1807SOL     OW16879   3.142   3.407   5.103  0.2562 -0.5484  0.0617
 1807SOL    HW116880   3.072   3.342   5.113 -0.4699  0.1371 -0.5646
 1807SOL    HW216881   3.191   3.372   5.029 -1.8733 -0.6949 -1.2680
 1808SOL     OW16882   2.512   3.494   6.015  0.4252  0.7482 -0.0208
 1808SOL    HW116883   2.421   3.486   6.043  0.9802  0.1530  1.5761
 1808SOL    HW216884   2.510   3.540   5.931  0.6002 -0.2276 -0.5592
 1809SOL     OW16885   3.270   4.138   5.943  0.3792  0.4457 -0.0811
 1809SOL    HW116886   3.330   4.186   5.886  0.7375 -1.0384 -0.9600
 1809SOL    HW216887   3.196   4.130   5.883 -0.7282 -0.0283  1.3573
 1810SOL     OW16888   3.571   4.085   5.409 -0.3797  0.0226 -0.2642
 1810SOL    HW116889   3.525   4.094   5.325 -2.4045  1.5868  0.9934
 1810SOL    HW216890   3.664   4.094   5.388 -0.3968 -0.8768 -0.7462
 1811SOL     OW16891   1.252   4.336   8.959 -0.7170  0.0464 -0.4935
 1811SOL    HW116892   1.210   4.314   8.876  0.6680  1.5096 -1.5864
 1811SOL    HW216893   1.243   4.252   9.003  3.3351  0.9963  2.1355
 1812SOL     OW16894   2.736   1.070  10.534 -0.1641 -0.2797 -0.7837
 1812SOL    HW116895   2.795   1.079  10.460 -0.5654  1.6643 -0.8664
 1812SOL    HW216896   2.652   1.051  10.494  0.0509 -0.4899 -1.1328
 1813SOL     OW16897   1.326   4.015  17.517  0.0421 -0.3796 -0.0068
 1813SOL    HW116898   1.370   4.017  17.432 -1.2107 -1.1818 -0.6689
 1813SOL    HW216899   1.246   4.067  17.509 -0.8008 -1.4467  1.5390
 1814SOL     OW16900   4.717   2.219  10.893  0.0235  0.0611  0.1118
 1814SOL    HW116901   4.680   2.199  10.807 -0.3896  0.3313  0.2243
 1814SOL    HW216902   0.079   2.243  10.860  0.1339 -1.0443 -0.3958
 1815SOL     OW16903   2.504   0.936   4.056  0.1822  0.4153 -0.1970
 1815SOL    HW116904   2.431   0.877   4.074  1.0488 -0.7941 -0.6082
 1815SOL    HW216905   2.516   0.963   4.147  1.3272  0.7296 -0.4423
 1816SOL     OW16906   0.826   0.716  14.495 -0.3316  0.6868  0.4386
 1816SOL    HW116907   0.816   0.652  14.424  1.4984 -1.3302  2.0179
 1816SOL    HW216908   0.920   0.730  14.500 -0.3039  1.7826 -3.2169
 1817SOL     OW16909   2.835   3.320   6.213 -0.3169 -0.2594 -0.3320
 1817SOL    HW116910   2.840   3.296   6.121  0.3624  0.0629 -0.3756
 1817SOL    HW216911   2.750   3.279   6.230 -0.5586 -0.1219 -1.2446
 1818SOL     OW16912   3.186   0.812  15.161 -0.0883  0.7057  0.5302
 1818SOL    HW116913   3.237   0.818  15.242  0.1828  1.0739  0.3366
 1818SOL    HW216914   3.157   0.721  15.166  0.2672  0.5528 -0.0981
 1819SOL     OW16915   1.702   0.526   5.538 -0.7499 -0.0611 -0.5370
 1819SOL    HW116916   1.626   0.474   5.564  0.4572 -2.1976 -1.2896
 1819SOL    HW216917   1.718   0.576   5.618 -0.4737 -1.3775  0.2334
 1820SOL     OW16918   0.055   4.427  16.212  0.2239 -0.6078 -0.3119
 1820SOL    HW116919   0.083   4.515  16.186 -1.2400 -0.2575 -0.6633
 1820SOL    HW216920   4.707   4.413  16.151  0.8241 -1.1019 -0.9146
 1821SOL     OW16921   3.735   3.031   3.040 -0.5137 -0.1301 -0.3892
 1821SOL    HW116922   3.759   3.081   3.118  1.3037  0.8408 -1.5759
 1821SOL    HW216923   3.664   3.086   3.008 -1.2940  0.6375  2.6611
 1822SOL     OW16924   0.359   2.309  13.660  0.8438 -0.6093 -0.3395
 1822SOL    HW116925   0.336   2.221  13.629 -0.6578 -1.5189  3.2953
 1822SOL    HW216926   0.343   2.296  13.753 -2.1981  1.8880 -0.5131
 1823SOL     OW16927   0.299   2.839   8.404  0.1949 -0.1675  0.1281
 1823SOL    HW116928   0.221   2.827   8.350  1.5092 -3.8241 -0.9827
 1823SOL    HW216929   0.315   2.930   8.380  2.9532 -0.8085 -0.5511
 1824SOL     OW16930   1.564   2.259   1.029 -1.0052 -0.0993 -0.3196
 1824SOL    HW116931   1.573   2.249   0.934 -0.6968 -0.2564 -0.2725
 1824SOL    HW216932   1.487   2.316   1.029  0.0531  1.2904 -2.3161
 1825SOL     OW16933   1.379   3.013   2.400 -0.2151  0.2546 -0.3554
 1825SOL    HW116934   1.403   2.958   2.325  1.2213  0.0352  0.2776
 1825SOL    HW216935   1.435   3.089   2.384 -1.1739  1.2439  0.9291
 1826SOL     OW16936   1.213   3.853   3.410 -0.2283 -0.5216 -0.1184
 1826SOL    HW116937   1.128   3.834   3.369  0.5162 -0.6419 -1.6218
 1826SOL    HW216938   1.193   3.868   3.502  1.6922 -2.4732  0.6008
 1827SOL     OW16939   2.127   2.554   1.748  0.0382  0.5119  0.0636
 1827SOL    HW116940   2.130   2.644   1.715  1.0032  1.2533  2.2086
 1827SOL    HW216941   2.181   2.504   1.687  0.6142  2.0911 -0.7056
 1828SOL     OW16942   2.868   4.536   3.170  0.4105  0.8049  0.0569
 1828SOL    HW116943   2.935   4.502   3.231 -3.2000  0.4544  3.8023
 1828SOL    HW216944   2.920   4.563   3.094 -1.9992  3.7529 -0.5385
 1829SOL     OW16945   0.185   1.980   4.696 -0.3209 -0.5053 -0.8783
 1829SOL    HW116946   0.152   1.959   4.783  0.8652  1.1475 -0.0400
 1829SOL    HW216947   0.146   1.915   4.637 -0.7802 -1.7646  0.8161
 1830SOL     OW16948   3.090   3.020   1.472  0.0519 -0.0642  0.1240
 1830SOL    HW116949   3.184   3.038   1.471 -0.4807  2.6512 -1.3821
 1830SOL    HW216950   3.094   2.937   1.519 -1.2909  0.7840  1.7294
 1831SOL     OW16951   1.884   3.823  12.119 -0.3165 -0.1854  1.2758
 1831SOL    HW116952   1.966   3.780  12.096  0.2832  1.6468  0.0145
 1831SOL    HW216953   1.867   3.870  12.037  0.7225  0.1957  1.2901
 1832SOL     OW16954   2.331   0.489   9.460  0.4061 -0.0739  0.2646
 1832SOL    HW116955   2.420   0.513   9.434  0.6225  0.5315  1.5581
 1832SOL    HW216956   2.293   0.527   9.382 -2.7475 -0.0403  1.8077
 1833SOL     OW16957   0.023   1.137  13.624 -0.0494 -0.2794  0.3633
 1833SOL    HW116958   4.717   1.047  13.636  1.4587 -0.8996 -0.4754
 1833SOL    HW216959   0.113   1.129  13.593 -0.9507 -1.5313 -1.9461
 1834SOL     OW16960   1.858   4.549  16.766 -0.0829 -0.0758 -0.7490
 1834SOL    HW116961   1.791   4.547  16.834 -1.0535 -1.0199 -1.7153
 1834SOL    HW216962   1.918   4.618  16.794 -0.2494  0.1423 -0.9222
 1835SOL     OW16963   1.101   4.263   5.205  0.1227 -0.1201 -0.0270
 1835SOL    HW116964   1.064   4.219   5.128 -0.6100  0.6523 -0.1122
 1835SOL    HW216965   1.105   4.354   5.175 -0.0583 -0.0623  0.1306
 1836SOL     OW16966   3.413   1.614   7.892 -0.0247 -0.2143  0.0831
 1836SOL    HW116967   3.368   1.650   7.969  0.7396  1.6921 -0.3831
 1836SOL    HW216968   3.487   1.568   7.932 -0.9844  0.7333  2.9726
 1837SOL     OW16969   3.681   3.982   7.405 -0.0913  0.2219 -0.5802
 1837SOL    HW116970   3.773   3.998   7.422  0.3586 -1.6788 -1.1737
 1837SOL    HW216971   3.646   4.027   7.328 -2.0460  0.7732  0.6036
 1838SOL     OW16972   3.823   2.657   7.545  0.6983  0.1774 -0.8687
 1838SOL    HW116973   3.742   2.619   7.511 -0.3423  0.3305  1.4376
 1838SOL    HW216974   3.845   2.586   7.605 -2.5388  0.0957  0.2346
 1839SOL     OW16975   2.450   4.209  15.309 -0.1390  0.8315 -0.1340
 1839SOL    HW116976   2.377   4.221  15.248 -1.4699 -2.4272  0.8117
 1839SOL    HW216977   2.529   4.226  15.258  1.2007  1.0880  2.0561
 1840SOL     OW16978   4.673   2.308   3.640  0.8578  0.3523  0.2372
 1840SOL    HW116979   4.625   2.249   3.582  0.5123  1.1316 -0.2653
 1840SOL    HW216980   4.677   2.395   3.601 -0.7879  0.0678 -0.5622
 1841SOL     OW16981   2.408   3.906   5.844  0.4901  0.3219 -0.3180
 1841SOL    HW116982   2.478   3.872   5.789 -0.5105 -0.6374 -0.9885
 1841SOL    HW216983   2.451   3.984   5.878 -1.4295  0.9378  0.7357
 1842SOL     OW16984   0.015   0.921   6.537  0.9197 -0.3913 -0.1787
 1842SOL    HW116985   0.034   0.855   6.470  0.4839 -2.1767  1.4560
 1842SOL    HW216986   0.045   0.878   6.617 -1.4006  0.3924  1.1143
 1843SOL     OW16987   3.882   0.857   5.401  0.0582  0.6255 -0.1103
 1843SOL    HW116988   3.936   0.904   5.337  1.4134 -0.2470  0.4009
 1843SOL    HW216989   3.902   0.765   5.387 -1.1995  0.1465  1.2476
 1844SOL     OW16990   0.194   2.916  15.373 -0.0021  0.1662  0.3894
 1844SOL    HW116991   0.139   2.944  15.446  0.4779  2.7311 -0.2177
 1844SOL    HW216992   0.141   2.940  15.297 -0.5959  1.2493  1.1555
 1845SOL     OW16993   4.523   1.681  14.167 -0.2356  0.6647 -0.2106
 1845SOL    HW116994   4.432   1.681  14.197  0.6586  0.1802  2.5165
 1845SOL    HW216995   4.562   1.626  14.236  0.1807 -0.3398 -1.2491
 1846SOL     OW16996   3.524   2.686   8.138  0.3364 -0.1846  0.0284
 1846SOL    HW116997   3.445   2.633   8.141  0.2283 -0.0798 -1.2875
 1846SOL    HW216998   3.584   2.623   8.099  2.9508  1.1227  1.9398
 1847SOL     OW16999   0.009   4.545  12.079 -0.0532  0.0461 -0.5401
 1847SOL    HW117000   0.077   4.583  12.135 -2.3536  1.6172  1.1792
 1847SOL    HW217001   0.024   4.594  11.998 -0.1396 -0.9304 -1.1488
 1848SOL     OW17002   1.804   2.676   7.392 -0.2367 -0.4403 -0.4898
 1848SOL    HW117003   1.840   2.595   7.358  0.7876  0.4198 -1.4427
 1848SOL    HW217004   1.755   2.708   7.316 -2.6093  1.8331  1.9964
 1849SOL     OW17005   1.079   1.521   7.748  0.6847 -0.9029  0.1800
 1849SOL    HW117006   1.134   1.530   7.825  0.7293  0.5917 -0.0111
 1849SOL    HW217007   0.988   1.548   7.765  1.1668  1.3496 -0.8502
 1850SOL     OW17008   0.863   1.622   0.186  0.0654 -0.1128 -0.5446
 1850SOL    HW117009   0.800   1.650   0.120 -0.2516  1.2738  0.3395
 1850SOL    HW217010   0.831   1.534   0.200  1.2867 -0.6830 -1.2851
 1851SOL     OW17011   0.207   4.622   9.069  0.1503  0.4202  0.3508
 1851SOL    HW117012   0.232   4.655   8.983  0.2231  0.8571  0.5345
 1851SOL    HW217013   0.263   4.546   9.083  0.0437  0.2570 -0.1394
 1852SOL     OW17014   3.901   2.280  13.159 -0.4665 -0.0913  0.2884
 1852SOL    HW117015   3.972   2.340  13.179  2.5367 -4.0682  1.5364
 1852SOL    HW217016   3.879   2.238  13.242  3.5773 -0.0913  1.3349
 1853SOL     OW17017   2.036   0.405   4.940  0.2792  0.5960 -0.7180
 1853SOL    HW117018   1.978   0.431   4.868 -0.3150  0.9583 -0.1099
 1853SOL    HW217019   2.124   0.415   4.904  0.6702  0.3242  0.1816
 1854SOL     OW17020   2.448   0.956   9.836 -0.4090  0.1033 -0.2764
 1854SOL    HW117021   2.415   1.037   9.875  0.6188  2.5032 -4.4002
 1854SOL    HW217022   2.458   0.902   9.914  1.9304 -0.1493 -0.7564
 1855SOL     OW17023   0.520   4.433  16.763 -0.0039  0.0345  0.1223
 1855SOL    HW117024   0.439   4.478  16.787  0.8873  1.6750  0.0754
 1855SOL    HW217025   0.551   4.461  16.677  3.2235  3.5617  2.4389
 1856SOL     OW17026   0.415   3.242  11.241  0.2951  0.0869  0.5202
 1856SOL    HW117027   0.484   3.289  11.194  1.3743 -0.5213  1.5120
 1856SOL    HW217028   0.474   3.183  11.287 -3.2998 -3.0098  1.1287
 1857SOL     OW17029   0.177   2.186  12.588  0.1923 -0.5131 -0.3013
 1857SOL    HW117030   0.101   2.155  12.538  0.8297 -0.6596 -1.1842
 1857SOL    HW217031   0.244   2.123  12.560  0.3442 -0.3141 -0.3928
 1858SOL     OW17032   1.190   4.134   4.049  0.5429  0.3323  0.2225
 1858SOL    HW117033   1.263   4.086   4.009  0.1733 -2.6219  3.1359
 1858SOL    HW217034   1.128   4.064   4.067 -0.1617  1.1856  1.1002
 1859SOL     OW17035   0.302   0.849  11.323  0.4088  0.1699  0.3137
 1859SOL    HW117036   0.240   0.892  11.264 -0.1910  0.7469  1.3755
 1859SOL    HW217037   0.378   0.844  11.265 -0.1316  0.4869 -0.4293
 1860SOL     OW17038   3.570   4.365   8.977 -0.6180  0.6193 -0.2662
 1860SOL    HW117039   3.554   4.342   8.886 -2.5221  0.0853  0.1936
 1860SOL    HW217040   3.490   4.345   9.026 -0.7218  1.0831 -0.2480
 1861SOL     OW17041   2.502   1.691  14.909  0.3738 -0.3185  0.6250
 1861SOL    HW117042   2.506   1.608  14.861 -2.4137  1.7018 -3.0730
 1861SOL    HW217043   2.493   1.747  14.832 -0.8952 -1.3583  0.0182
 1862SOL     OW17044   2.704   0.036   8.157  0.0907 -0.1559 -0.1007
 1862SOL    HW117045   2.711   0.107   8.221 -1.3847 -0.2212  0.1434
 1862SOL    HW217046   2.686   0.084   8.075 -1.8971 -0.9995 -0.1610
 1863SOL     OW17047   1.836   0.041   3.396  0.4089  0.4692  0.2302
 1863SOL    HW117048   1.763   4.720   3.438 -1.0357  1.5624 -1.1049
 1863SOL    HW217049   1.842   4.699   3.328  2.7516 -0.0115  0.9063
 1864SOL     OW17050   0.531   1.663  10.224  0.0723 -0.5598 -0.1331
 1864SOL    HW117051   0.604   1.632  10.277 -0.1236  0.5335  0.7539
 1864SOL    HW217052   0.586   1.716  10.166  0.5188 -1.6302 -0.7022
 1865SOL     OW17053   0.029   4.061   2.279  0.0226 -0.3328  0.3735
 1865SOL    HW117054   0.070   3.982   2.314 -0.3575 -0.0386  1.4919
 1865SOL    HW217055   0.085   4.069   2.202  2.1271 -1.9993  1.7176
 1866SOL     OW17056   0.374   2.589   3.276 -0.3970  0.0406 -0.3502
 1866SOL    HW117057   0.332   2.523   3.331  0.1819 -1.0206 -1.1668
 1866SOL    HW217058   0.408   2.532   3.207  2.7532  2.1916 -0.6077
 1867SOL     OW17059   1.686   1.622   6.661  0.0165 -0.5528 -0.0149
 1867SOL    HW117060   1.592   1.607   6.652 -0.4394  1.3126  1.5763
 1867SOL    HW217061   1.701   1.714   6.640  1.5879 -0.1410  2.8675
 1868SOL     OW17062   0.819   1.924   6.413 -0.3275  0.0684  0.3843
 1868SOL    HW117063   0.823   1.973   6.331 -0.0862 -1.3561 -0.4493
 1868SOL    HW217064   0.789   1.839   6.382  2.4760  0.2808 -2.8507
 1869SOL     OW17065   3.354   0.016  10.691 -0.0566 -0.2230  0.4944
 1869SOL    HW117066   3.279   4.689  10.660  0.1972 -0.1468 -0.2190
 1869SOL    HW217067   3.432   4.692  10.664 -0.8610 -0.5151 -1.3231
 1870SOL     OW17068   4.589   3.308   7.510 -0.1516 -0.2384 -0.4894
 1870SOL    HW117069   4.612   3.251   7.584 -0.3636  0.4102  0.0820
 1870SOL    HW217070   4.499   3.330   7.534 -0.0170 -0.8457  0.5790
 1871SOL     OW17071   2.357   4.140  14.147 -0.0426 -0.2325 -0.0435
 1871SOL    HW117072   2.303   4.195  14.091  0.4987  0.9836  0.6102
 1871SOL    HW217073   2.336   4.161  14.238  1.3838  0.3338  0.1642
 1872SOL     OW17074   2.391   3.631   4.086 -0.3666  0.0060 -0.7251
 1872SOL    HW117075   2.368   3.585   4.167  0.6838  0.2444 -0.2893
 1872SOL    HW217076   2.348   3.568   4.029  1.2300  0.7934 -2.7811
 1873SOL     OW17077   0.846   0.973   7.351 -0.3495 -0.2739  0.3289
 1873SOL    HW117078   0.757   0.947   7.377 -0.5751  0.8255  0.6561
 1873SOL    HW217079   0.890   0.953   7.433 -0.5270  1.2850  0.7901
 1874SOL     OW17080   1.950   4.064   0.099  0.1522 -0.5436 -0.6982
 1874SOL    HW117081   2.002   4.027   0.170 -1.4226 -0.4426  0.5241
 1874SOL    HW217082   1.894   3.987   0.095 -1.3087  0.4381  1.0059
 1875SOL     OW17083   1.504   3.017  13.893 -0.0004  0.7226 -0.0665
 1875SOL    HW117084   1.599   3.009  13.898 -0.2143 -0.9962  1.0459
 1875SOL    HW217085   1.486   2.949  13.828 -1.8619 -0.9598  2.2056
 1876SOL     OW17086   3.083   3.031   8.197  0.5202 -0.3168  0.1516
 1876SOL    HW117087   3.074   3.079   8.114 -1.1948 -1.3324 -0.2422
 1876SOL    HW217088   3.061   2.939   8.177 -1.1319 -0.4450  2.6874
 1877SOL     OW17089   0.515   2.972   4.217  0.4201  0.3470 -0.2109
 1877SOL    HW117090   0.496   3.065   4.221 -0.6123  0.0435  1.6399
 1877SOL    HW217091   0.521   2.941   4.308  0.9272 -1.3861 -0.8209
 1878SOL     OW17092   3.460   3.544   0.539 -0.7271  0.4866 -0.0754
 1878SOL    HW117093   3.521   3.593   0.594  0.4979 -2.0704  0.8219
 1878SOL    HW217094   3.494   3.585   0.460  2.1843  0.1900  1.0493
 1879SOL     OW17095   3.728   4.664  11.615  0.1073  0.6114  0.1878
 1879SOL    HW117096   3.701   0.018  11.662 -2.5197 -1.4771  2.1431
 1879SOL    HW217097   3.776   4.711  11.547  0.7203 -0.6077 -0.2346
 1880SOL     OW17098   2.351   3.042   4.467 -0.2312 -0.2894 -0.6694
 1880SOL    HW117099   2.421   3.030   4.531  0.0212 -1.9775 -1.2774
 1880SOL    HW217100   2.309   2.956   4.470  0.2951 -0.5494 -0.9103
 1881SOL     OW17101   2.116   1.092   5.909  0.1217 -0.6138 -0.0359
 1881SOL    HW117102   2.158   1.006   5.919 -1.6623 -1.1916  2.1860
 1881SOL    HW217103   2.030   1.070   5.944 -1.1873  3.6348 -0.5746
 1882SOL     OW17104   4.030   0.455   0.807  0.1545  0.2097 -0.1160
 1882SOL    HW117105   4.045   0.437   0.900  1.3909  1.9331  0.0151
 1882SOL    HW217106   4.044   0.369   0.768 -1.0198  0.1859 -0.5029
 1883SOL     OW17107   1.493   1.572   7.987 -0.4160 -0.1914 -0.6968
 1883SOL    HW117108   1.583   1.551   8.011  0.2694  0.7852 -2.4049
 1883SOL    HW217109   1.476   1.657   8.028 -1.3837 -0.5587 -0.3406
 1884SOL     OW17110   2.785   4.284   7.905 -0.8007 -0.1768 -0.0355
 1884SOL    HW117111   2.701   4.294   7.951  0.1725  2.3957  1.1863
 1884SOL    HW217112   2.799   4.372   7.869  1.7188 -0.1546  1.0617
 1885SOL     OW17113   2.395   1.718   9.355  0.3704 -0.2858 -0.3815
 1885SOL    HW117114   2.382   1.673   9.438 -0.7072  1.2218  0.2661
 1885SOL    HW217115   2.412   1.809   9.380 -1.3140 -0.4009  1.1827
 1886SOL     OW17116   2.497   2.651   8.431 -0.1304  0.0197 -0.2378
 1886SOL    HW117117   2.480   2.588   8.501 -2.1430  1.9999  1.0518
 1886SOL    HW217118   2.478   2.734   8.473  0.0773  0.3554 -0.8002
 1887SOL     OW17119   4.229   3.360  17.061  0.4730 -0.0280 -0.7093
 1887SOL    HW117120   4.275   3.444  17.067 -0.0882  0.0798  2.5824
 1887SOL    HW217121   4.144   3.403  17.052 -0.0264 -0.6252  1.0824
 1888SOL     OW17122   2.807   4.153   3.033 -0.2369 -0.5343 -0.2399
 1888SOL    HW117123   2.825   4.130   2.942 -0.0823  1.4154 -0.6941
 1888SOL    HW217124   2.796   4.247   3.019  0.8367 -0.4564 -0.5982
 1889SOL     OW17125   4.675   1.362   6.779 -0.9977 -0.4182 -0.0818
 1889SOL    HW117126   0.017   1.429   6.797 -1.6667 -0.1904  1.5466
 1889SOL    HW217127   4.638   1.388   6.695 -0.2786  0.7750 -0.0251
 1890SOL     OW17128   3.605   1.939   7.182 -0.3170  0.3512 -0.5272
 1890SOL    HW117129   3.570   1.923   7.095 -0.4683 -1.5050 -0.1328
 1890SOL    HW217130   3.564   2.022   7.208  2.1343  0.3839  3.2386
 1891SOL     OW17131   1.359   3.868   7.390  0.2318  0.1021  0.2105
 1891SOL    HW117132   1.277   3.887   7.344 -0.9121  1.9696  2.9783
 1891SOL    HW217133   1.423   3.890   7.323 -1.2494 -0.6378 -1.4497
 1892SOL     OW17134   3.900   2.590   9.049 -0.3632 -0.2693 -0.0834
 1892SOL    HW117135   3.806   2.603   9.040 -0.5352 -0.8945  0.8964
 1892SOL    HW217136   3.902   2.502   9.085  0.7460 -0.2134  0.0072
 1893SOL     OW17137   4.272   2.993  14.621 -0.5616  0.2925 -0.6422
 1893SOL    HW117138   4.236   2.930  14.683  1.9271  0.6579  1.1860
 1893SOL    HW217139   4.204   2.995  14.554 -0.9349 -1.5021 -0.3134
 1894SOL     OW17140   3.172   3.866  16.701  0.5486 -0.1477 -0.0518
 1894SOL    HW117141   3.087   3.910  16.691  0.8464 -0.1338 -2.4899
 1894SOL    HW217142   3.136   3.778  16.710  1.4726 -0.5754 -0.5703
 1895SOL     OW17143   3.229   0.653   4.194 -0.1355 -0.2904  0.4383
 1895SOL    HW117144   3.157   0.595   4.220  1.3055 -2.0949  0.4007
 1895SOL    HW217145   3.302   0.592   4.197 -1.5417 -2.0256 -0.7327
 1896SOL     OW17146   1.561   0.828   7.893  0.2072 -0.3394 -0.0438
 1896SOL    HW117147   1.504   0.781   7.953 -0.1949 -0.5268 -0.5690
 1896SOL    HW217148   1.504   0.852   7.820  0.3002  2.3464  0.7744
 1897SOL     OW17149   1.435   0.315   6.536 -0.6452 -0.3352 -0.8729
 1897SOL    HW117150   1.529   0.316   6.521 -0.4548  0.2382  0.3562
 1897SOL    HW217151   1.440   0.225   6.569 -0.4603 -0.7410 -1.9988
 1898SOL     OW17152   2.027   0.310   2.434  0.4008 -0.2123 -0.0661
 1898SOL    HW117153   2.087   0.385   2.439  1.5846 -1.1375 -0.4086
 1898SOL    HW217154   1.945   0.353   2.457 -0.1396 -1.3901  0.2273
 1899SOL     OW17155   1.195   4.090   6.995  0.3433 -0.0134 -0.1165
 1899SOL    HW117156   1.132   4.090   6.923  0.2694  2.0414 -0.0443
 1899SOL    HW217157   1.142   4.128   7.065  2.1580  1.8132  0.2388
 1900SOL     OW17158   3.657   1.934  16.105 -0.0208 -0.0329  0.4652
 1900SOL    HW117159   3.752   1.935  16.109 -0.0910 -1.1696  2.3774
 1900SOL    HW217160   3.635   2.027  16.099 -0.0545 -0.0859 -0.2751
 1901SOL     OW17161   1.129   3.837  17.184  0.2180  0.4419 -0.7820
 1901SOL    HW117162   1.047   3.882  17.207  0.8669  1.9034 -1.3009
 1901SOL    HW217163   1.110   3.821  17.091  1.6330  1.9852 -1.3353
 1902SOL     OW17164   1.037   1.497   6.191 -0.0742  0.5089  0.2446
 1902SOL    HW117165   1.055   1.522   6.100  2.1898 -0.9027  0.3050
 1902SOL    HW217166   1.122   1.470   6.226 -1.0130 -0.6201  1.6538
 1903SOL     OW17167   2.417   2.885   8.584  0.6299  0.1073  0.3687
 1903SOL    HW117168   2.399   2.956   8.645  2.6441  1.7689 -0.9932
 1903SOL    HW217169   2.390   2.937   8.508 -0.5863 -1.2544 -0.1339
 1904SOL     OW17170   4.662   3.993   9.632 -0.1160  0.0901  0.2529
 1904SOL    HW117171   4.695   4.045   9.558 -0.0927 -1.8423 -1.0871
 1904SOL    HW217172   4.626   3.920   9.582  0.5285 -0.1872  0.1974
 1905SOL     OW17173   2.316   2.486   5.186 -0.2767  0.4226  0.3873
 1905SOL    HW117174   2.366   2.433   5.250 -0.6770  0.0461  0.3863
 1905SOL    HW217175   2.255   2.532   5.243 -2.4781  0.4760 -2.0241
 1906SOL     OW17176   1.963   0.411   2.936 -0.6473  0.0198  0.2876
 1906SOL    HW117177   1.961   0.457   3.020 -0.3618 -0.0985  0.3562
 1906SOL    HW217178   1.973   0.469   2.860  1.0998  0.7444  1.0706
 1907SOL     OW17179   0.607   4.420  14.639  0.1100  0.0066  0.2143
 1907SOL    HW117180   0.606   4.513  14.616  0.8918 -0.1338 -0.4031
 1907SOL    HW217181   0.514   4.410  14.618 -0.2374  1.4564  1.0289
 1908SOL     OW17182   3.342   2.992   2.584  0.1556 -0.1953 -0.4341
 1908SOL    HW117183   3.434   2.987   2.610  0.1007 -0.6532 -0.3217
 1908SOL    HW217184   3.300   2.934   2.648  3.3358  0.4796  2.2407
 1909SOL     OW17185   4.345   0.154   5.937  0.0617  0.2346 -0.5055
 1909SOL    HW117186   4.263   0.204   5.941  0.1675  0.3047  0.7648
 1909SOL    HW217187   4.406   0.227   5.942  0.3852 -0.1523  0.9467
 1910SOL     OW17188   1.442   2.280   4.216 -0.6426  0.1604  0.1425
 1910SOL    HW117189   1.512   2.343   4.232  1.2206 -1.8905  0.0472
 1910SOL    HW217190   1.406   2.257   4.302 -1.0238 -0.0746 -0.0809
 1911SOL     OW17191   3.537   2.900   4.363 -0.0057 -0.2638  0.3179
 1911SOL    HW117192   3.555   2.940   4.448  0.9524 -0.1790  0.0832
 1911SOL    HW217193   3.475   2.829   4.380 -0.8313  0.6193  0.9560
 1912SOL     OW17194   4.560   2.279   0.687 -0.4601 -0.6133 -0.0970
 1912SOL    HW117195   4.637   2.304   0.738 -1.4328  0.8185  0.6854
 1912SOL    HW217196   4.574   2.185   0.681 -1.4744 -0.8145  0.5990
 1913SOL     OW17197   0.339   4.720   9.294 -0.2757  0.0475 -0.2707
 1913SOL    HW117198   0.295   4.675   9.222 -0.6335 -0.8198  0.4925
 1913SOL    HW217199   0.423   0.005   9.250 -0.6578  1.6460 -0.6736
 1914SOL     OW17200   2.288   0.032   6.782  0.6987 -0.4031 -0.2617
 1914SOL    HW117201   2.259   0.043   6.872 -0.3430  0.3101 -0.6856
 1914SOL    HW217202   2.203   0.048   6.740  1.2637  0.8620 -0.9460
 1915SOL     OW17203   1.060   1.863  13.607  0.1221  0.2486 -0.1635
 1915SOL    HW117204   1.020   1.950  13.610 -1.3465 -0.4497  0.0424
 1915SOL    HW217205   0.979   1.814  13.592 -0.5667  1.0297  1.0358
 1916SOL     OW17206   3.027   3.820   8.799 -0.0317 -0.0550  0.2127
 1916SOL    HW117207   3.072   3.753   8.747  2.0714  1.1012  0.5508
 1916SOL    HW217208   3.094   3.888   8.799 -0.3125  0.2209 -0.7405
 1917SOL     OW17209   4.162   2.047   6.152 -0.5183  0.7324  0.0195
 1917SOL    HW117210   4.201   2.079   6.234 -1.5099  1.5811  0.1701
 1917SOL    HW217211   4.096   1.986   6.183 -1.0953  0.0485 -2.5901
 1918SOL     OW17212   0.306   3.912   6.255 -0.1408  0.6846  0.1827
 1918SOL    HW117213   0.293   3.939   6.165  1.2212  0.0070 -0.2221
 1918SOL    HW217214   0.368   3.978   6.287  1.3063 -1.5478  2.0494
 1919SOL     OW17215   1.012   4.361  10.638  0.1076  0.3369  0.0537
 1919SOL    HW117216   0.958   4.286  10.663  2.4683 -1.4989 -0.4934
 1919SOL    HW217217   1.080   4.342  10.702 -0.0950  0.4444  0.3005
 1920SOL     OW17218   2.246   1.254   5.180 -0.0344 -0.0075  0.8014
 1920SOL    HW117219   2.161   1.270   5.220  0.0919 -0.5942  1.3083
 1920SOL    HW217220   2.259   1.323   5.115  2.4602 -0.3019  0.9897
 1921SOL     OW17221   3.492   3.750  13.834  0.1212 -0.4792 -0.0313
 1921SOL    HW117222   3.546   3.812  13.882  1.6244 -1.3245 -0.6424
 1921SOL    HW217223   3.424   3.748  13.902  1.1198  0.9466  1.0190
 1922SOL     OW17224   1.761   0.213  15.581  0.0826  0.7000  0.5064
 1922SOL    HW117225   1.727   0.243  15.497  1.9484 -1.5895 -1.0798
 1922SOL    HW217226   1.827   0.279  15.602  0.9756  0.1291 -0.5466
 1923SOL     OW17227   3.131   3.878   9.194  0.1717  0.4140  0.2564
 1923SOL    HW117228   3.073   3.954   9.197  0.7784  0.9078 -0.2896
 1923SOL    HW217229   3.184   3.897   9.116 -0.0584  0.5143  0.1258
 1924SOL     OW17230   2.241   2.842   6.384 -0.2786 -0.5969  0.7232
 1924SOL    HW117231   2.199   2.928   6.389  0.1045 -0.4774  1.9838
 1924SOL    HW217232   2.167   2.789   6.356 -0.9936  1.0654 -0.5125
 1925SOL     OW17233   0.770   0.461   6.342 -0.0413  0.1492 -0.1680
 1925SOL    HW117234   0.790   0.374   6.375  0.9782  0.2882 -0.4189
 1925SOL    HW217235   0.702   0.446   6.277 -1.5791 -2.1065  1.9745
 1926SOL     OW17236   2.194   3.789   2.238  0.2419 -0.1157 -0.2244
 1926SOL    HW117237   2.267   3.757   2.186 -1.3543 -3.7343 -0.2731
 1926SOL    HW217238   2.208   3.884   2.239  0.4592 -0.1527  0.2860
 1927SOL     OW17239   0.479   3.891   6.862 -0.1656 -0.0027  0.2803
 1927SOL    HW117240   0.495   3.834   6.787  0.1788  0.2313  0.1732
 1927SOL    HW217241   0.539   3.866   6.932  1.0653 -0.3932 -0.9072
 1928SOL     OW17242   2.571   0.212   1.944  0.2422  0.1753 -0.2469
 1928SOL    HW117243   2.543   0.280   2.005  0.4003  1.0463 -1.1422
 1928SOL    HW217244   2.485   0.191   1.907 -1.0493 -0.5363  3.1294
 1929SOL     OW17245   0.258   0.413  13.967  0.7762 -0.3629  0.6765
 1929SOL    HW117246   0.219   0.500  13.964  0.5258 -0.4603  1.2208
 1929SOL    HW217247   0.350   0.434  13.984  0.4263  1.3459  0.4372
 1930SOL     OW17248   1.294   1.997  13.590 -0.1785  0.0093  0.2706
 1930SOL    HW117249   1.319   2.003  13.498 -1.9335 -0.7522 -0.2601
 1930SOL    HW217250   1.218   1.939  13.600 -0.5016  0.4917  0.6391
 1931SOL     OW17251   2.055   4.513  15.616 -0.0970 -0.3443  0.3274
 1931SOL    HW117252   2.076   4.481  15.528  3.8272 -0.3580  1.2549
 1931SOL    HW217253   1.964   4.487  15.627 -0.0783 -0.7734 -0.4796
 1932SOL     OW17254   2.454   3.094   9.114 -0.0836 -0.2005  0.2043
 1932SOL    HW117255   2.380   3.126   9.166 -0.0065  0.1747  0.0818
 1932SOL    HW217256   2.408   3.021   9.073  1.8034 -1.4792  0.3539
 1933SOL     OW17257   1.946   0.699   7.660 -0.1216  0.0605  0.5488
 1933SOL    HW117258   1.942   0.661   7.572  0.1956  2.8950 -0.6763
 1933SOL    HW217259   1.956   0.620   7.714  1.1481 -0.0032  0.2413
 1934SOL     OW17260   2.527   4.342   5.841 -0.3071 -0.2009 -0.0326
 1934SOL    HW117261   2.431   4.345   5.844 -0.3027 -0.3181  0.2261
 1934SOL    HW217262   2.551   4.290   5.765 -2.0050 -0.7634 -0.1721
 1935SOL     OW17263   2.946   3.036  10.553  0.3735  0.0424  0.0420
 1935SOL    HW117264   2.881   3.006  10.489 -1.1335  2.0485  0.6176
 1935SOL    HW217265   2.897   3.082  10.621  1.5378 -0.5361  1.2778
 1936SOL     OW17266   0.345   4.170   3.773 -0.3164 -0.5886  0.2831
 1936SOL    HW117267   0.344   4.143   3.865  0.0895  0.5195  0.6108
 1936SOL    HW217268   0.279   4.239   3.772 -0.1833 -0.5058 -1.3893
 1937SOL     OW17269   4.010   0.081   7.625  0.5730 -0.1722  0.3685
 1937SOL    HW117270   3.969   0.004   7.585 -0.2730 -1.3421  3.4975
 1937SOL    HW217271   4.077   0.112   7.564  2.2205 -4.1222  0.1966
 1938SOL     OW17272   1.435   4.409  13.020 -0.3005 -0.0931  0.1997
 1938SOL    HW117273   1.522   4.448  13.036 -0.1764 -1.5330  3.1081
 1938SOL    HW217274   1.381   4.488  13.026  2.1544  1.6323 -0.2318
 1939SOL     OW17275   0.671   4.024   3.427  0.4973 -0.0382  0.5307
 1939SOL    HW117276   0.748   4.052   3.376  0.5768  2.1481  1.8870
 1939SOL    HW217277   0.627   4.108   3.438 -2.7176 -1.7467  0.4894
 1940SOL     OW17278   1.505   3.535   4.331  0.2740 -0.2515  0.2660
 1940SOL    HW117279   1.499   3.440   4.331  2.5585 -0.4002  3.3319
 1940SOL    HW217280   1.569   3.542   4.401 -0.7679  1.8307  1.0198
 1941SOL     OW17281   1.697   2.880  13.711  0.4850 -0.4246  0.2965
 1941SOL    HW117282   1.681   2.908  13.621  1.7902 -0.8783 -0.0745
 1941SOL    HW217283   1.763   2.942  13.741  0.2914 -0.2285  0.3143
 1942SOL     OW17284   0.040   2.631   1.974  0.1190 -0.6751  0.1793
 1942SOL    HW117285   4.719   2.688   1.912  0.5037 -0.8986 -0.3062
 1942SOL    HW217286   0.046   2.548   1.926  1.4616  0.7550 -2.1157
 1943SOL     OW17287   3.623   4.718  12.331 -0.4021  0.6690  0.5768
 1943SOL    HW117288   3.673   0.065  12.371  2.8728 -2.1398  1.6126
 1943SOL    HW217289   3.534   0.026  12.332 -1.4839 -2.3090  0.8503
 1944SOL     OW17290   0.303   3.915   3.190  0.8472 -0.0739 -0.3324
 1944SOL    HW117291   0.266   3.927   3.277  1.2235 -0.3322 -0.1390
 1944SOL    HW217292   0.374   3.852   3.202  1.5202  1.1673  2.0871
 1945SOL     OW17293   0.597   3.117  15.632 -0.5799 -0.0082 -0.4886
 1945SOL    HW117294   0.602   3.211  15.649  2.0243 -0.5694  1.7592
 1945SOL    HW217295   0.688   3.094  15.645 -0.2112  0.8234 -1.5644
 1946SOL     OW17296   2.829   1.711   4.213  0.5191  0.2343  0.2867
 1946SOL    HW117297   2.759   1.766   4.249 -0.4094 -0.5278 -0.3508
 1946SOL    HW217298   2.876   1.783   4.171  0.1384 -1.3866 -2.9008
 1947SOL     OW17299   0.310   4.372   5.937 -0.5795  0.3231  0.4968
 1947SOL    HW117300   0.388   4.425   5.919 -0.3803 -0.5531 -1.2996
 1947SOL    HW217301   0.262   4.387   5.856 -0.2473  0.0374  0.2444
 1948SOL     OW17302   2.554   2.998   4.618  0.3357  0.0505 -0.1191
 1948SOL    HW117303   2.562   2.949   4.700  1.8582 -0.7578 -0.7560
 1948SOL    HW217304   2.640   3.036   4.601  0.8774 -1.2944 -0.3339
 1949SOL     OW17305   1.276   3.765   0.713  0.1620 -0.1952  0.6676
 1949SOL    HW117306   1.190   3.740   0.748 -0.7713  0.2692 -1.2532
 1949SOL    HW217307   1.282   3.852   0.751 -1.2138  0.9925 -1.7704
 1950SOL     OW17308   4.089   3.884   3.454  0.2780 -0.5202  0.2179
 1950SOL    HW117309   4.105   3.918   3.366 -0.1167 -0.2462  0.2537
 1950SOL    HW217310   4.073   3.964   3.504 -0.4811 -0.9433  0.6596
 1951SOL     OW17311   3.427   4.507   9.339  0.0845 -0.5695  0.1749
 1951SOL    HW117312   3.413   4.491   9.432  1.0996  1.2561  0.6450
 1951SOL    HW217313   3.494   4.441   9.323 -1.5838 -1.7868 -1.8290
 1952SOL     OW17314   3.692   0.476  15.893  0.0266 -0.1400  0.0615
 1952SOL    HW117315   3.618   0.527  15.860  0.8244  1.1189  0.1887
 1952SOL    HW217316   3.689   0.399  15.836 -2.4704 -1.0168  1.3900
 1953SOL     OW17317   0.844   1.099   6.525  0.1864  0.2138  0.1816
 1953SOL    HW117318   0.899   1.176   6.512 -1.2617  1.5027  1.6845
 1953SOL    HW217319   0.900   1.057   6.591 -0.2792  0.8895  0.9927
 1954SOL     OW17320   3.077   3.475   4.079  0.1236 -0.3914 -0.2960
 1954SOL    HW117321   3.064   3.565   4.049  2.3890 -0.2562 -0.8657
 1954SOL    HW217322   2.989   3.448   4.103 -0.2845  0.5620 -0.7494
 1955SOL     OW17323   1.886   0.148  11.559  0.1591  0.2766  0.1805
 1955SOL    HW117324   1.815   0.088  11.537  0.3328  0.1084  0.0824
 1955SOL    HW217325   1.962   0.114  11.512  1.0155  2.6354 -0.1589
 1956SOL     OW17326   1.774   0.082   6.373  0.2515 -0.1177  0.0213
 1956SOL    HW117327   1.804   0.028   6.446  0.8409 -0.2208 -0.2963
 1956SOL    HW217328   1.712   0.145   6.408 -0.7478 -0.9691 -0.2021
 1957SOL     OW17329   4.257   3.363  15.073  0.1684  0.1193 -0.3877
 1957SOL    HW117330   4.255   3.444  15.022 -0.5066 -1.2320 -2.4973
 1957SOL    HW217331   4.168   3.359  15.109  0.0271  5.9352 -0.1156
 1958SOL     OW17332   4.336   0.144   6.408 -0.1980  0.4609 -0.3798
 1958SOL    HW117333   4.283   0.066   6.396  1.1464 -0.7871  1.9129
 1958SOL    HW217334   4.409   0.127   6.348 -1.9298 -1.6356 -1.8810
 1959SOL     OW17335   4.607   0.774   7.325 -0.3341  0.2104 -0.3211
 1959SOL    HW117336   4.657   0.807   7.251 -0.5834 -0.4482 -0.7834
 1959SOL    HW217337   4.604   0.853   7.380 -0.6156  1.4474 -2.1159
 1960SOL     OW17338   2.970   1.989   7.035 -0.2803  0.0292  0.0694
 1960SOL    HW117339   2.991   2.073   6.995  4.1516 -0.8291  0.6033
 1960SOL    HW217340   3.050   1.938   7.024  1.3361  2.7374 -0.6557
 1961SOL     OW17341   1.971   3.997   1.826 -0.1823  0.3499 -0.2050
 1961SOL    HW117342   1.911   4.061   1.788 -0.9567 -0.5253 -0.4459
 1961SOL    HW217343   1.921   3.917   1.812  1.6163 -0.6040 -1.2127
 1962SOL     OW17344   2.421   3.821  12.656 -0.0975 -0.1718  0.0992
 1962SOL    HW117345   2.458   3.771  12.583 -0.8230  1.6587 -1.5341
 1962SOL    HW217346   2.490   3.886  12.669 -0.5410  0.6459 -1.5754
 1963SOL     OW17347   0.141   1.266  12.597 -0.5615 -0.0609  0.1787
 1963SOL    HW117348   0.213   1.291  12.540 -2.1390 -2.4323 -2.9309
 1963SOL    HW217349   0.167   1.174  12.602 -0.3719 -0.0051  0.1961
 1964SOL     OW17350   3.160   3.305   8.655  0.2437 -0.0393  0.0742
 1964SOL    HW117351   3.082   3.334   8.702 -1.0002  1.0462 -2.6678
 1964SOL    HW217352   3.148   3.343   8.568 -2.8590 -0.1859  0.4324
 1965SOL     OW17353   2.987   3.350   7.251  0.4759  0.2946 -0.1145
 1965SOL    HW117354   3.066   3.311   7.213  0.7358  1.1080 -0.4129
 1965SOL    HW217355   2.991   3.442   7.224 -1.7063  0.9004  1.6517
 1966SOL     OW17356   0.491   1.365   2.374  0.3158  0.2285  0.2085
 1966SOL    HW117357   0.415   1.323   2.415  0.4333  1.6986  1.9562
 1966SOL    HW217358   0.512   1.299   2.308 -2.3732 -1.1675  0.7515
 1967SOL     OW17359   2.749   0.623   8.855  0.1984 -0.2219  0.0191
 1967SOL    HW117360   2.809   0.632   8.929  0.8569 -3.3003 -0.1313
 1967SOL    HW217361   2.778   0.534   8.833  1.6936  0.8619 -2.4036
 1968SOL     OW17362   3.323   2.822   5.851 -0.4584 -0.1627 -0.5934
 1968SOL    HW117363   3.308   2.828   5.757  0.9440 -0.5560 -0.8509
 1968SOL    HW217364   3.303   2.911   5.881 -1.4229 -0.7875  0.6055
 1969SOL     OW17365   0.066   3.219  11.497 -1.0537  0.5409  0.1059
 1969SOL    HW117366   0.156   3.235  11.525 -1.0228  1.6723 -0.6507
 1969SOL    HW217367   0.073   3.257  11.409 -2.0894 -0.9335 -0.6026
 1970SOL     OW17368   0.745   4.505   2.741  0.0819  0.3624 -0.4019
 1970SOL    HW117369   0.664   4.532   2.698  0.1327  0.4928 -0.4160
 1970SOL    HW217370   0.783   4.445   2.677  0.4622 -1.4067  1.4641
 1971SOL     OW17371   2.848   4.315   8.272  0.3388  0.1106  0.2612
 1971SOL    HW117372   2.752   4.313   8.273  0.3431  0.3282  1.2863
 1971SOL    HW217373   2.866   4.222   8.287  2.5816  0.3159 -1.0381
 1972SOL     OW17374   0.823   1.312   1.277 -0.3717 -0.7625  0.1028
 1972SOL    HW117375   0.880   1.267   1.339 -0.9006  0.8390  1.7458
 1972SOL    HW217376   0.765   1.356   1.340  1.2740  2.2596 -0.4821
 1973SOL     OW17377   0.197   4.690   4.736  0.0689  0.3109 -0.6436
 1973SOL    HW117378   0.291   4.688   4.753 -0.1438 -0.3294  0.5253
 1973SOL    HW217379   0.166   0.031   4.798 -1.8957 -0.2304 -1.0535
 1974SOL     OW17380   4.143   0.628  13.655  0.7789 -0.3908  0.2273
 1974SOL    HW117381   4.079   0.577  13.704 -0.8209  1.1932 -0.2187
 1974SOL    HW217382   4.090   0.669  13.587  2.1614  2.5906  0.9268
 1975SOL     OW17383   3.231   3.817   1.050 -0.1776  0.7527 -0.2346
 1975SOL    HW117384   3.205   3.772   0.969 -1.0546  3.3725 -1.3920
 1975SOL    HW217385   3.259   3.898   1.008  1.2791  0.1579 -0.4215
 1976SOL     OW17386   1.327   0.779   5.320 -0.6243  0.3273  0.2236
 1976SOL    HW117387   1.383   0.818   5.252 -0.1267 -2.1342 -0.7870
 1976SOL    HW217388   1.319   0.687   5.292  3.3088 -0.1709  0.7518
 1977SOL     OW17389   2.954   0.309  11.766 -0.0900 -0.5006 -0.2657
 1977SOL    HW117390   2.967   0.267  11.851  0.3856  1.6125  0.7159
 1977SOL    HW217391   3.004   0.253  11.706  0.6763 -0.0731 -0.0291
 1978SOL     OW17392   1.500   3.728   8.662  0.1461  0.0430  0.2267
 1978SOL    HW117393   1.515   3.722   8.757 -3.6849  0.6581  0.8528
 1978SOL    HW217394   1.497   3.823   8.649  1.4749  0.4413  2.7635
 1979SOL     OW17395   0.220   1.071   1.257 -0.0294  0.7056  0.9649
 1979SOL    HW117396   0.206   1.115   1.172 -1.0993 -0.5098  0.5188
 1979SOL    HW217397   0.244   1.140   1.319  1.8198 -0.6231  1.7193
 1980SOL     OW17398   4.140   2.820  17.172  0.2938 -0.3067 -0.3981
 1980SOL    HW117399   4.234   2.833  17.159 -0.0302  1.3574 -1.1133
 1980SOL    HW217400   4.127   2.874  17.250 -0.7443 -0.4641 -0.4525
 1981SOL     OW17401   2.595   0.470   3.776 -0.1819  0.2069  0.6985
 1981SOL    HW117402   2.502   0.490   3.770 -0.1575 -0.5907 -2.2412
 1981SOL    HW217403   2.595   0.396   3.715  0.4465  1.0600 -0.3204
 1982SOL     OW17404   2.045   2.522   3.555 -0.1026 -0.0602  0.5444
 1982SOL    HW117405   2.014   2.453   3.614  0.2607 -0.6526  0.0423
 1982SOL    HW217406   1.973   2.556   3.500  1.0702 -0.9298 -1.5439
 1983SOL     OW17407   1.396   2.629   2.441 -0.4565  0.3135 -0.3501
 1983SOL    HW117408   1.417   2.557   2.501  0.7966  0.4814 -0.5978
 1983SOL    HW217409   1.448   2.703   2.471 -2.5984  2.9578 -3.1803
 1984SOL     OW17410   2.099   1.643   8.674 -0.2789 -0.0287  0.5307
 1984SOL    HW117411   2.194   1.651   8.687 -0.1733 -0.1844 -0.1568
 1984SOL    HW217412   2.068   1.634   8.764 -0.2799  4.0218  0.9312
 1985SOL     OW17413   4.685   1.851  15.912 -0.2362 -0.3397  0.3352
 1985SOL    HW117414   0.004   1.842  15.996 -1.1909  1.1569  0.9795
 1985SOL    HW217415   4.647   1.935  15.937 -0.4154 -0.6350  1.0366
 1986SOL     OW17416   4.611   4.230   0.886  0.1509 -0.3173 -0.2545
 1986SOL    HW117417   4.667   4.179   0.828  1.3916  0.7010  0.0718
 1986SOL    HW217418   4.615   4.181   0.968 -2.8057 -1.4598 -0.7749
 1987SOL     OW17419   0.806   1.741   3.246  0.1305 -0.0176  0.2224
 1987SOL    HW117420   0.798   1.827   3.287 -3.9770 -0.8132  1.0735
 1987SOL    HW217421   0.851   1.759   3.163  0.8463  0.4838  0.7138
 1988SOL     OW17422   2.349   0.456   0.249 -0.4326 -0.3719  0.1547
 1988SOL    HW117423   2.388   0.449   0.337 -0.7690  2.5316  0.5414
 1988SOL    HW217424   2.284   0.387   0.264 -1.0665  0.2716  0.3557
 1989SOL     OW17425   1.273   3.594   6.652  0.0153  0.0777 -0.0436
 1989SOL    HW117426   1.337   3.653   6.693 -0.9300  1.3498 -0.4232
 1989SOL    HW217427   1.258   3.542   6.731  0.6841  1.7936  1.2233
 1990SOL     OW17428   1.631   3.642   0.888 -0.0062 -0.1915 -0.4528
 1990SOL    HW117429   1.717   3.676   0.860 -0.2126  0.7029 -0.0102
 1990SOL    HW217430   1.661   3.591   0.963 -0.5190 -2.2533 -1.6429
 1991SOL     OW17431   2.116   1.092   4.379  0.0983 -0.2246 -0.0106
 1991SOL    HW117432   2.138   1.162   4.318  2.3955 -1.0196 -0.0909
 1991SOL    HW217433   2.179   1.100   4.451  3.2602  0.8724 -2.9065
 1992SOL     OW17434   2.219   3.799   2.866  0.1368 -0.5314 -0.1771
 1992SOL    HW117435   2.252   3.731   2.926  0.0547  0.8178  1.3937
 1992SOL    HW217436   2.130   3.819   2.896  1.4090  3.4037  0.9204
 1993SOL     OW17437   0.779   3.802   5.389  0.3761  0.1601  0.0062
 1993SOL    HW117438   0.691   3.824   5.360  0.0328  0.2034  1.0919
 1993SOL    HW217439   0.798   3.732   5.327 -2.5972 -0.2971 -0.3706
 1994SOL     OW17440   0.486   1.956   7.499  0.2704  0.0581 -0.2416
 1994SOL    HW117441   0.581   1.962   7.491  0.2376  3.9681  2.4859
 1994SOL    HW217442   0.460   2.045   7.521 -1.0181  0.0032 -1.5936
 1995SOL     OW17443   3.971   3.147   1.461 -0.3820  0.0090  0.3248
 1995SOL    HW117444   3.988   3.056   1.437 -1.0226  0.1426 -0.6002
 1995SOL    HW217445   3.895   3.130   1.517 -0.3956 -2.8862 -0.5879
 1996SOL     OW17446   1.112   4.391   8.380  0.4256  0.0219 -0.0361
 1996SOL    HW117447   1.035   4.425   8.334 -0.3995 -0.3741  1.0184
 1996SOL    HW217448   1.181   4.442   8.339 -0.8924  1.0076 -1.0488
 1997SOL     OW17449   1.585   1.411   6.350 -0.4317  0.2564  0.0335
 1997SOL    HW117450   1.528   1.412   6.427  0.6893  2.1038  0.8503
 1997SOL    HW217451   1.672   1.434   6.382 -1.1566  1.9139  0.8137
 1998SOL     OW17452   2.788   3.193   5.914 -0.2480  0.1476  0.2380
 1998SOL    HW117453   2.870   3.235   5.889  0.7644  0.1640  3.5689
 1998SOL    HW217454   2.815   3.103   5.935 -0.6194 -0.1720 -0.6993
 1999SOL     OW17455   0.202   0.471   3.501 -0.1004 -0.0495 -0.4278
 1999SOL    HW117456   0.259   0.409   3.548 -0.1296 -0.1017 -0.4615
 1999SOL    HW217457   0.189   0.424   3.419 -0.1224 -2.7774  1.1302
 2000SOL     OW17458   3.357   0.450   7.152 -0.5660  0.1290 -0.3286
 2000SOL    HW117459   3.420   0.507   7.196  0.4073 -1.9482  0.9243
 2000SOL    HW217460   3.271   0.465   7.191  0.4535 -1.4079  2.4952
 2001SOL     OW17461   1.638   2.688  16.588 -0.5968 -0.3377  0.4194
 2001SOL    HW117462   1.684   2.604  16.580  2.2775  1.4346 -1.4171
 2001SOL    HW217463   1.586   2.697  16.508  0.1031  0.7061  0.0901
 2002SOL     OW17464   4.067   4.458   8.898  0.0612 -0.2200  0.3534
 2002SOL    HW117465   4.018   4.523   8.949  0.1515  1.7833 -2.1493
 2002SOL    HW217466   4.155   4.471   8.935 -0.4224 -0.1950  1.5033
 2003SOL     OW17467   1.394   4.709   3.023  0.0451 -0.0525 -0.1601
 2003SOL    HW117468   1.408   0.055   3.086  0.3412  0.4431 -0.7796
 2003SOL    HW217469   1.306   4.722   2.987 -0.1953 -0.5179  0.2572
 2004SOL     OW17470   4.190   3.084  10.501  0.3720 -0.2615  0.1735
 2004SOL    HW117471   4.269   3.034  10.521  0.9721  0.4630 -0.4041
 2004SOL    HW217472   4.234   3.166  10.480 -0.6514  0.2248 -0.1134
 2005SOL     OW17473   3.080   1.478  11.629 -0.3002  0.0780 -0.0228
 2005SOL    HW117474   3.055   1.498  11.539 -0.9289 -1.9044 -0.2792
 2005SOL    HW217475   2.995   1.472  11.672  0.5042 -2.3351  1.2389
 2006SOL     OW17476   0.011   4.332   3.675  0.7979  0.3345 -0.4450
 2006SOL    HW117477   0.050   4.317   3.761  0.0227 -2.0774 -0.5376
 2006SOL    HW217478   0.058   4.408   3.640  1.4633  1.1859  2.2239
 2007SOL     OW17479   4.372   0.439  12.449  0.1829  0.6456  0.0763
 2007SOL    HW117480   4.429   0.510  12.418  2.8662 -1.5408  0.0684
 2007SOL    HW217481   4.289   0.487  12.448 -0.7375 -0.9492  0.1692
 2008SOL     OW17482   2.720   2.103   8.418 -0.2782 -0.1655 -0.4427
 2008SOL    HW117483   2.793   2.154   8.453 -0.7633  1.1204 -1.2983
 2008SOL    HW217484   2.690   2.156   8.344 -0.7179 -0.7860 -0.7065
 2009SOL     OW17485   1.803   0.898   7.989 -0.9310  0.1032 -0.2268
 2009SOL    HW117486   1.849   0.818   8.013  0.0404  1.2606  1.7799
 2009SOL    HW217487   1.726   0.862   7.945  0.0902  0.9981 -2.7316
 2010SOL     OW17488   4.398   3.530  14.356 -0.1146 -0.1612  0.2303
 2010SOL    HW117489   4.453   3.531  14.278 -1.7818 -1.3214 -0.9597
 2010SOL    HW217490   4.439   3.593  14.415  2.1157 -1.7810  0.4268
 2011SOL     OW17491   2.486   0.407   2.835 -0.0317 -0.3421  0.0165
 2011SOL    HW117492   2.534   0.360   2.903 -0.4901 -1.7296 -0.6248
 2011SOL    HW217493   2.397   0.381   2.857 -0.1423 -0.2856 -0.3834
 2012SOL     OW17494   2.610   2.070   1.956  0.2873  0.1151  0.0711
 2012SOL    HW117495   2.539   2.065   2.021  0.3036 -1.8483 -0.0509
 2012SOL    HW217496   2.603   1.976   1.940 -0.7720 -0.1368  1.9696
 2013SOL     OW17497   1.993   3.333   8.636  0.3668 -0.1469 -0.9329
 2013SOL    HW117498   1.914   3.309   8.685 -2.1081  0.9215 -4.4302
 2013SOL    HW217499   1.965   3.296   8.553  2.5689  0.0412 -1.7483
 2014SOL     OW17500   0.608   2.883   7.952 -0.0857  0.0693 -0.3980
 2014SOL    HW117501   0.584   2.899   8.043 -0.2736 -1.8102 -0.1291
 2014SOL    HW217502   0.643   2.968   7.925  0.2142  0.7005  1.9133
 2015SOL     OW17503   2.322   2.905   7.926 -0.7416  0.6971 -0.1716
 2015SOL    HW117504   2.377   2.982   7.943  0.6416 -0.7928  2.2455
 2015SOL    HW217505   2.381   2.847   7.975  1.1794  1.1245 -1.9865
 2016SOL     OW17506   0.220   1.225   9.339 -0.0081  0.4405  0.4933
 2016SOL    HW117507   0.274   1.301   9.361 -1.8935  1.3664  2.0177
 2016SOL    HW217508   0.178   1.257   9.260  1.6679  1.2354 -0.0703
 2017SOL     OW17509   2.365   2.239  10.712 -0.0930  0.0588  0.5591
 2017SOL    HW117510   2.416   2.317  10.691 -1.1870  0.9536  1.2254
 2017SOL    HW217511   2.409   2.222  10.796 -3.1998  0.8299  2.3399
 2018SOL     OW17512   3.961   0.094   0.228  0.5308 -0.4070 -0.6262
 2018SOL    HW117513   3.930   0.145   0.303  0.0644  0.8574 -1.6656
 2018SOL    HW217514   4.024   0.038   0.273  0.0174  0.6859  1.4710
 2019SOL     OW17515   3.105   0.502   1.605  0.5042  0.6688 -0.1261
 2019SOL    HW117516   3.022   0.462   1.631  1.7920 -1.9501  0.0183
 2019SOL    HW217517   3.084   0.547   1.523 -2.5795 -0.1993  0.2012
 2020SOL     OW17518   3.934   0.320   5.768 -0.6804  0.2782 -0.5158
 2020SOL    HW117519   3.962   0.278   5.687  0.7408 -2.9309  1.6257
 2020SOL    HW217520   3.953   0.407   5.732  2.0379  0.7358  1.9649
 2021SOL     OW17521   0.317   1.214   7.353 -0.1831 -0.5239 -0.3220
 2021SOL    HW117522   0.349   1.193   7.440  1.0059 -0.1689 -0.6746
 2021SOL    HW217523   0.396   1.251   7.315  0.4433  0.3671  1.8778
 2022SOL     OW17524   2.743   0.315  11.389  0.4171 -0.5290 -0.4743
 2022SOL    HW117525   2.836   0.322  11.366 -0.0735  3.6144 -1.1986
 2022SOL    HW217526   2.711   0.246  11.330  1.1306  0.3047 -1.8344
 2023SOL     OW17527   2.300   3.013  17.634 -0.1421 -0.1978 -0.3079
 2023SOL    HW117528   2.251   2.983   0.012  0.3048 -0.8505 -0.2790
 2023SOL    HW217529   2.275   2.940  17.578 -0.5753 -0.4719  0.2427
 2024SOL     OW17530   2.533   2.478   7.389  0.6890 -0.1307  0.2643
 2024SOL    HW117531   2.564   2.389   7.404  1.1343 -0.4106 -2.1961
 2024SOL    HW217532   2.446   2.476   7.429 -0.2406  1.1083 -1.6482
 2025SOL     OW17533   0.735   1.680   2.951 -0.1730 -0.4475 -0.2801
 2025SOL    HW117534   0.757   1.768   2.920  1.1537 -1.1924 -1.4632
 2025SOL    HW217535   0.821   1.642   2.935 -0.7601 -1.5502 -0.8134
 2026SOL     OW17536   0.792   4.185  13.231 -0.1629  0.0717  0.2746
 2026SOL    HW117537   0.772   4.092  13.228  0.8334 -0.0299 -2.7959
 2026SOL    HW217538   0.778   4.194  13.325 -2.9930 -1.5535  0.0062
 2027SOL     OW17539   4.424   1.476   2.495 -0.4177 -0.4601  0.0966
 2027SOL    HW117540   4.489   1.443   2.556  0.0140 -0.2488 -0.2424
 2027SOL    HW217541   4.476   1.495   2.417 -3.7275  2.5749 -1.4211
 2028SOL     OW17542   2.799   2.692   9.693 -0.4511 -0.0556 -0.0640
 2028SOL    HW117543   2.805   2.775   9.741  0.8272  0.1664 -0.6177
 2028SOL    HW217544   2.724   2.710   9.636  0.3319  1.8116 -0.4857
 2029SOL     OW17545   2.415   4.081   7.630  0.0953  0.2235  0.1679
 2029SOL    HW117546   2.425   4.156   7.688  0.5867 -0.2629  0.7102
 2029SOL    HW217547   2.354   4.024   7.677  1.8928 -1.9289 -0.1159
 2030SOL     OW17548   4.675   2.903   6.538  0.1785  0.0739 -0.4198
 2030SOL    HW117549   4.664   2.918   6.444  1.1868  0.1450 -0.5266
 2030SOL    HW217550   4.583   2.883   6.558  0.6394  1.7602  3.2188
 2031SOL     OW17551   2.428   1.661   3.852 -0.1769 -0.1861  0.0273
 2031SOL    HW117552   2.508   1.609   3.846  0.1907  0.3185  0.5978
 2031SOL    HW217553   2.460   1.751   3.852  0.5634 -0.4570  0.9186
 2032SOL     OW17554   0.606   1.279   9.140  0.1911 -0.3209  0.3124
 2032SOL    HW117555   0.639   1.366   9.163  1.1139 -0.9406  1.3081
 2032SOL    HW217556   0.523   1.313   9.105 -0.4483  0.3606  2.5303
 2033SOL     OW17557   3.349   0.423   7.512  0.0633 -0.1444  0.2608
 2033SOL    HW117558   3.261   0.438   7.478 -0.4499 -1.5234  0.9453
 2033SOL    HW217559   3.379   0.348   7.460 -2.1823 -0.3459 -0.7266
 2034SOL     OW17560   4.197   3.489   6.152 -0.1896 -0.0414 -0.5520
 2034SOL    HW117561   4.171   3.568   6.105 -0.5870 -0.6336 -1.3367
 2034SOL    HW217562   4.278   3.520   6.192 -0.9997 -0.1758  1.2197
 2035SOL     OW17563   4.042   4.472  10.935  0.2267  0.1037 -0.1698
 2035SOL    HW117564   4.108   4.421  10.983  0.8425  0.3234 -0.7808
 2035SOL    HW217565   4.090   4.538  10.885  0.4235 -1.0491 -1.4773
 2036SOL     OW17566   3.177   1.520   9.846 -0.5838  0.2251  0.1054
 2036SOL    HW117567   3.151   1.553   9.760  0.7458 -0.4866 -0.5525
 2036SOL    HW217568   3.269   1.547   9.846 -1.0563  1.9103  1.8000
 2037SOL     OW17569   2.634   2.260   8.202 -0.2767  0.1616 -0.1098
 2037SOL    HW117570   2.597   2.345   8.180 -1.4662 -0.5715 -0.8643
 2037SOL    HW217571   2.692   2.243   8.128  0.8288  0.3651  0.7010
 2038SOL     OW17572   3.967   4.589   4.274 -0.6469  0.2223  0.3813
 2038SOL    HW117573   3.972   4.562   4.366 -0.0826  1.6736  0.7707
 2038SOL    HW217574   3.949   4.507   4.227  3.0292 -0.0890 -0.4932
 2039SOL     OW17575   2.257   1.937   3.475  0.0669 -0.1685 -0.3786
 2039SOL    HW117576   2.199   1.875   3.429 -1.8656  0.8553  0.7076
 2039SOL    HW217577   2.224   1.924   3.564 -0.3121 -0.6810 -0.5901
 2040SOL     OW17578   2.472   4.446  10.063  0.0944 -0.1742  0.1980
 2040SOL    HW117579   2.387   4.477  10.033 -1.3276 -1.9819  2.3908
 2040SOL    HW217580   2.456   4.423  10.154  1.4040 -0.2817  0.3971
 2041SOL     OW17581   1.342   3.182  16.215  0.2564 -0.1506 -0.5259
 2041SOL    HW117582   1.378   3.093  16.224 -0.4596 -0.5903 -1.9818
 2041SOL    HW217583   1.403   3.216  16.150 -1.8411  1.1169 -1.8407
 2042SOL     OW17584   3.432   1.221   5.506 -0.1611 -0.2574 -0.0224
 2042SOL    HW117585   3.482   1.299   5.530 -0.6750 -0.4703  1.6965
 2042SOL    HW217586   3.374   1.265   5.444  2.8583  0.8626 -2.0899
 2043SOL     OW17587   4.293   2.331   1.802  0.3424  0.2491 -0.2114
 2043SOL    HW117588   4.357   2.384   1.850  0.0613 -3.3466  4.1276
 2043SOL    HW217589   4.273   2.387   1.727  1.1830 -0.5656 -1.0398
 2044SOL     OW17590   3.094   1.857   8.049 -0.4776  0.4916  0.3117
 2044SOL    HW117591   3.186   1.843   8.025  0.1145  1.6165  1.9191
 2044SOL    HW217592   3.107   1.870   8.143 -0.4057 -0.2038  0.3944
 2045SOL     OW17593   1.086   2.482   1.720 -0.3754  0.1017 -0.1722
 2045SOL    HW117594   1.015   2.420   1.704  1.7599 -3.0750  2.6092
 2045SOL    HW217595   1.140   2.423   1.772  0.3213  2.0346  1.3300
 2046SOL     OW17596   1.837   2.842  16.330  0.5622 -0.7785 -0.0192
 2046SOL    HW117597   1.915   2.827  16.384  0.2330  2.6994  1.4079
 2046SOL    HW217598   1.874   2.869  16.246  0.7071 -1.3198 -0.1316
 2047SOL     OW17599   1.352   2.528   6.025 -0.4995 -0.2142  0.0360
 2047SOL    HW117600   1.423   2.482   5.980 -0.1448  1.4178 -1.0584
 2047SOL    HW217601   1.273   2.499   5.980 -0.9069 -1.9511  1.8302
 2048SOL     OW17602   2.293   4.488   0.690 -0.5320  0.3400  0.7054
 2048SOL    HW117603   2.322   4.574   0.662  3.2382 -1.1950 -0.0816
 2048SOL    HW217604   2.207   4.510   0.726 -1.0526  1.1040 -0.9927
 2049SOL     OW17605   4.012   4.012   6.393  0.6903  0.7327  0.2252
 2049SOL    HW117606   4.076   4.048   6.332  0.0865  2.0650  0.3816
 2049SOL    HW217607   3.938   4.061   6.357 -0.8707  2.0918  5.2832
 2050SOL     OW17608   0.940   1.238   2.499 -0.3597 -0.1880 -0.2570
 2050SOL    HW117609   1.023   1.285   2.495 -1.2944  1.6945  2.4492
 2050SOL    HW217610   0.897   1.271   2.420  0.1327  3.3986  0.9660
 2051SOL     OW17611   0.841   0.562   6.710  0.1935  0.6425  0.0309
 2051SOL    HW117612   0.931   0.549   6.681 -0.7666  0.6288 -2.9403
 2051SOL    HW217613   0.811   0.624   6.644 -2.2757 -0.5119  0.0486
 2052SOL     OW17614   1.458   0.159   1.901  0.1691  0.2168  0.0885
 2052SOL    HW117615   1.492   0.075   1.869 -1.7880 -0.6392  0.2395
 2052SOL    HW217616   1.537   0.210   1.884 -0.1003 -0.0074 -1.9296
 2053SOL     OW17617   1.955   1.749   2.601  0.2958  0.0319 -0.2437
 2053SOL    HW117618   1.993   1.663   2.582  1.3816 -0.0973  2.3627
 2053SOL    HW217619   2.024   1.800   2.558 -0.1988  0.3640 -0.6419
 2054SOL     OW17620   4.250   2.137  14.213 -0.0420  0.0723 -0.2246
 2054SOL    HW117621   4.169   2.138  14.162 -0.6714  0.1697  0.7728
 2054SOL    HW217622   4.311   2.128  14.140  0.6382  2.2650  0.0831
 2055SOL     OW17623   0.526   1.537   4.840 -0.5606 -0.0667 -0.0031
 2055SOL    HW117624   0.478   1.615   4.865  0.8056  0.7528  0.0831
 2055SOL    HW217625   0.617   1.559   4.862 -0.9454 -0.3270  1.8430
 2056SOL     OW17626   1.468   4.550  13.373 -0.1678 -0.1014 -0.1984
 2056SOL    HW117627   1.554   4.516  13.349  0.4448  1.3058 -0.0379
 2056SOL    HW217628   1.479   4.580  13.463  0.1010 -0.0118 -0.2607
 2057SOL     OW17629   4.027   4.560   5.348  0.0842  0.4927  0.2022
 2057SOL    HW117630   3.997   4.486   5.400 -3.6141  1.5640 -0.4475
 2057SOL    HW217631   3.967   4.564   5.273  0.5179  0.3788 -0.1555
 2058SOL     OW17632   2.268   0.718  16.888  0.2558 -0.7550  0.0446
 2058SOL    HW117633   2.291   0.775  16.814 -0.8780 -1.2085 -0.6587
 2058SOL    HW217634   2.246   0.774  16.961 -1.2610 -1.6258  0.2462
 2059SOL     OW17635   0.639   1.335   7.555 -0.0874 -0.0009 -0.6616
 2059SOL    HW117636   0.671   1.284   7.481 -1.4743 -2.1641  0.2317
 2059SOL    HW217637   0.660   1.427   7.536  2.1391 -0.8678 -2.3706
 2060SOL     OW17638   3.141   2.600   3.837 -0.4481 -0.1590  0.0974
 2060SOL    HW117639   3.128   2.541   3.762 -0.8276 -1.3307  1.0716
 2060SOL    HW217640   3.233   2.624   3.833 -0.3697 -0.2155  1.4804
 2061SOL     OW17641   0.067   0.650   3.655  0.4081  0.0465  0.3491
 2061SOL    HW117642   0.107   0.728   3.617 -1.0936  1.0205  0.7655
 2061SOL    HW217643   0.091   0.577   3.598  0.0046  0.0826  0.1328
 2062SOL     OW17644   0.971   2.483   3.332 -0.5328  0.4453 -0.1540
 2062SOL    HW117645   0.883   2.483   3.295 -2.0698 -0.1346  3.4216
 2062SOL    HW217646   1.001   2.573   3.328  3.4030 -0.8045  0.9942
 2063SOL     OW17647   1.348   3.045   3.858  0.5731  0.3968 -0.1488
 2063SOL    HW117648   1.335   2.993   3.780 -1.9266  1.1092 -0.2046
 2063SOL    HW217649   1.346   3.135   3.826 -1.0923  0.4910  0.2333
 2064SOL     OW17650   0.634   1.258   3.161  1.4151  0.3842  0.3481
 2064SOL    HW117651   0.712   1.204   3.153  0.7965 -0.5583  0.5908
 2064SOL    HW217652   0.663   1.348   3.146 -0.2421  0.9246  0.3558
 2065SOL     OW17653   2.303   0.046  17.289 -0.4022  0.5133 -0.1470
 2065SOL    HW117654   2.209   0.035  17.275 -0.1217 -1.0504 -0.8051
 2065SOL    HW217655   2.335   0.005  17.209 -2.6658 -0.9406 -0.3038
 2066SOL     OW17656   0.265   0.138   2.885  0.0403 -0.4786  0.9420
 2066SOL    HW117657   0.320   0.157   2.808  0.1822  0.0040  1.1656
 2066SOL    HW217658   0.239   0.223   2.919 -0.6498 -0.4805  0.4301
 2067SOL     OW17659   3.583   3.379   4.437  0.4080  0.3734  0.0224
 2067SOL    HW117660   3.614   3.384   4.347  0.1526 -0.0438 -0.0907
 2067SOL    HW217661   3.652   3.326   4.476 -0.4242 -0.2907  0.6020
 2068SOL     OW17662   1.644   0.748  14.729  0.1352  0.2865  0.4390
 2068SOL    HW117663   1.716   0.700  14.770  1.1556  1.6617  0.2383
 2068SOL    HW217664   1.573   0.709  14.780 -0.1563 -0.3948 -0.4696
 2069SOL     OW17665   1.084   2.802   6.710  0.0396 -0.3101 -0.3136
 2069SOL    HW117666   1.092   2.772   6.619 -0.7840 -0.4225 -0.3543
 2069SOL    HW217667   1.002   2.847   6.690 -0.2569  0.1264  1.9358
 2070SOL     OW17668   3.719   1.979   3.562  0.6773  0.1907 -0.0126
 2070SOL    HW117669   3.737   1.998   3.655 -1.0225  2.9670 -0.2530
 2070SOL    HW217670   3.675   1.894   3.569  2.9959 -1.0038  0.1141
 2071SOL     OW17671   2.746   4.648   9.177  0.7071 -0.5109  0.0941
 2071SOL    HW117672   2.706   4.593   9.245 -0.8583 -0.1905 -0.5475
 2071SOL    HW217673   2.818   4.596   9.141  0.8887  0.1295 -0.4581
 2072SOL     OW17674   2.143   0.102  10.227  0.2076  0.2076 -0.4740
 2072SOL    HW117675   2.225   0.126  10.183  0.9140 -0.2016  0.6188
 2072SOL    HW217676   2.091   0.169  10.184 -0.1298 -0.3354 -0.9153
 2073SOL     OW17677   2.099   0.548   8.229  0.0707  0.2211 -0.7037
 2073SOL    HW117678   2.075   0.528   8.319  1.3315 -0.0285 -0.4250
 2073SOL    HW217679   2.014   0.581   8.198 -0.4692 -0.8167 -0.3329
 2074SOL     OW17680   3.639   1.418   6.903  0.6395 -0.2168 -0.1907
 2074SOL    HW117681   3.546   1.410   6.883  0.1596  0.4215  1.7980
 2074SOL    HW217682   3.671   1.341   6.951  0.7414  0.6613  1.1560
 2075SOL     OW17683   3.721   2.199   8.163  0.3702 -0.5342 -0.6261
 2075SOL    HW117684   3.774   2.147   8.224  0.2690 -1.8504 -1.6607
 2075SOL    HW217685   3.692   2.264   8.228 -1.6148  0.1386 -2.2034
 2076SOL     OW17686   3.241   1.115  16.938 -0.8999  0.0625  0.4384
 2076SOL    HW117687   3.162   1.112  16.993  0.9149  0.2143  3.0773
 2076SOL    HW217688   3.234   1.029  16.896 -0.7225  0.2878 -0.0449
 2077SOL     OW17689   2.996   1.752   4.499 -0.1477  0.4303  0.0811
 2077SOL    HW117690   3.069   1.707   4.458 -1.0182 -1.5712  0.6972
 2077SOL    HW217691   2.922   1.728   4.444 -0.9575 -0.3762  1.4970
 2078SOL     OW17692   1.407   4.456   3.884  1.0344 -0.2261  0.2499
 2078SOL    HW117693   1.378   4.528   3.940  0.0757  0.0509 -0.6154
 2078SOL    HW217694   1.365   4.482   3.803 -1.1542  0.3032  1.5653
 2079SOL     OW17695   3.072   1.308   2.354  0.5615 -0.3872 -0.0982
 2079SOL    HW117696   3.085   1.298   2.449  2.2787  1.4693 -0.1448
 2079SOL    HW217697   2.980   1.281   2.346  1.2639 -2.4062 -1.5360
 2080SOL     OW17698   0.045   1.639   0.692 -0.4512 -0.2726 -0.2405
 2080SOL    HW117699   4.716   1.706   0.734 -1.2043 -2.4479  2.3081
 2080SOL    HW217700   0.123   1.636   0.747 -1.9297 -1.9517  1.7546
 2081SOL     OW17701   3.505   2.422  10.121  0.2388  0.6973  0.5646
 2081SOL    HW117702   3.551   2.339  10.136 -1.5424 -0.1120  1.5028
 2081SOL    HW217703   3.529   2.474  10.198 -0.5341  0.9771  0.6158
 2082SOL     OW17704   4.191   3.316   9.266  0.1278  0.4981 -0.1715
 2082SOL    HW117705   4.228   3.312   9.354 -0.9320 -1.3050  0.1842
 2082SOL    HW217706   4.131   3.242   9.278  0.5407  0.2289  0.2249
 2083SOL     OW17707   0.594   4.515   6.832  0.3054  0.1551 -0.4220
 2083SOL    HW117708   0.555   4.428   6.820  0.2186  0.2482 -0.8078
 2083SOL    HW217709   0.586   4.530   6.926 -1.0026  3.1412 -1.0005
 2084SOL     OW17710   2.664   1.092  11.217  0.1771 -0.0595  0.1219
 2084SOL    HW117711   2.654   1.172  11.269 -1.2592  0.2094 -0.5647
 2084SOL    HW217712   2.714   1.130  11.146  0.3808  1.1359  0.9134
 2085SOL     OW17713   2.370   3.226   3.115  0.6182  0.7740  0.0310
 2085SOL    HW117714   2.317   3.248   3.038  0.5926  1.1474  0.1542
 2085SOL    HW217715   2.454   3.195   3.082  0.3543 -1.2262  1.2696
 2086SOL     OW17716   0.513   3.566   0.978  0.0095  0.2809 -0.6943
 2086SOL    HW117717   0.459   3.598   0.906  0.6035 -1.7205 -2.0244
 2086SOL    HW217718   0.594   3.556   0.929  0.8182  1.1579  0.4772
 2087SOL     OW17719   0.900   3.944  10.476  0.1263  0.2380 -0.2683
 2087SOL    HW117720   0.869   3.868  10.526 -1.4039  1.5564  0.7895
 2087SOL    HW217721   0.850   4.019  10.508 -0.4039  0.0319 -0.6089
 2088SOL     OW17722   1.332   4.668   4.071  0.1595 -0.9575  0.4217
 2088SOL    HW117723   1.362   0.035   4.075  1.5807 -1.3680 -0.7880
 2088SOL    HW217724   1.239   4.680   4.053  0.4478  0.3018 -0.2326
 2089SOL     OW17725   3.799   2.788   1.621  0.1323  0.9414  0.0930
 2089SOL    HW117726   3.752   2.735   1.686 -1.6562  0.2662 -1.7646
 2089SOL    HW217727   3.866   2.832   1.674 -0.9554  1.7648  0.7609
 2090SOL     OW17728   2.158   3.028   5.603  0.1941 -0.2285  0.2280
 2090SOL    HW117729   2.251   3.053   5.601  0.2518 -0.5042 -0.4613
 2090SOL    HW217730   2.120   3.115   5.616  0.7975 -0.3160  2.5273
 2091SOL     OW17731   0.912   0.236   3.045  0.4047 -1.0357 -0.0350
 2091SOL    HW117732   0.831   0.279   3.070  0.9717 -0.1313  0.2735
 2091SOL    HW217733   0.943   0.302   2.983 -2.6891  0.9725  0.5375
 2092SOL     OW17734   3.202   3.525   2.530  0.4503 -0.1390 -0.6790
 2092SOL    HW117735   3.141   3.560   2.595 -0.2611  0.3176 -1.5743
 2092SOL    HW217736   3.167   3.579   2.459 -0.8834 -0.9177 -0.6255
 2093SOL     OW17737   2.682   2.154   9.417  0.4411  0.9191  0.0913
 2093SOL    HW117738   2.688   2.130   9.324  1.1196 -0.3685  0.4767
 2093SOL    HW217739   2.705   2.247   9.413 -0.5129  1.1702  0.5204
 2094SOL     OW17740   1.755   3.245  15.295 -0.5619  0.0850 -0.0328
 2094SOL    HW117741   1.831   3.265  15.350 -0.4486 -1.6976  0.4287
 2094SOL    HW217742   1.793   3.198  15.222  0.7656  1.5144 -0.2867
 2095SOL     OW17743   4.235   3.567   7.712  0.6064 -0.2968  0.2208
 2095SOL    HW117744   4.173   3.634   7.739 -0.3372 -0.3808 -1.7323
 2095SOL    HW217745   4.302   3.622   7.672  0.4405 -0.2820 -0.0403
 2096SOL     OW17746   0.132   4.698  16.052 -0.5022  0.0245 -0.3292
 2096SOL    HW117747   0.092   0.012  15.974  1.0045  1.3998 -0.4147
 2096SOL    HW217748   0.195   0.039  16.083 -0.9335 -0.1433  0.9468
 2097SOL     OW17749   3.345   2.935   7.106  0.0874 -0.2196 -0.1852
 2097SOL    HW117750   3.416   2.990   7.072 -1.2488  1.7718  0.2277
 2097SOL    HW217751   3.318   2.887   7.028  1.3976  2.9679 -2.6097
 2098SOL     OW17752   4.000   0.182  11.588  0.1129 -0.0336 -0.9777
 2098SOL    HW117753   3.936   0.138  11.533 -0.8639 -1.6284  1.4608
 2098SOL    HW217754   3.957   0.267  11.601  1.2779  0.1424  1.8293
 2099SOL     OW17755   2.536   1.663   4.141 -0.1282 -0.2748  0.1807
 2099SOL    HW117756   2.501   1.724   4.076 -1.6049 -0.8327  0.4555
 2099SOL    HW217757   2.608   1.621   4.093 -1.0921 -0.2549 -1.3013
 2100SOL     OW17758   1.644   3.734  12.633 -0.1773 -0.2702 -0.1605
 2100SOL    HW117759   1.698   3.745  12.555 -1.1345 -0.4744 -0.8524
 2100SOL    HW217760   1.648   3.813  12.688  0.5220  0.3255 -1.0677
 2101SOL     OW17761   0.095   3.843   6.402 -0.0285 -0.1335  0.5567
 2101SOL    HW117762   0.137   3.831   6.487 -0.7553 -0.3182  0.8863
 2101SOL    HW217763   0.169   3.876   6.352  0.9525 -3.1010  0.0289
 2102SOL     OW17764   4.712   3.066   1.888 -0.6071 -0.3256 -0.3718
 2102SOL    HW117765   4.706   3.127   1.814 -1.3808 -0.5661 -0.5074
 2102SOL    HW217766   4.704   2.979   1.850 -1.6702 -0.7422  0.8132
 2103SOL     OW17767   2.412   3.750   9.215  0.0302  0.0085 -0.6389
 2103SOL    HW117768   2.411   3.770   9.308 -0.3490 -2.1037 -0.1828
 2103SOL    HW217769   2.502   3.783   9.205  0.3257 -0.7451 -0.5135
 2104SOL     OW17770   0.460   4.432   8.449 -0.6952 -0.2750  0.6194
 2104SOL    HW117771   0.447   4.354   8.502  0.5281 -0.2828  0.9200
 2104SOL    HW217772   0.457   4.393   8.362 -0.1699  1.9772 -0.4134
 2105SOL     OW17773   1.102   3.676   7.700 -0.3045  0.2057 -0.4045
 2105SOL    HW117774   1.012   3.646   7.685 -0.1993 -0.2218 -0.2092
 2105SOL    HW217775   1.131   3.584   7.700  0.2385  0.3555  2.1167
 2106SOL     OW17776   4.179   4.147   2.357 -0.3053 -0.0318 -0.3626
 2106SOL    HW117777   4.123   4.141   2.279 -2.4812 -0.3281  1.2143
 2106SOL    HW217778   4.218   4.060   2.366  0.3893  0.3042 -0.1765
 2107SOL     OW17779   2.626   3.788   6.106 -0.3939  0.2382  0.2189
 2107SOL    HW117780   2.617   3.844   6.029 -0.3363  0.3344  0.2817
 2107SOL    HW217781   2.645   3.699   6.076  0.8381 -0.1449  2.1695
 2108SOL     OW17782   2.847   2.998  14.501  0.4004  0.2329  0.0456
 2108SOL    HW117783   2.855   2.952  14.418  2.3447  5.0990 -2.4643
 2108SOL    HW217784   2.903   3.074  14.485 -1.7111  1.6918 -0.3154
 2109SOL     OW17785   2.738   4.525   8.668 -0.4380 -0.7709 -1.0661
 2109SOL    HW117786   2.800   4.573   8.613  1.2521 -1.2233  0.4574
 2109SOL    HW217787   2.689   4.589   8.720 -0.9213 -1.1717 -1.0181
 2110SOL     OW17788   4.008   0.143   7.320 -0.3702  0.1064 -0.5463
 2110SOL    HW117789   3.917   0.174   7.322 -0.5900 -0.5623 -0.1974
 2110SOL    HW217790   4.029   0.155   7.228 -0.4328  2.8160 -0.2124
 2111SOL     OW17791   0.603   1.293  10.170 -0.0195  0.3702  0.2240
 2111SOL    HW117792   0.673   1.236  10.202 -1.7614 -2.3466 -0.9170
 2111SOL    HW217793   0.649   1.374  10.193 -3.6882  2.5108 -0.0497
 2112SOL     OW17794   1.956   1.119   6.276  0.1243  0.3775 -0.3093
 2112SOL    HW117795   2.044   1.128   6.313  1.0932 -1.3090 -2.2004
 2112SOL    HW217796   1.901   1.148   6.349  1.9865  1.5306  0.6550
 2113SOL     OW17797   4.418   2.796   0.187 -0.4253 -0.3331  0.0659
 2113SOL    HW117798   4.446   2.852   0.115 -0.1971  1.4856  1.5723
 2113SOL    HW217799   4.323   2.804   0.187 -0.4601 -0.7843  1.5225
 2114SOL     OW17800   0.591   3.089   8.491  0.1266  0.4049  0.6427
 2114SOL    HW117801   0.674   3.136   8.487 -0.2126  1.0437  1.2407
 2114SOL    HW217802   0.556   3.116   8.575  0.1299 -0.3375  0.8847
 2115SOL     OW17803   3.155   4.570   9.462  0.0440  0.2237 -0.0566
 2115SOL    HW117804   3.190   4.642   9.409  0.3883  0.1206  0.0274
 2115SOL    HW217805   3.228   4.554   9.521  1.6512  0.7219 -1.8883
 2116SOL     OW17806   3.981   2.105  14.179  0.2208  0.0034  0.4118
 2116SOL    HW117807   3.937   2.020  14.186  1.9135 -0.7830  1.4323
 2116SOL    HW217808   3.967   2.126  14.087 -1.1823 -2.7350  0.0122
 2117SOL     OW17809   2.236   0.412  14.772  0.2784  0.0976 -0.0023
 2117SOL    HW117810   2.230   0.324  14.809  1.1983  0.7131  1.6230
 2117SOL    HW217811   2.313   0.454  14.808 -0.5475  1.1904  0.4945
 2118SOL     OW17812   4.112   1.020   4.471 -0.1786 -0.3956 -0.3189
 2118SOL    HW117813   4.097   0.961   4.397 -0.0438 -1.7418  0.7464
 2118SOL    HW217814   4.148   1.097   4.428  1.5362 -0.8316  0.3597
 2119SOL     OW17815   1.828   2.515   6.456 -0.0480  0.0085 -0.2019
 2119SOL    HW117816   1.778   2.515   6.538  1.0490  2.3117  0.4737
 2119SOL    HW217817   1.874   2.432   6.461 -0.0488  0.0310  0.2394
 2120SOL     OW17818   0.022   2.056   2.970  0.3192  0.0677  0.4010
 2120SOL    HW117819   4.665   2.011   2.947  1.5428 -1.8438 -0.2191
 2120SOL    HW217820   4.718   2.111   3.043  0.5252 -0.8760  1.2001
 2121SOL     OW17821   2.685   0.789   4.332  0.2064 -0.1109 -0.1206
 2121SOL    HW117822   2.672   0.865   4.389  1.2576 -0.1672  0.1766
 2121SOL    HW217823   2.755   0.828   4.279 -0.5751  1.5764  0.0730
 2122SOL     OW17824   0.450   4.525   3.234 -0.1101 -0.0762 -0.6062
 2122SOL    HW117825   0.499   4.547   3.155  1.9980 -0.0062  0.7034
 2122SOL    HW217826   0.420   4.435   3.220  1.0291 -0.6403  0.5335
 2123SOL     OW17827   1.183   2.784   1.264  0.2861  0.1995  0.4012
 2123SOL    HW117828   1.245   2.724   1.306  0.0254 -1.1760 -1.1844
 2123SOL    HW217829   1.242   2.857   1.241  0.3473  0.0111 -0.0374
 2124SOL     OW17830   2.754   2.852   2.013  0.1643 -0.5686  0.2038
 2124SOL    HW117831   2.802   2.853   1.931 -1.3147 -1.4789 -0.6857
 2124SOL    HW217832   2.789   2.936   2.040  1.0390 -1.1938  1.0393
 2125SOL     OW17833   0.109   0.404   9.959  0.1903  0.0616  0.6103
 2125SOL    HW117834   0.072   0.348   9.891  3.6261 -1.0483 -0.3282
 2125SOL    HW217835   0.085   0.356  10.039 -1.4056  0.0343  0.1094
 2126SOL     OW17836   1.279   0.091   9.318 -0.1075  0.5074  0.6217
 2126SOL    HW117837   1.238   0.009   9.345  0.2809 -0.1386 -0.7699
 2126SOL    HW217838   1.250   0.106   9.228  1.7755  0.6574  0.0390
 2127SOL     OW17839   4.557   0.029   0.439  0.0687 -0.2511  0.8820
 2127SOL    HW117840   4.572   0.110   0.390  0.1271 -1.2106 -0.7008
 2127SOL    HW217841   4.566   4.674   0.386 -1.0651  0.5433 -0.5008
 2128SOL     OW17842   3.949   1.176   4.630 -0.7797  0.3028 -0.6702
 2128SOL    HW117843   3.963   1.098   4.576 -0.5010 -0.0853 -0.0415
 2128SOL    HW217844   3.858   1.197   4.614 -1.5133 -1.9389  0.5202
 2129SOL     OW17845   3.305   0.751   3.030 -0.9026  0.5636 -0.0400
 2129SOL    HW117846   3.333   0.827   2.980 -0.7641 -0.0054 -0.8286
 2129SOL    HW217847   3.332   0.683   2.968 -0.8289  0.8131 -0.2794
 2130SOL     OW17848   3.534   0.873   8.666  0.6069  0.4941 -0.5730
 2130SOL    HW117849   3.502   0.790   8.631  0.6801  0.1185  0.2269
 2130SOL    HW217850   3.529   0.936   8.595  1.0016  0.2584 -0.8118
 2131SOL     OW17851   2.121   3.983   6.200  0.2164  0.0938  0.1283
 2131SOL    HW117852   2.166   3.915   6.151 -0.5610 -1.3414  1.3968
 2131SOL    HW217853   2.149   3.966   6.290 -1.9446  1.2190  1.0266
 2132SOL     OW17854   1.971   2.996   7.158  0.3421 -0.5882  0.3647
 2132SOL    HW117855   2.012   3.076   7.125 -0.5648  1.0649  3.1813
 2132SOL    HW217856   2.048   2.940   7.156 -0.2913 -1.4423  0.0306
 2133SOL     OW17857   4.336   2.528   0.883 -0.0766 -0.3770 -0.6601
 2133SOL    HW117858   4.268   2.595   0.888  0.5129  0.2349 -0.7812
 2133SOL    HW217859   4.385   2.550   0.804 -0.4698 -2.4369 -1.4676
 2134SOL     OW17860   0.077   0.212   4.832  0.1533 -0.0822 -0.5701
 2134SOL    HW117861   0.000   0.249   4.877 -2.0581 -2.0818 -2.7321
 2134SOL    HW217862   0.147   0.262   4.873 -0.0105 -0.4245  0.1260
 2135SOL     OW17863   0.815   1.336   4.426 -0.0161  0.0528 -0.1157
 2135SOL    HW117864   0.754   1.279   4.473 -0.1158  1.5667  1.6260
 2135SOL    HW217865   0.868   1.366   4.500  1.4548  1.7316 -1.8582
 2136SOL     OW17866   0.632   2.064   4.977  0.1158 -0.0569  0.0736
 2136SOL    HW117867   0.603   2.090   4.889  1.6674  0.1711 -0.3625
 2136SOL    HW217868   0.719   2.103   4.988  0.5837 -0.6457 -1.4384
 2137SOL     OW17869   4.126   4.156   5.278 -0.0350 -0.2432  0.2299
 2137SOL    HW117870   4.186   4.084   5.297 -0.1290 -0.2575  0.4710
 2137SOL    HW217871   4.174   4.236   5.299  2.8232 -1.7169 -0.7027
 2138SOL     OW17872   0.861   3.252   8.503 -0.3498 -0.4857 -0.0095
 2138SOL    HW117873   0.942   3.257   8.452  1.6734 -0.4034  3.2399
 2138SOL    HW217874   0.885   3.196   8.577  1.0323  0.0935 -0.0289
 2139SOL     OW17875   0.534   2.948   8.207 -0.1884 -0.1415 -0.5390
 2139SOL    HW117876   0.548   2.901   8.290 -0.6734  2.2251  0.8704
 2139SOL    HW217877   0.440   2.942   8.190 -0.0954  1.8399 -1.6798
 2140SOL     OW17878   2.169   2.227   8.593 -0.0561  0.4232 -0.4386
 2140SOL    HW117879   2.153   2.213   8.500  0.2888  0.0973 -0.4522
 2140SOL    HW217880   2.152   2.135   8.617 -3.0120  0.6230 -1.7116
 2141SOL     OW17881   1.694   1.030   6.564 -0.3157  0.1721 -0.1858
 2141SOL    HW117882   1.706   1.110   6.616  0.3478 -0.2757  0.3418
 2141SOL    HW217883   1.649   1.069   6.489  1.5108  0.1053 -1.3283
 2142SOL     OW17884   0.397   1.196  15.774 -0.0293 -0.3029  0.1031
 2142SOL    HW117885   0.418   1.218  15.865 -0.3484 -3.8738  1.0531
 2142SOL    HW217886   0.308   1.231  15.776  0.2131  0.0093  4.4832
 2143SOL     OW17887   1.798   3.784   9.280 -0.2009  1.3205  0.2923
 2143SOL    HW117888   1.768   3.695   9.302 -0.1017  1.1582 -0.2166
 2143SOL    HW217889   1.739   3.824   9.344 -0.9709 -0.1778  0.5237
 2144SOL     OW17890   3.968   4.158   9.199 -0.8157 -0.6458  0.3642
 2144SOL    HW117891   3.915   4.227   9.158 -0.1958 -0.1046  0.4728
 2144SOL    HW217892   3.967   4.184   9.291 -1.5484  1.3168 -0.1932
 2145SOL     OW17893   4.062   1.838  17.014  0.1321 -0.7825  0.6386
 2145SOL    HW117894   4.058   1.917  17.068 -1.3752  0.0861 -0.7510
 2145SOL    HW217895   4.155   1.819  17.000  0.3288  1.2921 -0.8037
 2146SOL     OW17896   2.318   0.361  16.623 -0.3372 -0.0789 -0.4085
 2146SOL    HW117897   2.244   0.301  16.621 -0.3318  0.0454 -4.6976
 2146SOL    HW217898   2.336   0.384  16.532  0.2049  0.9765 -0.0428
 2147SOL     OW17899   1.467   0.681   0.029 -0.3039 -0.4721  0.0813
 2147SOL    HW117900   1.480   0.621  17.655  0.6168 -0.4193  0.2012
 2147SOL    HW217901   1.401   0.741  17.692 -0.6973  0.5342  2.4283
 2148SOL     OW17902   0.733   4.453   8.560  0.1229 -0.6219 -0.2278
 2148SOL    HW117903   0.716   4.455   8.654  1.5017 -0.9726  0.0233
 2148SOL    HW217904   0.644   4.452   8.526 -0.6195 -1.3088  1.7877
 2149SOL     OW17905   3.526   3.598   2.593  0.2498 -0.0094  0.8401
 2149SOL    HW117906   3.527   3.588   2.688 -1.4745 -0.2450  0.8236
 2149SOL    HW217907   3.459   3.540   2.558 -1.7148  2.5403  0.3184
 2150SOL     OW17908   0.193   1.585  12.238 -0.4923  0.0147  0.4424
 2150SOL    HW117909   0.150   1.619  12.160 -2.5643 -1.0700  1.0984
 2150SOL    HW217910   0.243   1.513  12.201  1.9584  2.4761 -1.0223
 2151SOL     OW17911   0.345   1.325  12.433 -0.0191  0.2387  0.3537
 2151SOL    HW117912   0.394   1.249  12.402 -4.9796 -2.1496 -1.6362
 2151SOL    HW217913   0.298   1.350  12.353 -1.5350 -2.1902  0.4966
 2152SOL     OW17914   0.549   2.021   6.482  0.2416 -0.2026  0.7693
 2152SOL    HW117915   0.637   1.983   6.490  0.7146  0.5460 -0.8600
 2152SOL    HW217916   0.519   2.047   6.569 -2.5656  0.1053 -0.2951
 2153SOL     OW17917   2.303   4.261   3.366  0.3872  0.0860 -0.0618
 2153SOL    HW117918   2.232   4.314   3.403  0.2347 -0.4830  0.4636
 2153SOL    HW217919   2.331   4.224   3.450  0.6855 -1.9796 -1.0679
 2154SOL     OW17920   0.163   0.929   7.926 -0.0687  0.1594  0.0594
 2154SOL    HW117921   0.258   0.937   7.913  0.1593 -1.5730  0.7074
 2154SOL    HW217922   0.132   0.983   7.853  0.4423  0.6555  0.2047
 2155SOL     OW17923   1.507   1.607   1.533  0.0302 -0.2357  0.5606
 2155SOL    HW117924   1.484   1.656   1.612 -1.1294 -2.8728  1.8394
 2155SOL    HW217925   1.467   1.665   1.468  0.1726 -0.7617  0.0056
 2156SOL     OW17926   2.081   3.635  15.085  0.3852  0.8204  0.0204
 2156SOL    HW117927   2.039   3.567  15.032  5.1676 -0.0926 -2.5859
 2156SOL    HW217928   2.001   3.663  15.129 -0.6996  0.2988 -1.6136
 2157SOL     OW17929   4.285   2.692  16.504  0.1086 -0.4242  0.4388
 2157SOL    HW117930   4.259   2.610  16.545 -1.1771 -0.4212 -0.3679
 2157SOL    HW217931   4.300   2.667  16.413  3.2096  0.5360  0.6982
 2158SOL     OW17932   3.641   3.294   0.643 -0.1422  0.2747  0.0037
 2158SOL    HW117933   3.607   3.242   0.570 -0.3016 -0.1152  0.3564
 2158SOL    HW217934   3.729   3.323   0.618 -0.4921  0.8667 -0.5670
 2159SOL     OW17935   0.609   4.555   1.774  0.3577 -0.0130 -1.2187
 2159SOL    HW117936   0.643   4.630   1.727  2.8624 -0.8594 -0.7541
 2159SOL    HW217937   0.609   4.590   1.863 -2.0501 -0.7210 -0.9435
 2160SOL     OW17938   2.450   0.874   5.153  0.1502 -0.0528  0.9925
 2160SOL    HW117939   2.436   0.780   5.163  0.1039 -0.0923  0.5727
 2160SOL    HW217940   2.429   0.916   5.237 -0.7816 -0.4801  0.9686
 2161SOL     OW17941   2.656   0.758  12.310  0.1107  0.5545 -0.8042
 2161SOL    HW117942   2.736   0.710  12.289 -0.0631 -0.7144  1.4418
 2161SOL    HW217943   2.618   0.695  12.371  0.4515  0.5613 -0.5858
 2162SOL     OW17944   4.048   1.733  13.276 -0.5395  0.1282 -0.5990
 2162SOL    HW117945   4.049   1.648  13.232 -2.0752 -0.1597 -0.0722
 2162SOL    HW217946   4.117   1.775  13.225  1.1271  1.6311  2.8908
 2163SOL     OW17947   1.016   3.574  16.283  0.1066 -0.1733 -0.4128
 2163SOL    HW117948   1.072   3.498  16.302 -0.0658 -0.0502  0.5594
 2163SOL    HW217949   0.963   3.542  16.210  1.3703  1.6988 -2.1332
 2164SOL     OW17950   2.237   4.563   9.864  0.3407  0.2546 -0.2719
 2164SOL    HW117951   2.167   4.571   9.929  1.0017  0.7734  0.3893
 2164SOL    HW217952   2.200   4.488   9.819 -0.4045  0.4783 -0.0374
 2165SOL     OW17953   4.031   3.076   3.225 -0.0376 -0.1548  0.4366
 2165SOL    HW117954   3.950   3.126   3.228  0.1839  0.1652  1.1662
 2165SOL    HW217955   4.069   3.115   3.304 -1.5410  0.6559  0.7451
 2166SOL     OW17956   1.306   1.825   3.907  0.0614  0.2686  0.5002
 2166SOL    HW117957   1.213   1.807   3.893 -0.8755  2.9104  3.1040
 2166SOL    HW217958   1.357   1.756   3.865 -1.3062 -0.1736 -0.4009
 2167SOL     OW17959   0.161   2.308  13.884 -0.4892  0.1913  0.2254
 2167SOL    HW117960   0.098   2.370  13.848  0.5664  1.4718  0.5645
 2167SOL    HW217961   0.106   2.232  13.903  1.3550 -1.0212  0.7652
 2168SOL     OW17962   3.074   3.875  13.172 -0.4408  0.0167 -0.5466
 2168SOL    HW117963   3.081   3.838  13.260 -0.3404 -1.9318 -1.3602
 2168SOL    HW217964   2.981   3.865  13.156 -0.0728 -1.6342 -1.6681
 2169SOL     OW17965   3.868   4.615  16.618  0.4808  0.6976  0.0863
 2169SOL    HW117966   3.963   4.625  16.624  0.1360  2.7469  2.1392
 2169SOL    HW217967   3.857   4.566  16.700 -2.0135  0.9518 -0.0771
 2170SOL     OW17968   4.173   3.115  13.572 -0.2336  0.4425  0.4904
 2170SOL    HW117969   4.259   3.137  13.534 -0.0989  0.8487  1.0389
 2170SOL    HW217970   4.137   3.203  13.583 -1.1467 -0.2809  3.1284
 2171SOL     OW17971   1.182   3.687  17.550 -0.2349 -0.3340 -0.8179
 2171SOL    HW117972   1.126   3.756  17.515 -1.6555 -1.0018  0.1860
 2171SOL    HW217973   1.227   3.744  17.612  0.3174 -1.2812 -0.3473
 2172SOL     OW17974   4.427   3.362  14.861 -0.4314 -0.2435  0.3357
 2172SOL    HW117975   4.429   3.457  14.875  1.9275 -0.2314 -0.1583
 2172SOL    HW217976   4.407   3.341  14.952 -0.1243 -1.8536  0.0175
 2173SOL     OW17977   0.824   2.420   5.101  0.3041  0.0598  0.6123
 2173SOL    HW117978   0.731   2.441   5.108  0.8161  2.9254 -1.0648
 2173SOL    HW217979   0.855   2.484   5.165  1.3218  1.5202 -1.3448
 2174SOL     OW17980   2.241   3.235  14.276  0.0959  0.0515 -0.0155
 2174SOL    HW117981   2.335   3.249  14.284 -0.0093  1.8303 -1.6224
 2174SOL    HW217982   2.221   3.166  14.338  0.3020 -0.5158 -0.5792
 2175SOL     OW17983   1.591   2.212   6.754  0.0740 -0.0842 -0.1757
 2175SOL    HW117984   1.686   2.202   6.744 -0.1332 -1.0055 -1.2006
 2175SOL    HW217985   1.585   2.235   6.847 -2.1491 -0.2449 -0.2836
 2176SOL     OW17986   3.032   3.733   6.552  0.7844  0.0119 -0.4259
 2176SOL    HW117987   2.987   3.783   6.620  3.1244 -1.1607  1.9661
 2176SOL    HW217988   2.956   3.685   6.518  0.6561  1.5420 -2.3269
 2177SOL     OW17989   1.725   3.664   6.128 -0.4136 -0.2562  0.5547
 2177SOL    HW117990   1.677   3.581   6.123 -0.3923 -0.2065 -0.4712
 2177SOL    HW217991   1.719   3.684   6.222  1.5565  0.2357  0.5743
 2178SOL     OW17992   2.190   1.166   6.434  0.5131 -0.2113  0.2367
 2178SOL    HW117993   2.205   1.075   6.459 -1.9628 -0.0949  2.1368
 2178SOL    HW217994   2.250   1.177   6.360 -1.1579 -3.0163 -1.5070
 2179SOL     OW17995   0.969   0.500  14.626 -0.5630 -0.1461  0.1025
 2179SOL    HW117996   0.893   0.520  14.681 -0.0913  1.8842  0.0350
 2179SOL    HW217997   1.031   0.443  14.671  1.9337  2.3425 -0.1884
 2180SOL     OW17998   0.811   1.031  14.171 -0.3038 -0.3490  0.3103
 2180SOL    HW117999   0.737   0.992  14.218 -0.7431  0.3795  0.2467
 2180SOL    HW218000   0.790   1.124  14.183  2.8136  0.4228 -0.2372
 2181SOL     OW18001   1.090   1.247   7.337  0.2590  0.1274  0.0636
 2181SOL    HW118002   1.180   1.218   7.327 -0.3008 -1.3028 -0.8327
 2181SOL    HW218003   1.063   1.245   7.429  0.5591 -0.1516  0.1452
 2182SOL     OW18004   0.989   0.515  14.291  0.6141 -0.7311  0.5622
 2182SOL    HW118005   1.015   0.478  14.375  0.7069  1.0283  1.2989
 2182SOL    HW218006   1.046   0.457  14.240 -0.0274 -0.4727 -0.4471
 2183SOL     OW18007   0.640   3.230  13.700 -0.2537  0.3275 -0.4219
 2183SOL    HW118008   0.625   3.261  13.611 -0.8280  1.1536 -0.0453
 2183SOL    HW218009   0.608   3.141  13.683 -1.2719  0.3913  1.0532
 2184SOL     OW18010   2.824   1.603   3.248 -0.2191  0.0812 -0.3531
 2184SOL    HW118011   2.902   1.654   3.228  0.4481 -1.0436 -0.6315
 2184SOL    HW218012   2.775   1.667   3.300  0.4955  1.7416 -1.7167
 2185SOL     OW18013   3.588   3.417   5.129  0.6279 -0.1159  0.4010
 2185SOL    HW118014   3.534   3.356   5.178 -0.1142  1.8647  2.0531
 2185SOL    HW218015   3.558   3.395   5.041 -1.3806  2.2503  0.4714
 2186SOL     OW18016   2.006   1.608   4.986 -0.0873  0.5839  0.3085
 2186SOL    HW118017   1.917   1.627   5.013 -0.4810 -0.8083 -0.0000
 2186SOL    HW218018   1.996   1.562   4.902 -0.6106 -1.1668  1.3455
 2187SOL     OW18019   3.357   1.555  12.208  0.0151 -0.2429  0.1124
 2187SOL    HW118020   3.310   1.489  12.259  0.5240 -0.9599 -0.3542
 2187SOL    HW218021   3.289   1.581  12.146 -1.3140  1.3622  2.1952
 2188SOL     OW18022   3.772   2.626   0.199  0.0417  0.0694  0.0660
 2188SOL    HW118023   3.796   2.644   0.290 -0.5872 -1.2538  0.4898
 2188SOL    HW218024   3.788   2.705   0.147 -1.0327 -0.8321 -1.6517
 2189SOL     OW18025   0.998   0.863   2.115  0.4665 -0.0437 -0.0262
 2189SOL    HW118026   0.930   0.854   2.182  2.2648 -2.4845  1.4744
 2189SOL    HW218027   0.955   0.836   2.034  0.5894  0.3665 -0.2294
 2190SOL     OW18028   1.688   0.268   0.859  0.2832 -0.0743 -0.4361
 2190SOL    HW118029   1.734   0.325   0.797  1.7554  0.8644  1.5053
 2190SOL    HW218030   1.644   0.216   0.792 -0.2784  1.5826 -1.3572
 2191SOL     OW18031   4.139   2.810   2.679  0.1403  0.1056 -0.6852
 2191SOL    HW118032   4.187   2.889   2.656  0.8622 -0.4887 -1.2078
 2191SOL    HW218033   4.206   2.747   2.707  0.0544  0.3255  0.0204
 2192SOL     OW18034   2.850   2.600   2.095 -0.8962  0.1085  0.8752
 2192SOL    HW118035   2.908   2.631   2.165 -1.1720  0.2903  1.0234
 2192SOL    HW218036   2.824   2.683   2.054 -0.5274 -0.7023 -1.0310
 2193SOL     OW18037   4.058   4.351   2.712 -0.2181 -0.5688  0.1168
 2193SOL    HW118038   3.963   4.359   2.704 -0.1186 -1.0714 -1.6512
 2193SOL    HW218039   4.075   4.316   2.799  0.3914 -2.2770 -0.6829
 2194SOL     OW18040   1.776   0.229   5.089  0.4351  0.2048  0.3840
 2194SOL    HW118041   1.860   0.255   5.124 -0.3946  1.7467  1.1852
 2194SOL    HW218042   1.743   0.309   5.048  1.2535  0.2356 -0.2064
 2195SOL     OW18043   4.643   1.386   2.645  0.9634  0.4836  0.4175
 2195SOL    HW118044   4.724   1.437   2.645  1.1529  0.1816 -2.6716
 2195SOL    HW218045   4.668   1.325   2.576  1.3998  0.9879  0.1314
 2196SOL     OW18046   3.377   1.441  11.817  0.0420 -0.7723  0.1404
 2196SOL    HW118047   3.423   1.358  11.827  0.4529 -0.3551  1.7579
 2196SOL    HW218048   3.439   1.507  11.848 -2.0334  1.5690 -0.6029
 2197SOL     OW18049   1.851   1.310  13.282  0.0086 -0.5811 -0.3159
 2197SOL    HW118050   1.792   1.243  13.249  0.4206 -0.7269 -0.7583
 2197SOL    HW218051   1.916   1.311  13.212 -0.3183 -0.0468 -0.6058
 2198SOL     OW18052   0.283   1.005   6.772 -0.1308  0.8379  0.4236
 2198SOL    HW118053   0.221   1.058   6.722 -1.5480 -1.1752  0.0624
 2198SOL    HW218054   0.364   1.027   6.726 -1.2141  0.2362 -1.7859
 2199SOL     OW18055   0.010   4.138   7.417 -0.7511  0.2253  0.1589
 2199SOL    HW118056   0.038   4.048   7.433  0.2043  0.7339  1.2844
 2199SOL    HW218057   4.707   4.128   7.325  1.8831 -0.1046 -0.5795
 2200SOL     OW18058   3.180   3.362  13.658 -0.1810  0.1713 -0.5270
 2200SOL    HW118059   3.143   3.288  13.610  0.1607  0.9259 -1.9569
 2200SOL    HW218060   3.142   3.344  13.744  0.9220 -0.0990 -0.0986
 2201SOL     OW18061   0.236   3.065   4.636 -0.2086  0.3869  0.5500
 2201SOL    HW118062   0.277   2.978   4.633 -2.9400 -0.8308 -1.6172
 2201SOL    HW218063   0.142   3.050   4.624  0.0412 -0.6981 -0.0795
 2202SOL     OW18064   4.023   2.449   0.704 -0.0009  0.3536 -0.0492
 2202SOL    HW118065   4.035   2.497   0.786 -1.4422 -1.0558  0.9893
 2202SOL    HW218066   4.033   2.515   0.636 -0.3656  0.0076 -0.4377
 2203SOL     OW18067   2.577   0.816   6.655 -0.6656  0.4567  0.1599
 2203SOL    HW118068   2.591   0.755   6.727  1.5599  1.6768  0.7791
 2203SOL    HW218069   2.661   0.842   6.617  0.4889 -1.5944  1.3282
 2204SOL     OW18070   1.938   2.685  13.068 -0.3289 -0.1633  0.4402
 2204SOL    HW118071   2.030   2.669  13.087 -0.6531 -0.2067  1.9428
 2204SOL    HW218072   1.903   2.608  13.113  0.7237 -0.0338  1.4817
 2205SOL     OW18073   3.055   2.434   1.750 -0.2459  0.0972  0.3269
 2205SOL    HW118074   3.099   2.479   1.677  0.3002 -0.8972  0.0392
 2205SOL    HW218075   3.112   2.455   1.823  3.5756 -2.0673 -2.0394
 2206SOL     OW18076   2.990   3.692   5.542 -0.4720  0.2169  0.4816
 2206SOL    HW118077   3.036   3.774   5.525  1.0362 -0.8404 -0.5306
 2206SOL    HW218078   3.058   3.640   5.498 -1.0537  0.1870 -0.3814
 2207SOL     OW18079   1.904   3.506   5.091 -0.2297 -0.2863  0.2286
 2207SOL    HW118080   1.820   3.545   5.070  0.2827 -0.0282 -1.3026
 2207SOL    HW218081   1.930   3.547   5.174 -1.0899 -0.0920  0.4038
 2208SOL     OW18082   0.360   0.640  17.477  0.4887  0.3365  0.3486
 2208SOL    HW118083   0.449   0.669  17.457 -0.0300  0.4220 -1.7936
 2208SOL    HW218084   0.353   0.559  17.427  0.7905  0.4696  0.0946
 2209SOL     OW18085   0.410   4.564   2.968 -0.0851 -0.0942  0.2658
 2209SOL    HW118086   0.319   4.582   2.946  0.6880  2.6278 -0.6664
 2209SOL    HW218087   0.423   4.504   2.894  2.2418  0.7130  0.0152
 2210SOL     OW18088   1.002   2.162   3.974  0.3586  0.1748  0.2853
 2210SOL    HW118089   1.013   2.251   3.943  0.8532 -0.0723 -0.2529
 2210SOL    HW218090   1.087   2.126   3.949  1.5831  1.5558  2.5310
 2211SOL     OW18091   0.314   0.853   6.988 -0.1877  0.2721  0.2516
 2211SOL    HW118092   0.242   0.897   7.034  0.3330  1.2469  0.1365
 2211SOL    HW218093   0.303   0.895   6.903 -0.8408  0.0462  0.2184
 2212SOL     OW18094   1.318   0.389  12.749  0.0722  0.2628  0.1686
 2212SOL    HW118095   1.277   0.347  12.673  0.6020 -0.3978  0.2506
 2212SOL    HW218096   1.349   0.471  12.712  1.6247  0.0376  0.9877
 2213SOL     OW18097   1.065   1.895  11.367  0.0094  0.5296  0.2998
 2213SOL    HW118098   1.082   1.802  11.356 -0.4302  0.5476 -0.5481
 2213SOL    HW218099   1.127   1.927  11.301 -0.3398 -0.4287 -0.4875
 2214SOL     OW18100   4.249   2.855   7.215 -0.9259 -0.2192  0.7571
 2214SOL    HW118101   4.327   2.911   7.213 -1.2156  0.1555  0.0450
 2214SOL    HW218102   4.259   2.812   7.300  2.1002  0.2094  0.6310
 2215SOL     OW18103   2.722   2.900   7.683 -0.9142 -0.5700 -0.1522
 2215SOL    HW118104   2.658   2.919   7.614  1.0092  2.2355 -1.1679
 2215SOL    HW218105   2.790   2.849   7.638  0.4493  1.0964  0.0095
 2216SOL     OW18106   4.396   3.338   2.554  0.9138  0.0504 -0.2758
 2216SOL    HW118107   4.441   3.376   2.479 -0.0452 -0.8549 -1.3189
 2216SOL    HW218108   4.371   3.249   2.528 -0.6457  0.8301 -1.4706
 2217SOL     OW18109   1.891   3.528   3.557  0.0229 -0.4517  0.0765
 2217SOL    HW118110   1.939   3.577   3.624 -1.7261  1.3509  0.0179
 2217SOL    HW218111   1.946   3.553   3.483 -0.6934  1.5644  0.2156
 2218SOL     OW18112   0.100   2.626   8.148 -0.6846  0.2762  0.1109
 2218SOL    HW118113   0.076   2.623   8.241 -1.3914  1.6939 -0.0389
 2218SOL    HW218114   0.029   2.667   8.099  0.1904 -0.3264 -1.6476
 2219SOL     OW18115   3.457   1.218   7.661  0.1345 -0.3901  0.0790
 2219SOL    HW118116   3.436   1.191   7.750 -1.3170  0.4633 -0.0160
 2219SOL    HW218117   3.431   1.310   7.662  2.4807  0.2973 -0.8632
 2220SOL     OW18118   1.698   3.944  15.810  0.4904  0.2681 -0.6399
 2220SOL    HW118119   1.677   4.020  15.865  0.9692 -1.5124  2.0264
 2220SOL    HW218120   1.789   3.961  15.784  1.2818 -2.1847  0.5699
 2221SOL     OW18121   4.658   2.046   7.114  0.4175  0.5496  0.5443
 2221SOL    HW118122   4.587   1.991   7.082 -0.0689 -0.5045  3.4254
 2221SOL    HW218123   4.629   2.128   7.072 -3.6903 -1.9752 -1.5797
 2222SOL     OW18124   0.392   1.545  15.303  0.0901 -0.3313 -0.1273
 2222SOL    HW118125   0.459   1.590  15.355 -1.5691  1.1328  0.7362
 2222SOL    HW218126   0.401   1.455  15.334  0.7712 -0.5609 -0.9770
 2223SOL     OW18127   3.118   2.900   3.820  0.5810 -0.4874 -0.8311
 2223SOL    HW118128   3.139   2.827   3.878  0.7596 -1.4704 -2.1420
 2223SOL    HW218129   3.180   2.966   3.852  0.3938 -0.6487 -0.1528
 2224SOL     OW18130   2.537   1.368   7.464  0.3859  0.1003  0.2979
 2224SOL    HW118131   2.595   1.433   7.423 -0.3217  0.1959 -0.5404
 2224SOL    HW218132   2.445   1.387   7.446 -0.1725 -2.5986  0.3769
 2225SOL     OW18133   3.011   3.597   2.353  0.4304 -0.5223  0.6465
 2225SOL    HW118134   2.936   3.646   2.386  0.8672  0.9273 -0.5189
 2225SOL    HW218135   3.017   3.628   2.263  2.2328  0.3752  1.0577
 2226SOL     OW18136   0.367   0.791  10.674 -0.3077  0.0581  0.3564
 2226SOL    HW118137   0.288   0.844  10.662 -0.6807 -0.2728  1.3979
 2226SOL    HW218138   0.418   0.842  10.736 -1.2632  0.1396  1.0689
 2227SOL     OW18139   4.206   2.667  13.757  0.0608 -0.3007 -0.7996
 2227SOL    HW118140   4.178   2.672  13.666  0.6489  2.1377 -0.8434
 2227SOL    HW218141   4.210   2.760  13.780  0.6219  0.3147 -3.3972
 2228SOL     OW18142   1.649   1.103   7.804  0.4692 -0.3330  0.7702
 2228SOL    HW118143   1.580   1.055   7.757 -0.1899 -0.0929  1.4921
 2228SOL    HW218144   1.682   1.032   7.859 -3.1172 -1.3591  1.6270
 2229SOL     OW18145   3.072   3.757   3.988  0.8456  0.3021  0.5475
 2229SOL    HW118146   3.159   3.746   4.026  1.0472  3.2219  0.9697
 2229SOL    HW218147   3.041   3.839   4.028 -3.7684 -0.1865 -2.0901
 2230SOL     OW18148   3.217   4.162   0.443  0.0011  0.3028  0.2163
 2230SOL    HW118149   3.285   4.228   0.430  0.9370 -0.6627  0.3009
 2230SOL    HW218150   3.208   4.181   0.537  0.9353  1.3439  0.0972
 2231SOL     OW18151   3.036   0.936   8.285 -0.1688  0.4736 -0.6373
 2231SOL    HW118152   2.951   0.973   8.261 -2.0307 -2.5326  1.3504
 2231SOL    HW218153   3.048   0.874   8.213 -3.4223  0.1447 -0.8614
 2232SOL     OW18154   3.545   2.308   9.854  0.1058  0.5255 -0.2293
 2232SOL    HW118155   3.533   2.350   9.939 -3.5689  0.9272 -0.9451
 2232SOL    HW218156   3.626   2.257   9.854  0.3670  0.9366  0.6441
 2233SOL     OW18157   4.281   4.624   5.019 -0.2136 -0.4294 -0.1631
 2233SOL    HW118158   4.372   4.636   5.046  0.4260 -3.1320 -1.1886
 2233SOL    HW218159   4.233   4.657   5.096  0.6134 -2.2686  1.1348
 2234SOL     OW18160   3.411   3.654   6.795  0.2866  0.3333  0.1038
 2234SOL    HW118161   3.351   3.700   6.854  0.1919 -1.2735  1.2577
 2234SOL    HW218162   3.449   3.727   6.746  1.7117  0.6658  1.7205
 2235SOL     OW18163   2.339   0.010   0.586  0.6864 -0.5240 -0.0753
 2235SOL    HW118164   2.369   0.091   0.628  0.1792 -0.0798 -0.5886
 2235SOL    HW218165   2.328   0.038   0.495  0.9967 -0.6973 -0.1647
 2236SOL     OW18166   4.589   4.073   6.860 -0.1327  0.4605  0.5671
 2236SOL    HW118167   4.592   3.997   6.801 -0.9037 -0.4346  1.6855
 2236SOL    HW218168   4.628   4.138   6.802  0.3241  0.5384  0.9669
 2237SOL     OW18169   4.717   1.896  12.161 -0.1154  0.5705 -0.3764
 2237SOL    HW118170   0.059   1.961  12.137  1.1575 -0.3709  0.5854
 2237SOL    HW218171   0.037   1.813  12.141  0.0064  0.1423  1.6386
 2238SOL     OW18172   3.711   2.405   2.623 -0.2337  0.5787 -0.2462
 2238SOL    HW118173   3.690   2.319   2.586  0.1445 -0.2948  1.5636
 2238SOL    HW218174   3.641   2.462   2.591  0.8916  3.1025  1.7823
 2239SOL     OW18175   2.319   2.200   4.356 -0.2444  0.0469 -0.6274
 2239SOL    HW118176   2.329   2.107   4.335 -0.3735 -0.2108  0.4424
 2239SOL    HW218177   2.385   2.241   4.300  0.7424  1.0751  1.3033
 2240SOL     OW18178   2.290   2.858   5.428 -0.1043  0.5584  0.7653
 2240SOL    HW118179   2.228   2.891   5.362  2.1994  2.2475 -0.5426
 2240SOL    HW218180   2.254   2.917   5.494 -1.0604  0.9361 -0.0743
 2241SOL     OW18181   3.210   1.558   2.397  0.5465  0.2358 -0.1851
 2241SOL    HW118182   3.249   1.577   2.312 -0.8012  0.9705 -0.6526
 2241SOL    HW218183   3.170   1.473   2.380 -0.6981  0.9802 -0.9679
 2242SOL     OW18184   0.397   3.006   3.879 -0.5030 -0.0875 -0.0137
 2242SOL    HW118185   0.395   3.102   3.883  1.3861 -0.0232 -0.2263
 2242SOL    HW218186   0.378   2.999   3.785 -0.1897  1.5766 -0.2093
 2243SOL     OW18187   4.477   0.767   5.839  0.1240  0.1179 -0.0879
 2243SOL    HW118188   4.493   0.860   5.857  0.0282  0.1854 -0.3469
 2243SOL    HW218189   4.456   0.778   5.746 -0.8328 -0.0910  0.1038
 2244SOL     OW18190   2.981   3.728   4.402 -0.1979  0.3850  0.3194
 2244SOL    HW118191   3.007   3.817   4.428  0.1210 -0.3607  2.4767
 2244SOL    HW218192   2.897   3.760   4.369  0.5396  1.7634 -0.2364
 2245SOL     OW18193   4.694   1.782   1.134 -0.0506 -0.9069  0.1541
 2245SOL    HW118194   4.600   1.766   1.148  0.0954  0.0051  2.1463
 2245SOL    HW218195   0.005   1.771   1.222 -1.9272  1.5478  1.2152
 2246SOL     OW18196   3.884   3.712   3.860 -0.7363  0.5898 -0.4270
 2246SOL    HW118197   3.880   3.808   3.859  2.7696  0.7418  1.3172
 2246SOL    HW218198   3.882   3.697   3.766  3.0817  0.9717 -0.5428
 2247SOL     OW18199   2.947   4.700  17.297  0.1529  0.3708  0.4825
 2247SOL    HW118200   2.994   4.667  17.221 -0.2497  1.0353 -0.0669
 2247SOL    HW218201   3.011   0.041  17.325  2.0550 -0.8400 -1.0868
 2248SOL     OW18202   2.779   2.644   8.277  0.0760 -0.3491 -0.0611
 2248SOL    HW118203   2.799   2.738   8.278  0.8417 -0.5100 -0.5421
 2248SOL    HW218204   2.684   2.643   8.292  0.1757 -0.9746  0.5608
 2249SOL     OW18205   1.798   4.545   1.873 -0.2720  0.0120 -0.4830
 2249SOL    HW118206   1.832   4.612   1.933  1.1726 -0.9273 -0.2694
 2249SOL    HW218207   1.774   4.476   1.935 -1.6232  1.4662  0.6258
 2250SOL     OW18208   0.390   3.510  11.445  0.3328 -0.4454 -0.4436
 2250SOL    HW118209   0.477   3.549  11.457 -0.5107  1.9696 -2.1436
 2250SOL    HW218210   0.398   3.509  11.349  2.0008 -0.8787 -0.2898
 2251SOL     OW18211   0.251   4.677   1.926  0.2392 -0.2291  0.4871
 2251SOL    HW118212   0.261   4.667   2.021  2.9716 -1.0867  0.1072
 2251SOL    HW218213   0.252   0.048   1.917  0.0746 -0.1047  1.7960
 2252SOL     OW18214   2.886   0.159   2.649  0.0625 -0.3203  0.3082
 2252SOL    HW118215   2.892   0.071   2.613  1.7738  0.5698 -1.5430
 2252SOL    HW218216   2.907   0.213   2.573 -1.1046 -1.2918 -0.7108
 2253SOL     OW18217   0.227   0.790   5.214 -0.2360 -0.1320 -0.2345
 2253SOL    HW118218   0.292   0.725   5.187  0.1583 -0.2386  0.9522
 2253SOL    HW218219   0.284   0.865   5.196  2.2838 -2.4846 -2.1247
 2254SOL     OW18220   3.984   2.188  13.647  0.1660  0.2684  0.2688
 2254SOL    HW118221   4.040   2.155  13.577 -0.7270 -2.2786  0.7239
 2254SOL    HW218222   4.048   2.200  13.717  0.0121  0.6124  0.3477
 2255SOL     OW18223   3.288   0.865   1.131  0.1382  0.0365  0.5560
 2255SOL    HW118224   3.242   0.841   1.210 -0.6310  1.6358  0.5958
 2255SOL    HW218225   3.341   0.787   1.112  1.1679  0.9753 -0.5178
 2256SOL     OW18226   2.658   2.064  10.159 -0.0455  0.0696  0.2039
 2256SOL    HW118227   2.568   2.097  10.168 -0.6462 -2.4726  3.3828
 2256SOL    HW218228   2.665   2.091  10.067  2.0278 -1.3292 -0.0233
 2257SOL     OW18229   3.674   4.327   5.253 -0.3336  0.1483  0.3481
 2257SOL    HW118230   3.743   4.262   5.261 -0.6873 -0.1738  0.7435
 2257SOL    HW218231   3.614   4.295   5.185 -0.0718  1.4191 -0.4883
 2258SOL     OW18232   1.317   1.264   4.118  0.0376 -0.0365  0.1150
 2258SOL    HW118233   1.308   1.358   4.100 -0.9287 -0.0829  0.3429
 2258SOL    HW218234   1.385   1.238   4.056 -1.3123 -1.8467 -0.5985
 2259SOL     OW18235   4.639   0.121   8.311 -0.0084  0.0188  0.1385
 2259SOL    HW118236   4.557   0.118   8.262 -0.4191  2.4578  0.6887
 2259SOL    HW218237   4.611   0.162   8.393 -0.7760 -0.5870  0.1838
 2260SOL     OW18238   1.485   0.742  11.530  0.1137 -0.2059 -0.1934
 2260SOL    HW118239   1.396   0.764  11.503 -0.8893 -3.1738  0.6352
 2260SOL    HW218240   1.528   0.756  11.446 -0.0739  1.2954 -0.0390
 2261SOL     OW18241   3.960   3.064   6.720  0.0118  0.1536 -0.2632
 2261SOL    HW118242   3.995   3.150   6.697  1.2082  0.5956  3.1975
 2261SOL    HW218243   4.035   3.022   6.762 -1.2692 -1.7428  0.1535
 2262SOL     OW18244   4.483   1.343   1.606  0.0800  0.0364  0.3129
 2262SOL    HW118245   4.568   1.361   1.645 -0.4272 -0.5905  1.6857
 2262SOL    HW218246   4.507   1.271   1.547 -0.7607 -0.5655  0.7036
 2263SOL     OW18247   3.594   2.846   6.490 -0.2881  0.1235 -0.1504
 2263SOL    HW118248   3.545   2.869   6.569  1.2312  1.4537  0.4172
 2263SOL    HW218249   3.640   2.925   6.463 -0.2600  0.6542  1.4079
 2264SOL     OW18250   4.122   2.533   1.671 -0.3345 -0.8091  0.4291
 2264SOL    HW118251   4.095   2.517   1.581 -1.7513  4.8162 -0.0930
 2264SOL    HW218252   4.037   2.545   1.713  0.2402  0.2703  1.3005
 2265SOL     OW18253   3.441   3.948   3.493 -1.0016 -0.1298 -0.2930
 2265SOL    HW118254   3.401   4.008   3.431 -1.2087  0.1063  0.0708
 2265SOL    HW218255   3.451   3.872   3.435  0.1829  0.3721 -0.7541
 2266SOL     OW18256   1.447   0.401   0.962  0.1738 -0.1875 -0.3136
 2266SOL    HW118257   1.523   0.458   0.975 -2.4285  2.7282  2.0688
 2266SOL    HW218258   1.499   0.321   0.957  3.2289  1.6850  1.2769
 2267SOL     OW18259   1.622   0.909   7.424  0.2649  0.1542  0.2762
 2267SOL    HW118260   1.668   0.980   7.468  1.4793 -0.7502  0.4768
 2267SOL    HW218261   1.609   0.842   7.491 -1.9814  0.0542 -0.2490
 2268SOL     OW18262   0.681   1.633   4.427 -0.5295  0.1640  0.2825
 2268SOL    HW118263   0.620   1.561   4.439  1.4102 -1.0400  2.7675
 2268SOL    HW218264   0.638   1.690   4.363 -0.5702 -1.7305 -1.3943
 2269SOL     OW18265   3.376   0.389  11.356 -0.0550  0.0111  0.1428
 2269SOL    HW118266   3.354   0.412  11.446 -0.3065  1.3576 -0.2571
 2269SOL    HW218267   3.293   0.385  11.308 -0.2886  0.2207  0.5302
 2270SOL     OW18268   3.033   0.175   7.570 -0.3159  0.0731  0.0063
 2270SOL    HW118269   2.993   0.126   7.642 -1.0379  1.2897  0.4368
 2270SOL    HW218270   3.124   0.149   7.584 -0.3413 -1.3478 -2.5436
 2271SOL     OW18271   3.276   3.329   1.150  1.0918 -0.6078 -0.2323
 2271SOL    HW118272   3.268   3.422   1.171 -0.5018 -0.5494 -1.1521
 2271SOL    HW218273   3.194   3.295   1.184  0.0321  1.6987 -0.4629
 2272SOL     OW18274   1.248   3.135   7.906  0.2320  0.2355 -0.5320
 2272SOL    HW118275   1.323   3.177   7.949 -1.0098 -0.5808  2.4588
 2272SOL    HW218276   1.170   3.142   7.961  1.5981  1.6942  1.1982
 2273SOL     OW18277   3.658   0.040   3.559 -0.4137 -0.9227  0.1588
 2273SOL    HW118278   3.670   0.050   3.465  1.4927  0.8487  0.5958
 2273SOL    HW218279   3.750   0.021   3.577 -0.3201  0.4197  1.0955
 2274SOL     OW18280   1.594   3.339  15.512  0.1737  0.0963 -0.1618
 2274SOL    HW118281   1.647   3.301  15.442  1.2909  0.7651  0.3383
 2274SOL    HW218282   1.505   3.340  15.475 -0.3529 -1.5951  1.0485
 2275SOL     OW18283   0.993   1.053  13.460  0.5549 -0.6253  0.0476
 2275SOL    HW118284   0.926   0.987  13.478  1.1214 -0.8319  1.4318
 2275SOL    HW218285   0.981   1.085  13.371  1.0722 -1.4448 -0.3145
 2276SOL     OW18286   4.210   0.447   7.633 -0.3641 -0.2027  0.2349
 2276SOL    HW118287   4.288   0.463   7.581 -1.7121 -2.6367 -2.5519
 2276SOL    HW218288   4.225   0.504   7.708 -0.0411  0.4232 -0.3059
 2277SOL     OW18289   2.839   4.221   4.354 -0.1350  0.2136 -0.1007
 2277SOL    HW118290   2.887   4.258   4.280 -1.2337  2.4514  0.2994
 2277SOL    HW218291   2.841   4.289   4.422  3.5524 -0.0432  0.0511
 2278SOL     OW18292   2.214   3.981  16.602  0.4451  0.2362  0.4943
 2278SOL    HW118293   2.144   3.967  16.539  1.1566  2.7887 -0.8564
 2278SOL    HW218294   2.161   3.990  16.682  0.2521 -0.7727  0.4786
 2279SOL     OW18295   0.999   0.770   4.659  0.2449  0.0188 -0.2670
 2279SOL    HW118296   1.047   0.688   4.647  0.1273 -0.0010 -0.6081
 2279SOL    HW218297   1.015   0.823   4.580 -1.6941 -0.6668 -1.1436
 2280SOL     OW18298   2.316   1.198   6.886  0.2778  0.3190  0.2454
 2280SOL    HW118299   2.244   1.255   6.911  0.1357  0.6362 -0.9094
 2280SOL    HW218300   2.279   1.110   6.882  0.1237  0.6064 -4.9378
 2281SOL     OW18301   1.554   3.541   1.466  0.4630 -0.8587  0.1157
 2281SOL    HW118302   1.589   3.534   1.377 -0.7641 -0.7860 -0.3700
 2281SOL    HW218303   1.488   3.471   1.469 -0.6126  0.1682  0.5110
 2282SOL     OW18304   0.155   3.255   4.831 -0.4206 -0.3737  0.4106
 2282SOL    HW118305   0.063   3.229   4.821 -0.2586 -0.3028 -1.2903
 2282SOL    HW218306   0.204   3.186   4.786  0.5581  1.1277 -0.8203
 2283SOL     OW18307   0.274   3.769   7.295  0.1934 -0.2734 -0.2556
 2283SOL    HW118308   0.243   3.789   7.206  0.2975 -1.9177 -0.6547
 2283SOL    HW218309   0.206   3.713   7.332  0.7289 -1.1619 -0.6281
 2284SOL     OW18310   1.243   1.588   1.450 -0.6525 -0.5073  0.0431
 2284SOL    HW118311   1.325   1.547   1.478 -0.4988 -0.4694 -0.3495
 2284SOL    HW218312   1.231   1.549   1.363  0.7443  2.5278 -1.5238
 2285SOL     OW18313   2.917   2.242  17.226 -0.1191  0.1875 -0.1048
 2285SOL    HW118314   2.831   2.283  17.224 -0.8582 -1.4733 -1.5704
 2285SOL    HW218315   2.944   2.255  17.135 -0.0415 -0.5286 -0.1862
 2286SOL     OW18316   4.441   0.779   7.909  0.2098 -0.2867  0.5467
 2286SOL    HW118317   4.436   0.873   7.926  0.8463 -0.0573 -0.5026
 2286SOL    HW218318   4.483   0.744   7.988  0.8728  1.8603  1.1512
 2287SOL     OW18319   1.610   0.859   0.345 -0.3832  1.2129 -0.1507
 2287SOL    HW118320   1.534   0.814   0.309 -0.8447 -0.4872  2.8765
 2287SOL    HW218321   1.579   0.949   0.357  0.9546  1.5231  1.0973
 2288SOL     OW18322   1.422   0.927   3.778  0.2804 -0.1960  0.5197
 2288SOL    HW118323   1.353   0.902   3.840  1.0778 -2.4408  0.5133
 2288SOL    HW218324   1.366   0.917   3.700  1.0454 -2.3404  0.2277
 2289SOL     OW18325   4.086   2.528   8.109 -0.1480  0.0614  0.1851
 2289SOL    HW118326   4.099   2.577   8.191 -1.2667  1.0565 -0.2336
 2289SOL    HW218327   4.176   2.499   8.098  0.2954  0.9277  1.4605
 2290SOL     OW18328   0.775   2.086  16.823 -0.4725  0.2318 -0.2552
 2290SOL    HW118329   0.811   2.170  16.793 -1.9280  0.7012 -0.7352
 2290SOL    HW218330   0.738   2.116  16.906 -0.6166 -0.3697 -0.1027
 2291SOL     OW18331   0.212   2.440   4.381 -0.5062  0.1507  0.0264
 2291SOL    HW118332   0.134   2.493   4.361 -0.9390 -0.6644 -0.4217
 2291SOL    HW218333   0.182   2.405   4.465 -0.9918  2.4176  0.7916
 2292SOL     OW18334   2.659   3.722   4.109 -0.0779 -0.1230 -0.2971
 2292SOL    HW118335   2.675   3.761   4.194 -2.4732 -1.5310  0.8069
 2292SOL    HW218336   2.564   3.708   4.104 -0.1297 -0.4628  1.6050
 2293SOL     OW18337   1.488   0.056   3.440  0.3346  0.0145  0.8587
 2293SOL    HW118338   1.410   0.061   3.494 -0.4286  0.7834 -0.3247
 2293SOL    HW218339   1.542   4.716   3.485  1.1964 -1.3498 -2.1260
 2294SOL     OW18340   4.118   0.979   6.883 -0.4943 -0.8835  0.1995
 2294SOL    HW118341   4.093   0.990   6.974  3.1510 -1.3083  1.2661
 2294SOL    HW218342   4.050   0.917   6.858 -0.4813 -1.3660  1.3593
 2295SOL     OW18343   2.835   1.211   8.620  0.2506  0.3067 -0.3756
 2295SOL    HW118344   2.920   1.176   8.646 -0.2825  0.3355  1.4381
 2295SOL    HW218345   2.777   1.146   8.660 -1.0324 -0.4205 -3.4390
 2296SOL     OW18346   3.491   4.397   9.812  0.3450  0.3033  0.4258
 2296SOL    HW118347   3.518   4.482   9.847 -0.7655  1.6196 -1.9431
 2296SOL    HW218348   3.574   4.350   9.799  0.6262  0.6407  1.0323
 2297SOL     OW18349   1.068   1.108   6.039 -0.0789 -0.0318 -0.0069
 2297SOL    HW118350   1.105   1.168   6.103 -0.5431  0.7199 -0.4471
 2297SOL    HW218351   1.012   1.065   6.103  1.0656 -0.3738  0.7679
 2298SOL     OW18352   1.469   3.052   4.352  0.5836  0.0267  0.3533
 2298SOL    HW118353   1.434   3.118   4.412  1.0571  2.6952 -2.3116
 2298SOL    HW218354   1.511   3.109   4.287  0.2946 -2.7049 -2.2099
 2299SOL     OW18355   2.348   4.214   9.128 -0.0056  0.0424  0.2424
 2299SOL    HW118356   2.275   4.154   9.139 -1.1022  0.7738 -3.0782
 2299SOL    HW218357   2.406   4.196   9.202 -0.8291  0.1796  0.9184
 2300SOL     OW18358   4.493   4.604   7.326 -0.3129 -0.3803 -0.2172
 2300SOL    HW118359   4.462   4.686   7.289 -0.0623  0.5913  1.7293
 2300SOL    HW218360   4.527   4.640   7.408 -2.8714 -0.5867  0.9505
 2301SOL     OW18361   2.363   3.861  15.299 -0.3964  0.8331  0.4593
 2301SOL    HW118362   2.408   3.908  15.369 -0.2197  0.9676  0.2529
 2301SOL    HW218363   2.278   3.906  15.304  0.5449  2.4566  1.7840
 2302SOL     OW18364   2.403   3.116   5.595 -0.3167 -0.4580 -0.2136
 2302SOL    HW118365   2.473   3.124   5.531 -0.9658  0.7970 -0.7720
 2302SOL    HW218366   2.436   3.170   5.667  2.4759 -3.2846  0.6190
 2303SOL     OW18367   3.305   0.268  14.981 -0.0068 -0.1224 -0.2724
 2303SOL    HW118368   3.213   0.247  14.963  0.4743 -1.9414 -0.6044
 2303SOL    HW218369   3.318   0.211  15.057 -0.5914 -0.6651 -0.5795
 2304SOL     OW18370   2.803   4.633   5.441  0.0373  0.4586 -0.3019
 2304SOL    HW118371   2.887   4.586   5.448 -0.1696 -0.1224 -1.6222
 2304SOL    HW218372   2.740   4.561   5.442 -1.6729  1.9702 -0.6896
 2305SOL     OW18373   2.118   3.179  14.630 -0.3345 -0.3276  0.0642
 2305SOL    HW118374   2.212   3.184  14.651 -0.7368 -0.3767  1.8714
 2305SOL    HW218375   2.090   3.094  14.598 -1.5480  0.0591  0.1162
 2306SOL     OW18376   0.414   1.673   0.580 -0.2624 -0.2123 -0.3179
 2306SOL    HW118377   0.363   1.755   0.583  1.1609  0.6848 -0.7615
 2306SOL    HW218378   0.475   1.687   0.507  0.9366 -0.6145  0.6196
 2307SOL     OW18379   1.762   4.359  16.385  0.2178  0.4896  0.2743
 2307SOL    HW118380   1.669   4.377  16.395  0.6501  3.3322 -0.6767
 2307SOL    HW218381   1.780   4.451  16.366  1.0525  0.6694  1.8672
 2308SOL     OW18382   2.900   0.347  14.731 -0.0427  0.7037 -0.1531
 2308SOL    HW118383   2.835   0.289  14.691 -0.2679  1.5401 -1.0388
 2308SOL    HW218384   2.828   0.381  14.785  0.6272  0.4972  0.8624
 2309SOL     OW18385   0.093   1.217   7.215 -0.7918 -0.0644  0.4787
 2309SOL    HW118386   0.031   1.209   7.287 -1.0002  2.1761  0.5414
 2309SOL    HW218387   0.179   1.236   7.254 -1.7856  1.0488  2.1021
 2310SOL     OW18388   3.626   3.062   5.891  0.2132  0.1359  0.0273
 2310SOL    HW118389   3.590   3.057   5.803 -0.4546  0.7070  0.2643
 2310SOL    HW218390   3.556   3.029   5.948 -2.2092 -2.3725 -4.4440
 2311SOL     OW18391   4.256   3.951   4.213 -0.5891 -0.2958  0.5189
 2311SOL    HW118392   4.308   3.957   4.293  0.6741 -0.5837 -0.2829
 2311SOL    HW218393   4.311   3.891   4.163 -1.9925  0.0881 -1.4614
 2312SOL     OW18394   3.256   1.202   3.453  0.3837  0.0740 -0.2105
 2312SOL    HW118395   3.311   1.245   3.387  3.0900 -0.9492  1.3865
 2312SOL    HW218396   3.174   1.225   3.409  0.2142  2.4787  1.3558
 2313SOL     OW18397   0.952   0.732  11.240  0.3250 -0.1061  0.2448
 2313SOL    HW118398   0.959   0.715  11.335  0.4193 -0.8572  0.1091
 2313SOL    HW218399   1.020   0.799  11.233 -0.1381  0.2415 -0.8739
 2314SOL     OW18400   0.174   2.423  12.215 -0.2444 -0.0768  0.3086
 2314SOL    HW118401   0.156   2.441  12.307 -3.4788  0.4229 -0.4166
 2314SOL    HW218402   0.244   2.359  12.222 -0.5532 -0.6389 -1.7722
 2315SOL     OW18403   2.598   1.056  15.171 -0.5419 -0.6402  0.6523
 2315SOL    HW118404   2.636   1.021  15.090 -0.2375  1.5988 -0.1686
 2315SOL    HW218405   2.672   1.040  15.229 -0.9753 -1.7618  0.8867
 2316SOL     OW18406   0.554   1.589   2.555  0.1156  0.0836  0.1528
 2316SOL    HW118407   0.634   1.625   2.516 -0.6739  1.7229  0.0370
 2316SOL    HW218408   0.546   1.516   2.494 -0.3930 -0.1316  0.4770
 2317SOL     OW18409   3.960   3.817   2.776  0.6897  0.5581 -0.1139
 2317SOL    HW118410   3.967   3.881   2.706  2.1258  2.0082  1.3754
 2317SOL    HW218411   4.040   3.838   2.824 -0.2087  0.7252  1.3400
 2318SOL     OW18412   3.733   2.108   3.800  0.5195  0.1729 -0.1674
 2318SOL    HW118413   3.808   2.166   3.785  1.1835 -0.0526  2.3719
 2318SOL    HW218414   3.749   2.072   3.887 -2.2940 -2.3867 -0.7488
 2319SOL     OW18415   1.408   2.225   6.557 -0.2409 -0.1587 -0.2348
 2319SOL    HW118416   1.346   2.262   6.621  1.2457  0.4499  0.8674
 2319SOL    HW218417   1.487   2.220   6.611  0.1663 -1.9910 -1.0238
 2320SOL     OW18418   0.621   4.015   3.092 -0.3296  0.7573 -0.4405
 2320SOL    HW118419   0.708   3.976   3.086  0.7315  2.9114  1.1836
 2320SOL    HW218420   0.574   3.941   3.133 -0.3947  1.0653  0.0463
 2321SOL     OW18421   3.659   2.624  11.280  0.0861  0.3941 -0.4463
 2321SOL    HW118422   3.660   2.695  11.216  2.8421 -1.9587 -3.0850
 2321SOL    HW218423   3.581   2.636  11.333  1.9189  2.3120  1.8239
 2322SOL     OW18424   2.743   4.656   7.541 -0.7009  0.5041  0.3448
 2322SOL    HW118425   2.760   0.025   7.530 -3.2958  0.7679 -1.3911
 2322SOL    HW218426   2.796   4.638   7.619  0.8377  0.9041 -0.5930
 2323SOL     OW18427   0.303   1.418   5.515 -0.2117 -0.5864  0.0265
 2323SOL    HW118428   0.378   1.472   5.493 -0.6631 -0.5972 -1.5244
 2323SOL    HW218429   0.268   1.382   5.433 -0.4757  1.9134 -0.9600
 2324SOL     OW18430   2.400   2.664  15.998 -0.1195 -0.6639  0.2125
 2324SOL    HW118431   2.386   2.667  15.904  2.5111  0.3679 -0.1320
 2324SOL    HW218432   2.389   2.759  16.007  0.7658 -0.6250  0.8785
 2325SOL     OW18433   4.553   3.207   2.197 -0.3128  0.3589  0.5145
 2325SOL    HW118434   4.478   3.201   2.257 -1.4730  0.9400 -0.8650
 2325SOL    HW218435   4.556   3.122   2.153  3.8734 -0.2252  1.9908
 2326SOL     OW18436   2.794   0.114   2.913 -0.3941  0.4372  0.0134
 2326SOL    HW118437   2.875   0.063   2.901 -0.1762  0.8569 -0.2823
 2326SOL    HW218438   2.771   0.138   2.824  1.4591  1.8183 -0.0961
 2327SOL     OW18439   4.570   0.072   3.864 -0.2237 -0.2743  0.1562
 2327SOL    HW118440   4.555   4.705   3.890  2.1813 -1.6041 -3.0852
 2327SOL    HW218441   4.529   0.115   3.939 -0.0050  0.0610  0.0793
 2328SOL     OW18442   1.046   0.449   7.448 -0.5540  0.1392 -0.5771
 2328SOL    HW118443   1.076   0.526   7.497  0.6119 -0.8750  0.3070
 2328SOL    HW218444   1.062   0.473   7.357  3.1975 -0.8807 -0.1971
 2329SOL     OW18445   2.440   0.518  14.887  0.1234 -0.0548  0.0413
 2329SOL    HW118446   2.518   0.477  14.850  1.9307  3.2668  0.1770
 2329SOL    HW218447   2.475   0.578  14.953 -0.6469  1.6784 -1.1048
 2330SOL     OW18448   1.927   2.670   6.761 -0.6210  0.1194  0.2023
 2330SOL    HW118449   1.997   2.661   6.697 -1.0262  0.4966 -0.2956
 2330SOL    HW218450   1.873   2.594   6.741  0.9370 -1.1943  1.0238
 2331SOL     OW18451   4.021   1.659   3.780  0.3317  0.6117 -0.2298
 2331SOL    HW118452   4.097   1.663   3.723  1.8936 -1.3679  1.7017
 2331SOL    HW218453   3.973   1.583   3.745 -1.4415  0.8663  1.6170
 2332SOL     OW18454   3.757   1.915   7.608  0.2678 -0.1868 -0.0193
 2332SOL    HW118455   3.679   1.881   7.652  0.0831 -1.0104 -0.9801
 2332SOL    HW218456   3.772   2.002   7.644 -0.1186 -0.6216  1.1913
 2333SOL     OW18457   4.359   4.595   7.743 -0.7796  0.7702  0.1963
 2333SOL    HW118458   4.298   4.573   7.814  0.6093 -0.2747  1.0535
 2333SOL    HW218459   4.296   4.639   7.686 -3.0815 -0.0591  2.0574
 2334SOL     OW18460   0.810   3.940  16.281  0.6611 -0.1168 -0.3719
 2334SOL    HW118461   0.746   3.874  16.306 -0.1707 -0.1096 -2.4325
 2334SOL    HW218462   0.859   3.893  16.214 -0.9149 -1.9723 -0.1975
 2335SOL     OW18463   2.150   1.999   6.610  0.0661  0.7511 -0.1564
 2335SOL    HW118464   2.107   1.924   6.650 -3.2482  2.5238 -0.3977
 2335SOL    HW218465   2.191   2.040   6.686  1.7803 -0.9757 -0.1634
 2336SOL     OW18466   2.523   4.401  13.392 -0.0455 -0.4675  0.2143
 2336SOL    HW118467   2.444   4.361  13.354 -0.6800  1.4198 -0.4348
 2336SOL    HW218468   2.584   4.331  13.370  2.3968  1.1582  1.8812
 2337SOL     OW18469   4.641   3.400   7.255  0.3852  0.4282  0.2430
 2337SOL    HW118470   4.657   3.307   7.238 -1.0723  0.2358 -0.1070
 2337SOL    HW218471   4.601   3.396   7.342  0.5076 -2.8595  0.1545
 2338SOL     OW18472   0.477   3.041  15.375  0.2056 -0.4025 -0.0857
 2338SOL    HW118473   0.398   2.987  15.380 -0.7344  0.7510 -2.6482
 2338SOL    HW218474   0.517   3.050  15.462  1.7794  1.1125 -0.9906
 2339SOL     OW18475   3.200   3.246   2.658 -0.0579 -0.5898  0.2960
 2339SOL    HW118476   3.246   3.326   2.682 -2.0507  0.5288  0.3915
 2339SOL    HW218477   3.264   3.184   2.624 -0.1196 -0.3191 -0.3136
 2340SOL     OW18478   0.100   2.627   4.817 -0.0286 -0.3438 -0.1683
 2340SOL    HW118479   0.018   2.659   4.855 -0.2127 -1.2471  0.2023
 2340SOL    HW218480   0.162   2.645   4.888  0.1780  0.0474 -0.4516
 2341SOL     OW18481   0.126   3.883   3.704  0.6362 -0.3002 -0.0302
 2341SOL    HW118482   0.194   3.824   3.737  0.7267 -0.0299  0.2660
 2341SOL    HW218483   0.125   3.950   3.773 -0.7533 -0.3352 -0.0099
 2342SOL     OW18484   4.243   3.464   2.199 -0.3180  0.4144  0.1024
 2342SOL    HW118485   4.311   3.447   2.265 -1.1101 -0.1171  0.7705
 2342SOL    HW218486   4.169   3.434   2.251  1.4446 -0.9188  1.8524
 2343SOL     OW18487   2.552   0.583   0.089  0.2257  0.1710 -0.4551
 2343SOL    HW118488   2.562   0.661   0.143 -0.4290  1.0721 -1.6486
 2343SOL    HW218489   2.474   0.549   0.132  0.3555  0.1662 -0.2209
 2344SOL     OW18490   0.052   1.802   6.639  0.2079 -0.5762  0.0731
 2344SOL    HW118491   0.082   1.888   6.608  1.2888  0.0528  2.9144
 2344SOL    HW218492   4.705   1.826   6.697 -0.4648 -1.2648 -0.4655
 2345SOL     OW18493   3.515   0.312   8.380  0.2413 -0.2167  0.6041
 2345SOL    HW118494   3.479   0.233   8.419 -2.1655  0.3318 -0.4878
 2345SOL    HW218495   3.537   0.362   8.459  2.2420 -3.0572  1.8285
 2346SOL     OW18496   3.487   0.589   7.691  0.4208 -0.0635 -0.0416
 2346SOL    HW118497   3.454   0.656   7.631 -1.1180  0.3077  1.2279
 2346SOL    HW218498   3.455   0.516   7.638 -2.6552  0.1483  1.5553
 2347SOL     OW18499   1.149   1.645  12.638  0.2467  0.0695 -0.0890
 2347SOL    HW118500   1.121   1.566  12.684  1.3514 -1.3826 -1.9204
 2347SOL    HW218501   1.073   1.650  12.579 -0.6634  0.7395  1.1418
 2348SOL     OW18502   2.769   0.956   7.812  0.2397 -0.1999  0.2835
 2348SOL    HW118503   2.695   0.980   7.756 -1.3824  0.9230  2.8877
 2348SOL    HW218504   2.800   1.045   7.832 -0.7184  0.1598  0.1979
 2349SOL     OW18505   1.196   2.500   3.615  0.8533  0.0004 -0.1086
 2349SOL    HW118506   1.150   2.478   3.534  0.2991 -2.3694  0.8578
 2349SOL    HW218507   1.200   2.418   3.663 -3.4522 -0.0742  0.1366
 2350SOL     OW18508   1.813   4.426   7.286  0.3222 -0.1688  0.0472
 2350SOL    HW118509   1.851   4.346   7.251  0.2838 -0.9168  1.7548
 2350SOL    HW218510   1.884   4.445   7.347  1.6491  0.8132 -1.7936
 2351SOL     OW18511   1.919   2.093   7.448 -0.4650 -0.2908  0.2437
 2351SOL    HW118512   1.971   2.098   7.367 -0.0126 -0.6509  0.5163
 2351SOL    HW218513   1.940   2.006   7.482  1.4360  0.0201 -0.1410
 2352SOL     OW18514   1.302   1.507   4.004 -0.2860 -0.2370  0.6809
 2352SOL    HW118515   1.245   1.507   3.928 -0.8503  1.1792  1.1025
 2352SOL    HW218516   1.300   1.599   4.034  1.7642 -0.1364  0.5420
 2353SOL     OW18517   3.101   3.885   3.516 -0.6806  1.0831 -1.0511
 2353SOL    HW118518   3.086   3.840   3.599 -0.1475 -1.7200 -2.4939
 2353SOL    HW218519   3.140   3.827   3.450  0.6302  1.2410 -0.4196
 2354SOL     OW18520   1.996   1.643   6.957  0.0358  0.3556  0.2021
 2354SOL    HW118521   1.924   1.685   7.005 -0.2204  0.0636  0.0736
 2354SOL    HW218522   2.045   1.616   7.034  0.3554  0.2097 -0.0515
 2355SOL     OW18523   2.934   1.179   3.032  0.2374  0.1426 -0.2541
 2355SOL    HW118524   2.976   1.240   2.972  1.8596 -1.7247 -0.9947
 2355SOL    HW218525   3.013   1.149   3.078 -0.5113  2.9668  2.8987
 2356SOL     OW18526   4.286   1.907   4.594  0.0962  0.1015 -0.0947
 2356SOL    HW118527   4.344   1.981   4.612 -0.6440  0.5610  0.4075
 2356SOL    HW218528   4.252   1.908   4.683  2.3720 -0.1637  0.7761
 2357SOL     OW18529   4.675   1.634   9.131  0.3308 -0.2993 -0.1004
 2357SOL    HW118530   4.599   1.632   9.189 -0.5554  1.9745 -1.1870
 2357SOL    HW218531   0.018   1.626   9.199 -0.9426  3.6356  1.6841
 2358SOL     OW18532   3.701   3.383   4.745 -0.1919  0.0296  1.0466
 2358SOL    HW118533   3.616   3.407   4.708 -1.6431 -1.9409  3.1036
 2358SOL    HW218534   3.760   3.448   4.708  0.3154 -0.1394  1.5474
 2359SOL     OW18535   2.644   3.803   6.584  0.4132  0.4322  0.0481
 2359SOL    HW118536   2.562   3.798   6.632 -0.7990 -0.2153 -2.0976
 2359SOL    HW218537   2.661   3.896   6.602  1.3918  0.2594  0.0529
 2360SOL     OW18538   4.529   3.884   3.527 -0.3718 -0.3750  0.5235
 2360SOL    HW118539   4.581   3.911   3.451 -1.4534 -3.0064 -1.1635
 2360SOL    HW218540   4.460   3.950   3.531  0.6497  0.7593 -0.9661
 2361SOL     OW18541   0.849   4.434   7.470 -0.3951  0.2148  0.2006
 2361SOL    HW118542   0.770   4.398   7.431  0.6660 -0.5972 -1.1783
 2361SOL    HW218543   0.811   4.494   7.535 -1.5775 -0.0803 -0.2257
 2362SOL     OW18544   4.349   2.614   7.127  0.9438 -0.4049 -0.2336
 2362SOL    HW118545   4.303   2.691   7.158  2.4021  0.0740  0.7460
 2362SOL    HW218546   4.362   2.638   7.035 -0.4384 -0.1001 -0.3397
 2363SOL     OW18547   0.940   3.334   7.914 -0.2149 -0.3069 -0.1891
 2363SOL    HW118548   0.888   3.379   7.981 -0.1559  3.0511 -2.4171
 2363SOL    HW218549   0.975   3.265   7.970 -0.3983 -0.1999  0.0568
 2364SOL     OW18550   4.553   2.454   6.356 -0.5431 -0.1008  0.5805
 2364SOL    HW118551   4.557   2.540   6.314 -0.9964 -0.6505 -0.5682
 2364SOL    HW218552   4.462   2.432   6.339 -0.4266  0.7306 -1.1604
 2365SOL     OW18553   3.210   1.970   5.940  0.3025 -0.3944 -0.3171
 2365SOL    HW118554   3.296   1.954   5.901  1.5423  0.3700  2.0943
 2365SOL    HW218555   3.235   1.958   6.032  1.7529 -0.8377 -0.7690
 2366SOL     OW18556   3.866   3.752   3.024 -0.0461 -1.0577 -0.5916
 2366SOL    HW118557   3.848   3.745   2.931  0.4560 -3.7991 -0.4770
 2366SOL    HW218558   3.848   3.844   3.045 -0.5960 -1.6838  1.7540
 2367SOL     OW18559   3.037   2.064  17.397 -0.0257 -0.4022 -0.1475
 2367SOL    HW118560   2.991   2.127  17.341 -0.2614  0.5535  1.1348
 2367SOL    HW218561   3.126   2.087  17.370 -0.2426  1.4417  0.7225
 2368SOL     OW18562   3.052   4.606  16.209 -0.3539  0.6511 -0.5265
 2368SOL    HW118563   3.040   4.698  16.234 -2.2782  0.2830 -0.0320
 2368SOL    HW218564   3.126   4.610  16.149 -0.3322 -0.4241 -0.5841
 2369SOL     OW18565   3.526   3.918   6.753 -0.8267 -0.0102 -0.1413
 2369SOL    HW118566   3.492   3.977   6.685  2.8820  1.5482 -0.6765
 2369SOL    HW218567   3.483   3.959   6.828  2.0988  0.3078  1.3606
 2370SOL     OW18568   4.306   2.079   3.368 -0.4466 -0.3262 -0.6464
 2370SOL    HW118569   4.244   2.079   3.296  0.2949  1.8129 -1.2767
 2370SOL    HW218570   4.273   2.156   3.415 -1.0242  1.5219 -4.0685
 2371SOL     OW18571   3.699   0.993  14.803 -0.1395  0.1876 -0.0874
 2371SOL    HW118572   3.631   0.949  14.751 -0.6875  0.1163  0.6779
 2371SOL    HW218573   3.688   1.076  14.757  1.5730 -0.1043 -1.0255
 2372SOL     OW18574   1.521   1.006  14.723  0.2323  0.8937  0.8934
 2372SOL    HW118575   1.582   1.024  14.652 -0.5261 -0.1933 -0.0224
 2372SOL    HW218576   1.558   0.926  14.760  0.6930  0.3905 -0.6763
 2373SOL     OW18577   2.559   3.446   4.752  0.1714 -0.4808 -0.2614
 2373SOL    HW118578   2.467   3.422   4.741 -0.1849  0.9958 -0.5584
 2373SOL    HW218579   2.591   3.435   4.662 -0.5009  2.1465 -0.8447
 2374SOL     OW18580   4.635   2.897   6.272 -0.0897  0.0858 -0.0167
 2374SOL    HW118581   4.646   2.865   6.183 -3.3863  0.2934 -0.5082
 2374SOL    HW218582   4.582   2.976   6.261 -0.4030 -0.2297 -0.7792
 2375SOL     OW18583   3.774   4.417   3.530 -0.0204  0.2242 -0.2497
 2375SOL    HW118584   3.788   4.322   3.538  1.8472  0.5128 -0.0241
 2375SOL    HW218585   3.692   4.424   3.482  1.0807  0.0306 -2.1658
 2376SOL     OW18586   0.387   3.405   7.604  0.4562 -0.1076 -0.0521
 2376SOL    HW118587   0.441   3.475   7.639 -1.3741  1.6046 -0.6822
 2376SOL    HW218588   0.415   3.334   7.662 -0.3829  0.1270  0.6529
 2377SOL     OW18589   0.350   4.371   4.452  0.7758 -0.0534 -0.0422
 2377SOL    HW118590   0.288   4.442   4.435 -0.9573 -1.7078 -0.6956
 2377SOL    HW218591   0.350   4.321   4.370  2.0079  1.7255 -1.1195
 2378SOL     OW18592   2.150   0.100   0.830 -0.2328 -0.2845  0.2325
 2378SOL    HW118593   2.084   0.045   0.788  0.8696 -2.7599  1.7579
 2378SOL    HW218594   2.202   0.122   0.754 -1.2035  0.1874 -0.2975
 2379SOL     OW18595   3.551   1.808   8.050  0.1411 -0.4174 -0.0837
 2379SOL    HW118596   3.475   1.792   8.105 -0.2097 -0.5609 -0.6082
 2379SOL    HW218597   3.542   1.903   8.045 -1.7497 -0.6685 -1.1797
 2380SOL     OW18598   1.940   1.069   1.094 -0.3627 -0.2214  0.4338
 2380SOL    HW118599   1.921   0.995   1.037  0.4538 -1.1163  1.3426
 2380SOL    HW218600   1.982   1.119   1.024 -1.8401  1.7006  0.9210
 2381SOL     OW18601   2.765   0.913  12.663 -0.4659  0.2781 -0.2976
 2381SOL    HW118602   2.688   0.971  12.661 -1.2286 -0.6528  2.3064
 2381SOL    HW218603   2.767   0.895  12.756  1.0949  1.3636 -0.1237
 2382SOL     OW18604   4.168   1.775   1.309 -0.1025  0.0844 -0.2947
 2382SOL    HW118605   4.261   1.755   1.319 -0.8049 -1.8422  2.4930
 2382SOL    HW218606   4.163   1.862   1.347 -0.0118 -1.0945  2.4034
 2383SOL     OW18607   3.487   0.276   9.731 -0.1015  0.5431  0.2371
 2383SOL    HW118608   3.480   0.367   9.759 -0.5719  0.4635  0.3846
 2383SOL    HW218609   3.581   0.266   9.747 -0.0877 -0.9194 -0.7289
 2384SOL     OW18610   0.196   4.633   0.394 -0.9287  0.2032  0.1968
 2384SOL    HW118611   0.231   4.607   0.309 -0.6022 -1.3984  0.8132
 2384SOL    HW218612   0.187   0.004   0.391 -0.9944  0.2235  0.9326
 2385SOL     OW18613   1.309   2.278  10.344  0.2142 -0.1427  0.6529
 2385SOL    HW118614   1.332   2.263  10.435  2.4511 -0.1791  0.0831
 2385SOL    HW218615   1.392   2.269  10.297 -0.7972 -0.8199 -0.9734
 2386SOL     OW18616   2.202   4.570  15.114 -0.1744 -0.3199  0.1514
 2386SOL    HW118617   2.217   4.658  15.148  1.5389 -0.7516  0.5412
 2386SOL    HW218618   2.260   4.567  15.038 -1.8263  2.4201 -1.1974
 2387SOL     OW18619   2.669   4.164  12.686  0.1616  0.4231 -0.0642
 2387SOL    HW118620   2.751   4.152  12.732  0.3557  0.8863 -0.2833
 2387SOL    HW218621   2.671   4.094  12.622 -0.0941  0.6576 -0.3302
 2388SOL     OW18622   1.222   0.664   6.089  0.5080  0.1457 -0.3882
 2388SOL    HW118623   1.270   0.582   6.083 -0.5346 -0.5922  1.3243
 2388SOL    HW218624   1.277   0.702   6.020  0.3703  1.7805  0.4037
 2389SOL     OW18625   3.250   0.536  14.978 -0.4328 -0.3830  0.6665
 2389SOL    HW118626   3.177   0.553  15.038  0.2541 -0.5702  1.5641
 2389SOL    HW218627   3.262   0.442  14.992 -0.4063 -0.7219 -1.6576
 2390SOL     OW18628   0.277   0.573   8.759  0.0158  0.3667 -0.2785
 2390SOL    HW118629   0.366   0.582   8.795 -0.0059  1.2579 -0.4381
 2390SOL    HW218630   0.282   0.626   8.679 -0.3749  3.9032  2.0655
 2391SOL     OW18631   2.348   2.731   3.774 -0.1816 -0.1224  0.4054
 2391SOL    HW118632   2.361   2.669   3.703  0.8236  3.2264 -2.3681
 2391SOL    HW218633   2.429   2.716   3.823 -1.7792  1.8784  3.6454
 2392SOL     OW18634   3.925   4.229  10.828 -0.0170 -0.4322  0.8333
 2392SOL    HW118635   3.992   4.165  10.852  1.2082  0.5559  0.0433
 2392SOL    HW218636   3.968   4.311  10.851  1.4140 -0.9423 -0.0705
 2393SOL     OW18637   0.201   4.586   3.379 -0.6715 -0.2658  0.3223
 2393SOL    HW118638   0.273   4.602   3.318  0.3282 -0.1436  1.5423
 2393SOL    HW218639   0.141   4.543   3.318 -1.7925  0.5133  0.8892
 2394SOL     OW18640   4.575   2.873   8.833 -0.6592  0.7834  0.4858
 2394SOL    HW118641   4.581   2.798   8.892  3.5746 -0.7608 -1.8915
 2394SOL    HW218642   4.666   2.903   8.832 -0.6306  0.6734 -0.3264
 2395SOL     OW18643   1.131   0.362  14.829 -0.2574 -0.4092 -0.1328
 2395SOL    HW118644   1.207   0.312  14.799 -0.0376 -0.6580  0.8630
 2395SOL    HW218645   1.173   0.417  14.894 -4.5702  0.5730  1.7968
 2396SOL     OW18646   2.281   0.494   8.019  0.3080 -0.6939 -0.3473
 2396SOL    HW118647   2.357   0.474   8.072  1.1915  0.0785 -1.3301
 2396SOL    HW218648   2.218   0.531   8.081  1.0342 -0.6760  0.3702
 2397SOL     OW18649   1.644   3.530   6.746 -0.0907 -0.0515  0.2895
 2397SOL    HW118650   1.649   3.486   6.830 -1.1680  0.3638  0.5718
 2397SOL    HW218651   1.665   3.620   6.772  1.9543 -1.3127  2.9567
 2398SOL     OW18652   4.300   1.680   2.793 -0.0996  0.8464  0.3541
 2398SOL    HW118653   4.389   1.650   2.775 -0.6278 -0.5892  0.1045
 2398SOL    HW218654   4.294   1.764   2.749 -1.1061  1.1066  0.9849
 2399SOL     OW18655   2.646   0.211  14.040  0.3263  0.6752  0.3199
 2399SOL    HW118656   2.721   0.262  14.070  0.8955  0.2753 -0.4363
 2399SOL    HW218657   2.582   0.235  14.106  0.4141 -0.1330  0.7033
 2400SOL     OW18658   3.637   2.826   5.535 -0.5053  0.3368  0.2776
 2400SOL    HW118659   3.575   2.834   5.462 -0.1987  2.3103  0.2380
 2400SOL    HW218660   3.657   2.733   5.536  0.1137  0.4982  1.6495
 2401SOL     OW18661   2.613   0.758   1.997 -0.0975 -0.1989  0.4623
 2401SOL    HW118662   2.653   0.736   2.081 -1.5632  0.0210  1.2294
 2401SOL    HW218663   2.679   0.803   1.944  0.0408  0.8718  1.5468
 2402SOL     OW18664   0.408   0.065  10.454 -0.7594 -0.1553 -0.5629
 2402SOL    HW118665   0.451   0.109  10.527 -0.7695 -1.3442  0.1474
 2402SOL    HW218666   0.342   0.010  10.497 -2.3043  0.1364 -2.5259
 2403SOL     OW18667   1.757   3.875   5.145  0.1869 -0.2829 -0.3924
 2403SOL    HW118668   1.662   3.870   5.155 -0.2231 -1.4308 -4.6114
 2403SOL    HW218669   1.777   3.870   5.238  2.2330  0.6306 -0.7840
 2404SOL     OW18670   1.376   2.335   8.112 -0.4078  0.5026  0.6717
 2404SOL    HW118671   1.283   2.327   8.089 -0.7829 -2.1677  3.0638
 2404SOL    HW218672   1.396   2.423   8.080  1.4707  0.1687  0.9297
 2405SOL     OW18673   4.026   2.794   8.696  0.2642  0.1032  0.8582
 2405SOL    HW118674   4.037   2.705   8.728 -1.2269 -0.5366 -0.3947
 2405SOL    HW218675   3.963   2.825   8.761 -1.7571 -0.9262 -0.6181
 2406SOL     OW18676   1.430   1.303   6.869  0.3024  0.1092 -0.2331
 2406SOL    HW118677   1.392   1.217   6.887  0.9752  0.8825  4.9194
 2406SOL    HW218678   1.365   1.359   6.912  0.8873  0.6039  0.0233
 2407SOL     OW18679   4.271   3.358   9.531  0.0567 -0.4919 -0.0094
 2407SOL    HW118680   4.227   3.434   9.568 -0.0041  0.0884 -1.2725
 2407SOL    HW218681   4.298   3.319   9.614  0.6347  1.7890  0.8756
 2408SOL     OW18682   0.934   2.938   2.028 -0.3130 -0.0253 -0.0877
 2408SOL    HW118683   0.880   2.942   1.950  2.2782 -0.6320 -1.8861
 2408SOL    HW218684   0.953   2.845   2.036  1.6994  0.3813 -0.1565
 2409SOL     OW18685   3.989   3.770   5.571 -0.5695  0.2107 -0.5907
 2409SOL    HW118686   4.031   3.746   5.653 -2.7127 -0.7482  0.2134
 2409SOL    HW218687   4.041   3.710   5.517 -0.1415  2.2469 -2.4568
 2410SOL     OW18688   1.819   0.825   4.498 -0.4108  0.3868 -0.3421
 2410SOL    HW118689   1.739   0.776   4.515 -0.0070 -0.0456  0.3043
 2410SOL    HW218690   1.883   0.764   4.461  0.9731  1.2159  0.6713
 2411SOL     OW18691   4.501   4.244   8.236  0.6513  0.0846 -0.0825
 2411SOL    HW118692   4.576   4.201   8.277  2.3654  2.6049 -0.5451
 2411SOL    HW218693   4.529   4.252   8.145  0.0056 -1.3682 -0.4093
 2412SOL     OW18694   2.412   3.517  14.944 -0.5816 -0.0689  0.5165
 2412SOL    HW118695   2.382   3.601  14.908  1.2962  0.4560  0.1632
 2412SOL    HW218696   2.411   3.540  15.038 -0.6952 -3.2302  1.2645
 2413SOL     OW18697   1.769   2.571  13.888  0.0773  0.4147 -0.5960
 2413SOL    HW118698   1.807   2.633  13.950  1.5502 -1.4697  0.3814
 2413SOL    HW218699   1.713   2.631  13.839 -2.2077 -1.0379  0.2611
 2414SOL     OW18700   2.212   2.882  12.048  0.6027  0.2314  0.3055
 2414SOL    HW118701   2.277   2.918  12.108  1.4799  1.6250 -1.4677
 2414SOL    HW218702   2.216   2.947  11.978  0.3553  1.0577  1.0521
 2415SOL     OW18703   1.060   2.584   3.833  0.1928 -0.2449 -0.1900
 2415SOL    HW118704   1.109   2.579   3.751  1.2103  2.4867  0.2487
 2415SOL    HW218705   1.023   2.672   3.829  1.5886  0.5323  3.6685
 2416SOL     OW18706   2.697   2.986   4.206  0.4129  0.0431 -0.2244
 2416SOL    HW118707   2.745   2.973   4.123  1.2477  0.2768  0.2186
 2416SOL    HW218708   2.763   2.966   4.272 -0.3891 -1.4534  0.0989
 2417SOL     OW18709   3.698   2.410   8.326 -0.3372  0.1545  0.1769
 2417SOL    HW118710   3.772   2.441   8.379 -0.0988 -1.5071  0.8319
 2417SOL    HW218711   3.619   2.435   8.374  1.8204  1.7360  2.9630
 2418SOL     OW18712   2.716   1.264   4.782 -0.2484 -0.4297 -0.5099
 2418SOL    HW118713   2.773   1.284   4.708 -2.5549 -0.5036 -2.2816
 2418SOL    HW218714   2.751   1.177   4.803  0.7548 -0.1535 -1.0087
 2419SOL     OW18715   3.360   2.836  17.047  0.3995  0.3389  0.5130
 2419SOL    HW118716   3.446   2.873  17.070  0.0019  0.5513  1.6566
 2419SOL    HW218717   3.315   2.916  17.019  1.0625  1.3019  2.1837
 2420SOL     OW18718   2.090   2.183   8.333 -0.7061  0.4284  0.4135
 2420SOL    HW118719   2.010   2.229   8.307 -1.3745 -0.0326  1.6593
 2420SOL    HW218720   2.155   2.205   8.266 -0.0248  2.7644  1.8653
 2421SOL     OW18721   1.511   4.503   8.359 -0.0297  0.3123  0.4063
 2421SOL    HW118722   1.532   4.410   8.353 -0.1130  0.3692 -0.9350
 2421SOL    HW218723   1.472   4.508   8.446 -2.4583 -0.6311 -0.6098
 2422SOL     OW18724   1.612   2.248  16.732 -0.1123 -0.1733  0.0745
 2422SOL    HW118725   1.629   2.291  16.648 -1.6685  1.7877  0.7416
 2422SOL    HW218726   1.521   2.222  16.717 -0.4316 -0.0971  1.8812
 2423SOL     OW18727   4.319   1.271   2.810 -0.0467  0.6968  0.2696
 2423SOL    HW118728   4.372   1.295   2.886 -1.1250 -0.6459  1.4413
 2423SOL    HW218729   4.382   1.236   2.747  0.3400  0.1440  0.9685
 2424SOL     OW18730   1.526   3.860   2.510 -0.0184  0.4700 -0.6266
 2424SOL    HW118731   1.537   3.770   2.541 -0.2884 -0.0634 -2.1023
 2424SOL    HW218732   1.611   3.883   2.473 -0.7401 -0.8469 -3.1006
 2425SOL     OW18733   3.492   1.424   2.009  0.0704  0.8875  0.3524
 2425SOL    HW118734   3.473   1.376   1.928 -0.0713 -0.8098  1.3922
 2425SOL    HW218735   3.588   1.431   2.007  0.2270 -1.3870  0.0929
 2426SOL     OW18736   0.454   1.279   4.855  0.2177  0.4681  0.2431
 2426SOL    HW118737   0.365   1.248   4.842 -0.4214  2.1389  0.6751
 2426SOL    HW218738   0.464   1.372   4.834 -1.1222  0.5965  0.2095
 2427SOL     OW18739   1.772   2.547  16.952 -0.2319  0.0394  0.0178
 2427SOL    HW118740   1.774   2.638  16.920 -1.0295  0.9951  2.7065
 2427SOL    HW218741   1.823   2.518  16.876  1.2893 -0.0383  1.0731
 2428SOL     OW18742   2.610   1.740   3.408  0.4647 -0.4135  0.1321
 2428SOL    HW118743   2.643   1.667   3.461  0.6804 -0.5647 -0.2087
 2428SOL    HW218744   2.657   1.817   3.438 -1.3849  0.8153 -0.1592
 2429SOL     OW18745   4.267   0.536   8.156  0.1293 -0.4068  0.9157
 2429SOL    HW118746   4.323   0.505   8.226 -1.0815 -2.0189  1.1743
 2429SOL    HW218747   4.228   0.451   8.134 -0.1167 -0.5658  1.9896
 2430SOL     OW18748   0.868   1.923   3.591 -0.6313  0.3939 -0.2089
 2430SOL    HW118749   0.835   1.838   3.622 -0.3074 -0.3557 -1.9239
 2430SOL    HW218750   0.957   1.891   3.583 -1.0593 -1.3961  2.1142
 2431SOL     OW18751   2.063   2.242   2.229  0.0612  0.1749  0.0982
 2431SOL    HW118752   2.117   2.240   2.150 -2.0112 -1.5949 -1.2795
 2431SOL    HW218753   1.994   2.299   2.195 -1.5572 -0.3713  2.4767
 2432SOL     OW18754   3.598   4.054   7.940  0.4511 -0.2937  0.0967
 2432SOL    HW118755   3.575   4.034   8.031  0.8812  2.8093  0.8999
 2432SOL    HW218756   3.689   4.029   7.950  0.3031 -0.1316  1.9157
 2433SOL     OW18757   3.926   4.535   6.797 -0.6765  0.3143 -0.1235
 2433SOL    HW118758   3.935   4.445   6.767  0.6278 -0.5181  2.7478
 2433SOL    HW218759   3.870   4.530   6.874 -0.0549  2.2764  0.4674
 2434SOL     OW18760   3.649   0.896   9.087 -0.0951 -0.1324  0.3665
 2434SOL    HW118761   3.577   0.936   9.037  1.3646  1.7197 -0.2365
 2434SOL    HW218762   3.593   0.853   9.151 -0.8974  1.3601  0.6584
 2435SOL     OW18763   3.623   4.140  11.806  0.4051  0.0645 -0.5736
 2435SOL    HW118764   3.589   4.082  11.737 -1.0397 -2.9804  2.7133
 2435SOL    HW218765   3.712   4.105  11.801 -0.2775 -1.6024 -1.0270
 2436SOL     OW18766   1.413   0.831   1.429  0.4293  0.3133 -0.4305
 2436SOL    HW118767   1.435   0.919   1.397  0.3087 -0.3702 -2.4243
 2436SOL    HW218768   1.343   0.811   1.367  0.3735  1.2141 -0.6621
 2437SOL     OW18769   2.427   0.033   7.208  0.0665 -0.5069 -0.3002
 2437SOL    HW118770   2.447   4.709   7.288 -0.7921 -2.2143 -1.1168
 2437SOL    HW218771   2.514   0.070   7.195  0.1811 -0.6679  0.0077
 2438SOL     OW18772   2.955   3.521  12.824  0.2004  0.1345  0.1531
 2438SOL    HW118773   2.929   3.433  12.852  1.7582  0.0479  1.2936
 2438SOL    HW218774   3.038   3.526  12.871 -1.2046  0.2404  2.6032
 2439SOL     OW18775   4.383   3.467  11.527 -0.5518  0.2061  0.2728
 2439SOL    HW118776   4.411   3.480  11.437  0.9169  1.1537  0.8828
 2439SOL    HW218777   4.294   3.502  11.528 -0.3232  0.7275  3.4598
 2440SOL     OW18778   1.125   2.959   5.249  0.3508 -0.5330 -0.2386
 2440SOL    HW118779   1.203   2.906   5.266  0.1375 -1.1437 -1.1368
 2440SOL    HW218780   1.116   2.945   5.155  2.7460  0.8657 -0.6662
 2441SOL     OW18781   1.939   0.300   4.006  0.3231  0.0247 -0.1650
 2441SOL    HW118782   2.001   0.318   4.076 -0.1136 -1.4303  0.6012
 2441SOL    HW218783   1.880   0.243   4.055  2.0459 -1.0142  0.7018
 2442SOL     OW18784   1.352   2.971   6.560  0.0409 -0.0188 -0.1850
 2442SOL    HW118785   1.376   3.041   6.620 -2.1205  0.3517  0.2434
 2442SOL    HW218786   1.266   3.001   6.530 -0.4605 -0.0912  1.1779
 2443SOL     OW18787   1.001   2.822   3.358  0.3773  0.3851 -0.0909
 2443SOL    HW118788   0.945   2.861   3.424  0.0937 -1.1056  0.5620
 2443SOL    HW218789   0.935   2.806   3.290 -0.6168  0.7285  0.8016
 2444SOL     OW18790   4.124   3.942   9.314  0.7749 -0.4744  0.3218
 2444SOL    HW118791   4.067   4.017   9.298 -1.2107 -1.7815  1.2680
 2444SOL    HW218792   4.090   3.884   9.246  1.3203 -0.2334 -0.1556
 2445SOL     OW18793   1.188   0.477   8.000 -0.0746 -0.1777  0.3579
 2445SOL    HW118794   1.132   0.427   8.059 -0.2141 -0.5975 -0.1264
 2445SOL    HW218795   1.150   0.475   7.913 -0.1298 -2.2053  0.4378
 2446SOL     OW18796   3.918   3.333   1.779 -0.3603  0.0352 -0.0456
 2446SOL    HW118797   4.005   3.363   1.751  1.1247 -2.9169  1.3499
 2446SOL    HW218798   3.928   3.347   1.874 -1.4398  0.4531  0.0050
 2447SOL     OW18799   2.025   1.459   6.193  0.1474  0.1467  0.2404
 2447SOL    HW118800   2.107   1.463   6.241  0.0296 -3.2651  0.7387
 2447SOL    HW218801   2.040   1.380   6.141 -0.8402 -0.1546  0.4058
 2448SOL     OW18802   3.294   1.667   8.147 -0.2239 -0.2503  0.3805
 2448SOL    HW118803   3.311   1.692   8.238 -0.6280 -0.8191  0.6108
 2448SOL    HW218804   3.272   1.578   8.174 -0.5816 -0.7670 -1.6695
 2449SOL     OW18805   4.645   2.220   5.238 -0.0141 -0.1818 -0.2608
 2449SOL    HW118806   4.694   2.237   5.158 -0.9799 -0.2273 -0.8629
 2449SOL    HW218807   4.559   2.258   5.220 -0.0377 -1.2308 -2.4205
 2450SOL     OW18808   2.258   0.575   6.039 -0.2695  0.0415 -0.1333
 2450SOL    HW118809   2.188   0.549   6.098  0.8683  0.4255  1.3881
 2450SOL    HW218810   2.335   0.525   6.066 -0.0647  0.3219 -0.1886
 2451SOL     OW18811   0.402   1.689   6.686  0.3227  0.3195  0.2379
 2451SOL    HW118812   0.323   1.704   6.634  1.1787 -1.8287 -1.6437
 2451SOL    HW218813   0.436   1.611   6.643 -0.0568  0.2198  0.1227
 2452SOL     OW18814   2.371   4.230   5.463 -0.0389  0.7021 -0.1012
 2452SOL    HW118815   2.331   4.242   5.376  0.4817  1.3964 -0.2456
 2452SOL    HW218816   2.339   4.142   5.485  2.4058 -0.3062 -0.5875
 2453SOL     OW18817   2.996   1.891   4.124  0.2459  0.1247 -0.1981
 2453SOL    HW118818   3.024   1.911   4.034 -2.7277  0.7625 -0.9738
 2453SOL    HW218819   2.967   1.977   4.156 -0.7877 -1.2066  2.4127
 2454SOL     OW18820   3.563   4.521   6.950 -0.4758 -0.5290  0.1709
 2454SOL    HW118821   3.525   4.459   6.887 -0.0067  0.7289 -1.3425
 2454SOL    HW218822   3.647   4.484   6.977  0.7018  3.3702  1.8344
 2455SOL     OW18823   0.011   0.402   5.834  0.3043 -0.0650  0.0732
 2455SOL    HW118824   0.053   0.343   5.896 -1.1308 -0.9983  0.1655
 2455SOL    HW218825   0.088   0.444   5.796 -0.0039  1.2360  0.8881
 2456SOL     OW18826   4.253   0.858   0.584 -0.0910 -0.3865  0.2239
 2456SOL    HW118827   4.259   0.773   0.627 -0.7072  0.0409  1.1260
 2456SOL    HW218828   4.344   0.865   0.555  0.2170 -1.5681  0.9272
 2457SOL     OW18829   4.634   0.090   7.520 -0.5013 -0.3695 -0.2704
 2457SOL    HW118830   4.607   0.150   7.589 -1.8261  1.0217 -1.9919
 2457SOL    HW218831   4.601   0.129   7.439 -1.3185 -0.3859  0.0605
 2458SOL     OW18832   4.054   3.742   6.398  0.1564  0.1510  0.5963
 2458SOL    HW118833   4.007   3.732   6.315  0.9220  1.8244 -0.0216
 2458SOL    HW218834   4.009   3.818   6.435 -1.5795 -1.4674  1.8246
 2459SOL     OW18835   2.194   0.561   2.390 -0.3702 -0.2192  0.0126
 2459SOL    HW118836   2.260   0.551   2.458  0.0678 -1.8191 -0.6682
 2459SOL    HW218837   2.245   0.632   2.350  1.1410 -0.8414  0.8360
 2460SOL     OW18838   2.101   4.576   5.263 -0.6405 -0.0794  0.3972
 2460SOL    HW118839   2.109   4.668   5.240  1.2309 -0.7131 -1.5291
 2460SOL    HW218840   2.133   4.571   5.353 -1.1260  0.4523  0.5982
 2461SOL     OW18841   2.093   3.984  15.241 -0.1427 -0.0501  0.0163
 2461SOL    HW118842   2.028   3.950  15.180  0.9456  1.3845 -1.9726
 2461SOL    HW218843   2.042   4.042  15.296  0.4575  0.4350  0.0611
 2462SOL     OW18844   2.384   0.005   4.973  0.8316 -0.5403  0.9194
 2462SOL    HW118845   2.433   4.696   4.897 -0.1398  1.0888 -0.4341
 2462SOL    HW218846   2.361   0.088   4.931  1.6956  0.0226  1.5705
 2463SOL     OW18847   2.477   3.720   3.857 -0.0205 -0.0536  0.3064
 2463SOL    HW118848   2.456   3.684   3.943  0.2972  0.3630  0.5556
 2463SOL    HW218849   2.392   3.717   3.813 -0.5961 -0.9838  1.4888
 2464SOL     OW18850   3.959   0.009   8.511  0.4141  0.5470 -0.3877
 2464SOL    HW118851   3.930   0.043   8.595  1.9279 -0.5521  0.5916
 2464SOL    HW218852   4.021   4.663   8.529 -1.0084 -1.0237 -1.5785
 2465SOL     OW18853   1.687   2.117   6.413  0.5902 -0.5884 -0.6034
 2465SOL    HW118854   1.624   2.158   6.354  1.8145  1.8477 -0.2746
 2465SOL    HW218855   1.736   2.198   6.429  2.1530 -1.3054 -1.8103
 2466SOL     OW18856   2.196   3.710   3.495  0.2356  0.1109  0.1875
 2466SOL    HW118857   2.265   3.751   3.443  1.0128 -0.3393  0.8484
 2466SOL    HW218858   2.140   3.669   3.429 -0.5172 -0.5735  1.2501
 2467SOL     OW18859   3.888   2.900  12.991 -0.0905  0.4736  0.3080
 2467SOL    HW118860   3.983   2.902  12.982 -0.1712 -0.5054 -0.7580
 2467SOL    HW218861   3.864   2.827  12.933  1.0824  0.1725  0.2061
 2468SOL     OW18862   2.097   0.197  16.586  0.1605 -0.1477 -0.3277
 2468SOL    HW118863   2.047   0.239  16.656 -0.8822 -0.7828 -0.6839
 2468SOL    HW218864   2.148   0.133  16.635  0.8559  1.1866  0.6882
 2469SOL     OW18865   3.909   0.081  15.623 -0.3734  0.2767  0.3469
 2469SOL    HW118866   3.846   0.014  15.594  0.8401  0.4044 -2.6004
 2469SOL    HW218867   3.950   0.105  15.540  0.5161 -0.3218  0.6067
 2470SOL     OW18868   2.677   1.132   5.798  0.0182 -0.1646 -0.7561
 2470SOL    HW118869   2.713   1.153   5.884  0.8297 -0.4900 -1.0092
 2470SOL    HW218870   2.602   1.078   5.822 -0.2405  1.0677  1.2412
 2471SOL     OW18871   4.084   3.150   3.989  0.2286 -0.3064  0.7601
 2471SOL    HW118872   4.142   3.191   3.924 -1.2516 -1.7759 -1.4735
 2471SOL    HW218873   4.092   3.208   4.065 -0.4754 -0.5017  0.9870
 2472SOL     OW18874   2.189   3.602   7.578  0.0774  0.4023 -0.4112
 2472SOL    HW118875   2.207   3.519   7.534  1.3881 -0.5621  1.9541
 2472SOL    HW218876   2.127   3.649   7.521 -0.5805  0.2697  0.1950
 2473SOL     OW18877   0.214   4.102   7.073  0.1078  0.0789  0.4125
 2473SOL    HW118878   0.224   4.010   7.051  0.3856  0.2019  0.0312
 2473SOL    HW218879   0.251   4.145   6.996 -0.7939 -0.1281 -0.1315
 2474SOL     OW18880   1.352   4.072   5.552 -0.5606  0.4429  0.1485
 2474SOL    HW118881   1.415   4.081   5.481  0.5345 -0.3153  1.0220
 2474SOL    HW218882   1.400   4.127   5.614 -0.5896 -0.7643  1.2569
 2475SOL     OW18883   1.856   2.173   6.693  0.4465  0.0543 -0.1596
 2475SOL    HW118884   1.867   2.095   6.748 -0.9741 -0.6029 -0.8114
 2475SOL    HW218885   1.942   2.212   6.709 -0.4425  2.0637 -0.3592
 2476SOL     OW18886   4.478   1.396  17.430  0.0957 -0.4750  0.2719
 2476SOL    HW118887   4.465   1.454  17.355  1.5567 -2.4966 -1.5528
 2476SOL    HW218888   4.391   1.358  17.430 -0.1312  0.0456  0.2725
 2477SOL     OW18889   4.215   2.508   4.711 -0.3967  0.0450 -0.0722
 2477SOL    HW118890   4.250   2.476   4.795  0.1262 -1.4296 -0.8476
 2477SOL    HW218891   4.291   2.476   4.662 -0.8853 -0.5587 -0.4252
 2478SOL     OW18892   1.859   0.754   7.248 -0.7894 -0.2636 -0.1431
 2478SOL    HW118893   1.838   0.684   7.310  1.7681  0.0100  1.0374
 2478SOL    HW218894   1.782   0.808   7.263 -0.0713 -0.0720  2.9620
 2479SOL     OW18895   4.600   2.435   6.766 -0.3069  0.2715 -0.3183
 2479SOL    HW118896   4.559   2.393   6.841  1.9520 -1.0441  0.1786
 2479SOL    HW218897   4.526   2.465   6.713 -0.0755 -0.0858 -0.8476
 2480SOL     OW18898   0.758   1.644   4.920  0.5692 -0.2674 -0.1542
 2480SOL    HW118899   0.689   1.700   4.956  1.6155  1.6578 -1.1509
 2480SOL    HW218900   0.808   1.703   4.864  0.2984 -2.4625 -2.6988
 2481SOL     OW18901   3.294   3.014   7.592 -0.3030  0.2963  0.4813
 2481SOL    HW118902   3.281   3.023   7.686  1.3478 -0.2162  0.7568
 2481SOL    HW218903   3.299   3.101   7.552  0.5420 -0.6051 -1.4087
 2482SOL     OW18904   3.379   1.079  17.292  1.1555 -0.4252 -0.2917
 2482SOL    HW118905   3.381   1.166  17.252  1.8743  0.1667  1.0111
 2482SOL    HW218906   3.448   1.090  17.358  0.5636  3.3777 -0.2903
 2483SOL     OW18907   2.617   3.650  12.413  0.0681  0.4951  0.1617
 2483SOL    HW118908   2.700   3.697  12.423  0.1688  0.0745  1.3170
 2483SOL    HW218909   2.548   3.715  12.422 -1.5289 -1.4601  2.1827
 2484SOL     OW18910   1.511   2.676   3.097  0.4895  0.1830  0.0269
 2484SOL    HW118911   1.420   2.680   3.127 -0.0208 -1.2007 -1.3126
 2484SOL    HW218912   1.502   2.706   3.006 -0.2763  0.8210  0.3138
 2485SOL     OW18913   3.355   4.097   4.257  0.2837 -0.0201  0.6957
 2485SOL    HW118914   3.340   4.071   4.166  0.5021 -0.7852  0.8764
 2485SOL    HW218915   3.396   4.017   4.290  0.9370 -0.9321 -2.2468
 2486SOL     OW18916   4.349   2.026   8.671 -0.5006 -0.2886 -0.0017
 2486SOL    HW118917   4.351   2.105   8.724  0.3823  1.1388 -2.1673
 2486SOL    HW218918   4.442   2.004   8.664 -0.2863  0.8298 -0.6165
 2487SOL     OW18919   1.270   2.233   4.470 -0.2736  0.3218  0.0654
 2487SOL    HW118920   1.205   2.164   4.460  0.4230 -0.6892  2.6457
 2487SOL    HW218921   1.282   2.253   4.562  0.4725 -2.1712  0.5129
 2488SOL     OW18922   0.130   3.257  12.043 -0.5900  0.1145 -0.0054
 2488SOL    HW118923   0.120   3.247  11.948  0.4823 -0.0137 -0.1055
 2488SOL    HW218924   0.131   3.352  12.055  0.0615  0.2406 -1.0463
 2489SOL     OW18925   4.195   1.544   4.766  0.2368  0.1769 -0.4471
 2489SOL    HW118926   4.161   1.611   4.707 -2.1241  0.2409  0.9819
 2489SOL    HW218927   4.181   1.468   4.709 -0.3437 -0.9566  1.2212
 2490SOL     OW18928   3.299   4.321   4.780 -0.2587 -0.0288  0.1952
 2490SOL    HW118929   3.351   4.242   4.767 -1.0923 -0.3063 -1.4502
 2490SOL    HW218930   3.361   4.389   4.756  1.7690 -1.1509  2.3062
 2491SOL     OW18931   2.204   2.134   0.339  0.3480  0.2981 -0.1010
 2491SOL    HW118932   2.261   2.062   0.366 -0.0090  0.4082  0.9806
 2491SOL    HW218933   2.272   2.200   0.329  0.4130  0.8992  4.1697
 2492SOL     OW18934   0.568   2.449   6.530  0.1691 -1.1861 -0.3032
 2492SOL    HW118935   0.661   2.463   6.547  0.3130 -0.1657 -1.9558
 2492SOL    HW218936   0.571   2.385   6.459  0.4165 -1.0216 -0.4410
 2493SOL     OW18937   0.182   0.531  13.562  0.0986 -0.1684  0.7245
 2493SOL    HW118938   0.121   0.598  13.532  1.2548 -0.2993 -1.8826
 2493SOL    HW218939   0.258   0.586  13.579 -0.5119  1.1041 -0.7523
 2494SOL     OW18940   1.994   1.860   7.573  0.5706 -0.3099  0.0109
 2494SOL    HW118941   2.065   1.810   7.533 -0.4227 -3.0241  1.6231
 2494SOL    HW218942   1.972   1.816   7.656 -0.3946  2.0650  1.0151
 2495SOL     OW18943   3.073   2.555  16.590  0.4264  0.1951 -0.0587
 2495SOL    HW118944   3.069   2.530  16.498 -0.6595  0.2518 -0.0268
 2495SOL    HW218945   2.987   2.527  16.619  0.0227  0.5405 -0.9094
 2496SOL     OW18946   0.701   0.738   4.252  0.1320 -0.4085 -0.1057
 2496SOL    HW118947   0.787   0.723   4.212  0.3329  1.2104 -0.2734
 2496SOL    HW218948   0.650   0.673   4.203  0.4853 -0.3152 -0.5967
 2497SOL     OW18949   0.810   3.405   3.265  0.4452  0.2041  0.4383
 2497SOL    HW118950   0.773   3.437   3.347 -0.2548 -0.7193  0.4762
 2497SOL    HW218951   0.899   3.441   3.255 -0.0338  0.5896 -2.4072
 2498SOL     OW18952   1.280   2.009   4.259 -0.5128  0.0635  0.0764
 2498SOL    HW118953   1.292   1.992   4.352 -1.3428 -2.0893 -0.2011
 2498SOL    HW218954   1.299   1.924   4.218 -0.5577 -0.1183  0.4268
 2499SOL     OW18955   2.107   3.377   1.905 -0.7491 -0.5922 -0.1622
 2499SOL    HW118956   2.111   3.439   1.832 -1.1300 -2.0439 -1.4167
 2499SOL    HW218957   2.186   3.323   1.899  0.1492  0.6639  0.4377
 2500SOL     OW18958   0.674   3.535   4.205 -0.2463 -0.2810  0.1114
 2500SOL    HW118959   0.601   3.483   4.238 -0.0445  0.8602  2.3540
 2500SOL    HW218960   0.637   3.623   4.196 -0.8704 -0.2655  2.9552
 2501SOL     OW18961   1.131   0.094   7.954 -0.4306  0.5584  0.2512
 2501SOL    HW118962   1.069   0.140   8.010 -1.2960 -0.0817 -0.1693
 2501SOL    HW218963   1.087   0.099   7.869 -3.3330  2.5989  1.8594
 2502SOL     OW18964   3.591   0.295   6.740  0.2697 -0.2443  0.1268
 2502SOL    HW118965   3.498   0.315   6.727  0.1588 -0.7944  0.0690
 2502SOL    HW218966   3.642   0.335   6.670  2.6408 -3.6107 -0.0704
 2503SOL     OW18967   4.473   3.066   9.119  0.5100  0.0795 -0.2394
 2503SOL    HW118968   4.476   3.040   9.211  0.8857  0.9854  0.0099
 2503SOL    HW218969   4.382   3.050   9.095  0.4282  0.6790 -0.3370
 2504SOL     OW18970   0.706   2.479   7.968  1.0989  0.3479  0.2965
 2504SOL    HW118971   0.747   2.488   7.882  0.5423 -0.5469 -0.0637
 2504SOL    HW218972   0.746   2.402   8.007  0.2635  0.1072  0.6684
 2505SOL     OW18973   1.947   0.384   8.478 -0.4244 -0.3866  0.1394
 2505SOL    HW118974   1.854   0.391   8.499 -0.1960  2.8015  0.0212
 2505SOL    HW218975   1.992   0.382   8.563  1.0992  2.2610 -0.6106
 2506SOL     OW18976   1.577   3.345   0.906 -0.1647 -0.1044  0.3771
 2506SOL    HW118977   1.660   3.372   0.945  1.5393  0.6724 -3.7424
 2506SOL    HW218978   1.539   3.427   0.873  0.3840  0.1202  0.2927
 2507SOL     OW18979   3.154   4.557   1.336  0.0015 -0.0225 -0.4337
 2507SOL    HW118980   3.236   4.560   1.287 -0.3066  0.6056 -0.9124
 2507SOL    HW218981   3.157   4.464   1.358  0.1992  0.1349  0.1961
 2508SOL     OW18982   1.069   1.237   3.983  0.1448  0.4725 -0.3034
 2508SOL    HW118983   1.010   1.279   4.046 -0.5971  0.8477 -1.2448
 2508SOL    HW218984   1.152   1.229   4.030  1.4171  0.5199 -2.5525
 2509SOL     OW18985   4.503   1.754   1.997 -0.3091 -0.5347  0.1459
 2509SOL    HW118986   4.432   1.734   2.057 -0.2134  1.6154  0.9948
 2509SOL    HW218987   4.565   1.802   2.052  0.8179 -1.6616 -0.1346
 2510SOL     OW18988   0.972   0.039   7.342  0.2239  0.8541  0.2397
 2510SOL    HW118989   1.037   4.718   7.396  1.0941 -0.3303 -1.7828
 2510SOL    HW218990   0.906   0.067   7.405  1.0547  0.2981  1.3534
 2511SOL     OW18991   0.824   4.629   3.465  0.0513 -0.2108  0.0132
 2511SOL    HW118992   0.802   4.671   3.382 -1.2064 -1.0562 -0.0668
 2511SOL    HW218993   0.744   4.580   3.480 -1.0374  0.7691 -2.6980
 2512SOL     OW18994   1.161   3.860   8.329 -0.2155 -0.0265  0.8323
 2512SOL    HW118995   1.119   3.912   8.260  2.1461  0.1398 -0.5089
 2512SOL    HW218996   1.178   3.778   8.284  0.3073  0.1754  0.6539
 2513SOL     OW18997   2.719   1.793   3.768  0.0937 -0.0790 -0.4255
 2513SOL    HW118998   2.795   1.812   3.712  1.0138 -1.5170  0.3531
 2513SOL    HW218999   2.733   1.699   3.780  3.2858  0.5090  0.6089
 2514SOL     OW19000   4.360   0.910   7.061 -0.4066 -0.1060  0.3035
 2514SOL    HW119001   4.393   0.934   6.975  2.5492 -0.4362  1.3604
 2514SOL    HW219002   4.271   0.944   7.057  1.1731  3.9695  0.3626
 2515SOL     OW19003   0.769   1.238   7.336 -0.4477  0.4198  0.3626
 2515SOL    HW119004   0.825   1.161   7.349 -0.4226  0.2933 -0.4781
 2515SOL    HW219005   0.823   1.310   7.306  0.1515  0.2109  0.9414
 2516SOL     OW19006   3.147   3.104  13.041 -0.0904 -0.0176  0.2067
 2516SOL    HW119007   3.169   3.082  12.950  2.6680  2.1996  0.3549
 2516SOL    HW219008   3.171   3.196  13.051  1.7549 -0.7670  2.8406
 2517SOL     OW19009   3.180   2.281  16.693  0.1089  0.6566  0.1110
 2517SOL    HW119010   3.229   2.229  16.629  0.4449  0.5095  0.4855
 2517SOL    HW219011   3.199   2.371  16.669 -3.5008  1.4450  0.1807
 2518SOL     OW19012   1.656   0.125   4.384 -0.0811  0.0957 -0.1561
 2518SOL    HW119013   1.706   0.118   4.465 -0.3045  0.0762 -0.0207
 2518SOL    HW219014   1.610   0.207   4.403 -0.3406  0.1581 -1.0687
 2519SOL     OW19015   2.638   2.261  16.763 -0.0710 -0.2417 -0.3318
 2519SOL    HW119016   2.656   2.313  16.841  0.1813 -0.2555 -0.3808
 2519SOL    HW219017   2.543   2.259  16.762 -0.1125  1.7835  3.2688
 2520SOL     OW19018   4.714   2.082   6.684  0.7201  0.1139 -0.1174
 2520SOL    HW119019   0.011   2.069   6.776  0.8146  2.4353  0.1915
 2520SOL    HW219020   4.621   2.103   6.698  1.1569  1.4675  0.7713
 2521SOL     OW19021   1.831   3.786   1.746  0.8718 -0.1684 -0.2705
 2521SOL    HW119022   1.783   3.722   1.798 -1.5008  2.2489  0.5062
 2521SOL    HW219023   1.847   3.745   1.661 -0.0961  0.9917 -1.0062
 2522SOL     OW19024   0.858   4.210   2.826 -0.2836 -0.2195  0.0950
 2522SOL    HW119025   0.940   4.243   2.862 -1.3209  1.9143  0.5496
 2522SOL    HW219026   0.891   4.136   2.775  0.5105 -0.2283  0.6184
 2523SOL     OW19027   2.584   0.239   6.986 -0.2802 -0.0867  0.5696
 2523SOL    HW119028   2.600   0.217   7.078  4.5271  1.6634  0.1552
 2523SOL    HW219029   2.617   0.329   6.990 -0.5157 -0.1079  3.1488
 2524SOL     OW19030   2.836   1.140   0.777  0.0140 -0.1598  0.2316
 2524SOL    HW119031   2.831   1.152   0.872  1.6916 -1.0007  0.4335
 2524SOL    HW219032   2.915   1.088   0.764  1.0704  1.2434  1.0860
 2525SOL     OW19033   0.869   4.155   6.168 -0.2336 -0.2252  0.5501
 2525SOL    HW119034   0.909   4.080   6.124 -0.6714  0.0804 -0.3749
 2525SOL    HW219035   0.866   4.124   6.259  2.0761 -0.8129  0.4213
 2526SOL     OW19036   1.787   4.464   0.912  0.4072  0.1181 -0.0506
 2526SOL    HW119037   1.745   4.546   0.939  1.4508  0.5641  0.2271
 2526SOL    HW219038   1.764   4.415   0.991  0.8483  0.2117  0.1364
 2527SOL     OW19039   2.418   2.039  12.262 -0.1949  0.4115  0.1992
 2527SOL    HW119040   2.349   2.105  12.267  0.3957  1.1616 -1.8194
 2527SOL    HW219041   2.487   2.083  12.213  1.4554 -1.4225  0.8717
 2528SOL     OW19042   0.532   2.928   5.356  0.5146  0.4611  0.1730
 2528SOL    HW119043   0.456   2.872   5.343  1.2351 -0.0057 -2.1659
 2528SOL    HW219044   0.567   2.892   5.437 -1.0009 -0.6139  0.3291
 2529SOL     OW19045   2.950   0.802  16.922  0.2421  0.5186 -0.1886
 2529SOL    HW119046   2.902   0.880  16.893 -0.3714 -0.4417 -1.7552
 2529SOL    HW219047   2.911   0.791  17.009  0.5218 -2.2811 -0.4461
 2530SOL     OW19048   3.601   3.471  13.832  0.2031  0.3273  0.1245
 2530SOL    HW119049   3.658   3.502  13.763 -0.0401  0.5337  0.0166
 2530SOL    HW219050   3.563   3.557  13.846  0.1764  0.9427 -3.7658
 2531SOL     OW19051   2.418   3.667   5.348 -0.0153 -0.1534 -0.7330
 2531SOL    HW119052   2.441   3.696   5.260  2.0866 -0.4093 -0.2763
 2531SOL    HW219053   2.333   3.708   5.366 -0.5646 -1.7135  0.2550
 2532SOL     OW19054   1.430   1.487   2.394 -0.0904 -0.0791  0.5951
 2532SOL    HW119055   1.497   1.550   2.420  0.4204  0.0293 -0.9922
 2532SOL    HW219056   1.436   1.486   2.299 -0.3116  0.0172  0.5794
 2533SOL     OW19057   1.261   0.755   8.357 -0.1437 -0.5417 -0.9215
 2533SOL    HW119058   1.289   0.664   8.371  0.5879 -0.1604  0.1301
 2533SOL    HW219059   1.172   0.742   8.325 -0.0894 -0.4929 -1.0893
 2534SOL     OW19060   1.651   0.262   3.551  0.0703 -0.0913  0.1385
 2534SOL    HW119061   1.686   0.198   3.613 -1.3395 -0.9063  0.0901
 2534SOL    HW219062   1.580   0.215   3.507  1.6864 -1.8625 -0.5765
 2535SOL     OW19063   0.456   4.440   1.007 -0.1071 -0.2628  0.1463
 2535SOL    HW119064   0.436   4.531   0.985  2.8186  0.1503 -0.7879
 2535SOL    HW219065   0.530   4.414   0.952  0.2400  0.9940  0.0160
 2536SOL     OW19066   1.803   2.782   5.338 -0.2187 -0.7304  0.4400
 2536SOL    HW119067   1.739   2.717   5.369  0.2524 -2.1102 -1.4936
 2536SOL    HW219068   1.851   2.807   5.418 -1.3305  0.6481  0.6900
 2537SOL     OW19069   4.535   2.165   3.161  0.6561  0.2129  0.0763
 2537SOL    HW119070   4.543   2.260   3.161  1.3750  0.1492  1.4831
 2537SOL    HW219071   4.453   2.143   3.117 -1.4449  1.5110  3.3372
 2538SOL     OW19072   0.873   4.176  16.431 -0.0345 -0.3103 -0.2041
 2538SOL    HW119073   0.952   4.151  16.478 -1.7476  0.1907  2.9326
 2538SOL    HW219074   0.871   4.099  16.374  0.6072 -2.1257  2.1960
 2539SOL     OW19075   0.395   0.709   2.241 -0.2906 -0.2992 -0.1442
 2539SOL    HW119076   0.472   0.662   2.274 -0.4006 -0.6478 -0.3905
 2539SOL    HW219077   0.383   0.776   2.309 -2.6911  1.2945 -2.1207
 2540SOL     OW19078   3.944   4.068  12.417  0.0307 -0.3802 -0.2396
 2540SOL    HW119079   4.035   4.051  12.439  0.5764  0.9396 -1.4771
 2540SOL    HW219080   3.904   3.997  12.467 -1.9638  0.5193 -0.5691
 2541SOL     OW19081   2.852   4.173  16.237 -0.1146 -0.0560 -0.1235
 2541SOL    HW119082   2.766   4.172  16.280  0.6797 -0.4046  1.4450
 2541SOL    HW219083   2.884   4.090  16.272  0.5643  1.3171  2.5263
 2542SOL     OW19084   1.249   1.189   3.443 -0.1509 -0.3349  0.6604
 2542SOL    HW119085   1.185   1.216   3.378  0.1640  0.4946  0.6967
 2542SOL    HW219086   1.222   1.098   3.453  0.0846 -0.6771 -1.8484
 2543SOL     OW19087   2.051   1.399  17.238 -0.1596 -0.0535 -0.6659
 2543SOL    HW119088   2.130   1.344  17.237  0.9741  1.6132 -1.2203
 2543SOL    HW219089   2.048   1.424  17.331 -0.0509 -0.0545 -0.6625
 2544SOL     OW19090   0.143   3.198  10.309 -0.2479 -0.4538 -0.0185
 2544SOL    HW119091   0.232   3.207  10.275 -1.1545 -0.2998 -2.3277
 2544SOL    HW219092   0.161   3.126  10.370  0.9422 -0.0439  0.1050
 2545SOL     OW19093   2.451   1.500   9.198  0.5762  0.5085 -0.6402
 2545SOL    HW119094   2.454   1.423   9.255  1.4439  0.7650 -0.3332
 2545SOL    HW219095   2.437   1.577   9.253  2.5159 -0.2170  0.9074
 2546SOL     OW19096   3.032   1.431  14.167  0.5036  0.5389 -0.8405
 2546SOL    HW119097   2.962   1.368  14.152  0.1213  0.4654  1.2998
 2546SOL    HW219098   3.100   1.366  14.184 -0.5525 -0.5320 -0.7470
 2547SOL     OW19099   4.315   2.087   3.025 -0.1164 -0.5204 -0.1919
 2547SOL    HW119100   4.232   2.120   2.991  0.0447  0.8728  0.7224
 2547SOL    HW219101   4.299   1.993   3.021  1.3090 -0.7872  0.3108
 2548SOL     OW19102   0.811   2.100   7.116  0.0700  0.6360  0.1619
 2548SOL    HW119103   0.883   2.052   7.075  0.4175  1.3981 -0.1210
 2548SOL    HW219104   0.842   2.094   7.206 -0.9428 -0.6371  0.4243
 2549SOL     OW19105   2.944   1.123   3.433 -0.1486  0.4357 -0.3148
 2549SOL    HW119106   2.856   1.092   3.409 -0.0327 -0.1846  0.0426
 2549SOL    HW219107   2.982   1.047   3.478 -1.5627 -0.2468 -0.2506
 2550SOL     OW19108   1.658   0.640   4.631 -0.3912 -0.0549  0.3761
 2550SOL    HW119109   1.624   0.702   4.696  1.8248  1.7004 -0.1337
 2550SOL    HW219110   1.586   0.578   4.618  2.0781 -2.8227 -0.1189
 2551SOL     OW19111   4.067   4.102  16.325  0.6646  0.9305 -0.0745
 2551SOL    HW119112   4.019   4.184  16.340 -0.1314  0.9989 -3.0000
 2551SOL    HW219113   4.039   4.076  16.237 -1.3793  0.9226  0.5728
 2552SOL     OW19114   3.043   3.345   0.336  0.4231 -0.1635 -0.5019
 2552SOL    HW119115   2.975   3.287   0.371 -0.0422  0.0022 -1.1312
 2552SOL    HW219116   3.111   3.352   0.403 -0.2314  4.1473 -0.2919
 2553SOL     OW19117   2.897   0.691  16.176 -0.4057  0.2870  0.5842
 2553SOL    HW119118   2.821   0.633  16.182  0.6715 -1.1317  0.4832
 2553SOL    HW219119   2.862   0.780  16.187  0.4081  0.7165 -0.2472
 2554SOL     OW19120   1.169   2.864   7.496  0.1395  0.6940 -0.2772
 2554SOL    HW119121   1.137   2.861   7.586  0.5263 -0.4165 -0.1813
 2554SOL    HW219122   1.240   2.801   7.501 -0.5359 -0.0470 -0.0386
 2555SOL     OW19123   4.328   2.703   2.128 -0.2960 -0.0488 -0.3994
 2555SOL    HW119124   4.397   2.769   2.123 -1.0108  0.8116  1.2867
 2555SOL    HW219125   4.298   2.694   2.037 -0.4355  1.5044 -0.4932
 2556SOL     OW19126   2.856   4.475   7.339  0.7016  0.0058 -0.3338
 2556SOL    HW119127   2.857   4.421   7.418 -0.5375 -3.2440 -2.5338
 2556SOL    HW219128   2.813   4.551   7.377 -1.0477 -0.6786 -0.9447
 2557SOL     OW19129   0.305   1.906   3.483 -0.3870  0.3116 -0.1466
 2557SOL    HW119130   0.212   1.895   3.464 -0.2811 -1.4386  0.3635
 2557SOL    HW219131   0.322   1.821   3.524 -1.6059  0.1161 -0.0536
 2558SOL     OW19132   2.283   2.939   2.840  0.0836 -0.5903 -0.1477
 2558SOL    HW119133   2.355   2.920   2.901 -0.7340 -1.0486  0.6656
 2558SOL    HW219134   2.326   2.974   2.762  1.2181 -0.3871  0.5704
 2559SOL     OW19135   0.439   0.965   2.042 -0.1643  0.0812  0.4552
 2559SOL    HW119136   0.402   0.881   2.014  0.4777  0.6031 -1.9791
 2559SOL    HW219137   0.390   0.980   2.122 -1.3278  1.6197 -0.5373
 2560SOL     OW19138   2.176   4.621  11.211  0.0409  0.4461  0.3983
 2560SOL    HW119139   2.179   4.605  11.116 -0.4514 -1.7757  0.7825
 2560SOL    HW219140   2.269   4.631  11.230 -0.1192 -1.8892  2.2580
 2561SOL     OW19141   3.432   2.704   1.665  0.0208 -0.4663 -0.4522
 2561SOL    HW119142   3.379   2.714   1.586 -0.1775  0.0260 -0.2536
 2561SOL    HW219143   3.368   2.717   1.735  2.2244 -0.2891  1.5171
 2562SOL     OW19144   3.824   0.468   4.737  0.2260  0.0436 -0.1406
 2562SOL    HW119145   3.881   0.392   4.730  1.3432  0.6867  1.9614
 2562SOL    HW219146   3.858   0.524   4.666  2.0070 -0.1146  0.5863
 2563SOL     OW19147   3.175   0.838   1.359  0.2299  0.3303  0.3535
 2563SOL    HW119148   3.199   0.824   1.450  0.0104 -0.2933  0.3181
 2563SOL    HW219149   3.085   0.805   1.361  0.6616 -1.0537 -2.0908
 2564SOL     OW19150   1.949   4.141   3.214 -0.5458 -0.1672  0.4405
 2564SOL    HW119151   1.953   4.226   3.170 -0.0177 -0.6461 -0.4215
 2564SOL    HW219152   1.854   4.125   3.213 -0.3295 -1.5476  1.9473
 2565SOL     OW19153   3.722   4.421  13.223  0.0014 -0.6036 -0.0551
 2565SOL    HW119154   3.815   4.442  13.217 -0.1066 -0.1758 -0.2438
 2565SOL    HW219155   3.687   4.510  13.217 -0.9933 -1.2152 -3.3722
 2566SOL     OW19156   0.351   4.621   9.873 -0.0759 -0.4618  0.4450
 2566SOL    HW119157   0.301   4.688   9.825  0.8528 -0.3463 -0.3532
 2566SOL    HW219158   0.406   4.594   9.800 -0.9924 -0.1109 -0.3700
 2567SOL     OW19159   1.643   2.310   2.343  0.4620 -0.1497  0.4725
 2567SOL    HW119160   1.647   2.374   2.414  0.5270  0.4697 -0.0959
 2567SOL    HW219161   1.683   2.360   2.272 -2.2512  0.9132 -0.3109
 2568SOL     OW19162   4.204   3.941   4.593 -0.5042 -0.4233  0.3519
 2568SOL    HW119163   4.130   3.888   4.561  0.2141 -1.7319  0.8592
 2568SOL    HW219164   4.149   3.982   4.660  1.8138 -0.2120  2.0838
 2569SOL     OW19165   0.184   1.409  13.777  0.4198  0.2546 -0.1111
 2569SOL    HW119166   0.189   1.496  13.816  0.3246 -0.8420  2.3401
 2569SOL    HW219167   0.257   1.363  13.818 -2.4086 -2.4107  1.9288
 2570SOL     OW19168   4.530   0.159   5.172 -0.1054  0.1747 -0.2908
 2570SOL    HW119169   4.578   0.197   5.246  1.9883 -2.0012 -0.5510
 2570SOL    HW219170   4.508   0.067   5.187  1.3004  0.3205  2.7638
 2571SOL     OW19171   3.850   2.635   6.822  0.1111  0.4040 -0.1309
 2571SOL    HW119172   3.914   2.676   6.880  1.6671  0.7547 -2.0722
 2571SOL    HW219173   3.801   2.712   6.794  0.8440  0.8573 -0.1627
 2572SOL     OW19174   1.182   2.684  11.468  0.3512  0.4569  0.0268
 2572SOL    HW119175   1.164   2.682  11.374 -0.1740  0.2408  0.1305
 2572SOL    HW219176   1.221   2.771  11.473  0.1266  0.5118  0.9057
 2573SOL     OW19177   1.868   4.179   7.174  0.3149 -0.3541  0.0462
 2573SOL    HW119178   1.896   4.155   7.085  1.3332  0.8532  0.0385
 2573SOL    HW219179   1.953   4.178   7.218 -1.1629 -1.5678  2.8539
 2574SOL     OW19180   1.946   0.032  15.702  0.3243 -0.2586  0.7591
 2574SOL    HW119181   1.961   4.687  15.637 -2.5857  0.1991 -0.3849
 2574SOL    HW219182   1.857   0.054  15.676  0.6902  1.6383  1.1274
 2575SOL     OW19183   2.239   2.903   7.159  0.6460  0.4329  0.2178
 2575SOL    HW119184   2.265   2.994   7.145  2.2750  0.1077  1.1242
 2575SOL    HW219185   2.296   2.888   7.235 -0.8195  0.5109  1.3285
 2576SOL     OW19186   2.985   0.534  16.841  0.0143  0.8909  0.0972
 2576SOL    HW119187   3.079   0.546  16.828 -0.5314  3.6565 -1.1281
 2576SOL    HW219188   2.960   0.626  16.839  1.0822  1.1358 -1.7277
 2577SOL     OW19189   1.943   1.933   3.971 -0.0977  0.4878 -0.1271
 2577SOL    HW119190   1.948   1.990   4.047  0.3809  2.8650 -1.9448
 2577SOL    HW219191   1.850   1.938   3.947 -0.2874 -2.8115 -0.1666
 2578SOL     OW19192   1.539   3.225   2.741  0.2212  0.0950  0.3017
 2578SOL    HW119193   1.454   3.261   2.765  0.4081  0.5213  0.3300
 2578SOL    HW219194   1.535   3.132   2.764  1.0607  0.2371  1.0225
 2579SOL     OW19195   3.579   1.097   4.386 -0.2537  0.0263 -0.0549
 2579SOL    HW119196   3.522   1.153   4.333 -0.4027  0.4201  0.5264
 2579SOL    HW219197   3.526   1.042   4.444  1.3651 -0.7294  0.6936
 2580SOL     OW19198   0.286   2.190   5.023  0.2509  0.4890 -0.0857
 2580SOL    HW119199   0.344   2.173   4.949 -0.1860 -0.5128 -0.1904
 2580SOL    HW219200   0.347   2.208   5.094 -2.3741  2.4775  1.6680
 2581SOL     OW19201   1.132   1.860  14.054 -0.2458 -0.0109  0.4217
 2581SOL    HW119202   1.078   1.925  14.009  0.1980  0.1270  0.0873
 2581SOL    HW219203   1.194   1.845  13.983 -0.5571  1.3140 -0.1280
 2582SOL     OW19204   1.765   0.643   5.758  0.6607  0.4436  0.0933
 2582SOL    HW119205   1.765   0.584   5.834  0.5134  0.9615  0.4928
 2582SOL    HW219206   1.846   0.691   5.776  0.9243  0.2897 -0.6763
 2583SOL     OW19207   3.541   0.434   9.234 -0.2958  0.0454  0.5451
 2583SOL    HW119208   3.594   0.505   9.271 -0.1339  1.6572 -2.8512
 2583SOL    HW219209   3.532   0.371   9.306  1.9356 -2.2413 -1.1926
 2584SOL     OW19210   1.261   0.720  11.393 -0.2647 -0.6505 -0.4130
 2584SOL    HW119211   1.258   0.786  11.324  1.0328 -0.1184  0.0251
 2584SOL    HW219212   1.266   0.637  11.347 -1.4741 -0.3449 -1.0942
 2585SOL     OW19213   3.122   1.377   8.446  0.1616  0.0135 -0.0283
 2585SOL    HW119214   3.151   1.287   8.462  0.0964  0.3867  2.1596
 2585SOL    HW219215   3.149   1.410   8.532 -0.7973  0.6737  0.0226
 2586SOL     OW19216   0.796   1.984   3.355  0.0274  0.1073 -0.2784
 2586SOL    HW119217   0.706   2.014   3.364 -0.4556 -1.2284 -0.6892
 2586SOL    HW219218   0.816   1.971   3.447  1.0530 -0.5011 -0.5844
 2587SOL     OW19219   3.578   3.286   7.877 -0.2652 -0.1626 -0.1343
 2587SOL    HW119220   3.666   3.270   7.844 -0.5078  1.8121 -1.6944
 2587SOL    HW219221   3.543   3.206   7.916  1.8579 -0.5860  0.8946
 2588SOL     OW19222   4.312   3.701  16.677  0.5946 -0.0047 -0.0740
 2588SOL    HW119223   4.238   3.652  16.715 -0.0359  0.3507 -0.8451
 2588SOL    HW219224   4.284   3.792  16.672  0.0291 -0.2567 -1.4372
 2589SOL     OW19225   0.300   1.417   1.045  0.7240  0.6112  0.1291
 2589SOL    HW119226   0.207   1.403   1.061  0.6490 -0.6386 -1.3295
 2589SOL    HW219227   0.328   1.326   1.048  0.0072  0.4201  0.9965
 2590SOL     OW19228   3.850   2.411  13.722 -0.2095  0.4861 -0.0826
 2590SOL    HW119229   3.769   2.420  13.672 -0.1253 -0.1035 -0.3289
 2590SOL    HW219230   3.905   2.340  13.688  0.4443  0.9271  0.0342
 2591SOL     OW19231   4.135   1.017   7.787 -0.6163 -0.1096 -0.2797
 2591SOL    HW119232   4.177   1.056   7.710  3.8975  2.1819  3.3484
 2591SOL    HW219233   4.122   0.929   7.753 -1.1893  0.1230 -0.6512
 2592SOL     OW19234   2.336   2.366  11.978  0.3905 -0.6886 -0.1264
 2592SOL    HW119235   2.270   2.429  12.007  0.6491 -0.9311  0.9872
 2592SOL    HW219236   2.312   2.363  11.886 -0.8147  2.1330  0.0968
 2593SOL     OW19237   3.882   1.191   7.876 -0.0603  0.2196 -0.1752
 2593SOL    HW119238   3.914   1.247   7.947 -1.6568 -0.5101  1.1272
 2593SOL    HW219239   3.959   1.159   7.829 -0.8827 -1.5018 -0.3595
 2594SOL     OW19240   2.277   2.263   2.005 -0.2128  0.6812  0.4717
 2594SOL    HW119241   2.267   2.169   2.015  0.3131  0.7339  1.5292
 2594SOL    HW219242   2.282   2.281   1.911  2.5330  1.7741  0.7981
 2595SOL     OW19243   0.802   2.613   6.610  0.5529  0.3615  0.1614
 2595SOL    HW119244   0.739   2.666   6.659 -1.9102 -2.8401  0.5171
 2595SOL    HW219245   0.857   2.586   6.684  1.5544 -0.8584 -1.0288
 2596SOL     OW19246   1.918   2.266   6.131 -0.9664 -1.1997 -0.5712
 2596SOL    HW119247   1.900   2.234   6.220  1.0321  0.7170  0.5289
 2596SOL    HW219248   1.940   2.184   6.087 -1.8772 -1.6824 -0.1209
 2597SOL     OW19249   1.900   0.258   3.192 -0.0152 -0.0945  0.1464
 2597SOL    HW119250   1.954   0.212   3.128  0.3910 -0.4931  0.7741
 2597SOL    HW219251   1.909   0.200   3.267 -2.7617  0.4670  0.8961
 2598SOL     OW19252   2.685   0.949   7.224  0.0273 -0.3784 -0.0075
 2598SOL    HW119253   2.697   1.008   7.298 -3.1310 -0.0044  0.1997
 2598SOL    HW219254   2.750   0.980   7.161 -1.5682 -0.1487 -1.5536
 2599SOL     OW19255   2.649   3.478   5.190  0.6363  0.3627  0.0319
 2599SOL    HW119256   2.705   3.506   5.118 -1.2636  1.4410 -1.0422
 2599SOL    HW219257   2.678   3.533   5.262 -3.0698  0.0831  1.7560
 2600SOL     OW19258   3.138   3.918  15.205  0.2034 -0.2265 -0.4065
 2600SOL    HW119259   3.182   3.930  15.289  0.4338 -0.8037 -0.4451
 2600SOL    HW219260   3.174   3.834  15.175 -0.1237 -0.0148 -1.3817
 2601SOL     OW19261   4.325   3.136   5.548  0.7215  0.0010  0.3018
 2601SOL    HW119262   4.314   3.171   5.636  0.0644  0.0137  0.2158
 2601SOL    HW219263   4.288   3.200   5.487 -0.6571 -0.0553  1.0727
 2602SOL     OW19264   3.978   2.898  10.635  0.5228 -0.0496 -0.2312
 2602SOL    HW119265   4.061   2.929  10.669  1.2518 -0.4814 -1.6085
 2602SOL    HW219266   3.990   2.915  10.542 -0.5628  1.2367 -0.1330
 2603SOL     OW19267   1.058   4.351   4.562  0.3787  0.4047  0.1624
 2603SOL    HW119268   1.002   4.412   4.514 -0.6237 -0.1921  0.5919
 2603SOL    HW219269   1.066   4.411   4.636  0.9696  2.2203 -1.3634
 2604SOL     OW19270   1.384   1.762  12.144  0.3097  0.5977 -0.4704
 2604SOL    HW119271   1.356   1.791  12.231  0.7378 -0.4039 -0.0024
 2604SOL    HW219272   1.377   1.851  12.111  0.2484  0.8066  0.1022
 2605SOL     OW19273   0.330   3.092   8.374  0.0348 -0.1674 -0.3654
 2605SOL    HW119274   0.425   3.090   8.391 -0.0483 -0.1085  0.1004
 2605SOL    HW219275   0.311   3.148   8.448  2.3662 -1.1019  0.9405
 2606SOL     OW19276   3.364   3.981   5.519 -0.5194  0.3875  0.0628
 2606SOL    HW119277   3.379   3.903   5.572  0.4852  0.1910 -0.5046
 2606SOL    HW219278   3.448   3.996   5.475 -1.3189  1.6966 -1.0317
 2607SOL     OW19279   0.841   4.375   5.518 -0.8372 -0.1575 -0.2404
 2607SOL    HW119280   0.825   4.309   5.450  1.3623  3.5774 -4.4499
 2607SOL    HW219281   0.936   4.381   5.503 -0.1329 -2.9010  3.1410
 2608SOL     OW19282   0.030   4.273   4.683  0.1713  0.3335  0.1010
 2608SOL    HW119283   0.028   4.348   4.622 -0.3058  0.6926  0.5563
 2608SOL    HW219284   4.660   4.259   4.692  0.1285  0.8991  0.5347
 2609SOL     OW19285   1.550   0.810   8.421  0.1384 -0.0879 -0.2612
 2609SOL    HW119286   1.457   0.805   8.397  0.2660  0.2427 -0.8101
 2609SOL    HW219287   1.542   0.811   8.516  1.3578  0.3672 -0.1622
 2610SOL     OW19288   1.889   4.042   9.652  0.0840 -0.5792 -0.0593
 2610SOL    HW119289   1.840   3.962   9.670 -0.1755 -0.4635 -0.2630
 2610SOL    HW219290   1.826   4.114   9.643  1.8258  0.9001 -0.5606
 2611SOL     OW19291   2.450   2.265   7.175 -0.4610 -0.5528 -0.3355
 2611SOL    HW119292   2.372   2.319   7.182 -0.5260 -0.7592  0.5759
 2611SOL    HW219293   2.463   2.238   7.266  1.3303  0.6870 -0.2119
 2612SOL     OW19294   4.503   1.828   7.938 -0.1858  0.5837 -0.1147
 2612SOL    HW119295   4.551   1.767   7.881  0.1512  2.1094 -1.4855
 2612SOL    HW219296   4.555   1.825   8.018  0.2386 -0.7805 -0.4377
 2613SOL     OW19297   3.140   0.049   0.442 -0.0657  0.3178  0.2191
 2613SOL    HW119298   3.174   0.001   0.366  0.0625  2.1368 -0.8879
 2613SOL    HW219299   3.150   4.708   0.511 -2.0551  0.9031  1.0458
 2614SOL     OW19300   2.016   2.379  12.342 -0.2828 -0.3223 -0.2252
 2614SOL    HW119301   2.043   2.406  12.430  1.3819  3.1850 -1.7968
 2614SOL    HW219302   1.974   2.459  12.309  0.8046  0.2844 -0.1507
 2615SOL     OW19303   2.896   2.875   9.003  0.6689  0.4033 -0.0114
 2615SOL    HW119304   2.967   2.930   9.035  1.8255 -0.5260 -0.9537
 2615SOL    HW219305   2.839   2.947   8.975  0.2781 -0.1951 -0.7633
 2616SOL     OW19306   3.199   2.908   6.357  0.0750  0.4109  0.4872
 2616SOL    HW119307   3.281   2.870   6.327 -1.3553 -1.8945 -0.4990
 2616SOL    HW219308   3.208   2.900   6.452 -0.9382 -0.1344  0.5351
 2617SOL     OW19309   1.811   4.330   1.329 -0.2778  0.0069  0.4382
 2617SOL    HW119310   1.810   4.425   1.320  1.9757 -0.0275 -0.2324
 2617SOL    HW219311   1.830   4.302   1.239 -1.0124 -1.3965  0.7207
 2618SOL     OW19312   2.173   0.781   9.596  0.3957  0.0211 -0.0731
 2618SOL    HW119313   2.100   0.787   9.534  0.3125  2.4644  0.2325
 2618SOL    HW219314   2.140   0.845   9.659  1.1387  0.0869  0.2392
 2619SOL     OW19315   1.389   0.263  14.810 -0.1288  0.1724 -0.1303
 2619SOL    HW119316   1.445   0.204  14.760 -2.1086 -0.9076 -1.1118
 2619SOL    HW219317   1.418   0.252  14.900 -2.6481  1.4897  0.8402
 2620SOL     OW19318   1.616   2.501   2.561 -0.1486  0.0770 -0.5086
 2620SOL    HW119319   1.679   2.487   2.631 -1.0549 -3.0289 -0.2946
 2620SOL    HW219320   1.610   2.596   2.566  0.4988  0.1929 -1.8752
 2621SOL     OW19321   0.009   3.574   7.656  0.2368 -0.4595  1.0835
 2621SOL    HW119322   0.021   3.624   7.737  0.2143 -0.2184  0.9390
 2621SOL    HW219323   0.025   3.485   7.686 -2.2893 -0.5634  2.1715
 2622SOL     OW19324   1.175   0.930   4.484 -0.3540  0.4210 -0.2625
 2622SOL    HW119325   1.122   0.964   4.412 -0.1454  0.1125 -0.5607
 2622SOL    HW219326   1.256   0.908   4.438 -0.1869  0.3255  0.0748
 2623SOL     OW19327   4.575   1.716   5.939  0.3751  0.3755 -0.3888
 2623SOL    HW119328   4.502   1.770   5.968 -1.9487 -2.0948 -1.6651
 2623SOL    HW219329   4.535   1.629   5.941 -2.3662  1.6154 -1.4605
 2624SOL     OW19330   0.149   0.673   4.537  0.3811 -0.3649 -0.3522
 2624SOL    HW119331   0.079   0.617   4.570  1.2335 -1.6655 -0.7713
 2624SOL    HW219332   0.171   0.716   4.619  0.9271  1.2187 -1.3130
 2625SOL     OW19333   3.403   3.365   1.984  0.0252  0.4773 -0.3511
 2625SOL    HW119334   3.371   3.276   1.995 -0.5504  0.4074 -2.5867
 2625SOL    HW219335   3.485   3.350   1.936  0.3726 -4.2423  1.7228
 2626SOL     OW19336   4.370   0.978   3.099  0.3472  0.1820  0.3604
 2626SOL    HW119337   4.381   0.999   3.192 -1.5228 -0.1977  0.6608
 2626SOL    HW219338   4.442   0.915   3.093  0.0271 -0.0726 -0.6764
 2627SOL     OW19339   1.124   4.296   2.856 -0.0671 -0.3125 -0.1152
 2627SOL    HW119340   1.166   4.301   2.942 -0.0841 -0.4327 -0.1001
 2627SOL    HW219341   1.170   4.360   2.801 -4.6828 -0.2338 -3.9039
 2628SOL     OW19342   3.627   0.747   9.829 -0.4944 -0.3804 -0.0284
 2628SOL    HW119343   3.591   0.713   9.910  0.7349 -1.6674 -0.0266
 2628SOL    HW219344   3.597   0.838   9.819 -0.1355 -0.3226 -0.5683
 2629SOL     OW19345   1.899   2.320   9.156  0.2846 -0.1463 -0.2028
 2629SOL    HW119346   1.939   2.371   9.085  2.3303  0.0276  1.0870
 2629SOL    HW219347   1.878   2.240   9.107 -0.0780 -0.0003 -0.2853
 2630SOL     OW19348   3.162   0.882   2.065 -0.6317 -0.4653  0.2487
 2630SOL    HW119349   3.206   0.819   2.008  3.0874  1.8995  0.4847
 2630SOL    HW219350   3.222   0.957   2.068  1.0581 -1.7477 -1.3206
 2631SOL     OW19351   3.220   4.577   7.032 -0.0139 -0.2230 -0.1741
 2631SOL    HW119352   3.294   4.637   7.041  1.3341 -2.0881  1.2235
 2631SOL    HW219353   3.212   4.551   7.124 -0.7530  0.2883 -0.0895
 2632SOL     OW19354   4.081   0.976   1.197  0.2506 -1.1823  0.3445
 2632SOL    HW119355   4.072   1.069   1.217  1.0463 -0.2237 -3.9070
 2632SOL    HW219356   3.994   0.957   1.165  0.1349 -1.0993  0.6043
 2633SOL     OW19357   4.444   0.132   6.895 -0.0478  0.2979  0.0735
 2633SOL    HW119358   4.462   0.212   6.945 -1.5094  0.5464  0.2056
 2633SOL    HW219359   4.408   0.167   6.813  2.0981  0.8004 -0.6656
 2634SOL     OW19360   3.029   4.234   6.383  0.5877 -0.2940 -0.3767
 2634SOL    HW119361   3.094   4.302   6.405  0.7039  0.6168 -3.5988
 2634SOL    HW219362   3.089   4.169   6.345  0.7129  0.9159 -2.2397
 2635SOL     OW19363   2.457   0.590  17.538  0.2861  0.5877 -0.1629
 2635SOL    HW119364   2.388   0.524  17.536  0.5950  0.3410 -2.3892
 2635SOL    HW219365   2.494   0.582  17.626  0.2407 -0.3860 -0.2323
 2636SOL     OW19366   2.339   2.818   2.255 -0.1280 -0.2367  0.5518
 2636SOL    HW119367   2.405   2.750   2.267  0.8512  0.8312  1.3663
 2636SOL    HW219368   2.387   2.901   2.267 -1.7231  0.6858  0.6336
 2637SOL     OW19369   4.025   0.186   5.545  0.3446  0.0199 -0.0100
 2637SOL    HW119370   3.986   0.236   5.473  3.2235  1.4037 -0.6192
 2637SOL    HW219371   4.117   0.182   5.517  0.0413  3.7589 -1.5392
 2638SOL     OW19372   2.669   4.637  11.810 -0.3480 -0.5225  0.1870
 2638SOL    HW119373   2.686   4.721  11.853 -1.1136 -0.3151  0.0819
 2638SOL    HW219374   2.593   4.655  11.755  0.4728  0.1507 -0.7422
 2639SOL     OW19375   4.461   4.674   2.887 -0.7546 -0.1893 -0.0209
 2639SOL    HW119376   4.503   4.610   2.829  1.8242  0.0273  1.5577
 2639SOL    HW219377   4.515   4.678   2.967  1.8146 -2.1543 -1.6480
 2640SOL     OW19378   2.554   1.474  15.035  0.0929 -0.3378 -0.3509
 2640SOL    HW119379   2.559   1.570  15.043  0.1721 -0.4394  0.9027
 2640SOL    HW219380   2.471   1.470  14.987  0.1154 -0.3447 -0.3890
 2641SOL     OW19381   1.066   0.810   0.120  0.3836 -0.1089  0.5310
 2641SOL    HW119382   1.134   0.844   0.179 -0.2213 -1.4465  1.9964
 2641SOL    HW219383   0.993   0.871   0.118  0.4042 -0.1570 -1.6862
 2642SOL     OW19384   1.578   4.368   7.380  0.3101 -0.1520 -0.1024
 2642SOL    HW119385   1.654   4.414   7.343  0.9453 -0.5692  0.7018
 2642SOL    HW219386   1.617   4.334   7.460 -0.5835 -0.2355  0.2949
 2643SOL     OW19387   2.779   0.616  13.200 -0.0616 -0.2934 -0.1415
 2643SOL    HW119388   2.734   0.600  13.283  0.6539 -0.1010  0.2769
 2643SOL    HW219389   2.834   0.689  13.227 -0.3112 -0.0949 -0.1627
 2644SOL     OW19390   3.908   4.338   4.204 -0.0310 -0.0005 -0.3279
 2644SOL    HW119391   3.856   4.295   4.137  0.0925 -0.5877 -0.0450
 2644SOL    HW219392   3.853   4.330   4.282 -1.1152 -1.8972 -1.2862
 2645SOL     OW19393   0.419   3.637   1.382 -0.1096 -0.0636  0.4847
 2645SOL    HW119394   0.470   3.661   1.459 -2.4099 -2.4416  2.7542
 2645SOL    HW219395   0.444   3.693   1.308 -1.0343  1.1443  1.0845
 2646SOL     OW19396   2.313   1.710  12.654 -0.4185 -0.5631 -0.6415
 2646SOL    HW119397   2.322   1.624  12.611  3.4412 -0.2505 -0.4607
 2646SOL    HW219398   2.335   1.775  12.587 -0.6488 -0.5139 -0.6681
 2647SOL     OW19399   0.579   0.402   4.735  0.1896 -0.1156  0.0397
 2647SOL    HW119400   0.613   0.442   4.655  0.2648 -1.1345 -0.4380
 2647SOL    HW219401   0.513   0.341   4.702  0.5069  0.0312 -0.8631
 2648SOL     OW19402   2.162   1.098   7.251  0.2934 -0.7466  0.2464
 2648SOL    HW119403   2.091   1.161   7.238  0.6817  0.0357  1.9607
 2648SOL    HW219404   2.132   1.033   7.186  3.2654 -2.7577  0.8929
 2649SOL     OW19405   4.148   1.682   6.626  0.1470 -0.2521  0.2851
 2649SOL    HW119406   4.166   1.602   6.677 -0.4989 -0.1365  0.6920
 2649SOL    HW219407   4.077   1.717   6.679  0.7424  0.8230  0.3647
 2650SOL     OW19408   0.182   3.095   0.092  0.2826  0.3748 -0.1859
 2650SOL    HW119409   0.160   3.051   0.173 -1.5721  1.7828  0.0599
 2650SOL    HW219410   0.268   3.059   0.070 -0.8103 -2.1218 -0.2785
 2651SOL     OW19411   2.828   0.566  14.598 -0.1851  0.0087 -0.1630
 2651SOL    HW119412   2.916   0.598  14.617  0.1209 -0.2781 -1.1259
 2651SOL    HW219413   2.840   0.478  14.634 -0.2787  0.1036  0.0997
 2652SOL     OW19414   3.839   2.648   1.414 -0.0332  0.6508 -0.1482
 2652SOL    HW119415   3.786   2.669   1.490  1.5329  0.5093  0.9905
 2652SOL    HW219416   3.793   2.687   1.340 -0.9430  1.6373  0.9413
 2653SOL     OW19417   1.421   0.317  12.339 -0.6432  0.1185  0.9501
 2653SOL    HW119418   1.499   0.330  12.392  0.7018  2.6924 -1.6939
 2653SOL    HW219419   1.355   0.289  12.402 -0.3702 -0.6046  0.9191
 2654SOL     OW19420   1.436   1.897   1.467 -0.5837 -0.9334  0.5924
 2654SOL    HW119421   1.355   1.945   1.449  0.6707  1.0402  0.2628
 2654SOL    HW219422   1.453   1.916   1.559  0.5985  3.8961 -0.6314
 2655SOL     OW19423   3.260   0.547   4.733 -0.1859 -0.2142  0.0182
 2655SOL    HW119424   3.354   0.560   4.724 -0.5655  1.4308 -1.5620
 2655SOL    HW219425   3.256   0.476   4.796  3.0427 -0.7651 -0.3836
 2656SOL     OW19426   2.806   3.578   5.381  0.2114  0.5407  0.0778
 2656SOL    HW119427   2.862   3.622   5.445  0.5041 -0.6856  0.6576
 2656SOL    HW219428   2.801   3.491   5.420 -0.1515  0.4110 -0.2606
 2657SOL     OW19429   0.495   3.962   7.308  0.2969  0.0062  0.4849
 2657SOL    HW119430   0.406   3.927   7.317 -0.2302  1.1871 -0.0551
 2657SOL    HW219431   0.486   4.044   7.357 -2.6569  0.3564 -0.6272
 2658SOL     OW19432   0.499   1.560   5.816 -0.3725  0.4472 -0.4491
 2658SOL    HW119433   0.421   1.596   5.858  0.3956 -0.0610  1.3760
 2658SOL    HW219434   0.468   1.474   5.785 -0.3079  1.2048 -2.6575
 2659SOL     OW19435   3.413   1.938   5.051  0.1763 -0.2937  0.0654
 2659SOL    HW119436   3.420   1.892   4.967 -0.9200  2.5846 -1.5761
 2659SOL    HW219437   3.408   2.026   5.014  1.4404  0.5407  1.8570
 2660SOL     OW19438   3.798   3.407   0.849  0.1204  0.4469  0.1343
 2660SOL    HW119439   3.719   3.410   0.797  2.6691  0.2111 -3.7300
 2660SOL    HW219440   3.839   3.492   0.865  0.0297  0.5034  0.0617
 2661SOL     OW19441   4.135   4.054   5.932  0.0465  0.2190 -0.3975
 2661SOL    HW119442   4.145   4.062   6.027 -0.5887 -2.3363 -0.1361
 2661SOL    HW219443   4.051   4.098   5.919  0.2483 -0.2621 -3.3263
 2662SOL     OW19444   3.897   3.670   6.170  0.0881 -0.3555  0.9365
 2662SOL    HW119445   3.819   3.726   6.166 -0.8671 -1.8052 -0.6090
 2662SOL    HW219446   3.861   3.589   6.134 -0.4836  0.9533 -1.3973
 2663SOL     OW19447   3.265   2.474   1.898  0.2101 -0.2580 -0.5590
 2663SOL    HW119448   3.321   2.482   1.821  1.8566 -0.9788  0.5489
 2663SOL    HW219449   3.323   2.493   1.972  0.7308  0.2525 -1.0960
 2664SOL     OW19450   1.161   4.689   7.529 -0.3664  0.0262  0.1210
 2664SOL    HW119451   1.151   4.594   7.519 -1.9645 -0.1558  3.3570
 2664SOL    HW219452   1.231   4.704   7.466 -0.0695  1.7247  0.8599
 2665SOL     OW19453   3.398   1.225   1.838  0.6609 -0.0566  0.3347
 2665SOL    HW119454   3.409   1.137   1.873  0.3859 -1.1127 -2.2036
 2665SOL    HW219455   3.333   1.215   1.768  2.4693  5.0132 -2.1147
 2666SOL     OW19456   1.903   0.494   4.694 -0.3874 -0.2272 -0.8654
 2666SOL    HW119457   1.911   0.467   4.603  0.1629 -0.5330 -0.7195
 2666SOL    HW219458   1.825   0.550   4.681  1.2397  2.1502 -0.3967
 2667SOL     OW19459   4.698   3.574   6.104  0.3156  0.7790 -0.1711
 2667SOL    HW119460   4.636   3.600   6.172  0.8884  2.6779 -0.3732
 2667SOL    HW219461   4.663   3.485   6.103  0.3495  0.7547  0.7203
 2668SOL     OW19462   3.892   1.243  10.588  0.5345 -0.5878 -0.3507
 2668SOL    HW119463   3.987   1.242  10.574  0.5759 -0.9167 -0.0710
 2668SOL    HW219464   3.875   1.164  10.640  0.3575 -1.6507 -2.0359
 2669SOL     OW19465   0.423   0.036   0.074  0.0655  0.5904  0.2962
 2669SOL    HW119466   0.349   0.024   0.015  1.5654 -0.5309 -1.3436
 2669SOL    HW219467   0.489   0.056   0.007  1.2975  0.4294  1.4589
 2670SOL     OW19468   0.257   1.616   0.854  0.6695  0.0737 -0.1486
 2670SOL    HW119469   0.352   1.628   0.849  0.6784 -1.0510 -2.3864
 2670SOL    HW219470   0.247   1.553   0.926 -0.2009  2.2830  1.6713
 2671SOL     OW19471   3.192   3.108   5.097 -0.4275  0.9891 -0.5977
 2671SOL    HW119472   3.179   3.018   5.128 -2.4794  1.2604 -0.6951
 2671SOL    HW219473   3.106   3.123   5.059  0.2335  1.5519 -1.8728
 2672SOL     OW19474   1.990   1.184   3.754 -0.1457  0.5444 -0.3833
 2672SOL    HW119475   1.910   1.235   3.765 -0.2433 -0.2203  2.5210
 2672SOL    HW219476   2.040   1.213   3.830  1.7021 -0.4852 -1.2009
 2673SOL     OW19477   2.105   0.920   2.227 -1.3363  0.0274  0.0242
 2673SOL    HW119478   2.197   0.912   2.201 -2.0862 -0.5316 -2.4448
 2673SOL    HW219479   2.099   1.016   2.229  2.0264  0.2261  0.0677
 2674SOL     OW19480   2.696   2.026   3.200 -0.0058  0.2022  0.1866
 2674SOL    HW119481   2.786   2.059   3.202 -0.7899  2.3819 -0.2257
 2674SOL    HW219482   2.696   1.965   3.274  0.6508  0.6497  0.5578
 2675SOL     OW19483   4.460   4.348   0.425 -0.1992 -0.4512  0.1749
 2675SOL    HW119484   4.394   4.386   0.368  0.8517  0.6578 -0.3120
 2675SOL    HW219485   4.545   4.381   0.396  0.1687 -2.1079 -0.6085
 2676SOL     OW19486   1.146   3.759   8.573  0.2483  0.2670  0.7358
 2676SOL    HW119487   1.147   3.677   8.524 -0.5802 -0.0788  1.2998
 2676SOL    HW219488   1.160   3.818   8.499 -0.0011  0.0487  0.5139
 2677SOL     OW19489   1.158   1.232   6.289  0.2788 -0.1095 -0.2890
 2677SOL    HW119490   1.158   1.201   6.380 -1.0561  0.4041 -0.1114
 2677SOL    HW219491   1.210   1.312   6.294 -0.5507  0.4144 -0.0358
 2678SOL     OW19492   1.906   2.865   2.057  0.1994  0.2081  0.2375
 2678SOL    HW119493   1.934   2.776   2.035 -0.3234  0.1114 -0.0418
 2678SOL    HW219494   1.964   2.915   1.999 -0.1728 -1.1034 -1.2763
 2679SOL     OW19495   3.259   0.603   6.600  0.4684  0.2030 -0.1827
 2679SOL    HW119496   3.320   0.614   6.673  1.5696  1.4937 -1.3112
 2679SOL    HW219497   3.283   0.518   6.563  1.2450  0.0093  0.7697
 2680SOL     OW19498   4.102   1.205   1.008  0.1146 -0.0113 -0.0570
 2680SOL    HW119499   4.175   1.160   0.966  0.6504 -0.0495  0.9021
 2680SOL    HW219500   4.033   1.160   0.960  0.2928  2.1642 -2.3318
 2681SOL     OW19501   4.142   2.302   5.152 -0.0434 -0.2678  0.0798
 2681SOL    HW119502   4.180   2.355   5.082 -1.1261 -1.9345 -1.7777
 2681SOL    HW219503   4.061   2.284   5.103 -1.0716  1.4988  1.1078
 2682SOL     OW19504   3.377   4.307  10.933  0.0255 -0.2682  0.2387
 2682SOL    HW119505   3.446   4.353  10.980 -0.6491  1.0725 -0.0757
 2682SOL    HW219506   3.292   4.343  10.960 -1.4786 -1.5267 -2.7318
 2683SOL     OW19507   3.280   0.251   8.625  0.0072  0.3315 -0.3208
 2683SOL    HW119508   3.216   0.239   8.695  0.8019 -0.4063  0.2738
 2683SOL    HW219509   3.324   0.166   8.633  1.1912  0.8414 -1.3766
 2684SOL     OW19510   1.660   3.809   7.538 -0.5695 -0.1860 -0.3888
 2684SOL    HW119511   1.635   3.726   7.498 -0.8505 -0.0524 -0.4919
 2684SOL    HW219512   1.652   3.869   7.464  0.9855  0.3142 -0.1535
 2685SOL     OW19513   0.287   1.595   4.547  0.1787  0.2662 -0.4214
 2685SOL    HW119514   0.239   1.578   4.628 -1.2058 -0.3021 -1.3736
 2685SOL    HW219515   0.241   1.672   4.514 -0.7643 -0.6263 -1.1715
 2686SOL     OW19516   2.889   4.610   8.467  0.2595  0.0908  0.1614
 2686SOL    HW119517   2.982   4.591   8.482 -0.2198 -3.0919 -0.8506
 2686SOL    HW219518   2.880   4.568   8.381  3.0652 -1.0549  0.4332
 2687SOL     OW19519   2.873   1.949   6.347 -0.2832  0.8094  0.0323
 2687SOL    HW119520   2.952   1.911   6.385 -0.5699 -2.0513 -2.1980
 2687SOL    HW219521   2.825   1.984   6.421  0.9816 -0.3519  1.3919
 2688SOL     OW19522   4.441   0.213   4.707  0.4394 -0.0609 -0.0531
 2688SOL    HW119523   4.362   0.176   4.747 -1.6516  2.8409 -1.4859
 2688SOL    HW219524   4.479   0.248   4.788  0.1622  1.2873 -0.5105
 2689SOL     OW19525   3.718   0.288  16.869 -0.2921 -0.2669  0.4808
 2689SOL    HW119526   3.804   0.272  16.830  0.0949  0.0145  1.2273
 2689SOL    HW219527   3.740   0.345  16.943  1.4799 -0.2148 -0.0822
 2690SOL     OW19528   0.062   0.872   5.427  0.2630 -0.2469 -0.9287
 2690SOL    HW119529   0.020   0.787   5.418 -0.2001 -0.1500  0.3393
 2690SOL    HW219530   0.129   0.856   5.360  0.7367 -0.2037 -0.4687
 2691SOL     OW19531   3.958   1.618   6.244 -0.5787  0.1504 -0.2273
 2691SOL    HW119532   4.023   1.559   6.283 -1.5446 -1.4191 -0.9948
 2691SOL    HW219533   3.880   1.566   6.263 -0.8231  0.7709  0.4953
 2692SOL     OW19534   1.132   4.101   8.834  0.1102 -1.3267  0.0306
 2692SOL    HW119535   1.036   4.100   8.825  0.0996  0.2561 -0.0588
 2692SOL    HW219536   1.164   4.140   8.752  0.3722 -0.5523  0.5070
 2693SOL     OW19537   0.308   2.242   8.689  0.1754  0.0872 -0.4147
 2693SOL    HW119538   0.332   2.193   8.767  0.6943 -1.0633 -1.3116
 2693SOL    HW219539   0.383   2.292   8.657 -2.0144  1.9742 -2.6660
 2694SOL     OW19540   1.678   2.122   4.502  0.2703  0.5025  0.1185
 2694SOL    HW119541   1.690   2.191   4.436  0.6379 -0.2711 -0.6172
 2694SOL    HW219542   1.596   2.150   4.542 -1.5152 -0.6401 -2.7139
 2695SOL     OW19543   1.823   1.763  11.746 -0.1686 -0.8104  0.5130
 2695SOL    HW119544   1.911   1.786  11.716 -1.1695  2.4339  0.0253
 2695SOL    HW219545   1.775   1.840  11.715  0.0423 -0.5110  0.9257
 2696SOL     OW19546   0.917   4.622   2.378 -0.4700  0.0273 -0.2432
 2696SOL    HW119547   0.883   4.535   2.398  0.9975  0.2323  3.1468
 2696SOL    HW219548   0.874   4.640   2.295  1.6693 -2.0959 -1.7912
 2697SOL     OW19549   2.613   1.923   4.298  0.2032  0.1876 -0.6037
 2697SOL    HW119550   2.602   1.968   4.382  1.4447 -0.1324 -0.2793
 2697SOL    HW219551   2.522   1.902   4.276 -0.3760  2.2210 -0.1509
 2698SOL     OW19552   4.610   2.874   6.989  0.1356  0.7154  0.1157
 2698SOL    HW119553   4.675   2.887   7.057 -0.3830 -1.3718  1.0136
 2698SOL    HW219554   4.662   2.836   6.918 -0.9213  2.8989 -1.8294
 2699SOL     OW19555   0.855   4.523   2.997  0.2042  0.2788  0.7222
 2699SOL    HW119556   0.820   4.511   2.909  1.5968  1.8020 -0.0418
 2699SOL    HW219557   0.929   4.463   2.994 -2.3296 -2.8303  0.5994
 2700SOL     OW19558   3.856   3.102   6.445 -0.2656 -0.1322 -0.5038
 2700SOL    HW119559   3.920   3.083   6.376 -1.8974 -0.1648 -1.9917
 2700SOL    HW219560   3.914   3.075   6.516 -0.2099  0.8809 -0.1622
 2701SOL     OW19561   0.584   2.088   8.721  0.1393  0.3265 -0.7262
 2701SOL    HW119562   0.581   2.174   8.679 -2.5582  0.3294 -0.5430
 2701SOL    HW219563   0.664   2.102   8.772 -0.2015 -0.1159 -0.0733
 2702SOL     OW19564   4.417   3.942   8.171  0.1284  0.2529  0.2665
 2702SOL    HW119565   4.374   3.936   8.257 -2.7679  2.0079 -1.0641
 2702SOL    HW219566   4.508   3.930   8.198 -0.2232  0.5553  1.5496
 2703SOL     OW19567   0.174   1.693   7.692  0.0286  0.6631  0.1340
 2703SOL    HW119568   0.235   1.750   7.738  1.1602 -0.0717 -0.4682
 2703SOL    HW219569   0.150   1.750   7.619  1.3298  1.8677  0.6449
 2704SOL     OW19570   3.242   1.302   4.759 -0.8597 -0.1688 -0.5407
 2704SOL    HW119571   3.193   1.271   4.684  0.7285 -0.3717 -1.4841
 2704SOL    HW219572   3.240   1.397   4.747 -1.8628 -0.0605  0.4965
 2705SOL     OW19573   1.567   4.519   3.291  0.4261 -0.3992  0.2458
 2705SOL    HW119574   1.538   4.609   3.273 -1.4208 -0.7516  1.4896
 2705SOL    HW219575   1.543   4.469   3.213  1.2174  0.2834 -0.4358
 2706SOL     OW19576   2.892   3.225   6.461 -0.2019  0.0705  0.1114
 2706SOL    HW119577   2.872   3.269   6.379  0.3543 -0.0800 -0.1017
 2706SOL    HW219578   2.844   3.286   6.517  0.5641  0.9850 -0.2343
 2707SOL     OW19579   0.717   3.392   8.153  0.1590 -0.2126 -0.2016
 2707SOL    HW119580   0.695   3.433   8.236 -1.0325 -0.6780 -0.2840
 2707SOL    HW219581   0.651   3.436   8.098 -0.5298 -0.2869  0.5602
 2708SOL     OW19582   0.099   1.992   4.985 -0.3220  0.4497 -0.5051
 2708SOL    HW119583   0.165   2.059   5.005 -0.9087  0.2751  1.9671
 2708SOL    HW219584   0.098   1.946   5.069 -0.5365  2.3607  0.5593
 2709SOL     OW19585   4.112   0.288   1.289  0.2928 -0.1955 -0.0506
 2709SOL    HW119586   4.167   0.226   1.337  0.7869 -0.1145 -0.5132
 2709SOL    HW219587   4.079   0.340   1.361 -0.4172  1.7672 -1.7925
 2710SOL     OW19588   0.172   2.012  15.770 -0.3002  0.1530  0.0003
 2710SOL    HW119589   0.123   1.963  15.836  0.3503  1.8974  1.7612
 2710SOL    HW219590   0.190   1.943  15.706 -1.3851 -1.3913  1.3761
 2711SOL     OW19591   4.209   1.944  11.146  0.0882  0.0704  0.3044
 2711SOL    HW119592   4.121   1.952  11.183  0.9529  1.1447  2.1386
 2711SOL    HW219593   4.194   1.857  11.108  1.0182  0.3980 -0.7842
 2712SOL     OW19594   0.966   1.841   6.042  0.4292 -0.6094 -0.4766
 2712SOL    HW119595   1.020   1.765   6.019 -0.0228 -1.0301 -0.1691
 2712SOL    HW219596   0.928   1.856   5.956  0.5005  0.7442 -0.2759
 2713SOL     OW19597   2.384   4.653   3.378  0.3230  0.6227 -0.4632
 2713SOL    HW119598   2.355   4.645   3.287  1.4844 -1.0196 -0.6792
 2713SOL    HW219599   2.305   4.689   3.418  0.8678  3.5370 -2.0595
 2714SOL     OW19600   0.421   0.522  10.665  0.2338  0.2937 -0.4887
 2714SOL    HW119601   0.448   0.519  10.757  0.5293  0.3485 -0.5721
 2714SOL    HW219602   0.405   0.616  10.662  0.9675  0.4533  0.3513
 2715SOL     OW19603   2.498   3.948   5.226 -0.1893  0.1189  0.5309
 2715SOL    HW119604   2.561   3.910   5.287  1.0607  2.3541  0.6563
 2715SOL    HW219605   2.528   4.037   5.207 -0.4918  0.6457  2.5226
 2716SOL     OW19606   0.716   2.834   7.048 -0.2606  0.1636  0.1989
 2716SOL    HW119607   0.724   2.864   7.139  0.8772 -0.9541  0.4687
 2716SOL    HW219608   0.622   2.840   7.034 -0.6950 -1.2259  2.4263
 2717SOL     OW19609   0.501   1.845   8.018 -0.5569  0.0455  0.3252
 2717SOL    HW119610   0.421   1.806   8.052 -0.8572  0.9928  0.6949
 2717SOL    HW219611   0.484   1.846   7.924 -1.8296 -0.0578  0.5538
 2718SOL     OW19612   3.665   2.468   8.040  0.1376 -0.3472 -0.3346
 2718SOL    HW119613   3.745   2.503   8.000 -0.2685 -0.8377 -1.5948
 2718SOL    HW219614   3.706   2.427   8.115  2.2798 -0.6784 -1.6843
 2719SOL     OW19615   2.076   3.974   3.646 -0.5838  0.3670  0.6550
 2719SOL    HW119616   2.079   4.050   3.704  0.9900 -0.1903  1.3137
 2719SOL    HW219617   2.119   4.012   3.570 -0.0364 -0.8237  0.3740
 2720SOL     OW19618   2.890   0.311   8.033  0.2075  0.5584 -0.4644
 2720SOL    HW119619   2.809   0.262   8.029  1.6956 -1.9605  0.5348
 2720SOL    HW219620   2.868   0.400   8.061 -1.6353  0.1258 -0.5846
 2721SOL     OW19621   4.562   0.724  15.682 -0.7022 -0.2705 -0.2103
 2721SOL    HW119622   4.536   0.753  15.595 -0.5909 -2.8000 -1.0795
 2721SOL    HW219623   4.484   0.739  15.737 -0.5032  2.1029 -0.6031
 2722SOL     OW19624   3.690   1.455   3.913 -0.2789  0.9641 -0.4128
 2722SOL    HW119625   3.778   1.417   3.918 -0.2381  1.1780  0.5429
 2722SOL    HW219626   3.668   1.418   3.828 -0.6939  3.0530 -1.1996
 2723SOL     OW19627   0.697   1.936   5.215  0.2001  0.7618  0.5945
 2723SOL    HW119628   0.769   1.978   5.261  1.5081  0.3370 -1.1005
 2723SOL    HW219629   0.672   1.994   5.143 -0.1089 -0.6465 -0.4252
 2724SOL     OW19630   3.144   4.346   9.273  0.0260 -0.2157  0.2497
 2724SOL    HW119631   3.184   4.388   9.197  2.0808 -1.5092  0.5998
 2724SOL    HW219632   3.143   4.422   9.331 -2.4619 -0.9843  1.2410
 2725SOL     OW19633   4.622   3.991   4.597  0.0232  0.5199  0.3766
 2725SOL    HW119634   4.710   3.987   4.560  0.4685 -2.9997  1.8795
 2725SOL    HW219635   4.633   4.008   4.691  0.9893 -0.3666  0.4194
 2726SOL     OW19636   4.499   1.057   4.155 -0.7921 -0.0555 -0.3339
 2726SOL    HW119637   4.455   1.000   4.218  0.7190 -2.3121 -1.3103
 2726SOL    HW219638   4.547   0.995   4.100 -1.1603 -0.2308 -0.4592
 2727SOL     OW19639   4.067   4.502  13.620 -0.2400  0.3226 -0.6732
 2727SOL    HW119640   4.159   4.524  13.603 -0.0576 -0.0388 -0.1671
 2727SOL    HW219641   4.023   4.581  13.588  4.3861  4.1757  2.4215
 2728SOL     OW19642   0.055   3.997   7.947  0.1368 -0.2375 -0.5339
 2728SOL    HW119643   0.019   3.913   7.975 -0.0190  0.7877  2.3941
 2728SOL    HW219644   0.027   3.998   7.856 -0.8055  0.9348 -0.2323
 2729SOL     OW19645   0.583   1.745   2.185 -0.4750 -0.3212 -0.1982
 2729SOL    HW119646   0.572   1.837   2.164 -1.1489 -0.6982 -1.4833
 2729SOL    HW219647   0.492   1.730   2.162 -0.6603  0.5303 -0.0198
 2730SOL     OW19648   2.334   3.581   2.991 -0.3545  0.2520 -0.3826
 2730SOL    HW119649   2.264   3.534   2.948 -1.7368  1.6783  0.3018
 2730SOL    HW219650   2.412   3.572   2.936  1.0633 -0.3116  1.7033
 2731SOL     OW19651   3.896   1.447   1.059  0.3822 -0.3377  0.4511
 2731SOL    HW119652   3.869   1.389   1.131  0.8156 -0.3234  0.6207
 2731SOL    HW219653   3.969   1.391   1.032 -0.0635 -0.7978  0.1998
 2732SOL     OW19654   4.691   4.580   6.587 -0.2764  0.4676 -0.1757
 2732SOL    HW119655   4.703   4.651   6.650  1.0978 -1.5021  1.7709
 2732SOL    HW219656   0.036   4.595   6.523  0.3730 -1.7636  0.0075
 2733SOL     OW19657   3.761   1.692  13.386  0.2219  0.1822  0.1752
 2733SOL    HW119658   3.805   1.607  13.386  0.1832  0.1604  0.9146
 2733SOL    HW219659   3.833   1.738  13.342 -0.5764 -0.9427 -2.3014
 2734SOL     OW19660   2.113   4.705   4.747  0.3298  0.6315 -0.0333
 2734SOL    HW119661   2.079   4.708   4.836 -1.6073 -4.0025 -0.6106
 2734SOL    HW219662   2.181   0.048   4.755  0.6034  0.3497  0.0410
 2735SOL     OW19663   2.068   0.072   2.287 -0.4316  1.1238  0.1666
 2735SOL    HW119664   2.058   0.017   2.366  0.4133  0.0565 -0.4656
 2735SOL    HW219665   2.055   0.159   2.325 -1.4078  1.1128 -0.1310
 2736SOL     OW19666   4.243   1.003  17.390  0.2991 -0.3529 -0.3055
 2736SOL    HW119667   4.263   1.087  17.432  1.2676 -0.0374 -1.3993
 2736SOL    HW219668   4.221   1.031  17.301 -1.4097 -3.5745 -0.8926
 2737SOL     OW19669   3.185   0.401   5.811 -0.4593 -0.5387  0.0752
 2737SOL    HW119670   3.256   0.465   5.803 -0.2088 -0.5552  2.1773
 2737SOL    HW219671   3.170   0.404   5.905 -2.6403 -1.4921 -0.2388
 2738SOL     OW19672   0.690   3.408   3.516  0.2973  0.1637  0.5221
 2738SOL    HW119673   0.603   3.425   3.551 -0.7149 -4.4920  0.1722
 2738SOL    HW219674   0.721   3.362   3.594 -3.5591 -0.9591  1.3889
 2739SOL     OW19675   0.007   3.260  16.385 -0.0463  0.2588 -0.7029
 2739SOL    HW119676   0.029   3.299  16.469  0.5794 -1.6246  0.0159
 2739SOL    HW219677   4.668   3.198  16.421 -0.9175  1.0800 -0.8207
 2740SOL     OW19678   3.633   0.996   4.942 -0.1485  0.0648 -0.0419
 2740SOL    HW119679   3.568   0.931   4.917 -0.3926  0.5265 -0.6213
 2740SOL    HW219680   3.593   1.078   4.913  1.9635  1.3165  0.6041
 2741SOL     OW19681   1.764   1.247   4.670  0.0623 -0.1063 -0.8149
 2741SOL    HW119682   1.767   1.188   4.595  0.4715 -1.9755  0.6450
 2741SOL    HW219683   1.811   1.319   4.628  3.4275 -0.8734  1.5882
 2742SOL     OW19684   2.002   1.278  13.055 -0.2658 -0.4922 -0.4157
 2742SOL    HW119685   2.019   1.368  13.028 -0.7571 -0.1823  0.2967
 2742SOL    HW219686   1.981   1.240  12.970 -0.1485 -3.3353  0.8459
 2743SOL     OW19687   3.219   2.766  11.825  0.5578  0.1294 -0.0800
 2743SOL    HW119688   3.268   2.736  11.902  0.8966  0.2312 -0.2547
 2743SOL    HW219689   3.204   2.855  11.856  2.0386  0.2109  0.4219
 2744SOL     OW19690   3.872   0.813   1.727  0.7046 -0.8419  0.5309
 2744SOL    HW119691   3.939   0.811   1.659  0.7996  1.2512  0.5467
 2744SOL    HW219692   3.887   0.724   1.757  2.2811 -0.6598  0.2781
 2745SOL     OW19693   1.989   2.275  16.558  0.8841  0.1141  0.2833
 2745SOL    HW119694   1.942   2.346  16.600 -0.0250  0.2528 -0.9859
 2745SOL    HW219695   2.058   2.325  16.514 -0.0059 -0.4885 -1.8197
 2746SOL     OW19696   2.943   2.108   6.044  0.0372 -0.4307 -0.2820
 2746SOL    HW119697   3.010   2.066   6.099  0.6355  0.3700 -0.3972
 2746SOL    HW219698   2.891   2.149   6.113  0.1996 -0.5789 -0.0720
 2747SOL     OW19699   0.254   0.162   6.629  0.1850 -0.0877 -0.4025
 2747SOL    HW119700   0.292   0.090   6.679 -1.0489 -0.9602 -0.7176
 2747SOL    HW219701   0.196   0.211   6.687  1.1590  0.1493  0.3586
 2748SOL     OW19702   2.132   3.676  12.150  0.4125  0.0057  0.2781
 2748SOL    HW119703   2.194   3.696  12.220  1.4617  0.2810 -0.7480
 2748SOL    HW219704   2.108   3.587  12.177 -1.2948  0.5821  0.7221
 2749SOL     OW19705   2.435   4.217   9.693  0.2209  0.3645 -0.8186
 2749SOL    HW119706   2.451   4.309   9.715 -1.8924  0.1347  1.6682
 2749SOL    HW219707   2.503   4.221   9.626  0.7803  1.6415 -0.1976
 2750SOL     OW19708   3.582   1.303  17.306 -0.0305  0.7264  0.4060
 2750SOL    HW119709   3.675   1.316  17.325 -0.1974  2.4655  0.0497
 2750SOL    HW219710   3.536   1.382  17.335  0.5386  0.6223  1.6051
 2751SOL     OW19711   2.287   4.380  16.321 -0.2715  0.6835 -0.0855
 2751SOL    HW119712   2.212   4.355  16.268 -0.9461 -2.0210  2.1589
 2751SOL    HW219713   2.351   4.362  16.252 -0.1705 -1.3015  0.5306
 2752SOL     OW19714   0.251   1.387   6.029 -0.3731 -0.1285  0.3525
 2752SOL    HW119715   0.257   1.319   5.962  1.3982  0.5087 -0.1385
 2752SOL    HW219716   0.199   1.452   5.982 -0.5180  0.3702  1.1959
 2753SOL     OW19717   0.897   1.798   8.405  0.2179 -0.2510  0.1442
 2753SOL    HW119718   0.858   1.806   8.492 -0.5580 -1.2395 -0.1149
 2753SOL    HW219719   0.979   1.848   8.411  0.1068  0.0964 -1.3173
 2754SOL     OW19720   3.143   4.147   8.813 -0.0097  0.4675 -0.3751
 2754SOL    HW119721   3.180   4.113   8.894  0.8208  1.1869 -0.4550
 2754SOL    HW219722   3.136   4.236   8.850 -3.1698  0.1824 -0.2268
 2755SOL     OW19723   2.620   3.324   2.489  0.9463 -0.2047  0.1427
 2755SOL    HW119724   2.537   3.300   2.530  1.0264  0.1277  0.5119
 2755SOL    HW219725   2.583   3.367   2.413  1.4257 -1.4529 -0.7866
 2756SOL     OW19726   1.075   2.708  17.128  0.5351 -0.6944 -0.0123
 2756SOL    HW119727   1.086   2.638  17.192 -1.5422  0.8822  2.0451
 2756SOL    HW219728   1.048   2.774  17.191  0.3915  0.8440 -1.6805
 2757SOL     OW19729   2.129   1.352  16.538 -0.2260  0.9070 -0.0988
 2757SOL    HW119730   2.165   1.413  16.473 -2.0386  2.7137  0.5885
 2757SOL    HW219731   2.110   1.276  16.483  0.6969 -0.5381  1.5614
 2758SOL     OW19732   0.949   4.318   6.751 -0.7322 -0.4732 -0.1572
 2758SOL    HW119733   0.986   4.234   6.779 -1.7545 -1.3037 -1.3442
 2758SOL    HW219734   0.871   4.308   6.806 -1.3335  1.7268 -0.6068
 2759SOL     OW19735   3.226   0.811   3.285 -0.4975 -0.0151 -0.3391
 2759SOL    HW119736   3.236   0.772   3.198  0.2490  0.8040 -0.6212
 2759SOL    HW219737   3.318   0.806   3.312 -0.7361  2.0069  0.8288
 2760SOL     OW19738   4.240   3.358   7.480 -0.2600  0.3921 -0.6859
 2760SOL    HW119739   4.165   3.388   7.429  0.0149  0.6221 -0.9540
 2760SOL    HW219740   4.240   3.422   7.550 -0.5581 -0.7491  0.3501
 2761SOL     OW19741   3.973   1.360   3.013 -0.6535  0.2662  0.7194
 2761SOL    HW119742   3.962   1.278   3.060  0.7941  0.2573  1.0228
 2761SOL    HW219743   4.034   1.401   3.074  1.8509  0.5591 -1.9882
 2762SOL     OW19744   1.452   3.768   3.293  0.2630 -0.6058 -0.1173
 2762SOL    HW119745   1.375   3.784   3.347 -1.1503 -0.1112 -2.2780
 2762SOL    HW219746   1.519   3.800   3.353 -0.3687  1.0057 -0.2970
 2763SOL     OW19747   0.522   2.504   9.519 -0.5226  0.5676  0.0110
 2763SOL    HW119748   0.587   2.434   9.514 -3.1822 -1.8796  0.0399
 2763SOL    HW219749   0.469   2.486   9.442  2.0396  0.8823 -1.8431
 2764SOL     OW19750   1.173   1.548   4.605 -0.6220  0.1626 -0.2567
 2764SOL    HW119751   1.129   1.585   4.681  2.0539  1.8613  0.4540
 2764SOL    HW219752   1.106   1.560   4.537 -0.9661 -0.5066 -0.0427
 2765SOL     OW19753   4.580   3.728   7.419 -0.0101 -0.4179 -0.2461
 2765SOL    HW119754   4.505   3.700   7.471 -0.1341  2.7632  1.2902
 2765SOL    HW219755   4.561   3.691   7.333 -2.6981  2.1701 -0.7486
 2766SOL     OW19756   0.926   0.219   8.082 -0.4360 -0.2628  0.3137
 2766SOL    HW119757   0.950   0.295   8.135 -0.3048  0.3151 -0.5898
 2766SOL    HW219758   0.845   0.191   8.126 -1.9011  2.4019 -0.6691
 2767SOL     OW19759   3.179   0.002  12.215  0.5493 -0.1533 -0.1888
 2767SOL    HW119760   3.244   0.019  12.283 -0.9463  1.0047  0.9594
 2767SOL    HW219761   3.158   4.634  12.219  1.2950 -0.1313  3.5662
 2768SOL     OW19762   4.585   3.005   7.564 -0.7727 -0.6100 -0.1245
 2768SOL    HW119763   4.497   3.043   7.576 -1.0956 -0.5629 -2.6687
 2768SOL    HW219764   4.622   3.028   7.649  0.2673  1.1442 -1.0444
 2769SOL     OW19765   0.246   3.970  12.801 -0.1041 -0.8045  0.3467
 2769SOL    HW119766   0.312   3.963  12.732 -0.0426  1.0451  0.2132
 2769SOL    HW219767   0.221   4.061  12.787 -3.1117 -1.6351  0.4737
 2770SOL     OW19768   2.878   2.471   5.809  0.1909 -0.0472 -0.4901
 2770SOL    HW119769   2.934   2.494   5.883  0.4931  0.7300 -0.9554
 2770SOL    HW219770   2.836   2.389   5.836 -0.5089  0.7606  0.8680
 2771SOL     OW19771   0.328   2.269   9.922  0.0929  0.0673  0.0522
 2771SOL    HW119772   0.246   2.295   9.963  0.1886 -1.1571  1.0249
 2771SOL    HW219773   0.358   2.212   9.993  0.1968 -0.7473 -0.6470
 2772SOL     OW19774   3.010   3.564  16.936 -0.0431 -0.1864  0.2941
 2772SOL    HW119775   2.921   3.599  16.948  0.1045  0.7795 -1.4972
 2772SOL    HW219776   2.997   3.471  16.950  1.0039 -0.2988  0.5072
 2773SOL     OW19777   2.830   1.759   2.335  0.1159  0.1465 -0.8695
 2773SOL    HW119778   2.765   1.794   2.395  1.2778  2.0146 -0.7065
 2773SOL    HW219779   2.766   1.724   2.273  1.6913 -2.3132 -1.1168
 2774SOL     OW19780   3.029   3.222   7.989 -0.4375 -0.3870 -0.4206
 2774SOL    HW119781   3.036   3.219   7.894  2.2522 -0.3160 -0.2125
 2774SOL    HW219782   3.046   3.312   8.017 -0.7623 -1.4790  3.2987
 2775SOL     OW19783   1.586   4.494   6.555  0.3209  0.1469 -0.2337
 2775SOL    HW119784   1.597   4.429   6.624  2.1601  0.6762 -0.0300
 2775SOL    HW219785   1.673   4.496   6.515  0.2811 -0.6189 -0.3641
 2776SOL     OW19786   2.423   2.157   3.420 -0.3158  0.1077  0.0027
 2776SOL    HW119787   2.362   2.229   3.434 -1.6726 -1.0195 -0.0686
 2776SOL    HW219788   2.366   2.081   3.431  0.0939 -0.0718  0.8167
 2777SOL     OW19789   2.430   1.205   9.564  0.8254  0.3089  0.9967
 2777SOL    HW119790   2.474   1.177   9.483 -1.7491  2.1535 -1.0606
 2777SOL    HW219791   2.440   1.120   9.607  0.6464 -0.2643 -0.0927
 2778SOL     OW19792   1.525   3.782  14.698 -0.3264 -0.2317 -0.2106
 2778SOL    HW119793   1.472   3.731  14.760 -0.0408  0.8091  0.8960
 2778SOL    HW219794   1.457   3.801  14.634  0.6050  1.7242 -0.6186
 2779SOL     OW19795   1.193   2.095   5.902  0.2802  0.6467  0.0802
 2779SOL    HW119796   1.123   2.138   5.952  1.3795  2.0662  0.3990
 2779SOL    HW219797   1.204   2.013   5.950  0.0659  0.1236 -0.7746
 2780SOL     OW19798   2.788   3.427  11.632 -0.4527  0.6818  0.2673
 2780SOL    HW119799   2.772   3.491  11.562  0.5270 -1.1173 -1.5932
 2780SOL    HW219800   2.759   3.477  11.708  2.2026  0.2577  1.5384
 2781SOL     OW19801   0.670   4.324   9.302  0.5830 -0.0062 -0.2736
 2781SOL    HW119802   0.596   4.383   9.320 -0.3706 -0.3767 -2.9293
 2781SOL    HW219803   0.729   4.392   9.270  1.1288  0.3855  1.5619
 2782SOL     OW19804   3.606   2.782  10.733 -0.2317 -0.0370  0.2455
 2782SOL    HW119805   3.640   2.701  10.771  2.1015  1.5039  1.4198
 2782SOL    HW219806   3.589   2.835  10.811 -0.6691  1.5126 -0.8893
 2783SOL     OW19807   2.999   2.705   8.714 -0.0492 -0.2798 -0.0831
 2783SOL    HW119808   3.003   2.800   8.720  0.6393 -0.4397  2.1575
 2783SOL    HW219809   3.004   2.676   8.623  1.9965  0.5992 -0.2715
 2784SOL     OW19810   1.807   0.511   7.806  0.4987 -0.1994 -0.2285
 2784SOL    HW119811   1.799   0.425   7.764  3.0430 -0.7042  0.3423
 2784SOL    HW219812   1.712   0.520   7.816  0.4822  0.0504 -0.6344
 2785SOL     OW19813   0.283   3.034   6.579  0.4276 -0.7949 -0.0732
 2785SOL    HW119814   0.230   3.094   6.631 -0.0133  0.4136 -1.8954
 2785SOL    HW219815   0.302   2.973   6.649  0.4425  1.9675  2.3183
 2786SOL     OW19816   2.454   2.995   9.595  0.4514  0.4692 -1.0837
 2786SOL    HW119817   2.403   3.027   9.521 -1.0743 -1.1689 -0.7144
 2786SOL    HW219818   2.462   3.062   9.663 -2.2114 -1.0496  0.7123
 2787SOL     OW19819   3.716   0.972   0.069 -0.0552  0.0209  0.0763
 2787SOL    HW119820   3.806   0.954   0.041 -0.7313 -1.2146 -1.2957
 2787SOL    HW219821   3.665   0.979  17.688  1.2901  0.3403 -0.7463
 2788SOL     OW19822   3.057   4.329  16.346  0.0451  0.1029 -0.1252
 2788SOL    HW119823   3.051   4.416  16.305  0.8444  0.4773  0.5698
 2788SOL    HW219824   2.975   4.288  16.316 -0.4240  0.1707  1.0736
 2789SOL     OW19825   0.126   0.845   9.013 -0.7926  0.2850  0.0716
 2789SOL    HW119826   0.180   0.916   8.980 -1.2001  0.7138  0.3156
 2789SOL    HW219827   0.052   0.901   9.038 -0.5994  0.4265  0.3234
 2790SOL     OW19828   0.047   1.774   4.553  0.7070  0.1560  0.0171
 2790SOL    HW119829   0.024   1.684   4.530  1.2891 -0.6754  2.6312
 2790SOL    HW219830   4.710   1.831   4.507 -0.8021 -0.3092  1.4478
 2791SOL     OW19831   3.103   3.130   1.231  0.3066 -0.6815 -0.1978
 2791SOL    HW119832   3.162   3.056   1.217  0.8712 -0.0491 -1.1175
 2791SOL    HW219833   3.068   3.105   1.316 -2.3576  0.1228 -1.0433
 2792SOL     OW19834   3.858   1.247   2.801  0.3053  0.2795  0.2802
 2792SOL    HW119835   3.881   1.294   2.721 -0.5250  1.5738  0.7857
 2792SOL    HW219836   3.907   1.301   2.863  0.8636 -0.3235  0.3608
 2793SOL     OW19837   2.393   1.169   9.992 -0.5568  0.5368 -0.1252
 2793SOL    HW119838   2.419   1.261   9.989  1.5291  0.0092  1.4820
 2793SOL    HW219839   2.426   1.145  10.079 -1.9917  3.3270  1.1850
 2794SOL     OW19840   1.020   3.297   8.922  0.3114  0.1457  0.2575
 2794SOL    HW119841   1.095   3.356   8.927  1.3362 -1.1072 -0.2174
 2794SOL    HW219842   1.038   3.243   8.999  3.6254 -0.4840 -0.9381
 2795SOL     OW19843   3.128   1.755   5.203 -0.0587  0.1998  0.0641
 2795SOL    HW119844   3.035   1.735   5.203  0.4565 -2.1809 -1.0790
 2795SOL    HW219845   3.126   1.826   5.138  0.7382 -1.3862 -1.6723
 2796SOL     OW19846   3.972   4.332  12.565 -0.4165  0.6602  0.0900
 2796SOL    HW119847   4.062   4.305  12.586 -0.1731  1.3613 -0.0555
 2796SOL    HW219848   3.976   4.422  12.596 -2.0508  1.6989 -2.7147
 2797SOL     OW19849   3.698   0.784   6.270  0.3024  0.1044 -0.1696
 2797SOL    HW119850   3.661   0.857   6.319 -0.8553 -0.1487 -0.6615
 2797SOL    HW219851   3.791   0.804   6.259  0.5708 -0.2667  1.4628
 2798SOL     OW19852   0.013   1.241   4.246  0.6362  0.6443 -0.0827
 2798SOL    HW119853   4.645   1.218   4.250  0.0141  2.9931 -0.8614
 2798SOL    HW219854   0.016   1.334   4.268  1.3837  0.5740  0.1203
 2799SOL     OW19855   0.778   3.063   8.199 -0.1473 -0.5145  0.3151
 2799SOL    HW119856   0.689   3.031   8.183 -0.0117 -1.4279  1.4292
 2799SOL    HW219857   0.766   3.157   8.212  1.0399 -0.4137  0.6713
 2800SOL     OW19858   4.445   1.242   1.198  0.0020  0.4109  0.3211
 2800SOL    HW119859   4.444   1.304   1.125  3.0110 -1.3925 -1.2284
 2800SOL    HW219860   4.359   1.251   1.240  0.7337  2.6970  1.3231
 2801SOL     OW19861   0.922   3.627  17.378  0.0398  0.7135  0.1316
 2801SOL    HW119862   0.838   3.649  17.416  0.8304 -0.1594  2.3473
 2801SOL    HW219863   0.984   3.694  17.407 -0.8729  1.3734  0.5595
 2802SOL     OW19864   2.921   0.923  12.334 -0.9932 -0.2278  0.5068
 2802SOL    HW119865   2.948   0.833  12.314 -2.6775 -1.0792  1.9872
 2802SOL    HW219866   2.858   0.934  12.263 -0.2447 -0.1050 -0.1316
 2803SOL     OW19867   2.615   3.204   9.840  0.6675 -0.4745  0.4473
 2803SOL    HW119868   2.621   3.177   9.932  2.1549  1.1318  0.8292
 2803SOL    HW219869   2.523   3.182   9.831  0.5757 -0.0189  0.2651
 2804SOL     OW19870   4.443   0.962   9.378  0.3038 -0.2362  0.1406
 2804SOL    HW119871   4.491   0.934   9.456 -1.8697 -3.3590  0.3690
 2804SOL    HW219872   4.459   1.056   9.376  3.1093 -0.7173 -0.2762
 2805SOL     OW19873   2.676   4.014   8.545 -0.4731 -0.2212  0.4683
 2805SOL    HW119874   2.704   4.105   8.547 -0.8515 -0.0986  0.1813
 2805SOL    HW219875   2.585   4.025   8.571 -0.3892  0.2065  0.5874
 2806SOL     OW19876   4.575   0.699   5.057  0.3266 -0.6947  0.2637
 2806SOL    HW119877   4.584   0.794   5.047  1.6897 -0.8052  0.3554
 2806SOL    HW219878   4.491   0.679   5.097  0.3898  0.1639  0.8319
 2807SOL     OW19879   2.795   4.287  10.247  0.2814 -0.3542  0.1165
 2807SOL    HW119880   2.890   4.295  10.253  0.4605  0.5728 -3.5916
 2807SOL    HW219881   2.791   4.193  10.267 -1.5176  0.2712  2.6875
 2808SOL     OW19882   3.786   4.424   7.039 -0.1615 -0.4978  0.0089
 2808SOL    HW119883   3.844   4.471   7.098  0.0838  1.4817 -1.8103
 2808SOL    HW219884   3.805   4.333   7.062 -1.3350 -0.1403  2.3341
 2809SOL     OW19885   2.166   3.822   1.682  0.4969 -0.7799 -0.7797
 2809SOL    HW119886   2.095   3.867   1.727  0.8620 -1.8210  0.8345
 2809SOL    HW219887   2.233   3.890   1.687  0.6058 -0.9619  0.2428
 2810SOL     OW19888   0.703   2.433   9.807 -0.5641 -0.3877  0.0454
 2810SOL    HW119889   0.620   2.476   9.788 -0.5129 -1.0595 -1.7610
 2810SOL    HW219890   0.733   2.492   9.876  0.5760 -1.0102  0.0775
 2811SOL     OW19891   4.064   3.278   4.738 -0.0284 -0.0589 -0.0075
 2811SOL    HW119892   4.049   3.331   4.659  1.4611 -0.6719 -0.6852
 2811SOL    HW219893   4.101   3.202   4.694  1.6111  1.0972 -0.6536
 2812SOL     OW19894   2.046   3.132  11.053  0.3207  0.5262  0.0487
 2812SOL    HW119895   1.966   3.082  11.073 -1.3429  3.2201  0.0968
 2812SOL    HW219896   2.016   3.153  10.965  2.0720 -0.6030 -0.8275
 2813SOL     OW19897   1.988   1.726  16.836 -0.6057 -0.1980 -0.4266
 2813SOL    HW119898   2.023   1.695  16.919  1.4491  0.5416 -1.0301
 2813SOL    HW219899   1.983   1.639  16.796  2.4454  0.5376 -2.3857
 2814SOL     OW19900   0.139   3.576  11.615  0.0671 -0.1468 -0.0533
 2814SOL    HW119901   0.210   3.568  11.551  2.2124  2.7951  1.9628
 2814SOL    HW219902   0.173   3.645  11.672 -0.5061  1.3642 -1.5272
 2815SOL     OW19903   1.793   0.263   9.540  0.2300  0.3421  0.3540
 2815SOL    HW119904   1.706   0.236   9.569 -0.5493  2.3351 -0.1825
 2815SOL    HW219905   1.845   0.183   9.550  1.1574  0.9264  0.2029
 2816SOL     OW19906   4.327   3.334   4.852  0.2142 -0.0929  0.0004
 2816SOL    HW119907   4.265   3.299   4.788  0.9751 -0.6747 -0.4164
 2816SOL    HW219908   4.410   3.320   4.805  0.4735 -0.2642  0.5072
 2817SOL     OW19909   0.126   0.972   4.967 -0.2480 -0.3577  0.2773
 2817SOL    HW119910   0.041   0.950   5.005 -1.1967 -0.6223 -2.0365
 2817SOL    HW219911   0.160   1.045   5.020 -1.2341 -0.8028  1.5245
 2818SOL     OW19912   4.411   1.730   3.577  0.0534  0.2357 -0.3542
 2818SOL    HW119913   4.373   1.812   3.611  0.6536  0.8360 -1.1468
 2818SOL    HW219914   4.424   1.749   3.485  1.1057 -0.6335 -0.3771
 2819SOL     OW19915   3.780   4.196   9.519 -0.2159  0.3029  0.1255
 2819SOL    HW119916   3.713   4.135   9.487 -1.3971  0.2828  2.6365
 2819SOL    HW219917   3.767   4.192   9.613 -0.6813 -1.6075 -0.0065
 2820SOL     OW19918   3.848   1.605   8.286 -0.2837 -0.9616  0.0957
 2820SOL    HW119919   3.887   1.634   8.204  0.2656 -0.5916  0.4874
 2820SOL    HW219920   3.913   1.536   8.302  0.5310 -0.3298 -0.4490
 2821SOL     OW19921   2.797   0.523   9.587 -0.0085 -0.3260 -0.1380
 2821SOL    HW119922   2.717   0.550   9.540 -0.3522 -1.4382 -0.1905
 2821SOL    HW219923   2.829   0.611   9.605 -1.3424 -0.4105  2.6844
 2822SOL     OW19924   3.726   3.398   0.160  0.3049 -0.1274  0.3389
 2822SOL    HW119925   3.668   3.472   0.171  0.3916 -0.0648  0.3802
 2822SOL    HW219926   3.810   3.444   0.157  1.4028 -2.1414 -0.2855
 2823SOL     OW19927   3.521   3.328   1.593  0.3081 -0.2739  0.2493
 2823SOL    HW119928   3.560   3.321   1.680 -0.5309  0.6627  0.6911
 2823SOL    HW219929   3.598   3.304   1.541  2.1391  0.3594  2.6784
 2824SOL     OW19930   4.267   3.237   8.842 -0.2747 -0.1181  0.0596
 2824SOL    HW119931   4.303   3.205   8.925  1.7336  1.2884 -0.2903
 2824SOL    HW219932   4.236   3.158   8.798  0.5702  0.4487 -1.5633
 2825SOL     OW19933   0.990   0.024   5.282 -0.0183 -0.1297 -0.0683
 2825SOL    HW119934   1.001   4.698   5.363 -1.5774  1.6394  1.2411
 2825SOL    HW219935   1.081   0.049   5.267  0.2913 -0.6137  0.9804
 2826SOL     OW19936   3.755   0.558   8.318 -0.0814  0.5173 -0.1811
 2826SOL    HW119937   3.850   0.551   8.333 -0.2063 -3.1732 -0.9768
 2826SOL    HW219938   3.714   0.515   8.393 -0.6462  1.7010  0.1874
 2827SOL     OW19939   2.153   2.618   4.440  0.0182 -0.3417  0.5159
 2827SOL    HW119940   2.155   2.533   4.484  3.1285  0.5379  2.0944
 2827SOL    HW219941   2.200   2.610   4.357  1.8808  2.1805  1.3480
 2828SOL     OW19942   1.106   3.913   7.280 -0.0006  0.6330 -0.4619
 2828SOL    HW119943   1.055   3.845   7.325 -0.3760  2.3221  1.6695
 2828SOL    HW219944   1.092   3.882   7.191  0.2570 -0.9737  0.0450
 2829SOL     OW19945   3.400   1.869   3.730 -0.0518 -0.3714  0.3652
 2829SOL    HW119946   3.485   1.827   3.737  0.3388  0.1710 -1.3192
 2829SOL    HW219947   3.341   1.809   3.776 -0.8336 -0.5395 -0.8516
 2830SOL     OW19948   2.652   4.466   9.383 -0.7038 -0.5863 -0.1373
 2830SOL    HW119949   2.572   4.468   9.436 -1.2003  0.4678 -0.9352
 2830SOL    HW219950   2.711   4.502   9.449 -1.2758  0.4561 -0.1915
 2831SOL     OW19951   2.003   3.866  15.764  0.0458  0.3997  0.3242
 2831SOL    HW119952   2.059   3.926  15.714 -0.1611 -0.3845 -0.8535
 2831SOL    HW219953   2.005   3.785  15.712 -0.7045  2.0303 -2.2733
 2832SOL     OW19954   2.937   4.580  13.175  0.2637 -0.7883 -0.0306
 2832SOL    HW119955   2.966   4.656  13.225 -0.6626  0.0013 -0.7043
 2832SOL    HW219956   2.881   4.619  13.109  1.1194  1.4695  0.5778
 2833SOL     OW19957   2.483   1.893   8.210 -0.5169 -0.7628 -0.2492
 2833SOL    HW119958   2.517   1.820   8.263 -0.0344 -0.0955  0.3584
 2833SOL    HW219959   2.390   1.874   8.223 -0.8711  0.8020 -0.5429
 2834SOL     OW19960   4.584   3.319   8.486  0.0248 -0.2302 -0.2591
 2834SOL    HW119961   4.630   3.239   8.511 -1.3591 -0.5445  1.2491
 2834SOL    HW219962   4.592   3.382   8.558  1.7679  2.3570 -2.7030
 2835SOL     OW19963   0.085   4.569   5.548 -0.2893 -0.2587  0.0558
 2835SOL    HW119964   0.081   4.479   5.581  0.0113  0.1716  1.2726
 2835SOL    HW219965   0.181   4.572   5.545 -0.4645  1.1141 -3.6420
 2836SOL     OW19966   0.916   0.973   2.494  0.1308  0.1272 -0.1975
 2836SOL    HW119967   0.939   1.064   2.478 -0.2447 -0.3246 -3.3010
 2836SOL    HW219968   0.953   0.950   2.580 -1.1369  0.7049  0.4966
 2837SOL     OW19969   3.003   3.192   0.945 -0.3087  0.4415 -0.3640
 2837SOL    HW119970   3.005   3.155   1.033 -1.5087  1.9267  0.2648
 2837SOL    HW219971   3.001   3.284   0.970  0.2033 -0.0932  1.6124
 2838SOL     OW19972   4.096   3.923  12.777  0.3959 -0.0628  0.6437
 2838SOL    HW119973   4.096   3.827  12.784 -0.6393 -0.1894 -1.1086
 2838SOL    HW219974   4.152   3.960  12.845 -0.7371  1.1132  0.9205
 2839SOL     OW19975   1.791   4.065   5.687  0.4752 -0.3379 -0.0438
 2839SOL    HW119976   1.729   4.003   5.724  0.8276 -0.2650  0.6702
 2839SOL    HW219977   1.773   4.139   5.746  1.8022  0.7052 -0.9332
 2840SOL     OW19978   3.973   3.395  16.709  0.0593  0.0508  0.4559
 2840SOL    HW119979   3.977   3.323  16.772 -2.1583 -0.2314  0.2850
 2840SOL    HW219980   3.886   3.381  16.672  0.8638  0.7442 -1.6834
 2841SOL     OW19981   1.714   1.969   8.133 -0.5514 -0.0387 -0.1581
 2841SOL    HW119982   1.776   1.905   8.166  0.8671  1.2535 -0.3548
 2841SOL    HW219983   1.775   2.024   8.083  0.1868  1.1048  2.0113
 2842SOL     OW19984   2.282   0.337   6.570 -0.1087 -0.5161  0.8338
 2842SOL    HW119985   2.189   0.321   6.555 -0.0582 -0.8198  0.8314
 2842SOL    HW219986   2.291   0.343   6.665  1.0874 -1.8575  0.8186
 2843SOL     OW19987   0.332   4.287  15.963 -0.5510 -0.1688 -0.0695
 2843SOL    HW119988   0.300   4.338  16.037 -1.3484 -1.1239  0.2484
 2843SOL    HW219989   0.292   4.329  15.887 -0.9849  0.5592  0.5660
 2844SOL     OW19990   4.391   1.293   7.168 -0.7861  0.5450 -0.3662
 2844SOL    HW119991   4.478   1.315   7.135 -0.5417 -0.1597 -0.1953
 2844SOL    HW219992   4.413   1.204   7.196  1.1940  1.0269 -0.3747
 2845SOL     OW19993   3.988   4.257   1.786 -0.7985  0.5685  0.6309
 2845SOL    HW119994   3.950   4.331   1.833 -1.0247  0.3234  0.8385
 2845SOL    HW219995   4.079   4.264   1.815  0.2236 -0.9182 -2.1944
 2846SOL     OW19996   0.350   0.004   6.819 -0.2933  0.2647  0.1683
 2846SOL    HW119997   0.431   4.706   6.774 -0.7713 -1.2859  0.0692
 2846SOL    HW219998   0.367   0.010   6.913 -1.3125  1.5878  0.2686
 2847SOL     OW19999   2.580   1.788   5.192 -0.3319  0.3069  0.2341
 2847SOL    HW120000   2.517   1.718   5.174 -1.1249  1.2177 -0.5335
 2847SOL    HW220001   2.650   1.769   5.129 -1.0943 -1.2571 -0.1464
 2848SOL     OW20002   3.316   1.570  15.023 -0.1435  0.1134  0.2247
 2848SOL    HW120003   3.333   1.560  15.116  0.7850  2.6178  0.3247
 2848SOL    HW220004   3.326   1.481  14.989 -1.0302 -0.2371  0.8698
 2849SOL     OW20005   3.131   3.617  13.525 -0.0930  0.4488  0.1672
 2849SOL    HW120006   3.047   3.605  13.481 -0.5484 -1.3806  1.5347
 2849SOL    HW220007   3.146   3.529  13.560  0.3738  0.1623 -0.7716
 2850SOL     OW20008   1.328   3.174  15.213 -0.5238  0.0997  0.0736
 2850SOL    HW120009   1.391   3.119  15.261  0.5667 -1.8164 -3.5346
 2850SOL    HW220010   1.252   3.117  15.226  1.2514 -2.1355  0.7073
 2851SOL     OW20011   1.562   3.670   7.135  0.0420 -0.6211  0.3676
 2851SOL    HW120012   1.605   3.642   7.216 -1.2532 -2.5857  0.3617
 2851SOL    HW220013   1.570   3.765   7.148 -1.1367 -0.4751  0.0227
 2852SOL     OW20014   2.289   3.427   4.614 -0.2175 -0.6224 -0.2744
 2852SOL    HW120015   2.207   3.472   4.633 -0.8569 -1.0582 -1.9661
 2852SOL    HW220016   2.270   3.350   4.560 -0.6237  0.0173 -1.0417
 2853SOL     OW20017   2.077   4.436   3.299 -0.1296 -0.1054  0.0499
 2853SOL    HW120018   2.022   4.371   3.343  2.6859 -1.8876  0.8954
 2853SOL    HW220019   2.006   4.487   3.259  0.6921 -2.5887 -4.6083
 2854SOL     OW20020   0.994   1.681   4.764  0.0954  0.6506  0.2372
 2854SOL    HW120021   0.925   1.738   4.731  1.3630  1.5318 -0.8511
 2854SOL    HW220022   1.056   1.745   4.799  2.9164 -1.9397  0.0010
 2855SOL     OW20023   3.474   0.711  13.162  0.1981 -0.8150 -0.2059
 2855SOL    HW120024   3.409   0.730  13.094  0.1527  0.5768  0.2089
 2855SOL    HW220025   3.530   0.788  13.151  1.0235 -1.2953  0.6706
 2856SOL     OW20026   2.176   4.006   3.198 -0.1601 -0.3351  0.0043
 2856SOL    HW120027   2.244   4.067   3.170 -0.9024  0.1589 -0.7041
 2856SOL    HW220028   2.095   4.057   3.199  0.3204  0.4383 -0.6539
 2857SOL     OW20029   2.887   0.352   4.879  0.2460  0.0028  0.2437
 2857SOL    HW120030   2.805   0.377   4.839 -1.0131 -2.6358  1.1808
 2857SOL    HW220031   2.882   0.414   4.952 -1.1709  0.4941 -0.2828
 2858SOL     OW20032   3.511   0.854   3.338 -0.3293  0.6905 -0.2512
 2858SOL    HW120033   3.574   0.923   3.320  0.3097  0.4280  0.9778
 2858SOL    HW220034   3.470   0.888   3.418 -0.9119  2.1638 -1.1798
 2859SOL     OW20035   1.778   0.645   3.949 -0.6662 -0.4500  0.5290
 2859SOL    HW120036   1.717   0.618   3.881 -0.1210 -0.8615  0.2109
 2859SOL    HW220037   1.765   0.740   3.940  0.4154 -0.2821  0.7663
 2860SOL     OW20038   0.763   0.602   6.978  0.2334 -0.1911 -0.0413
 2860SOL    HW120039   0.803   0.599   6.891 -1.6192 -1.4002 -0.8647
 2860SOL    HW220040   0.716   0.685   6.977  0.5823 -0.0130 -0.9395
 2861SOL     OW20041   4.336   2.107  13.937  0.0831  0.5915 -0.4977
 2861SOL    HW120042   4.275   2.175  13.905  0.7386  1.5242  0.2426
 2861SOL    HW220043   4.324   2.042  13.867  4.6244 -2.1234  1.2728
 2862SOL     OW20044   0.964   1.198   1.062 -0.1737 -0.2719  0.2008
 2862SOL    HW120045   0.911   1.232   1.134 -0.4799 -1.4235  0.5145
 2862SOL    HW220046   0.976   1.277   1.008 -0.1513  0.1286  0.7913
 2863SOL     OW20047   1.592   0.073   7.720 -0.9321 -0.4004 -0.1432
 2863SOL    HW120048   1.522   0.134   7.741 -1.9771 -1.7267  0.2214
 2863SOL    HW220049   1.563   0.045   7.633 -2.3412  0.6585 -0.0102
 2864SOL     OW20050   4.082   4.500   6.253  0.0749 -0.3932 -0.4443
 2864SOL    HW120051   4.100   4.434   6.187  1.2504 -0.8519  0.3557
 2864SOL    HW220052   4.134   4.572   6.218  0.4427 -0.3742  0.1454
 2865SOL     OW20053   2.382   1.681   3.291 -0.1234  0.3905  0.1890
 2865SOL    HW120054   2.473   1.692   3.319  0.3342 -0.3360 -1.0317
 2865SOL    HW220055   2.365   1.589   3.310 -1.0806  0.1540 -1.7640
 2866SOL     OW20056   1.538   0.179  17.372  0.1324 -0.1000 -0.3266
 2866SOL    HW120057   1.483   0.105  17.345  2.0672 -1.1597 -1.3400
 2866SOL    HW220058   1.487   0.252  17.337 -0.4088  0.0502  0.7980
 2867SOL     OW20059   4.548   3.362   9.040 -0.0696  0.2357  0.3304
 2867SOL    HW120060   4.581   3.278   9.071 -3.3365 -1.2954 -0.4092
 2867SOL    HW220061   4.545   3.412   9.122 -1.5059 -1.6958  1.4547
 2868SOL     OW20062   4.286   2.390   0.579  0.0571 -0.1484  0.0318
 2868SOL    HW120063   4.230   2.442   0.637  0.1027 -1.0631  0.8894
 2868SOL    HW220064   4.296   2.311   0.632 -0.1625  0.2116  0.6047
 2869SOL     OW20065   0.191   1.599  13.119 -0.9587  0.7554  0.7244
 2869SOL    HW120066   0.286   1.607  13.127 -1.0698  2.2054  0.5540
 2869SOL    HW220067   0.173   1.522  13.173  1.5185 -0.3679 -0.0645
 2870SOL     OW20068   0.542   0.369  16.274  0.3084 -0.0841  0.3969
 2870SOL    HW120069   0.622   0.351  16.227  0.3400  0.9269  0.0659
 2870SOL    HW220070   0.519   0.448  16.225  0.1256 -0.4433 -0.0970
 2871SOL     OW20071   2.236   2.682  13.061  0.3396 -0.5182 -0.3866
 2871SOL    HW120072   2.214   2.747  12.994  0.6966  0.0105  0.0117
 2871SOL    HW220073   2.330   2.695  13.075  0.1609 -0.8936  1.0843
 2872SOL     OW20074   1.761   2.064   3.792 -0.1350 -0.3459  0.3685
 2872SOL    HW120075   1.762   1.976   3.755 -1.2422 -1.2495  2.5029
 2872SOL    HW220076   1.670   2.091   3.780  0.1679  1.6927  2.6473
 2873SOL     OW20077   0.425   3.945   0.017 -0.1221 -0.7603  0.3874
 2873SOL    HW120078   0.380   3.989  17.644 -0.4937 -0.4813  0.7907
 2873SOL    HW220079   0.515   3.936  17.683  0.3030 -1.9041  1.8602
 2874SOL     OW20080   0.338   3.229  11.589  0.1594  0.0848 -0.6643
 2874SOL    HW120081   0.421   3.183  11.589  0.5171  0.7280 -1.2262
 2874SOL    HW220082   0.364   3.321  11.576  3.0058 -0.8964 -1.7751
 2875SOL     OW20083   2.163   0.708  13.079 -0.2280  0.0779  0.1600
 2875SOL    HW120084   2.096   0.652  13.119 -0.6175 -1.6475 -2.9094
 2875SOL    HW220085   2.218   0.716  13.157  0.0585  0.5236 -0.0890
 2876SOL     OW20086   4.049   2.575   0.948 -0.2678  0.5542  0.0714
 2876SOL    HW120087   4.045   2.504   1.012 -0.8693  2.1738  1.8560
 2876SOL    HW220088   4.105   2.638   0.993 -0.0975 -1.2044  2.3434
 2877SOL     OW20089   2.497   4.580   7.428  0.1451 -0.3100  0.0130
 2877SOL    HW120090   2.570   4.636   7.457  1.0981 -0.8780 -1.2872
 2877SOL    HW220091   2.529   4.502   7.472 -2.1848  0.0149  2.2549
 2878SOL     OW20092   1.205   1.584   1.173  0.1254 -0.2546  0.1613
 2878SOL    HW120093   1.200   1.500   1.128 -1.3760 -0.2888  0.4065
 2878SOL    HW220094   1.266   1.637   1.122 -0.5451  0.9776  0.6395
 2879SOL     OW20095   0.139   4.203   2.912 -0.1047  0.2103  0.0079
 2879SOL    HW120096   0.187   4.280   2.882 -0.8022  0.6419  0.0132
 2879SOL    HW220097   0.213   4.156   2.952  0.0344 -0.1359 -0.6525
 2880SOL     OW20098   2.251   1.991  10.710 -0.0118  0.4182 -0.0495
 2880SOL    HW120099   2.181   1.971  10.648  0.0494 -0.6365  0.2192
 2880SOL    HW220100   2.292   2.075  10.689  1.1444 -0.1003  0.1215
 2881SOL     OW20101   0.258   4.048   1.195  0.3829 -0.4193 -0.4274
 2881SOL    HW120102   0.287   4.123   1.143 -0.2778  0.0784 -0.0745
 2881SOL    HW220103   0.265   3.978   1.130 -1.2765  0.1541 -1.2099
 2882SOL     OW20104   1.637   0.998  11.684  0.5874 -0.3736  0.1229
 2882SOL    HW120105   1.557   1.049  11.670 -0.3903 -1.4818  1.7543
 2882SOL    HW220106   1.608   0.911  11.658  1.8825 -1.4363  2.2770
 2883SOL     OW20107   3.847   3.301   2.758  0.5149  0.5085  0.1442
 2883SOL    HW120108   3.840   3.374   2.697 -0.2741  0.6256  0.3771
 2883SOL    HW220109   3.798   3.334   2.833  1.4453 -1.7298  1.7388
 2884SOL     OW20110   1.188   1.348  17.546 -0.8273 -0.0136 -0.0508
 2884SOL    HW120111   1.161   1.435  17.517 -0.6114 -0.2112 -0.8439
 2884SOL    HW220112   1.099   1.322  17.572 -0.9772 -0.1895 -0.7316
 2885SOL     OW20113   1.839   1.747   3.155  0.3382  0.1474 -0.4699
 2885SOL    HW120114   1.921   1.725   3.199  0.1811 -1.4068 -0.9806
 2885SOL    HW220115   1.875   1.726   3.069 -0.1093 -0.0101 -0.6149
 2886SOL     OW20116   1.394   0.520  14.697  0.5851 -0.1225 -0.5473
 2886SOL    HW120117   1.385   0.426  14.710 -0.8709 -0.0395 -1.0403
 2886SOL    HW220118   1.438   0.554  14.775 -1.2846 -2.9895  1.7330
 2887SOL     OW20119   2.261   1.779   7.207  0.2597  0.4004  0.4897
 2887SOL    HW120120   2.235   1.692   7.236  2.9871 -0.5477  0.0750
 2887SOL    HW220121   2.349   1.765   7.171 -1.4569 -3.5048 -2.1513
 2888SOL     OW20122   4.621   4.406  16.709 -0.0732  0.0882 -0.0552
 2888SOL    HW120123   4.635   4.352  16.631 -1.5742 -1.2150  0.5913
 2888SOL    HW220124   4.615   4.491  16.664  0.1090  0.2889  0.3011
 2889SOL     OW20125   1.294   1.672   2.785 -0.0460 -0.6867 -0.1744
 2889SOL    HW120126   1.336   1.698   2.867 -0.2859 -2.7664  0.6114
 2889SOL    HW220127   1.339   1.588   2.775  0.0376 -0.8032  1.2392
 2890SOL     OW20128   2.182   3.954   5.043 -0.1272  0.3528  0.3280
 2890SOL    HW120129   2.273   3.978   5.060  0.0302  1.0837 -1.5359
 2890SOL    HW220130   2.148   4.033   5.000  2.4269  1.7647  0.8726
 2891SOL     OW20131   1.330   0.851   6.295  0.3568 -0.2674 -0.6531
 2891SOL    HW120132   1.251   0.905   6.297  2.3310  2.5203  1.1287
 2891SOL    HW220133   1.316   0.786   6.226 -2.0251 -2.4881  1.9139
 2892SOL     OW20134   0.006   4.078   9.899  0.6258  0.3355 -0.0224
 2892SOL    HW120135   4.657   4.069   9.839  1.8623 -0.5680 -1.4009
 2892SOL    HW220136   0.081   4.078   9.839 -0.6305 -0.4337 -1.5728
 2893SOL     OW20137   1.550   0.080   5.207  0.0910  0.1940 -0.0442
 2893SOL    HW120138   1.623   0.122   5.160  0.0721  1.1220  0.7369
 2893SOL    HW220139   1.551   0.126   5.291 -0.8568 -1.3704  0.8212
 2894SOL     OW20140   1.452   1.979   3.311  0.2038 -0.7584  0.6238
 2894SOL    HW120141   1.495   1.950   3.230  2.0070 -2.6833  2.2679
 2894SOL    HW220142   1.518   2.028   3.360 -1.5722  1.0342  1.2324
 2895SOL     OW20143   2.962   4.516   5.207 -0.4549  0.3269  0.2832
 2895SOL    HW120144   3.044   4.560   5.231 -0.4502  0.2695  0.3710
 2895SOL    HW220145   2.905   4.593   5.217 -0.6624  0.3519 -1.0759
 2896SOL     OW20146   4.080   3.557   4.879 -0.0807  0.6522 -0.0154
 2896SOL    HW120147   4.036   3.488   4.929 -1.2701  1.0218 -0.5607
 2896SOL    HW220148   4.162   3.513   4.858  0.0830  0.7240  0.4624
 2897SOL     OW20149   1.309   3.906   4.262 -0.2635  0.2459 -0.1364
 2897SOL    HW120150   1.306   3.826   4.210 -3.2104 -1.0647  2.0951
 2897SOL    HW220151   1.318   3.860   4.345  1.2991  2.0851  0.7285
 2898SOL     OW20152   4.322   4.550   8.968  0.4118 -0.4649 -0.0260
 2898SOL    HW120153   4.392   4.609   8.996 -0.0800 -1.0717  2.4585
 2898SOL    HW220154   4.369   4.498   8.903  0.2002 -1.3173  0.4991
 2899SOL     OW20155   3.854   3.117   2.391 -0.4736  0.6723  0.3595
 2899SOL    HW120156   3.847   3.028   2.424 -0.1375  1.0263  1.3678
 2899SOL    HW220157   3.765   3.125   2.356 -0.4738  2.4122  0.7552
 2900SOL     OW20158   3.557   4.423  12.849 -0.2948 -0.5711 -0.1220
 2900SOL    HW120159   3.547   4.493  12.785 -2.4670 -0.8276 -0.0778
 2900SOL    HW220160   3.614   4.464  12.914 -3.2069  1.2678  1.2659
 2901SOL     OW20161   4.311   4.379  10.952 -0.5808 -0.4416  0.0237
 2901SOL    HW120162   4.263   4.309  10.907 -1.3256  0.6983 -0.9524
 2901SOL    HW220163   4.375   4.324  10.997 -1.4414 -0.7928  0.8107
 2902SOL     OW20164   0.813   1.243   2.250 -0.1078  0.0827 -0.6618
 2902SOL    HW120165   0.719   1.235   2.270  0.4508  1.4379  2.4235
 2902SOL    HW220166   0.815   1.199   2.165 -1.9143  0.4645 -0.9055
 2903SOL     OW20167   3.605   1.457   8.850 -0.4350 -1.0332 -0.1632
 2903SOL    HW120168   3.667   1.443   8.922  1.7796 -0.8187 -2.0410
 2903SOL    HW220169   3.662   1.501   8.787 -0.6963 -1.0799 -0.4297
 2904SOL     OW20170   0.087   4.019   0.780 -0.0920 -0.2852 -0.3714
 2904SOL    HW120171   0.040   3.936   0.783  0.7736 -0.7931 -0.9939
 2904SOL    HW220172   0.102   4.034   0.687  0.5487 -0.4744 -0.2958
 2905SOL     OW20173   0.616   3.393  13.219 -0.1424 -0.1991 -0.0445
 2905SOL    HW120174   0.590   3.382  13.127  1.7724  0.5479 -0.6919
 2905SOL    HW220175   0.621   3.300  13.243  2.1269  0.5187  2.2720
 2906SOL     OW20176   3.626   3.043   8.182  0.7601  0.4200 -0.7822
 2906SOL    HW120177   3.566   3.071   8.113  0.8723 -1.2752 -1.5629
 2906SOL    HW220178   3.571   3.052   8.260  1.3595 -0.9857 -0.2051
 2907SOL     OW20179   4.155   0.010  11.442  0.3079 -0.0777  0.0164
 2907SOL    HW120180   4.200   0.092  11.426 -1.5109  0.2690 -3.3560
 2907SOL    HW220181   4.083   0.054  11.488  0.4093  0.7996 -0.6815
 2908SOL     OW20182   3.892   2.838   9.791  0.2510  0.0418  0.1258
 2908SOL    HW120183   3.826   2.861   9.856  0.5917  1.2839  0.0285
 2908SOL    HW220184   3.841   2.823   9.711  0.7892  0.2592 -0.2632
 2909SOL     OW20185   0.748   4.232   4.303 -0.7522 -0.3156  0.2921
 2909SOL    HW120186   0.714   4.235   4.214 -1.4911 -0.6469  0.5625
 2909SOL    HW220187   0.699   4.306   4.339 -0.5576  0.1637 -0.4231
 2910SOL     OW20188   4.651   2.913  13.061 -0.5489  0.2343  0.5396
 2910SOL    HW120189   4.577   2.889  13.005 -0.0060 -2.6236  1.0490
 2910SOL    HW220190   4.713   2.841  13.049 -0.4810  0.5183 -0.8814
 2911SOL     OW20191   3.057   2.610   0.476  0.1705 -0.0021  0.0916
 2911SOL    HW120192   2.998   2.535   0.473 -1.9850  1.7142  0.1074
 2911SOL    HW220193   3.058   2.628   0.382  2.3928 -0.1026  0.0945
 2912SOL     OW20194   2.170   0.844  15.722  0.1655  0.7228 -0.0130
 2912SOL    HW120195   2.199   0.753  15.729  1.8260  1.3447  1.0435
 2912SOL    HW220196   2.245   0.895  15.752 -0.2052  1.2124  0.0711
 2913SOL     OW20197   0.242   2.290  10.746  0.0403 -0.5753 -0.2556
 2913SOL    HW120198   0.217   2.249  10.664 -0.4077 -1.8191  0.4973
 2913SOL    HW220199   0.231   2.382  10.723 -0.5966 -1.0426 -1.7720
 2914SOL     OW20200   3.020   3.348   5.892 -0.0450  0.6742  0.0498
 2914SOL    HW120201   3.056   3.416   5.834  2.0587 -0.0632  0.4863
 2914SOL    HW220202   3.029   3.386   5.979 -0.8830  0.4262  0.2427
 2915SOL     OW20203   0.308   0.874  16.648  0.7422  0.0800  0.0210
 2915SOL    HW120204   0.226   0.825  16.647  1.0986 -0.5033 -0.2711
 2915SOL    HW220205   0.264   0.958  16.635  0.0193 -0.3784 -0.4587
 2916SOL     OW20206   4.717   4.164   6.129 -0.4487 -0.3022  0.1868
 2916SOL    HW120207   4.632   4.199   6.104 -1.0210 -1.6490  0.2242
 2916SOL    HW220208   4.723   4.075   6.094  0.9754  1.1506 -3.2869
 2917SOL     OW20209   1.111   4.428   7.446  0.5046  0.3600  0.3623
 2917SOL    HW120210   1.145   4.343   7.472  1.4577  0.9237  0.9751
 2917SOL    HW220211   1.019   4.425   7.470  0.1726  0.7171 -0.8736
 2918SOL     OW20212   2.709   1.183   7.409 -0.2471  0.2454 -0.1711
 2918SOL    HW120213   2.779   1.245   7.385 -2.9614  2.7597 -1.5814
 2918SOL    HW220214   2.648   1.252   7.435 -0.6198 -0.3070  0.4162
 2919SOL     OW20215   1.915   0.138   2.041 -0.2191 -0.1291 -0.2216
 2919SOL    HW120216   1.940   0.229   2.050  0.6483 -0.3237 -0.6745
 2919SOL    HW220217   1.962   0.089   2.109  2.0163  3.8820  1.1213
 2920SOL     OW20218   1.639   4.421   5.294 -0.4762 -0.3707 -0.1071
 2920SOL    HW120219   1.622   4.453   5.205  1.0174 -2.2286 -1.0712
 2920SOL    HW220220   1.714   4.477   5.313 -1.1149  1.0528 -1.8081
 2921SOL     OW20221   2.200   1.794   2.934  0.6717  0.4845  0.1531
 2921SOL    HW120222   2.140   1.868   2.928  0.9910  0.9008  2.1384
 2921SOL    HW220223   2.247   1.823   3.012 -1.1052 -2.4506  2.3488
 2922SOL     OW20224   3.977   2.870  10.348 -0.1974 -0.2380  0.2915
 2922SOL    HW120225   4.049   2.916  10.305  1.5758 -2.4045  0.9347
 2922SOL    HW220226   3.983   2.786  10.302  1.0634  0.2529 -0.4588
 2923SOL     OW20227   4.428   0.859   1.782 -0.5462 -0.5039 -0.2774
 2923SOL    HW120228   4.475   0.914   1.719 -0.3215  0.3671  0.6596
 2923SOL    HW220229   4.349   0.913   1.778 -0.7500 -0.7781  0.0246
 2924SOL     OW20230   0.995   0.010   7.727 -0.2145 -0.7201  0.2674
 2924SOL    HW120231   1.061   4.720   7.659  0.7938  0.2788  1.0268
 2924SOL    HW220232   0.933   0.067   7.682 -0.4029  0.2744  1.7863
 2925SOL     OW20233   0.452   2.572   1.745  0.0125  0.1683 -0.8945
 2925SOL    HW120234   0.442   2.538   1.656  0.5798  0.5900 -1.1163
 2925SOL    HW220235   0.463   2.666   1.726 -0.2115  0.0011 -1.8607
 2926SOL     OW20236   2.007   3.535   9.362  0.4390  0.1271  0.2936
 2926SOL    HW120237   1.939   3.592   9.399  0.4212  0.6636 -0.5874
 2926SOL    HW220238   2.084   3.590   9.349  1.9636 -1.9215  0.6626
 2927SOL     OW20239   1.200   1.917  10.115 -0.5691 -0.1315 -0.3865
 2927SOL    HW120240   1.273   1.877  10.162 -0.1765  2.1735  0.9626
 2927SOL    HW220241   1.192   1.992  10.175  1.6360  0.4816 -0.8983
 2928SOL     OW20242   1.042   1.051   5.780  0.7174 -0.1959 -0.2973
 2928SOL    HW120243   1.057   1.057   5.874 -1.9154 -2.0227  0.2476
 2928SOL    HW220244   1.123   1.096   5.753  0.1118  0.7287 -0.5794
 2929SOL     OW20245   0.541   0.754   9.087 -0.5094  0.5105  0.0258
 2929SOL    HW120246   0.464   0.811   9.092 -0.1573  0.8679  1.2077
 2929SOL    HW220247   0.509   0.686   9.146  2.0368  1.2189  2.1946
 2930SOL     OW20248   4.366   2.631   9.550  0.3461  0.4784 -0.5042
 2930SOL    HW120249   4.378   2.628   9.456 -1.2148  3.5885 -0.8150
 2930SOL    HW220250   4.422   2.565   9.591 -1.3752 -0.9184 -0.3713
 2931SOL     OW20251   3.477   0.881   1.532  0.1881  0.3124  0.1772
 2931SOL    HW120252   3.499   0.950   1.594  0.1657  1.4125 -1.0300
 2931SOL    HW220253   3.398   0.854   1.579 -0.0796  0.4954 -0.1643
 2932SOL     OW20254   4.001   1.912  15.216  0.4215  0.6332  0.1171
 2932SOL    HW120255   3.910   1.915  15.246 -0.6764 -1.9494 -2.9287
 2932SOL    HW220256   4.036   1.884  15.300  2.6343 -2.1431 -1.7566
 2933SOL     OW20257   0.503   4.055   4.331 -0.6194 -0.7178 -0.5949
 2933SOL    HW120258   0.505   3.996   4.406  0.1391 -0.2398 -0.2388
 2933SOL    HW220259   0.578   4.106   4.363 -2.0339  0.2457  1.1662
 2934SOL     OW20260   3.531   3.891   8.950  0.3237 -0.3113 -0.2936
 2934SOL    HW120261   3.623   3.866   8.958  0.7251  1.0911 -0.4339
 2934SOL    HW220262   3.546   3.935   8.865 -1.1096 -0.8305 -0.8090
 2935SOL     OW20263   4.593   2.346  10.185 -0.2976  0.8765  0.1818
 2935SOL    HW120264   4.584   2.343  10.280  0.5128 -0.4323  0.2217
 2935SOL    HW220265   4.559   2.432  10.165  0.7799  1.8118  2.3595
 2936SOL     OW20266   0.071   0.971   7.062 -0.1622 -0.3939 -0.4565
 2936SOL    HW120267   0.062   1.030   7.137 -0.0589  1.2319 -1.7294
 2936SOL    HW220268   0.030   1.017   6.989 -1.1066  1.6285  1.3457
 2937SOL     OW20269   0.482   2.428   2.602  0.1920 -0.0194 -0.3566
 2937SOL    HW120270   0.518   2.498   2.657  2.3222 -1.2214 -0.2469
 2937SOL    HW220271   0.534   2.433   2.522 -0.5902  1.0881 -0.7821
 2938SOL     OW20272   2.473   2.097   8.056  0.5809  0.0779 -0.4209
 2938SOL    HW120273   2.463   2.020   8.112  0.8564 -0.8201 -1.6007
 2938SOL    HW220274   2.536   2.144   8.110  1.1509  0.1888 -1.1733
 2939SOL     OW20275   0.288   0.422   5.454  0.4965 -0.1048 -0.1446
 2939SOL    HW120276   0.344   0.484   5.500 -0.4783 -0.5546  1.6343
 2939SOL    HW220277   0.199   0.447   5.480  1.6848  1.3983  2.3811
 2940SOL     OW20278   0.209   0.839   0.712 -0.1403  0.0856  0.7185
 2940SOL    HW120279   0.247   0.901   0.649  0.1168  0.1171  0.9052
 2940SOL    HW220280   0.171   0.780   0.647 -0.1951 -1.3467  2.0432
 2941SOL     OW20281   3.182   3.228   9.021  0.4301  0.5797 -0.3268
 2941SOL    HW120282   3.147   3.261   8.938  1.7894 -0.1071 -1.1736
 2941SOL    HW220283   3.151   3.297   9.081  0.6079  1.1741 -0.9197
 2942SOL     OW20284   2.842   2.256   8.032 -0.0546 -0.0581 -0.1856
 2942SOL    HW120285   2.869   2.190   7.967  1.6997 -0.5223  1.0164
 2942SOL    HW220286   2.915   2.244   8.092  0.2253  0.3027 -0.4576
 2943SOL     OW20287   2.074   3.546   1.719 -0.8277 -0.2033  0.0224
 2943SOL    HW120288   2.013   3.545   1.645 -0.2298 -0.5438 -0.4655
 2943SOL    HW220289   2.089   3.640   1.724  2.4347 -0.7105 -0.4162
 2944SOL     OW20290   1.919   1.289   7.221 -0.3842 -0.1252  0.2684
 2944SOL    HW120291   1.854   1.313   7.155  0.6193 -0.0184 -0.6750
 2944SOL    HW220292   1.872   1.316   7.300  1.9544  0.8029  1.3567
 2945SOL     OW20293   2.313   1.448  14.908 -0.0321  0.1857  1.1900
 2945SOL    HW120294   2.318   1.367  14.858 -0.0864  2.8092 -3.0684
 2945SOL    HW220295   2.223   1.478  14.891  0.8796  1.2601 -1.7196
 2946SOL     OW20296   4.220   3.066   4.651 -0.4246  0.0767 -0.4053
 2946SOL    HW120297   4.212   2.970   4.648 -1.5426  0.1855 -0.6812
 2946SOL    HW220298   4.258   3.064   4.563  0.2520  1.5277 -0.1355
 2947SOL     OW20299   1.706   0.902   3.826  0.2660  0.0669 -0.0331
 2947SOL    HW120300   1.614   0.917   3.806  0.6562  2.0590 -0.3748
 2947SOL    HW220301   1.729   0.981   3.874  1.8508 -0.5391  0.1956
 2948SOL     OW20302   0.520   0.431  13.702 -0.4071 -0.2924 -0.3929
 2948SOL    HW120303   0.511   0.434  13.797  0.3326 -2.0290 -0.2634
 2948SOL    HW220304   0.482   0.344  13.698 -0.1041 -0.4299 -0.3001
 2949SOL     OW20305   2.512   1.431  13.236  0.0035  0.5874 -0.1405
 2949SOL    HW120306   2.520   1.485  13.157 -1.5618  2.1165  0.7280
 2949SOL    HW220307   2.419   1.416  13.217  0.6515 -1.3124 -1.8123
 2950SOL     OW20308   2.430   4.405  15.678 -0.5927 -0.4404 -0.2890
 2950SOL    HW120309   2.441   4.452  15.595 -0.5665 -1.1861 -0.7105
 2950SOL    HW220310   2.435   4.317  15.642 -0.7178  0.2092 -1.9079
 2951SOL     OW20311   4.097   3.509  13.295 -0.0620 -0.1823  0.4171
 2951SOL    HW120312   4.065   3.592  13.331  0.6899  1.2270 -2.1780
 2951SOL    HW220313   4.174   3.493  13.348  0.6510  2.5561  0.2432
 2952SOL     OW20314   2.591   4.461   5.108 -0.4367 -0.1953  0.0193
 2952SOL    HW120315   2.558   4.538   5.155  2.6185 -0.6215  2.8937
 2952SOL    HW220316   2.642   4.480   5.029  0.1841  0.7689  0.6521
 2953SOL     OW20317   0.748   0.635   8.511  0.0259 -0.2982  1.0824
 2953SOL    HW120318   0.732   0.541   8.523 -0.4622 -0.2701  0.6537
 2953SOL    HW220319   0.810   0.656   8.581  0.7417 -1.4746  0.8177
 2954SOL     OW20320   0.035   2.228  16.077  0.1418 -0.0425  0.1922
 2954SOL    HW120321   4.678   2.192  16.042  0.0485  1.9396 -1.5734
 2954SOL    HW220322   0.090   2.149  16.080  1.2317  0.6981 -0.3101
 2955SOL     OW20323   2.949   0.708   7.763 -0.1598 -0.2544  0.3295
 2955SOL    HW120324   3.038   0.675   7.749  0.4470  1.6079 -0.2545
 2955SOL    HW220325   2.938   0.780   7.701  0.2831  0.7928  1.4576
 2956SOL     OW20326   2.737   2.555   9.923  0.5016  0.2554  0.5929
 2956SOL    HW120327   2.809   2.570   9.985 -0.0118 -0.8146  1.4351
 2956SOL    HW220328   2.765   2.606   9.847  0.5472 -2.7700 -1.4138
 2957SOL     OW20329   2.948   0.525   4.641  0.1917  0.1636  0.4236
 2957SOL    HW120330   3.034   0.490   4.665  0.1240  1.4771  2.5690
 2957SOL    HW220331   2.914   0.463   4.577  2.4773  0.3892 -1.0395
 2958SOL     OW20332   4.646   4.452   1.321  0.6180  0.0811  0.2875
 2958SOL    HW120333   0.013   4.433   1.339  0.4331 -2.0762 -1.0434
 2958SOL    HW220334   4.657   4.516   1.250  0.3810 -1.8250 -1.4734
 2959SOL     OW20335   1.375   2.465   7.299  0.1478  0.1751  0.1232
 2959SOL    HW120336   1.408   2.552   7.278 -1.9952  1.1026  0.6991
 2959SOL    HW220337   1.357   2.423   7.215  1.9601 -0.4555  0.0419
 2960SOL     OW20338   2.498   2.348   4.528 -0.5700 -0.6269  0.1545
 2960SOL    HW120339   2.447   2.280   4.483 -1.0378 -1.0386  1.3244
 2960SOL    HW220340   2.472   2.350   4.620  0.6315  1.2690  0.4672
 2961SOL     OW20341   3.578   2.366  11.280  0.0736  0.0411  0.2288
 2961SOL    HW120342   3.622   2.451  11.285  0.7758 -0.2604 -0.7393
 2961SOL    HW220343   3.523   2.382  11.356  0.6704  1.1975  0.4206
 2962SOL     OW20344   2.564   2.449  17.370 -0.0879 -0.2227  0.3441
 2962SOL    HW120345   2.626   2.451  17.443 -0.3092  1.2298  0.4908
 2962SOL    HW220346   2.474   2.457  17.403 -0.6395  0.4808 -1.3209
 2963SOL     OW20347   2.219   2.497  10.543 -0.0930  0.2170 -0.5782
 2963SOL    HW120348   2.175   2.555  10.482  0.7009 -0.6208 -1.9320
 2963SOL    HW220349   2.305   2.538  10.534  1.0959 -2.1567 -0.0868
 2964SOL     OW20350   3.317   4.208   7.658 -0.6519 -0.4481 -0.0699
 2964SOL    HW120351   3.378   4.134   7.664 -1.3245 -0.8461  1.8532
 2964SOL    HW220352   3.283   4.216   7.747  1.1090  2.0843  0.3667
 2965SOL     OW20353   0.606   2.191   5.588 -0.2019 -0.1943 -0.5480
 2965SOL    HW120354   0.561   2.145   5.659 -2.8828  1.2685 -1.2982
 2965SOL    HW220355   0.573   2.278   5.609 -0.1928 -0.5716  1.0562
 2966SOL     OW20356   2.253   1.434   3.360 -0.5829  0.1369  0.0886
 2966SOL    HW120357   2.212   1.348   3.371 -0.8341  0.4252  1.4164
 2966SOL    HW220358   2.253   1.469   3.449  0.8923 -0.1720  0.2083
 2967SOL     OW20359   1.288   3.453  14.721 -0.4387 -0.3882 -0.0368
 2967SOL    HW120360   1.352   3.502  14.772  1.7443 -0.7365 -2.4470
 2967SOL    HW220361   1.205   3.493  14.746 -0.2309  0.5421 -0.8535
 2968SOL     OW20362   4.120   1.479   2.712  0.0180 -0.4508  0.0768
 2968SOL    HW120363   4.165   1.553   2.753 -0.4166  0.0104 -0.2772
 2968SOL    HW220364   4.179   1.412   2.746  1.0008 -0.1522 -1.0517
 2969SOL     OW20365   1.055   0.274   6.547 -0.8108  0.3354  0.0274
 2969SOL    HW120366   1.142   0.313   6.534 -0.4255 -0.1460  1.1162
 2969SOL    HW220367   1.072   0.188   6.585  1.0627  0.2382 -1.0176
 2970SOL     OW20368   3.074   3.240   6.885  0.1126  0.6108 -0.3620
 2970SOL    HW120369   3.131   3.315   6.901  2.5300 -1.0920 -1.1458
 2970SOL    HW220370   3.077   3.229   6.790 -0.2286  1.2794 -0.4526
 2971SOL     OW20371   2.433   2.209   4.965 -0.2007  0.1237  0.0740
 2971SOL    HW120372   2.350   2.224   5.011 -1.0402 -1.0338 -1.0798
 2971SOL    HW220373   2.474   2.147   5.026 -2.4278 -2.3200 -0.9544
 2972SOL     OW20374   4.180   0.701   0.987  0.4055  0.0877 -0.0886
 2972SOL    HW120375   4.220   0.690   0.900 -0.7030  1.3408 -0.7518
 2972SOL    HW220376   4.095   0.740   0.967  0.3883  1.0586  1.9260
 2973SOL     OW20377   3.760   4.051   6.300 -0.4929 -0.7773 -0.0804
 2973SOL    HW120378   3.759   3.956   6.286 -0.4731 -0.8109  0.1356
 2973SOL    HW220379   3.740   4.048   6.394 -0.0460  1.4866  0.0819
 2974SOL     OW20380   1.054   3.757   5.403  0.2697 -0.3447  0.0407
 2974SOL    HW120381   0.969   3.801   5.407 -0.0512 -0.7347 -2.2739
 2974SOL    HW220382   1.089   3.828   5.349  0.2632  0.1802  0.7251
 2975SOL     OW20383   1.617   2.361   9.931  0.3070 -0.3014  0.1060
 2975SOL    HW120384   1.684   2.385   9.996 -0.5347 -1.0879  1.2801
 2975SOL    HW220385   1.557   2.306   9.981 -0.3314  2.1551  2.1112
 2976SOL     OW20386   2.655   1.302   1.240  0.1706  0.0752 -0.0818
 2976SOL    HW120387   2.566   1.275   1.263  0.1994 -0.5448 -0.7215
 2976SOL    HW220388   2.687   1.329   1.326 -0.8536 -2.6913  1.1604
 2977SOL     OW20389   3.646   0.805   5.130 -0.3559  0.2153 -0.2165
 2977SOL    HW120390   3.590   0.752   5.073  0.9090 -4.5449  2.9693
 2977SOL    HW220391   3.620   0.886   5.085  0.0938 -0.3191 -1.4367
 2978SOL     OW20392   0.014   4.075   1.871  0.1437 -0.0469  0.7904
 2978SOL    HW120393   0.053   4.126   1.942  1.3084 -2.9803  2.2778
 2978SOL    HW220394   4.690   4.138   1.817 -2.6358 -1.5840  1.4926
 2979SOL     OW20395   1.101   3.019   9.861  0.4038  0.4054  0.3558
 2979SOL    HW120396   1.140   2.935   9.838 -0.1637  0.3079 -0.2494
 2979SOL    HW220397   1.165   3.063   9.917  1.0814  0.9562 -0.8445
 2980SOL     OW20398   2.808   3.185  12.388  0.7846  0.6298 -0.1486
 2980SOL    HW120399   2.776   3.260  12.437  0.1718 -0.1289  0.6166
 2980SOL    HW220400   2.761   3.112  12.428  2.3378  0.1971  0.8902
 2981SOL     OW20401   2.023   3.799   7.468 -0.0858  0.0863 -0.2481
 2981SOL    HW120402   2.030   3.871   7.531 -0.6790 -1.5105  1.6540
 2981SOL    HW220403   2.077   3.841   7.401  2.6789 -1.7490  0.7983
 2982SOL     OW20404   3.206   3.032   3.118 -0.0516  0.0741 -0.4977
 2982SOL    HW120405   3.268   2.998   3.182  0.8599 -0.3565 -1.6037
 2982SOL    HW220406   3.274   3.086   3.078  1.2522  0.8118  2.7106
 2983SOL     OW20407   2.445   0.613   1.832  0.2544 -0.3632  0.1814
 2983SOL    HW120408   2.365   0.596   1.881 -0.9222 -0.3421 -1.7390
 2983SOL    HW220409   2.497   0.669   1.891 -0.2971  0.0209  0.3056
 2984SOL     OW20410   2.273   1.094   8.946  0.0553 -0.1720 -0.2595
 2984SOL    HW120411   2.215   1.019   8.942 -0.9828  0.6450 -0.6233
 2984SOL    HW220412   2.221   1.163   8.988 -0.4981 -1.0293  0.4594
 2985SOL     OW20413   1.672   4.432   4.946  0.1483 -0.0185 -0.0851
 2985SOL    HW120414   1.747   4.409   5.000  1.0842  1.5661 -0.7274
 2985SOL    HW220415   1.688   4.526   4.942  0.5249 -0.0773  0.0377
 2986SOL     OW20416   4.717   2.683   4.303  0.1838  0.5463 -0.7263
 2986SOL    HW120417   4.714   2.679   4.399  0.3357 -2.0334 -0.8218
 2986SOL    HW220418   4.674   2.599   4.284  0.8731  0.8216 -3.5003
 2987SOL     OW20419   0.308   0.063  12.144  0.1657  0.3277 -0.3216
 2987SOL    HW120420   0.329   0.157  12.138  2.3479 -0.1654 -0.6603
 2987SOL    HW220421   0.235   0.061  12.083 -0.0873  2.1365 -0.0782
 2988SOL     OW20422   4.307   4.317   5.008 -0.2541 -0.0606 -0.4633
 2988SOL    HW120423   4.281   4.405   4.981 -2.2009 -0.9047 -1.2908
 2988SOL    HW220424   4.306   4.327   5.103 -1.5406 -1.4882 -0.3376
 2989SOL     OW20425   2.418   1.122   3.834 -0.2423 -0.2110  0.7106
 2989SOL    HW120426   2.448   1.054   3.893 -1.1628  0.1271  1.5632
 2989SOL    HW220427   2.324   1.107   3.834 -0.4141  0.8741 -0.2245
 2990SOL     OW20428   0.489   1.166   5.365 -0.3505  0.4032  0.1243
 2990SOL    HW120429   0.461   1.218   5.289  0.5803 -0.5483 -0.8719
 2990SOL    HW220430   0.562   1.217   5.400 -0.7132  1.6300 -0.9190
 2991SOL     OW20431   0.160   1.528  12.701  0.2141  0.0398 -0.8942
 2991SOL    HW120432   0.144   1.434  12.698  0.7157 -0.1040  1.1422
 2991SOL    HW220433   0.094   1.560  12.762 -1.2756 -0.5494 -2.1889
 2992SOL     OW20434   1.618   3.667  17.256  0.5561 -0.1551  0.1262
 2992SOL    HW120435   1.605   3.604  17.186 -2.5299 -0.6096  1.1287
 2992SOL    HW220436   1.529   3.685  17.284  0.5449  2.5740 -1.6387
 2993SOL     OW20437   0.853   4.541   7.853 -0.4933 -0.7813 -0.0736
 2993SOL    HW120438   0.773   4.552   7.801  0.7808  2.5326 -1.3810
 2993SOL    HW220439   0.911   4.609   7.818  0.0374 -1.7406 -1.0793
 2994SOL     OW20440   1.820   2.800   7.775  0.0631  0.2643 -0.0017
 2994SOL    HW120441   1.820   2.735   7.845 -0.7233  0.0523 -0.1984
 2994SOL    HW220442   1.746   2.766   7.725  0.9809 -1.1652 -0.3864
 2995SOL     OW20443   3.358   3.799  13.599  0.2270  0.2685 -0.1404
 2995SOL    HW120444   3.305   3.733  13.555 -0.9630  1.0348  0.1408
 2995SOL    HW220445   3.386   3.755  13.679 -1.2709 -0.6841 -0.1425
 2996SOL     OW20446   0.440   0.871   4.708 -0.0911 -0.8366 -0.0078
 2996SOL    HW120447   0.490   0.863   4.627  0.5745  0.9845  0.2327
 2996SOL    HW220448   0.421   0.778   4.719  0.6740 -0.9394  0.4901
 2997SOL     OW20449   0.949   2.515   4.071 -0.0014  0.0319  0.5618
 2997SOL    HW120450   0.860   2.479   4.062 -0.0480 -0.7402  3.8922
 2997SOL    HW220451   0.978   2.518   3.980 -2.9916 -1.0043 -0.4257
 2998SOL     OW20452   4.060   2.557  14.792 -0.2864 -0.6064 -0.3099
 2998SOL    HW120453   4.049   2.476  14.742 -0.2653  0.5768 -2.2453
 2998SOL    HW220454   4.119   2.531  14.862  0.5050  0.7809 -0.4488
 2999SOL     OW20455   4.292   1.485   6.235  0.4308 -0.1895 -0.7322
 2999SOL    HW120456   4.225   1.429   6.197 -0.6354 -0.5285  1.6446
 2999SOL    HW220457   4.348   1.415   6.270  0.6243  1.3795  2.1130
 3000SOL     OW20458   1.813   4.262   5.458  0.3455  0.2009 -0.0092
 3000SOL    HW120459   1.795   4.192   5.521  0.1534  0.5764  0.3516
 3000SOL    HW220460   1.727   4.292   5.427  0.9129 -0.4951 -2.2636
 3001SOL     OW20461   3.091   2.589   4.653  0.2980  0.1154  0.3556
 3001SOL    HW120462   3.089   2.682   4.678 -1.5390  0.2236 -0.2179
 3001SOL    HW220463   2.998   2.568   4.651  0.3956 -0.3153  0.3879
 3002SOL     OW20464   1.463   1.951   8.368 -0.0344  0.1555  0.0987
 3002SOL    HW120465   1.508   1.978   8.287  0.8426  1.3147  0.9638
 3002SOL    HW220466   1.458   2.031   8.421 -0.1919  0.0822  0.1929
 3003SOL     OW20467   0.131   4.350  11.337  0.3210  0.4567 -0.8195
 3003SOL    HW120468   0.058   4.392  11.383 -0.0645 -0.7916 -0.3102
 3003SOL    HW220469   0.152   4.422  11.277  1.6478  1.4033  0.7803
 3004SOL     OW20470   3.917   2.027  13.917 -0.0098 -0.6374 -0.2662
 3004SOL    HW120471   3.862   2.053  13.843  1.9006  2.9740 -0.4362
 3004SOL    HW220472   3.867   1.948  13.934 -1.5955  0.4121 -0.0256
 3005SOL     OW20473   0.441   2.420   5.678  0.9222 -0.1100 -1.0648
 3005SOL    HW120474   0.435   2.493   5.741 -1.9402 -1.6709  0.4707
 3005SOL    HW220475   0.373   2.445   5.615  1.3358  0.1359 -1.4119
 3006SOL     OW20476   3.605   2.199   0.457 -0.4757  0.4102 -0.5014
 3006SOL    HW120477   3.603   2.294   0.446  1.5456  0.3507 -1.3066
 3006SOL    HW220478   3.618   2.195   0.551 -0.0390  4.1564 -0.3773
 3007SOL     OW20479   0.197   3.924   2.100  0.3435 -0.2479  0.0067
 3007SOL    HW120480   0.248   3.844   2.105  2.2792  0.8294 -2.7969
 3007SOL    HW220481   0.195   3.942   2.006  1.3281 -0.3008 -0.0174
 3008SOL     OW20482   2.088   1.325   1.247  0.4524  0.2484  0.0819
 3008SOL    HW120483   2.088   1.230   1.248  1.3589  0.2551  0.3200
 3008SOL    HW220484   2.130   1.355   1.166 -1.5042  1.2142 -0.5787
 3009SOL     OW20485   3.651   1.080   0.323  0.2287  0.5489 -0.4383
 3009SOL    HW120486   3.686   1.111   0.407 -2.7717 -1.2217  1.4699
 3009SOL    HW220487   3.722   1.066   0.260  1.1842 -1.4527  1.0256
 3010SOL     OW20488   0.975   1.991  13.873 -0.3384  0.6139  0.3120
 3010SOL    HW120489   1.004   1.993  13.782  2.6299 -0.1839  1.2536
 3010SOL    HW220490   0.884   2.020  13.862 -0.5131  0.4332  1.2686
 3011SOL     OW20491   2.539   2.979  10.816 -0.4799  0.6277 -0.3431
 3011SOL    HW120492   2.477   2.967  10.889 -0.0302 -0.6208 -0.1599
 3011SOL    HW220493   2.476   2.961  10.746 -1.1316  1.0417  0.1349
 3012SOL     OW20494   0.109   4.665   5.071 -0.0017  0.4842  0.5585
 3012SOL    HW120495   0.160   0.021   5.057  0.9825 -0.3113 -0.3917
 3012SOL    HW220496   0.071   4.681   5.158 -0.8295  0.7154  0.1515
 3013SOL     OW20497   2.949   3.002   5.270 -0.1308  0.5245  0.3869
 3013SOL    HW120498   2.921   3.093   5.283  3.7206  1.4101  2.2853
 3013SOL    HW220499   2.900   2.950   5.333 -0.9335  1.1269  0.2616
 3014SOL     OW20500   0.517   0.527   4.172  0.0533 -0.5874 -0.2133
 3014SOL    HW120501   0.464   0.536   4.251 -3.4643 -2.0450 -2.3849
 3014SOL    HW220502   0.445   0.536   4.110  0.6508 -0.2981 -0.8584
 3015SOL     OW20503   3.798   3.590   5.169 -0.1106 -0.2201 -0.1707
 3015SOL    HW120504   3.720   3.533   5.170 -1.7326  2.0479  2.7527
 3015SOL    HW220505   3.813   3.603   5.263  2.8946  1.4508 -0.9017
 3016SOL     OW20506   0.423   0.920  15.732 -0.3344 -0.2346  0.0497
 3016SOL    HW120507   0.425   1.012  15.760  0.4207  0.0116 -0.8090
 3016SOL    HW220508   0.369   0.880  15.800  0.5644 -0.1110  0.8364
 3017SOL     OW20509   1.622   2.267  17.001 -0.3164 -0.4594  0.1736
 3017SOL    HW120510   1.598   2.255  16.909  0.7390 -1.7736  0.0731
 3017SOL    HW220511   1.604   2.182  17.041 -2.1595 -0.6338 -1.0482
 3018SOL     OW20512   2.666   0.557  15.074  0.1511 -0.6893  0.3994
 3018SOL    HW120513   2.727   0.613  15.026 -0.7489 -1.3423 -1.4901
 3018SOL    HW220514   2.641   0.620  15.142  1.0161  0.3970 -0.2861
 3019SOL     OW20515   2.942   3.068   6.701  0.2184 -0.5341 -0.3079
 3019SOL    HW120516   2.857   3.064   6.744 -0.0296 -2.9059 -1.0602
 3019SOL    HW220517   2.915   3.093   6.613 -1.2483 -1.0614 -0.0024
 3020SOL     OW20518   2.158   0.203   8.922 -0.2321 -0.0676  0.4935
 3020SOL    HW120519   2.156   0.121   8.970  0.1767 -1.1487 -1.3334
 3020SOL    HW220520   2.146   0.268   8.992 -1.5480  0.7149 -0.4394
 3021SOL     OW20521   4.438   2.483   3.080  0.1140 -0.1459  0.3651
 3021SOL    HW120522   4.488   2.496   3.161  0.8880  1.0277 -0.2959
 3021SOL    HW220523   4.353   2.467   3.122 -0.1135 -1.0174 -0.4256
 3022SOL     OW20524   2.135   2.938  12.944 -0.1387 -0.2585  0.2936
 3022SOL    HW120525   2.196   2.934  12.870 -0.4524  1.9813 -0.0869
 3022SOL    HW220526   2.048   2.926  12.905  0.6376  0.8604 -1.8211
 3023SOL     OW20527   2.774   3.042   8.063  0.7321  0.4097  0.1316
 3023SOL    HW120528   2.782   2.953   8.028 -0.5890 -0.6129  2.4036
 3023SOL    HW220529   2.856   3.077   8.030  0.9850  0.4660  0.8251
 3024SOL     OW20530   2.677   2.244   3.450  0.5389 -0.0078 -0.1074
 3024SOL    HW120531   2.596   2.198   3.425 -0.0676  0.8828  0.2207
 3024SOL    HW220532   2.658   2.264   3.542  0.9326 -0.8966  0.1645
 3025SOL     OW20533   2.467   0.883  11.312 -0.2257 -0.6999 -0.0938
 3025SOL    HW120534   2.535   0.815  11.307  1.0569  0.7710 -3.3913
 3025SOL    HW220535   2.517   0.959  11.283 -0.8494 -0.1839  0.2083
 3026SOL     OW20536   2.377   3.563  17.233 -0.4057 -0.4595 -0.6789
 3026SOL    HW120537   2.283   3.561  17.247 -0.3757 -0.9376 -0.5584
 3026SOL    HW220538   2.415   3.483  17.270 -1.8487 -0.1026  1.5819
 3027SOL     OW20539   2.490   1.434   9.831 -0.0711  0.0822  0.1351
 3027SOL    HW120540   2.496   1.523   9.798  0.8715  0.4091  1.2107
 3027SOL    HW220541   2.563   1.402   9.778 -1.5302 -0.9888 -1.2466
 3028SOL     OW20542   1.245   0.251   5.623  0.6255 -0.7430  0.2218
 3028SOL    HW120543   1.169   0.280   5.673  0.6072 -0.0607 -0.2112
 3028SOL    HW220544   1.256   0.164   5.662  0.8425 -0.9013 -0.1930
 3029SOL     OW20545   0.561   1.034   6.099 -0.4781 -0.0553  0.1763
 3029SOL    HW120546   0.629   1.041   6.166 -0.6094 -0.4113  0.3490
 3029SOL    HW220547   0.571   1.119   6.056 -0.9817 -0.5825 -0.9983
 3030SOL     OW20548   1.392   4.026  15.819 -0.5884 -0.2058 -0.2791
 3030SOL    HW120549   1.398   4.070  15.734 -2.6790  2.1608  0.8005
 3030SOL    HW220550   1.478   3.985  15.831  0.8171  2.1838 -2.1768
 3031SOL     OW20551   4.304   3.053   1.702  0.0034  0.3025  0.4821
 3031SOL    HW120552   4.393   3.080   1.677 -1.2381  1.3945 -2.6905
 3031SOL    HW220553   4.261   3.135   1.679 -1.7290 -1.1209 -1.3944
 3032SOL     OW20554   2.941   4.623  11.742  0.1209  0.3011 -0.6130
 3032SOL    HW120555   2.852   4.628  11.777 -0.4191  2.8779 -2.3645
 3032SOL    HW220556   2.927   4.588  11.654 -1.1530 -3.2505  1.0237
 3033SOL     OW20557   2.546   4.590  17.430 -0.0567 -0.3108 -0.1445
 3033SOL    HW120558   2.500   4.581  17.346  0.9310 -2.4780 -0.4466
 3033SOL    HW220559   2.598   4.668  17.410  0.2546 -0.6140 -0.5398
 3034SOL     OW20560   0.419   3.353  14.196  0.2400 -0.1394  0.5171
 3034SOL    HW120561   0.476   3.354  14.120 -2.3383 -0.3709 -1.4336
 3034SOL    HW220562   0.392   3.263  14.217  3.5241 -2.2037 -4.1907
 3035SOL     OW20563   2.200   4.337  13.851 -0.3838 -0.0368  0.0520
 3035SOL    HW120564   2.250   4.409  13.888  2.8842 -2.5884  0.6446
 3035SOL    HW220565   2.135   4.321  13.919 -1.3432 -0.4752 -0.9728
 3036SOL     OW20566   3.564   1.489   1.536  0.4026 -0.7496 -0.1990
 3036SOL    HW120567   3.500   1.419   1.549 -0.9211  0.6009  0.4535
 3036SOL    HW220568   3.502   1.561   1.549 -1.1197 -1.5708 -2.9905
 3037SOL     OW20569   3.957   3.137   5.356  0.2090  0.1359 -0.0151
 3037SOL    HW120570   3.912   3.054   5.374  0.8773 -0.6147 -1.7376
 3037SOL    HW220571   3.917   3.196   5.420  2.4222 -1.0832  2.4521
 3038SOL     OW20572   3.746   4.303   4.449  0.3543 -0.1704 -0.3783
 3038SOL    HW120573   3.680   4.327   4.384  0.2248 -3.1351 -1.3629
 3038SOL    HW220574   3.698   4.235   4.496  0.6232 -0.1615 -0.0882
 3039SOL     OW20575   2.139   2.773   9.828 -0.0444  0.3512  0.0533
 3039SOL    HW120576   2.210   2.826   9.865 -1.5333  3.0183 -0.8767
 3039SOL    HW220577   2.087   2.764   9.908  0.2678  1.1143  0.3432
 3040SOL     OW20578   4.690   1.479  15.645  0.0503 -0.0392 -0.0140
 3040SOL    HW120579   4.696   1.492  15.550 -0.5798 -0.2512 -0.0777
 3040SOL    HW220580   4.670   1.569  15.672  1.2363 -0.2059  1.4433
 3041SOL     OW20581   4.245   3.716   6.876  0.2118 -0.0724  0.3779
 3041SOL    HW120582   4.196   3.702   6.957  2.0848  0.6165  1.6332
 3041SOL    HW220583   4.178   3.707   6.808 -0.3349  0.4640  0.8469
 3042SOL     OW20584   3.534   2.884   3.930 -0.3441  0.3490 -0.8617
 3042SOL    HW120585   3.552   2.880   4.024 -0.1051  0.8411 -0.8897
 3042SOL    HW220586   3.561   2.975   3.919  0.5497  0.0519 -1.1472
 3043SOL     OW20587   4.393   4.107   9.723 -0.7285 -0.1850 -0.6562
 3043SOL    HW120588   4.414   4.067   9.807 -0.8151 -0.5665 -0.8202
 3043SOL    HW220589   4.432   4.042   9.665  1.5823 -1.0611  1.8758
 3044SOL     OW20590   0.077   0.201   6.049 -0.0862  0.1849  0.3653
 3044SOL    HW120591   0.165   0.166   6.057 -0.9589 -2.8770 -3.6714
 3044SOL    HW220592   0.030   0.118   6.058  2.8287 -1.7005 -2.1256
 3045SOL     OW20593   1.055   1.346   5.911 -0.7188  0.2556  0.1285
 3045SOL    HW120594   1.043   1.346   5.816 -1.6436 -0.6292  0.2408
 3045SOL    HW220595   1.042   1.252   5.926 -0.8822  0.4149  0.9756
 3046SOL     OW20596   1.626   2.047  13.858 -0.1655 -0.0340  0.1813
 3046SOL    HW120597   1.680   2.123  13.838  0.5807 -0.1473  1.7750
 3046SOL    HW220598   1.668   2.023  13.940  0.7587  2.7627  0.5014
 3047SOL     OW20599   2.549   4.543  14.825  0.0430 -0.3549 -0.0442
 3047SOL    HW120600   2.459   4.511  14.815  0.3424 -1.6355  1.2880
 3047SOL    HW220601   2.597   4.471  14.866 -0.5755 -1.0626 -0.5727
 3048SOL     OW20602   3.508   0.842   2.682  0.5182  0.1648  0.3038
 3048SOL    HW120603   3.537   0.880   2.599  0.1033 -1.1036 -0.4204
 3048SOL    HW220604   3.553   0.758   2.680 -1.4046 -0.8422 -0.5420
 3049SOL     OW20605   2.319   0.749   7.043  0.5181 -0.2157 -0.5402
 3049SOL    HW120606   2.372   0.798   7.107 -1.8733  1.1642  0.3656
 3049SOL    HW220607   2.230   0.776   7.066  0.8528 -1.5754  2.3781
 3050SOL     OW20608   2.699   0.532  17.000 -0.2329  0.2975  0.2322
 3050SOL    HW120609   2.742   0.617  17.008  0.3719  0.2991 -2.9138
 3050SOL    HW220610   2.643   0.526  17.077  0.0876 -0.6220  0.3928
 3051SOL     OW20611   1.955   4.643  14.891  0.4243  0.2542  0.0207
 3051SOL    HW120612   2.023   4.599  14.841  1.0306 -1.4028  2.3385
 3051SOL    HW220613   1.893   4.572  14.910 -0.8826  1.4427  0.2547
 3052SOL     OW20614   3.412   3.364   9.212 -0.0516 -0.4312 -0.9067
 3052SOL    HW120615   3.416   3.458   9.225 -0.8821 -0.8552  2.4815
 3052SOL    HW220616   3.320   3.344   9.197  0.0860 -1.7162 -0.0976
 3053SOL     OW20617   0.307   2.296   5.887 -0.0425  0.4035  0.1843
 3053SOL    HW120618   0.375   2.310   5.821 -1.3844  0.3219 -1.1922
 3053SOL    HW220619   0.263   2.213   5.870 -0.3964 -0.0382  3.2533
 3054SOL     OW20620   1.670   4.032   8.079  0.0584 -0.1803 -0.0486
 3054SOL    HW120621   1.593   4.026   8.135  0.7145 -0.4188  0.8307
 3054SOL    HW220622   1.695   3.942   8.102  0.2900 -0.2986 -0.7649
 3055SOL     OW20623   1.170   3.585   1.677 -0.2098 -0.1087  0.0331
 3055SOL    HW120624   1.243   3.559   1.733 -1.7035  0.3957  2.2152
 3055SOL    HW220625   1.103   3.518   1.689  0.1639 -0.4706  0.1002
 3056SOL     OW20626   4.212   0.020   2.852 -0.1012 -0.3167 -0.2784
 3056SOL    HW120627   4.176   4.691   2.782  1.3592 -1.2523 -0.3019
 3056SOL    HW220628   4.302   4.712   2.857 -0.0404  0.4258  3.5279
 3057SOL     OW20629   4.460   2.247  12.150 -0.0429  0.1983 -0.5286
 3057SOL    HW120630   4.532   2.268  12.090  1.0151 -2.5229 -0.1986
 3057SOL    HW220631   4.377   2.270  12.107  0.6276  0.5415 -1.6338
 3058SOL     OW20632   1.655   4.695   0.968  0.1031  0.2183  0.4638
 3058SOL    HW120633   1.653   0.063   0.944  0.9392  0.0359 -0.2889
 3058SOL    HW220634   1.576   4.664   0.922  1.6991 -1.5816 -1.0825
 3059SOL     OW20635   3.333   4.537  11.858 -0.0235 -0.3570  0.7692
 3059SOL    HW120636   3.307   4.466  11.800  0.3525 -0.1637  0.3622
 3059SOL    HW220637   3.424   4.507  11.861  0.5116  1.2083  0.3530
 3060SOL     OW20638   1.003   1.731  10.007 -0.3810 -0.5353  0.4073
 3060SOL    HW120639   1.071   1.786  10.046 -1.1782  0.1927  0.7920
 3060SOL    HW220640   1.058   1.669   9.959  0.1408  1.4696 -1.6199
 3061SOL     OW20641   1.960   3.643   2.311  0.6009  0.3666  0.0159
 3061SOL    HW120642   2.031   3.691   2.270  0.1081  2.6526  1.8513
 3061SOL    HW220643   1.958   3.570   2.248  1.6503  0.9215 -0.6548
 3062SOL     OW20644   2.290   0.120   0.340 -0.4069 -0.7271 -0.0880
 3062SOL    HW120645   2.348   0.050   0.312 -0.2357 -0.8371  0.5407
 3062SOL    HW220646   2.260   0.131   0.249 -0.8780 -0.4510  0.0999
 3063SOL     OW20647   2.860   0.758   1.057 -0.2006 -0.3746 -0.0485
 3063SOL    HW120648   2.850   0.847   1.092  0.8717 -1.1066  2.0567
 3063SOL    HW220649   2.794   0.705   1.102 -0.6826  0.0505 -0.2551
 3064SOL     OW20650   4.032   1.755   5.353 -0.1213  0.4983 -0.2589
 3064SOL    HW120651   4.018   1.679   5.409  1.3027 -0.4502 -1.2005
 3064SOL    HW220652   3.959   1.738   5.294 -0.3998 -2.1103  0.8526
 3065SOL     OW20653   1.666   1.209   6.759 -0.1028  0.5372 -0.0972
 3065SOL    HW120654   1.685   1.173   6.846  1.0333  0.7655 -0.2427
 3065SOL    HW220655   1.589   1.257   6.787  0.5477  1.0640  0.7767
 3066SOL     OW20656   1.393   0.190  13.524  0.1207 -0.7816  0.7346
 3066SOL    HW120657   1.367   0.183  13.432  0.1759  1.6574  0.5390
 3066SOL    HW220658   1.323   0.158  13.582 -0.6359 -0.2680  0.1087
 3067SOL     OW20659   2.147   0.868  12.781 -0.6160  0.1863  0.1292
 3067SOL    HW120660   2.188   0.847  12.864  1.7584  2.1956 -0.5549
 3067SOL    HW220661   2.054   0.847  12.786 -0.6451  0.6328  1.3525
 3068SOL     OW20662   4.723   1.227   3.515  0.4482  0.5394  0.3459
 3068SOL    HW120663   0.084   1.192   3.541 -0.0869 -0.8739  0.2263
 3068SOL    HW220664   4.715   1.197   3.425  0.4673 -0.9683  0.8452
 3069SOL     OW20665   2.196   1.743  13.240  0.1374  0.0265  0.8337
 3069SOL    HW120666   2.236   1.728  13.326  1.2670 -1.1861  0.1126
 3069SOL    HW220667   2.123   1.798  13.267 -0.1650  1.1974 -2.4768
 3070SOL     OW20668   2.069   2.788   2.717 -0.5115 -0.1539  0.0397
 3070SOL    HW120669   2.143   2.830   2.760  0.4037 -0.2880 -1.4059
 3070SOL    HW220670   2.036   2.749   2.798  0.6433  0.2448  0.7038
 3071SOL     OW20671   2.396   1.005   2.459  0.5152  0.6477 -0.0351
 3071SOL    HW120672   2.450   0.980   2.534 -2.2801 -0.1294  1.7083
 3071SOL    HW220673   2.395   0.919   2.416 -1.0806  0.7699 -0.2420
 3072SOL     OW20674   0.284   3.737   3.838  0.0820 -0.5151 -0.1471
 3072SOL    HW120675   0.369   3.749   3.795 -0.4285  1.2995 -0.6156
 3072SOL    HW220676   0.298   3.656   3.888 -1.9207 -0.8914 -0.1848
 3073SOL     OW20677   0.507   1.355   0.081  0.1582  0.2119  0.0498
 3073SOL    HW120678   0.530   1.421   0.016 -1.4714 -0.8330 -1.5635
 3073SOL    HW220679   0.417   1.333   0.059  0.4227  0.2661 -1.0960
 3074SOL     OW20680   4.446   4.127   5.762 -0.0505 -0.3998  0.6480
 3074SOL    HW120681   4.508   4.054   5.752  0.1386 -0.2299  0.5776
 3074SOL    HW220682   4.373   4.066   5.766 -0.4377  0.0617  0.5957
 3075SOL     OW20683   4.042   1.647   2.082 -0.1742 -0.1292 -0.0869
 3075SOL    HW120684   4.078   1.716   2.138 -0.7200 -0.0186  0.1341
 3075SOL    HW220685   4.068   1.569   2.132  1.4850  0.9882  0.7827
 3076SOL     OW20686   0.673   1.979   9.416 -0.3370 -0.0234  0.1694
 3076SOL    HW120687   0.722   1.981   9.499 -0.1346  0.7041  0.0320
 3076SOL    HW220688   0.609   1.910   9.437  1.4191 -1.8772 -0.4962
 3077SOL     OW20689   3.930   2.788   4.413 -0.3758 -0.2176 -0.2030
 3077SOL    HW120690   3.884   2.794   4.329 -0.7051  0.3153  0.0114
 3077SOL    HW220691   3.960   2.879   4.419  0.1931 -0.2618 -2.2798
 3078SOL     OW20692   2.798   3.464   2.690  0.4131  0.1149  0.5129
 3078SOL    HW120693   2.793   3.406   2.766 -1.5490 -2.3138 -1.4647
 3078SOL    HW220694   2.763   3.411   2.618  0.3365  2.3464 -1.0614
 3079SOL     OW20695   1.932   1.486  12.215  0.1472  0.1489 -0.1912
 3079SOL    HW120696   1.948   1.427  12.289 -4.1319  0.7202  1.1873
 3079SOL    HW220697   1.910   1.560  12.272  1.5848 -1.2966  2.2190
 3080SOL     OW20698   2.324   2.906  10.667 -0.1127  0.3172 -0.2063
 3080SOL    HW120699   2.230   2.900  10.650  0.0375  0.2885 -1.0360
 3080SOL    HW220700   2.321   2.921  10.761 -1.5763  0.2291 -0.2381
 3081SOL     OW20701   4.549   2.189  16.307  0.7764  0.2683  0.0524
 3081SOL    HW120702   4.542   2.125  16.235 -0.1942  0.9604 -0.4719
 3081SOL    HW220703   4.644   2.199  16.314  0.9418 -2.9200  2.4028
 3082SOL     OW20704   0.413   2.825   5.730 -0.5466 -0.0112 -0.2474
 3082SOL    HW120705   0.397   2.919   5.730 -0.9378 -0.0792  0.1258
 3082SOL    HW220706   0.459   2.819   5.647 -2.2403  0.5388 -1.2378
 3083SOL     OW20707   2.910   4.265   4.885  0.1119  0.6695 -0.3083
 3083SOL    HW120708   2.867   4.349   4.870  1.2734  1.5637  1.3273
 3083SOL    HW220709   2.851   4.208   4.835  0.6848 -0.0656 -0.1601
 3084SOL     OW20710   0.394   0.921  11.828  0.8338 -0.3377  0.3177
 3084SOL    HW120711   0.406   1.002  11.779  1.3698 -0.7776 -0.2790
 3084SOL    HW220712   0.360   0.859  11.763  1.0770 -0.9124  0.7341
 3085SOL     OW20713   4.661   3.216  11.063 -0.1402 -0.2981  0.3129
 3085SOL    HW120714   4.695   3.282  11.003 -1.6432 -0.6387 -0.8781
 3085SOL    HW220715   4.716   3.237  11.139 -1.1086  0.9061  0.6890
 3086SOL     OW20716   2.875   0.641   9.096 -0.6204  0.0327 -0.3170
 3086SOL    HW120717   2.937   0.691   9.150  0.4192 -0.2632 -1.2263
 3086SOL    HW220718   2.833   0.591   9.165 -1.5338  1.7792  0.3834
 3087SOL     OW20719   1.608   1.700   3.863 -0.0217 -0.0205 -0.0942
 3087SOL    HW120720   1.566   1.665   3.784 -0.1846  0.3478 -0.1712
 3087SOL    HW220721   1.626   1.617   3.907  1.5390  0.5536  0.3261
 3088SOL     OW20722   1.800   1.026  17.152  0.5278  0.5184  0.2225
 3088SOL    HW120723   1.710   0.996  17.164  1.0035 -1.0384 -0.1184
 3088SOL    HW220724   1.822   0.974  17.075  0.5545  1.1048 -0.1673
 3089SOL     OW20725   2.509   3.528   3.553 -0.1682 -0.1383  0.0817
 3089SOL    HW120726   2.603   3.526   3.568 -0.2677  0.1689  0.7158
 3089SOL    HW220727   2.506   3.572   3.468 -0.0945  0.0898  0.1963
 3090SOL     OW20728   3.483   4.434  12.537 -0.3009  0.8394 -0.8324
 3090SOL    HW120729   3.567   4.480  12.537 -0.4278  1.0692  1.1030
 3090SOL    HW220730   3.508   4.351  12.496  2.0671  0.7177  0.8422
 3091SOL     OW20731   2.361   1.502   2.276 -0.0844 -0.3670  0.9607
 3091SOL    HW120732   2.327   1.419   2.243 -1.2563 -0.5737  2.6647
 3091SOL    HW220733   2.396   1.530   2.191 -0.0944 -0.5996  0.8799
 3092SOL     OW20734   1.002   3.843   1.837 -0.1890 -0.0621  0.1806
 3092SOL    HW120735   0.955   3.849   1.920  0.3474  0.5576  0.4387
 3092SOL    HW220736   1.081   3.804   1.874 -1.0097  0.9207  2.9947
 3093SOL     OW20737   2.746   2.014   5.358 -0.5733  0.3545  0.1863
 3093SOL    HW120738   2.686   1.968   5.300 -3.0494  3.0707  0.5623
 3093SOL    HW220739   2.832   1.992   5.322 -0.9784 -1.3596  0.2731
 3094SOL     OW20740   2.446   2.585   2.513 -0.0705  0.2173 -0.4365
 3094SOL    HW120741   2.384   2.516   2.489  1.9071 -1.8948  0.5029
 3094SOL    HW220742   2.463   2.628   2.430  0.4094  2.1684  0.6868
 3095SOL     OW20743   4.131   0.695  15.440  0.2879 -0.3303  0.6102
 3095SOL    HW120744   4.088   0.759  15.384 -0.7244 -0.3265  1.3971
 3095SOL    HW220745   4.091   0.714  15.524 -2.5833 -1.0096 -0.6158
 3096SOL     OW20746   4.485   4.239   5.277 -0.5115  0.1847 -0.4109
 3096SOL    HW120747   4.461   4.187   5.354 -1.5014  0.3129 -0.6431
 3096SOL    HW220748   4.548   4.188   5.226  1.6733  3.9749 -1.4165
 3097SOL     OW20749   2.309   3.333  15.312 -0.5051 -0.1791  0.0948
 3097SOL    HW120750   2.299   3.427  15.298 -0.2961 -0.3086 -0.8619
 3097SOL    HW220751   2.286   3.313  15.222 -0.3915 -0.1269  0.0549
 3098SOL     OW20752   1.291   2.089   0.889  0.6129 -0.3367  0.7026
 3098SOL    HW120753   1.260   2.113   0.976  0.4734 -0.5480  0.7095
 3098SOL    HW220754   1.208   2.064   0.849  0.3632 -0.4961  1.3277
 3099SOL     OW20755   1.232   0.767   8.642 -0.0739  0.0271 -0.1518
 3099SOL    HW120756   1.283   0.842   8.613  2.3265 -1.9276 -0.9354
 3099SOL    HW220757   1.229   0.705   8.569  0.9882  0.7263 -0.7903
 3100SOL     OW20758   2.742   2.781   3.787  0.3002  0.5261 -0.4194
 3100SOL    HW120759   2.700   2.708   3.832 -0.4376  0.9723 -0.3773
 3100SOL    HW220760   2.787   2.820   3.862 -0.8812  0.0927  0.5064
 3101SOL     OW20761   2.719   1.855   9.631  0.2224  0.1128 -0.1066
 3101SOL    HW120762   2.806   1.887   9.607 -0.0152  0.5650 -0.3596
 3101SOL    HW220763   2.713   1.863   9.726  0.7403 -1.2981  0.0583
 3102SOL     OW20764   0.232   2.050   0.259  0.0154  0.4059 -0.0073
 3102SOL    HW120765   0.166   2.047   0.190 -1.4517 -1.1792  1.4666
 3102SOL    HW220766   0.180   2.052   0.340 -0.0416  2.0842 -0.0695
 3103SOL     OW20767   3.680   1.368   3.655  0.0705  0.0817 -0.8779
 3103SOL    HW120768   3.690   1.296   3.593  1.6902 -0.3943 -0.0764
 3103SOL    HW220769   3.599   1.405   3.620 -0.7072 -0.4666  0.3205
 3104SOL     OW20770   3.198   2.062   2.852  0.1672 -0.3221  0.5723
 3104SOL    HW120771   3.219   2.096   2.939  0.1298 -2.0041  1.2358
 3104SOL    HW220772   3.172   1.976   2.886  2.0508 -0.9483  0.4402
 3105SOL     OW20773   1.541   2.952   4.781 -0.2501  0.9646  0.3547
 3105SOL    HW120774   1.620   2.922   4.826 -2.1115 -2.1027  1.6345
 3105SOL    HW220775   1.521   3.030   4.832 -0.8892  1.8045 -1.1758
 3106SOL     OW20776   2.594   1.246   8.832 -1.1105  0.6553  0.0800
 3106SOL    HW120777   2.607   1.315   8.768  0.4469  0.8811  0.6448
 3106SOL    HW220778   2.536   1.283   8.898  0.9145  1.4107  1.4435
 3107SOL     OW20779   3.945   1.012   2.899 -0.4364  0.3952 -0.1440
 3107SOL    HW120780   4.025   0.986   2.853 -0.6785 -1.5057  0.5374
 3107SOL    HW220781   3.928   1.096   2.855 -1.4811  0.0748 -0.3505
 3108SOL     OW20782   4.524   1.068   7.223 -0.7451  0.6333 -0.3001
 3108SOL    HW120783   4.498   1.050   7.314 -1.0777 -0.4042 -0.6001
 3108SOL    HW220784   4.472   1.004   7.175 -1.7887 -0.5571  2.4270
 3109SOL     OW20785   4.051   2.456  16.943 -0.3749 -0.0827 -0.0938
 3109SOL    HW120786   4.047   2.512  17.021 -0.3809 -0.0056 -0.1494
 3109SOL    HW220787   4.040   2.369  16.981 -2.0231  0.4462  0.6098
 3110SOL     OW20788   1.695   4.208  15.276  0.4699  0.0475  0.4511
 3110SOL    HW120789   1.616   4.193  15.226  1.5226  1.7977 -1.7270
 3110SOL    HW220790   1.755   4.160  15.218  0.9503  1.0324  0.1379
 3111SOL     OW20791   2.576   4.046   0.161  0.1122  0.2315 -0.4470
 3111SOL    HW120792   2.490   4.006   0.165 -0.7547  2.1449  0.0379
 3111SOL    HW220793   2.609   4.032   0.250  1.9050  1.8364 -0.8310
 3112SOL     OW20794   2.119   4.111  13.248 -0.3719  0.5195  0.3315
 3112SOL    HW120795   2.054   4.134  13.314 -0.2044  0.2971  0.5707
 3112SOL    HW220796   2.116   4.016  13.253  1.9332  0.4380  0.4830
 3113SOL     OW20797   1.164   1.487   5.445  0.1692 -0.3857 -0.3095
 3113SOL    HW120798   1.108   1.491   5.522 -0.1698 -1.0011 -0.5327
 3113SOL    HW220799   1.117   1.429   5.386 -2.1536 -0.2473  1.4077
 3114SOL     OW20800   3.563   4.405   4.742  0.1081  0.0707  0.0094
 3114SOL    HW120801   3.580   4.490   4.782 -0.5891  0.5009 -0.5968
 3114SOL    HW220802   3.624   4.354   4.796 -0.6079  0.4826  1.2099
 3115SOL     OW20803   1.597   1.388   8.414  0.1598  0.5192  0.2681
 3115SOL    HW120804   1.662   1.343   8.359 -0.4464 -0.4547  0.3576
 3115SOL    HW220805   1.626   1.479   8.404  2.0160  0.0701  1.5408
 3116SOL     OW20806   3.845   3.698   8.301 -0.2380 -0.3669 -0.6125
 3116SOL    HW120807   3.758   3.725   8.329  0.2289 -1.5131  1.9773
 3116SOL    HW220808   3.892   3.772   8.341 -0.7275  0.4728 -1.5847
 3117SOL     OW20809   0.769   0.950   7.773  0.5116 -0.1845 -0.3998
 3117SOL    HW120810   0.704   0.881   7.759  0.2936 -0.1594  0.4942
 3117SOL    HW220811   0.820   0.958   7.692  0.2404 -0.1170 -0.5645
 3118SOL     OW20812   1.409   1.862   4.750 -0.4908  0.1635  0.1442
 3118SOL    HW120813   1.323   1.877   4.790 -0.0067 -0.6197  1.5018
 3118SOL    HW220814   1.456   1.922   4.807 -1.4086  0.5700  0.4820
 3119SOL     OW20815   4.436   0.769  15.438 -0.4588 -0.2319 -0.1969
 3119SOL    HW120816   4.343   0.751  15.454 -0.5529  1.0596  0.6472
 3119SOL    HW220817   4.427   0.821  15.358 -1.1634 -0.9248 -0.5696
 3120SOL     OW20818   4.105   0.586   5.094  0.4569  0.0512  0.2121
 3120SOL    HW120819   4.047   0.531   5.041  1.8359 -0.8972 -0.3035
 3120SOL    HW220820   4.052   0.594   5.173  1.3658 -0.1846  0.8402
 3121SOL     OW20821   0.748   3.812   0.504 -0.3778  0.0523  0.6838
 3121SOL    HW120822   0.657   3.787   0.486 -0.2891  0.6465 -0.5479
 3121SOL    HW220823   0.775   3.740   0.561 -1.6832 -0.4620  0.6498
 3122SOL     OW20824   1.723   0.116   1.347  0.0898  0.4274 -0.8726
 3122SOL    HW120825   1.733   0.141   1.255  1.3294  3.3405  0.0604
 3122SOL    HW220826   1.806   0.153   1.378  0.5677 -2.0703  0.7543
 3123SOL     OW20827   1.616   3.919   3.490  0.1775 -0.1394  0.8002
 3123SOL    HW120828   1.644   4.011   3.484  0.1165 -0.1437  0.4337
 3123SOL    HW220829   1.692   3.873   3.525 -0.5638 -1.6324  0.4669
 3124SOL     OW20830   2.938   4.456   9.808  0.0242 -0.2163  0.4340
 3124SOL    HW120831   2.908   4.381   9.756  1.4319 -0.6023  0.1699
 3124SOL    HW220832   2.848   4.486   9.822  0.6337  0.8786  1.9286
 3125SOL     OW20833   2.876   0.656   5.464 -0.4273 -0.2262 -0.1732
 3125SOL    HW120834   2.800   0.602   5.486 -0.6095  0.2853  0.4627
 3125SOL    HW220835   2.949   0.605   5.500  1.2408  1.5697 -0.9626
 3126SOL     OW20836   0.847   4.302   2.444 -0.3561  0.4843 -0.5657
 3126SOL    HW120837   0.933   4.261   2.436 -0.6563 -0.6854  2.1796
 3126SOL    HW220838   0.810   4.216   2.463  2.8124 -0.9083 -0.7399
 3127SOL     OW20839   4.351   2.063  12.509  0.2594  0.3091  0.1259
 3127SOL    HW120840   4.409   2.033  12.439 -0.8074  0.5783 -0.8666
 3127SOL    HW220841   4.282   1.997  12.509  1.8114 -1.3073 -2.3714
 3128SOL     OW20842   3.234   3.774   6.934  0.4814 -0.3674 -0.5693
 3128SOL    HW120843   3.149   3.811   6.909 -0.3106 -0.8220  1.4212
 3128SOL    HW220844   3.212   3.764   7.027 -0.1079  0.2607 -0.6376
 3129SOL     OW20845   2.866   0.777   9.652 -0.7006  0.4261 -0.4113
 3129SOL    HW120846   2.809   0.846   9.617  0.3347  0.9937 -0.9874
 3129SOL    HW220847   2.951   0.804   9.616 -1.1544  2.4791  0.0604
 3130SOL     OW20848   2.963   3.892  10.204 -0.2791  0.2617  0.3272
 3130SOL    HW120849   2.931   3.806  10.177 -0.0449  0.1460  0.4166
 3130SOL    HW220850   3.058   3.882  10.202 -0.5210 -1.8424 -0.5291
 3131SOL     OW20851   2.662   2.613   3.438 -0.1753 -0.1208 -0.3835
 3131SOL    HW120852   2.754   2.600   3.459 -0.6698 -2.5027  0.2766
 3131SOL    HW220853   2.640   2.697   3.478  1.8734  0.8359 -1.3063
 3132SOL     OW20854   0.517   4.560   5.886 -0.1372 -0.4891  0.2151
 3132SOL    HW120855   0.583   4.526   5.825  0.8668 -0.9736  1.5749
 3132SOL    HW220856   0.486   4.634   5.834  0.2867 -0.3767  0.1209
 3133SOL     OW20857   1.758   3.954   8.395 -0.1461  0.1265  0.0447
 3133SOL    HW120858   1.706   3.876   8.381  1.2681 -1.0947  1.6083
 3133SOL    HW220859   1.707   4.015   8.449 -0.1139  0.2073 -0.0148
 3134SOL     OW20860   3.122   1.702   6.200 -0.3673 -0.0622 -0.5360
 3134SOL    HW120861   3.134   1.778   6.256 -0.1228  0.5825 -1.4682
 3134SOL    HW220862   3.035   1.721   6.166 -0.1511  2.5370  0.3870
 3135SOL     OW20863   2.987   0.036   3.796 -0.0537 -0.1505  0.1710
 3135SOL    HW120864   2.910   4.711   3.770  0.2868 -0.2772 -0.6019
 3135SOL    HW220865   3.020   0.053   3.708  0.8319  2.1564  0.9420
 3136SOL     OW20866   3.819   3.862   7.916  0.7980 -0.1895 -0.4410
 3136SOL    HW120867   3.836   3.768   7.914 -3.1786 -0.9321  1.0140
 3136SOL    HW220868   3.828   3.887   7.824 -1.9299 -0.1860 -0.7112
 3137SOL     OW20869   0.071   2.672  13.045 -0.3019  0.3126 -0.4668
 3137SOL    HW120870   0.151   2.644  13.090  0.1961  1.5767 -0.5825
 3137SOL    HW220871   0.003   2.617  13.084 -1.6015  1.7469 -0.7034
 3138SOL     OW20872   3.793   0.108   7.816 -0.0283 -0.1949  0.3535
 3138SOL    HW120873   3.794   0.120   7.721 -1.6299 -1.9799  0.1236
 3138SOL    HW220874   3.814   0.197   7.846 -0.1738 -0.4211  1.1263
 3139SOL     OW20875   1.540   3.898  15.539  0.1424  0.3632 -0.1604
 3139SOL    HW120876   1.558   3.912  15.632 -0.0979  0.4592 -0.1279
 3139SOL    HW220877   1.465   3.955  15.520  0.3887  0.7556  0.0277
 3140SOL     OW20878   0.364   0.219   2.645  0.0702  0.1741  0.2334
 3140SOL    HW120879   0.445   0.196   2.600 -0.2818 -0.3487 -0.1455
 3140SOL    HW220880   0.340   0.307   2.618  1.4018  0.3220 -0.4600
 3141SOL     OW20881   1.075   3.967   9.999  0.3595 -0.1773 -0.4175
 3141SOL    HW120882   1.030   3.899  10.049  3.3049 -0.5610  1.6904
 3141SOL    HW220883   1.064   4.045  10.054  1.0866 -0.7520  0.5311
 3142SOL     OW20884   4.623   4.691   3.105  0.5065 -0.8054  0.1063
 3142SOL    HW120885   4.615   4.622   3.171 -0.9530 -1.4004 -0.6920
 3142SOL    HW220886   4.613   0.046   3.156 -0.6558 -0.0959 -1.2322
 3143SOL     OW20887   1.124   2.706   2.385  0.0235 -0.1706 -0.1586
 3143SOL    HW120888   1.123   2.801   2.376 -1.7746 -0.2678 -0.8561
 3143SOL    HW220889   1.218   2.687   2.382  0.5939  2.6835 -0.1801
 3144SOL     OW20890   2.978   3.979   4.135 -1.0552 -0.2724  0.6447
 3144SOL    HW120891   3.008   4.063   4.101 -2.1183  0.3698  1.3076
 3144SOL    HW220892   2.983   3.993   4.229  0.6830 -0.0982  0.5286
 3145SOL     OW20893   0.073   4.289  13.544 -0.1554  0.0745  0.1327
 3145SOL    HW120894   0.120   4.255  13.468 -1.5011  1.2155 -1.1955
 3145SOL    HW220895   0.079   4.383  13.531 -2.3467  0.2431  0.4349
 3146SOL     OW20896   4.346   1.311   4.814 -0.1592 -0.7624  0.3429
 3146SOL    HW120897   4.323   1.382   4.873 -0.3404 -1.8887  1.6378
 3146SOL    HW220898   4.269   1.254   4.814 -0.2697 -0.6136 -0.1116
 3147SOL     OW20899   2.361   1.687  12.918 -0.5409 -0.6040 -0.0016
 3147SOL    HW120900   2.344   1.687  12.823 -0.7796 -0.1741  0.0400
 3147SOL    HW220901   2.281   1.644  12.950 -1.4219  0.2071 -1.0755
 3148SOL     OW20902   0.302   0.837   9.787 -0.3661  0.3791 -0.8392
 3148SOL    HW120903   0.294   0.920   9.834  0.2226  0.0343 -0.1280
 3148SOL    HW220904   0.267   0.778   9.855 -1.3357 -0.1834 -1.8237
 3149SOL     OW20905   3.770   4.367  15.086 -0.3945 -0.2466 -0.4618
 3149SOL    HW120906   3.749   4.312  15.010 -1.1754 -1.6278  0.7589
 3149SOL    HW220907   3.685   4.353  15.127 -1.3800  2.8073 -1.4826
 3150SOL     OW20908   3.905   1.433   0.022 -0.1212  0.0699 -0.0712
 3150SOL    HW120909   3.868   1.391   0.100  0.0665 -1.8915 -1.0333
 3150SOL    HW220910   3.943   1.511   0.061 -0.5436  0.5084 -0.5394
 3151SOL     OW20911   1.372   0.669   7.989  0.1815 -0.3419  0.2218
 3151SOL    HW120912   1.295   0.613   7.988 -0.8022  1.0329 -0.6269
 3151SOL    HW220913   1.392   0.677   8.082  0.9953  1.4033 -0.0974
 3152SOL     OW20914   1.041   2.470   4.960  0.4893  0.2109 -0.7865
 3152SOL    HW120915   1.110   2.497   5.020  0.7751 -1.6528 -0.2531
 3152SOL    HW220916   0.970   2.458   5.024  1.6555  0.2918  0.5274
 3153SOL     OW20917   0.525   2.173   3.039  0.2496 -0.2609 -0.5218
 3153SOL    HW120918   0.532   2.082   3.069 -1.7421  0.2183  1.3918
 3153SOL    HW220919   0.431   2.188   3.042  0.1973 -0.7936  0.5371
 3154SOL     OW20920   0.261   2.190   6.330 -0.0868 -0.7882 -0.0342
 3154SOL    HW120921   0.265   2.260   6.266 -0.4002  0.7365  1.6005
 3154SOL    HW220922   0.194   2.228   6.387  0.8247  0.1154  0.4285
 3155SOL     OW20923   3.889   0.599  17.467 -0.2831 -0.6917  0.3913
 3155SOL    HW120924   3.812   0.603  17.411  1.9302  1.6271 -2.4883
 3155SOL    HW220925   3.921   0.690  17.468  1.3734 -1.2728 -0.9662
 3156SOL     OW20926   3.267   0.508  16.050 -0.3525  0.4538 -0.5007
 3156SOL    HW120927   3.317   0.466  15.980 -0.8962 -1.0305 -0.0102
 3156SOL    HW220928   3.329   0.503  16.122 -0.6478 -1.5202 -0.3563
 3157SOL     OW20929   1.401   2.890  16.154  0.7714 -0.1577 -0.6433
 3157SOL    HW120930   1.451   2.891  16.072 -2.4690 -1.1423 -2.5999
 3157SOL    HW220931   1.335   2.827  16.125  0.3226 -0.1650  0.4244
 3158SOL     OW20932   0.507   1.715   7.335 -0.1495  0.3294 -0.2122
 3158SOL    HW120933   0.497   1.779   7.406  2.5242 -0.5995  1.0258
 3158SOL    HW220934   0.554   1.654   7.391 -0.8136 -0.0146 -0.0430
 3159SOL     OW20935   3.918   1.774   6.773  0.0233 -0.0742 -0.3033
 3159SOL    HW120936   3.904   1.693   6.821  0.4772 -0.4407 -0.7947
 3159SOL    HW220937   3.844   1.823   6.808  1.9235  1.6956  1.3049
 3160SOL     OW20938   1.592   0.707  17.375 -0.5299  0.1287 -0.4919
 3160SOL    HW120939   1.606   0.801  17.388 -0.4551 -0.4095  3.4946
 3160SOL    HW220940   1.678   0.666  17.378 -0.1063  1.1815  2.1084
 3161SOL     OW20941   3.549   2.558   9.721 -0.0516  0.4896 -0.3337
 3161SOL    HW120942   3.552   2.581   9.814 -0.6371  1.6879 -0.6147
 3161SOL    HW220943   3.564   2.464   9.729 -0.3019  0.1810 -3.3302
 3162SOL     OW20944   2.186   3.368   4.116 -0.1435  0.5976 -0.1027
 3162SOL    HW120945   2.217   3.377   4.027 -0.7955 -1.7361 -0.5736
 3162SOL    HW220946   2.138   3.285   4.115  0.2004  0.4160 -1.2311
 3163SOL     OW20947   3.941   0.473  13.705  0.0074  0.9287  0.3719
 3163SOL    HW120948   3.858   0.456  13.662  1.2555 -0.1715 -1.5619
 3163SOL    HW220949   3.957   0.388  13.747  1.2270  0.0507 -1.8944
 3164SOL     OW20950   3.296   1.140  14.173  0.0933 -1.3709  0.1884
 3164SOL    HW120951   3.223   1.140  14.110  1.6858 -1.2264 -1.6386
 3164SOL    HW220952   3.327   1.050  14.161  0.8828 -1.2831  1.5984
 3165SOL     OW20953   3.208   2.505   2.847 -0.3366 -0.5179  0.4784
 3165SOL    HW120954   3.133   2.484   2.791  0.2767  1.5000 -1.1105
 3165SOL    HW220955   3.166   2.511   2.932 -2.6203 -0.8213 -0.6305
 3166SOL     OW20956   4.308   1.147   1.961  0.0137  0.0761 -0.2677
 3166SOL    HW120957   4.240   1.208   1.990 -0.9696 -0.1299 -2.1060
 3166SOL    HW220958   4.268   1.116   1.879 -0.5696 -2.5537  0.9964
 3167SOL     OW20959   2.015   1.071  16.892  0.2626 -0.5225 -0.1414
 3167SOL    HW120960   2.041   1.033  16.977  0.3837 -2.6039 -1.1059
 3167SOL    HW220961   2.027   1.165  16.900  0.4514 -0.6370  0.9166
 3168SOL     OW20962   3.232   0.041   8.399 -0.2939  0.2307 -0.2517
 3168SOL    HW120963   3.208   4.704   8.468  0.2290 -0.5953 -0.8033
 3168SOL    HW220964   3.197   0.124   8.433 -1.9374 -0.5611 -0.0167
 3169SOL     OW20965   2.791   3.460   4.122 -0.5802 -0.3545 -0.0014
 3169SOL    HW120966   2.737   3.382   4.112 -2.3707  0.9406 -0.3209
 3169SOL    HW220967   2.729   3.532   4.128  1.2172  1.2194 -0.2021
 3170SOL     OW20968   0.937   0.236  12.765  0.2384 -0.3247 -0.6328
 3170SOL    HW120969   0.973   0.324  12.756 -2.1868  0.7031 -0.1413
 3170SOL    HW220970   0.906   0.208  12.679 -2.5518 -1.9190  0.8734
 3171SOL     OW20971   3.287   2.922   4.212  0.9137  0.0798  0.1799
 3171SOL    HW120972   3.289   2.837   4.257 -1.1676  0.9220  1.8793
 3171SOL    HW220973   3.360   2.965   4.256  2.0463 -2.1677  0.5316
 3172SOL     OW20974   0.241   3.956   3.453  0.5002 -0.1291  0.1670
 3172SOL    HW120975   0.209   3.989   3.537 -2.1542 -1.4655 -0.2967
 3172SOL    HW220976   0.281   3.874   3.484  0.8496  0.7913  2.1467
 3173SOL     OW20977   4.419   1.324  10.569 -0.1600  0.2517 -0.1578
 3173SOL    HW120978   4.500   1.327  10.621  0.0903 -1.1517 -0.4590
 3173SOL    HW220979   4.444   1.283  10.486 -0.2289  1.4054 -0.7470
 3174SOL     OW20980   4.118   1.363  12.894 -0.2739 -0.7317  0.1071
 3174SOL    HW120981   4.055   1.419  12.849  0.9082 -0.1957 -0.8877
 3174SOL    HW220982   4.064   1.297  12.936  0.0563 -1.1412 -0.1093
 3175SOL     OW20983   3.410   4.263   8.074 -0.3638  0.0341  0.0092
 3175SOL    HW120984   3.400   4.352   8.107  2.9324  0.4046  0.0315
 3175SOL    HW220985   3.466   4.280   7.998  0.1331  0.6547  0.5129
 3176SOL     OW20986   1.150   3.975   2.273 -0.2445  0.0154 -0.5354
 3176SOL    HW120987   1.078   3.966   2.335  0.8208 -0.9429  0.5775
 3176SOL    HW220988   1.170   4.068   2.274  0.5244 -0.1530  0.1724
 3177SOL     OW20989   3.857   3.423   7.522 -0.3943  0.1111 -0.0712
 3177SOL    HW120990   3.775   3.376   7.533 -1.3420  1.4789 -1.2600
 3177SOL    HW220991   3.903   3.417   7.606  0.8113 -0.4423 -0.7776
 3178SOL     OW20992   1.281   1.439  15.307  0.2410 -0.3282 -0.2589
 3178SOL    HW120993   1.345   1.475  15.368 -1.3014  1.6506  0.1900
 3178SOL    HW220994   1.195   1.473  15.332 -0.0273  0.4996 -2.3684
 3179SOL     OW20995   3.200   0.924   5.914  0.3501 -0.0596  0.4196
 3179SOL    HW120996   3.197   0.860   5.844  1.7532 -0.2949  0.5750
 3179SOL    HW220997   3.108   0.916   5.937  0.0579  1.5086 -0.1822
 3180SOL     OW20998   1.970   2.101   4.521  0.1051  0.1485 -0.0898
 3180SOL    HW120999   1.894   2.051   4.551 -0.7527  1.0757 -0.7171
 3180SOL    HW221000   1.940   2.187   4.549 -0.8973 -0.0741 -0.4960
 3181SOL     OW21001   2.181   2.246   5.511  0.2690 -0.5537  0.7543
 3181SOL    HW121002   2.189   2.255   5.416 -3.0128 -1.5139  0.4122
 3181SOL    HW221003   2.270   2.220   5.538  0.7153  0.2614  0.0516
 3182SOL     OW21004   1.586   2.734   3.353  0.0125  0.1017  0.3210
 3182SOL    HW121005   1.574   2.722   3.259  2.9305  0.4847 -0.0912
 3182SOL    HW221006   1.496   2.733   3.386  0.6170 -1.1588  1.9324
 3183SOL     OW21007   2.296   1.473   6.262 -0.0424  0.7250  1.0336
 3183SOL    HW121008   2.294   1.405   6.195 -0.3110  0.4231  1.3516
 3183SOL    HW221009   2.386   1.478   6.292  0.6017 -1.7379 -0.4730
 3184SOL     OW21010   4.389   1.785  11.414  0.3986 -0.1146  0.0046
 3184SOL    HW121011   4.399   1.825  11.327 -2.9421  1.6141  0.4153
 3184SOL    HW221012   4.347   1.860  11.456  1.8206 -0.6399  2.3583
 3185SOL     OW21013   2.597   2.461   5.910 -0.4319 -0.3363 -0.4390
 3185SOL    HW121014   2.577   2.475   5.818  0.5160 -0.2668 -0.6284
 3185SOL    HW221015   2.659   2.389   5.904  0.1997  0.1246  0.5116
 3186SOL     OW21016   0.552   4.106   8.000 -0.1489 -0.3727 -0.3907
 3186SOL    HW121017   0.465   4.096   7.962 -0.1905  0.5521 -0.5280
 3186SOL    HW221018   0.600   4.150   7.930  2.0579  0.8958  1.9233
 3187SOL     OW21019   2.427   4.619  17.082 -0.6216 -0.1129  0.3462
 3187SOL    HW121020   2.435   4.526  17.104 -2.2669 -0.0417  1.2571
 3187SOL    HW221021   2.501   4.619  17.021 -2.4937 -0.0354 -1.9215
 3188SOL     OW21022   4.252   2.269  17.220  0.3263  0.7099 -0.1836
 3188SOL    HW121023   4.159   2.249  17.209  0.3431  0.5812 -0.0982
 3188SOL    HW221024   4.259   2.350  17.171 -1.5008  1.7818  1.2823
 3189SOL     OW21025   0.090   4.106   1.402  0.4923  0.5678  0.5479
 3189SOL    HW121026   0.143   4.122   1.479  0.2457  0.4072  0.7512
 3189SOL    HW221027   0.151   4.090   1.330 -1.4495 -1.1451 -0.7200
 3190SOL     OW21028   3.043   1.946   8.823 -0.3462 -0.1293  0.0747
 3190SOL    HW121029   3.090   2.020   8.783  1.3038 -0.4841  1.3542
 3190SOL    HW221030   2.992   1.975   8.899 -1.2431  1.4376 -1.1398
 3191SOL     OW21031   2.946   0.817   0.174  0.1518  0.1768  0.0957
 3191SOL    HW121032   2.981   0.742   0.223 -1.6825 -1.0010 -0.4132
 3191SOL    HW221033   2.968   0.894   0.226  1.2556 -0.9557  1.3345
 3192SOL     OW21034   3.389   1.512  17.378  0.0316 -0.2325  0.4400
 3192SOL    HW121035   3.363   1.480  17.291  1.1482  1.9321 -0.6866
 3192SOL    HW221036   3.371   1.606  17.379 -1.1360 -0.4434 -0.4770
 3193SOL     OW21037   3.677   2.771   1.179  0.0337 -0.0101  0.5188
 3193SOL    HW121038   3.687   2.751   1.086 -2.1502 -1.2515  0.5591
 3193SOL    HW221039   3.588   2.738   1.186  0.7730 -2.1909 -0.4253
 3194SOL     OW21040   2.527   1.507  10.580  0.4624 -0.0634  0.3676
 3194SOL    HW121041   2.563   1.444  10.642  2.1489  0.6815  0.1486
 3194SOL    HW221042   2.559   1.460  10.503 -0.3860 -0.1300  0.0649
 3195SOL     OW21043   4.304   3.097   3.667 -0.3526 -0.0724 -0.4607
 3195SOL    HW121044   4.310   3.044   3.746 -2.2608  0.4625  0.0369
 3195SOL    HW221045   4.385   3.147   3.661 -0.7516  0.6158 -0.1089
 3196SOL     OW21046   1.460   2.175   1.356  0.3757  0.4859 -0.0250
 3196SOL    HW121047   1.467   2.107   1.289  1.5432 -0.0944  0.6764
 3196SOL    HW221048   1.395   2.138   1.417 -0.5712 -0.9148 -1.8867
 3197SOL     OW21049   1.597   1.283   0.238  0.2780  0.4528 -0.1880
 3197SOL    HW121050   1.598   1.302   0.332  0.4448  1.8045 -0.4577
 3197SOL    HW221051   1.506   1.257   0.226  0.3777  0.7476 -1.5333
 3198SOL     OW21052   3.752   1.735   2.466 -0.0130 -0.1783 -0.2374
 3198SOL    HW121053   3.713   1.648   2.480 -1.4564  0.8464  2.0341
 3198SOL    HW221054   3.687   1.777   2.409 -0.6770 -0.5058  0.2751
 3199SOL     OW21055   4.472   1.658   6.611  0.2836 -0.0066  0.7402
 3199SOL    HW121056   4.414   1.628   6.682 -0.5473  0.3533  0.2174
 3199SOL    HW221057   4.500   1.574   6.576 -2.9353 -0.7899 -0.0147
 3200SOL     OW21058   0.156   3.354   7.773  0.1983 -0.1048 -0.3853
 3200SOL    HW121059   0.179   3.388   7.860  2.0834  1.5694 -1.5659
 3200SOL    HW221060   0.244   3.331   7.746  0.0312  1.1623 -1.9997
 3201SOL     OW21061   1.322   2.067  14.628 -0.6906 -0.5339  0.2923
 3201SOL    HW121062   1.330   1.980  14.590  2.4991 -0.3355  0.5098
 3201SOL    HW221063   1.391   2.114  14.580 -1.0813  1.3251  1.5356
 3202SOL     OW21064   0.634   1.714   0.078  0.2422 -0.5228  0.3802
 3202SOL    HW121065   0.599   1.644   0.024  0.7211  0.5218 -1.3037
 3202SOL    HW221066   0.594   1.793   0.042 -1.4169 -1.2725  0.6193
 3203SOL     OW21067   3.763   4.458   3.092 -0.0576  0.7078  0.0391
 3203SOL    HW121068   3.680   4.450   3.046 -2.0763  0.9796  3.6580
 3203SOL    HW221069   3.775   4.377   3.143  0.4460  1.3815  1.0030
 3204SOL     OW21070   4.402   2.825   8.113 -0.5315  0.5781 -0.1032
 3204SOL    HW121071   4.494   2.814   8.092 -0.7183  0.2383 -0.7400
 3204SOL    HW221072   4.397   2.813   8.208 -2.6852 -1.2543 -0.4424
 3205SOL     OW21073   0.766   4.146   6.932 -0.4287  0.1949 -0.4753
 3205SOL    HW121074   0.678   4.166   6.899  0.5493 -0.5073 -3.5295
 3205SOL    HW221075   0.756   4.074   6.994  2.5804  0.9276  0.8465
 3206SOL     OW21076   3.339   0.627  14.747  0.6692  0.0528  0.0387
 3206SOL    HW121077   3.427   0.597  14.767  0.8004  1.4539  1.5135
 3206SOL    HW221078   3.296   0.605  14.830 -1.5461  0.3836 -1.0205
 3207SOL     OW21079   0.334   1.462  10.304  0.0129  0.0252  0.2308
 3207SOL    HW121080   0.393   1.533  10.276  0.3038 -0.9864 -1.7583
 3207SOL    HW221081   0.395   1.416  10.362  0.7483  2.9477  1.8187
 3208SOL     OW21082   2.556   2.450   5.638  0.0575  0.7764 -0.6830
 3208SOL    HW121083   2.482   2.407   5.681  1.3453 -0.1730  0.5829
 3208SOL    HW221084   2.516   2.535   5.624  2.0709  1.8360  0.0253
 3209SOL     OW21085   2.573   3.523   2.126  0.0288  0.1560  0.1100
 3209SOL    HW121086   2.503   3.517   2.061  1.0754 -0.6809 -0.9467
 3209SOL    HW221087   2.630   3.453   2.095 -0.8456  0.1253 -1.4327
 3210SOL     OW21088   2.711   2.474  12.417 -0.2462  0.1295 -0.3852
 3210SOL    HW121089   2.629   2.428  12.438 -0.2944 -0.9198 -2.8916
 3210SOL    HW221090   2.687   2.504  12.330  1.3963 -1.8692 -1.5144
 3211SOL     OW21091   4.613   4.679   7.889 -0.1563  0.0392 -0.0106
 3211SOL    HW121092   4.523   4.646   7.886  0.2496 -1.2417  1.9998
 3211SOL    HW221093   4.631   4.639   7.974  0.8101 -0.9500 -0.6924
 3212SOL     OW21094   1.234   1.340   8.563  0.4619  0.7588 -0.0613
 3212SOL    HW121095   1.278   1.297   8.636 -0.5992  1.0711  0.7476
 3212SOL    HW221096   1.278   1.315   8.481  0.0428  1.1101 -0.3923
 3213SOL     OW21097   0.299   3.080  11.009 -0.0029 -0.0651 -0.1816
 3213SOL    HW121098   0.366   3.061  10.944  0.8716  0.5076  0.5421
 3213SOL    HW221099   0.345   3.137  11.070  0.0396 -0.8905  0.5710
 3214SOL     OW21100   1.747   1.645  16.650 -0.6988  0.5301 -0.0155
 3214SOL    HW121101   1.810   1.588  16.693  0.0053  0.2047 -1.4554
 3214SOL    HW221102   1.673   1.590  16.625  0.0419 -0.6381  0.4068
 3215SOL     OW21103   2.872   2.817   5.922 -0.6291  0.3689 -0.1572
 3215SOL    HW121104   2.795   2.777   5.963 -1.5400  0.1811 -2.0457
 3215SOL    HW221105   2.880   2.755   5.850 -1.3313 -1.5941  1.4575
 3216SOL     OW21106   1.044   2.126   4.800  0.5970 -0.2256 -0.2227
 3216SOL    HW121107   1.096   2.204   4.784  0.3888 -0.2065 -0.7899
 3216SOL    HW221108   1.004   2.112   4.715 -0.0631  0.8164 -0.0858
 3217SOL     OW21109   1.388   1.331   5.125 -0.1189  0.0077 -0.1876
 3217SOL    HW121110   1.333   1.299   5.054 -0.2271 -2.3173  0.9322
 3217SOL    HW221111   1.346   1.414   5.150  0.8838  0.5485 -0.3183
 3218SOL     OW21112   0.682   0.009   6.043 -0.0011  0.0835  0.4641
 3218SOL    HW121113   0.614   4.682   6.000  0.2112  0.2572 -0.0734
 3218SOL    HW221114   0.636   0.025   6.126  0.4927  0.0662  0.7417
 3219SOL     OW21115   1.709   0.492   2.790  0.0723 -0.2336  0.2574
 3219SOL    HW121116   1.750   0.415   2.750 -2.1000 -1.3293  0.0648
 3219SOL    HW221117   1.706   0.554   2.718  0.8562 -0.3680  0.1080
 3220SOL     OW21118   4.124   2.288  13.885 -0.0614  0.2472 -0.4092
 3220SOL    HW121119   4.032   2.264  13.896 -0.2311  1.1630  0.1306
 3220SOL    HW221120   4.126   2.378  13.915 -1.4218 -0.2623  1.1993
 3221SOL     OW21121   2.067   2.097  17.363  0.1095  0.9249  0.1634
 3221SOL    HW121122   2.076   2.012  17.407  0.9001  1.8707  1.8401
 3221SOL    HW221123   1.973   2.090  17.351  0.0667  0.4256  0.7618
 3222SOL     OW21124   0.791   3.807   6.704 -0.0259 -0.8217  0.0042
 3222SOL    HW121125   0.882   3.806   6.675  0.2334  1.4625  0.7193
 3222SOL    HW221126   0.803   3.821   6.798  1.1667  0.9636 -0.4278
 3223SOL     OW21127   1.545   4.492   8.004  0.1343  0.6630  0.5006
 3223SOL    HW121128   1.458   4.531   7.996  0.2359  0.6816 -0.5072
 3223SOL    HW221129   1.516   4.403   8.027 -2.2107  1.1023 -0.7982
 3224SOL     OW21130   1.590   1.013   1.933 -0.7528  0.6184 -0.3917
 3224SOL    HW121131   1.507   1.057   1.921 -0.2375  1.5233 -0.6089
 3224SOL    HW221132   1.650   1.087   1.937  2.5835 -2.1315  0.7043
 3225SOL     OW21133   2.278   0.791   6.314  0.0564 -0.6460 -0.0790
 3225SOL    HW121134   2.233   0.712   6.284 -0.4530 -0.4458  0.1602
 3225SOL    HW221135   2.210   0.807   6.380  1.3940  3.9976  0.1807
 3226SOL     OW21136   2.765   2.154  15.663 -0.0795  0.4312  0.4427
 3226SOL    HW121137   2.694   2.131  15.723 -1.1478  0.5825 -0.7671
 3226SOL    HW221138   2.725   2.148  15.577  0.1018  0.4797  0.3548
 3227SOL     OW21139   0.710   1.195   6.892  0.5763  0.1951 -0.2280
 3227SOL    HW121140   0.698   1.194   6.987  1.9064  1.8928 -0.0510
 3227SOL    HW221141   0.776   1.259   6.867 -1.5962  2.0008 -1.3664
 3228SOL     OW21142   0.040   3.875   0.025  0.6118 -0.2367 -0.3745
 3228SOL    HW121143   4.715   3.810  17.674  1.3553  1.5500 -3.4458
 3228SOL    HW221144   4.695   3.939   0.034 -0.4374 -1.1901 -1.6459
 3229SOL     OW21145   0.572   2.664   1.313  0.1237  0.5245 -0.1297
 3229SOL    HW121146   0.509   2.595   1.333  0.3276 -0.4665 -2.9760
 3229SOL    HW221147   0.642   2.617   1.359 -0.3729 -1.0811 -1.0362
 3230SOL     OW21148   3.183   4.706   1.569  0.2067 -0.1018 -0.8728
 3230SOL    HW121149   3.216   4.643   1.633 -0.9687 -2.2546 -2.4138
 3230SOL    HW221150   3.173   4.648   1.494 -0.1357 -1.5344  0.2725
 3231SOL     OW21151   4.150   1.626   4.365 -0.5344 -0.0704  0.0785
 3231SOL    HW121152   4.092   1.605   4.438  0.2199 -0.4163  0.5839
 3231SOL    HW221153   4.116   1.572   4.294  2.6217 -2.7380  0.6093
 3232SOL     OW21154   0.920   1.584   7.338  0.3874 -0.4188  0.1795
 3232SOL    HW121155   1.010   1.563   7.310  0.8721 -1.0732  2.2630
 3232SOL    HW221156   0.890   1.618   7.253 -0.8724 -0.3484  0.6564
 3233SOL     OW21157   2.564   2.789   0.057  0.0601  0.8684 -0.1954
 3233SOL    HW121158   2.490   2.729   0.049  0.3053  0.8154 -2.0648
 3233SOL    HW221159   2.582   2.807  17.664 -2.4791 -0.1587 -0.8875
 3234SOL     OW21160   3.169   2.379   3.325  0.0358  0.2131 -0.1970
 3234SOL    HW121161   3.087   2.342   3.358 -0.2133  2.1359  1.2988
 3234SOL    HW221162   3.234   2.320   3.365 -1.5272 -2.1685 -1.1405
 3235SOL     OW21163   2.752   2.868   5.064  0.3108  0.0726 -0.4655
 3235SOL    HW121164   2.663   2.899   5.084  0.2255 -0.1106 -0.5582
 3235SOL    HW221165   2.795   2.891   5.146  0.4753 -0.7322 -0.3270
 3236SOL     OW21166   1.661   0.647  10.189 -0.8299 -0.5355  0.4917
 3236SOL    HW121167   1.630   0.695  10.112  0.3368  1.1550  1.0580
 3236SOL    HW221168   1.627   0.689  10.268 -0.6437  0.4499  0.0466
 3237SOL     OW21169   2.810   1.043  15.349 -0.2979 -0.4976  0.5497
 3237SOL    HW121170   2.818   0.956  15.390 -0.0504 -1.3934 -1.4078
 3237SOL    HW221171   2.904   1.060  15.342 -0.4237  0.6315  1.6717
 3238SOL     OW21172   1.218   2.473  16.735 -0.1042  0.3933 -0.0884
 3238SOL    HW121173   1.146   2.533  16.752  0.1755  1.2775 -2.0407
 3238SOL    HW221174   1.205   2.416  16.811  0.4207 -0.2117 -0.4444
 3239SOL     OW21175   4.066   2.228   7.521  0.4069  0.4105  0.0300
 3239SOL    HW121176   4.094   2.150   7.568 -1.2310 -0.7436 -0.9474
 3239SOL    HW221177   3.980   2.212   7.483  0.4956  0.7532 -0.3215
 3240SOL     OW21178   4.374   1.880   6.033 -0.1234 -0.8511  0.0053
 3240SOL    HW121179   4.385   1.855   6.124 -0.2351  3.3774  1.1327
 3240SOL    HW221180   4.280   1.898   6.038 -0.2454 -1.1496 -1.0285
 3241SOL     OW21181   0.418   3.782  12.020 -0.5922  0.5417 -0.2832
 3241SOL    HW121182   0.377   3.798  11.935 -0.5034 -1.2208 -0.6460
 3241SOL    HW221183   0.444   3.691  12.008 -0.0727  0.7163 -0.4918
 3242SOL     OW21184   1.050   0.925  10.255  0.4480  0.5719  0.0620
 3242SOL    HW121185   1.126   0.954  10.205  0.0230  0.8990 -0.3909
 3242SOL    HW221186   1.048   0.987  10.327  0.9481  2.3606 -1.4665
 3243SOL     OW21187   1.575   2.008  17.079  0.0037  0.0439  0.0227
 3243SOL    HW121188   1.624   1.959  17.013 -0.4825 -0.1158 -0.2195
 3243SOL    HW221189   1.571   1.944  17.149  0.4466 -1.8334 -1.6705
 3244SOL     OW21190   3.131   3.233   5.664  0.5492 -0.0915  0.4117
 3244SOL    HW121191   3.112   3.271   5.750 -0.5544  0.7391 -0.1914
 3244SOL    HW221192   3.134   3.141   5.689  2.7853 -0.3887 -0.9588
 3245SOL     OW21193   1.327   4.105   4.734  0.0053 -0.1512  0.2764
 3245SOL    HW121194   1.420   4.126   4.730 -0.4469  2.1069  1.4366
 3245SOL    HW221195   1.317   4.056   4.653 -0.3994  2.4722 -1.2668
 3246SOL     OW21196   1.138   0.906  12.538  0.3123 -0.2595  0.1275
 3246SOL    HW121197   1.051   0.874  12.513  0.6253 -0.6910 -0.3995
 3246SOL    HW221198   1.181   0.886  12.455 -1.5561 -2.8261 -0.2058
 3247SOL     OW21199   2.519   1.167   6.484 -0.2086  0.8045  0.1697
 3247SOL    HW121200   2.609   1.136   6.496 -0.6463 -0.9737 -1.1937
 3247SOL    HW221201   2.462   1.095   6.510  0.7521  0.4855  1.3761
 3248SOL     OW21202   3.965   3.790   8.726  0.0679  0.4017  0.1217
 3248SOL    HW121203   4.039   3.814   8.670  0.4003 -1.8836 -0.4226
 3248SOL    HW221204   3.942   3.708   8.683 -2.2485 -0.3270  2.7529
 3249SOL     OW21205   4.005   1.443   5.479 -0.2096  0.0017  0.1956
 3249SOL    HW121206   4.083   1.494   5.503  0.6008 -1.2509  0.2370
 3249SOL    HW221207   3.957   1.430   5.561 -1.8741  2.1853 -0.4359
 3250SOL     OW21208   3.266   2.726   7.831  0.1426 -0.4387  0.4408
 3250SOL    HW121209   3.349   2.774   7.836 -1.0812  1.6889 -0.0086
 3250SOL    HW221210   3.294   2.641   7.865  1.8877 -0.1333 -0.1971
 3251SOL     OW21211   1.182   0.110   8.257 -0.1911  0.8325 -0.4462
 3251SOL    HW121212   1.186   0.046   8.328  0.3203  0.5144 -0.7631
 3251SOL    HW221213   1.207   0.059   8.180 -0.1514 -0.3991  0.3958
 3252SOL     OW21214   2.587   0.137  11.177 -0.1659 -0.1703  0.1545
 3252SOL    HW121215   2.634   0.055  11.192 -0.2189 -0.2888 -0.3176
 3252SOL    HW221216   2.576   0.144  11.082  0.7227  0.2075  0.0736
 3253SOL     OW21217   4.347   3.203  11.575 -0.5115  0.2122  0.1697
 3253SOL    HW121218   4.344   3.296  11.551 -1.6345  0.1041 -0.1269
 3253SOL    HW221219   4.292   3.202  11.653  1.1088 -1.3595  1.2982
 3254SOL     OW21220   2.724   2.192   9.157 -0.5592 -0.6568  0.2341
 3254SOL    HW121221   2.637   2.227   9.137  0.2556  2.3074  1.8044
 3254SOL    HW221222   2.780   2.266   9.135  0.8837 -2.5661 -2.5364
 3255SOL     OW21223   1.765   1.354   3.898  0.2046 -0.5398  0.1228
 3255SOL    HW121224   1.688   1.388   3.944 -0.3643  0.2162 -1.3999
 3255SOL    HW221225   1.821   1.431   3.910 -1.8016  1.2954 -2.4709
 3256SOL     OW21226   0.001   1.058   9.340  0.0591  0.2677 -0.5571
 3256SOL    HW121227   0.068   1.123   9.362 -1.0335  0.9872  0.6714
 3256SOL    HW221228   4.648   1.113   9.325 -1.4860 -1.7612  0.0077
 3257SOL     OW21229   1.479   0.031   2.369  0.8438  0.0857  0.3602
 3257SOL    HW121230   1.435   4.673   2.388 -0.2014  0.2033 -1.6231
 3257SOL    HW221231   1.503   0.056   2.459 -0.0193  0.9489  0.3553
 3258SOL     OW21232   2.417   4.513  15.430 -0.1330 -0.0887 -0.1502
 3258SOL    HW121233   2.443   4.500  15.339 -2.4860 -0.6585 -0.7239
 3258SOL    HW221234   2.407   4.608  15.436 -2.3180 -0.1365 -2.9719
 3259SOL     OW21235   3.409   0.919  16.815  0.4592 -0.0232  0.1690
 3259SOL    HW121236   3.387   0.913  16.908  3.3225 -1.2375  0.7565
 3259SOL    HW221237   3.328   0.874  16.790  0.3350  0.6639 -0.6564
 3260SOL     OW21238   4.391   4.283   3.957 -0.6792 -0.0315 -0.3777
 3260SOL    HW121239   4.300   4.282   3.986 -0.1682  1.0894  1.2308
 3260SOL    HW221240   4.426   4.225   4.024 -0.4613  1.2078  0.5751
 3261SOL     OW21241   2.543   3.875  13.350  0.1786 -0.0906  0.0959
 3261SOL    HW121242   2.497   3.915  13.277 -2.6324  1.6916  2.8200
 3261SOL    HW221243   2.531   3.944  13.416 -0.9146 -1.7765  1.6778
 3262SOL     OW21244   1.548   2.604  13.557 -0.0372  0.0623  0.0514
 3262SOL    HW121245   1.556   2.536  13.491 -0.4289 -1.0216  1.1111
 3262SOL    HW221246   1.527   2.558  13.638  1.5058 -1.6152 -0.5140
 3263SOL     OW21247   1.799   4.546   4.098  0.1217  0.1947  0.4008
 3263SOL    HW121248   1.828   4.484   4.032  1.4809  0.6419  0.5895
 3263SOL    HW221249   1.791   4.500   4.181  2.7668  1.2678  1.2359
 3264SOL     OW21250   1.948   2.182   5.655 -0.3594  0.1769  0.2727
 3264SOL    HW121251   2.024   2.207   5.604 -0.9964  0.1686 -0.6689
 3264SOL    HW221252   1.974   2.221   5.739 -2.3331  0.0249  0.9539
 3265SOL     OW21253   1.404   2.078  11.142  0.7231  0.0422 -0.3029
 3265SOL    HW121254   1.438   2.127  11.067 -2.6744 -0.9186 -2.4865
 3265SOL    HW221255   1.456   2.118  11.212  1.1932 -1.7925  0.3782
 3266SOL     OW21256   3.978   4.474  11.763  0.3914  0.2946 -0.1763
 3266SOL    HW121257   3.884   4.472  11.748  0.2181 -0.6094  1.0163
 3266SOL    HW221258   4.007   4.463  11.673 -2.3439 -0.8902 -0.8887
 3267SOL     OW21259   3.638   3.025   4.131 -0.2900 -0.2769  0.0481
 3267SOL    HW121260   3.599   3.012   4.217  0.1668  0.9375  0.4348
 3267SOL    HW221261   3.641   3.121   4.132 -0.1797 -0.2878  0.6921
 3268SOL     OW21262   2.379   0.396  10.835 -0.2053 -0.2911  0.3610
 3268SOL    HW121263   2.370   0.316  10.887 -0.1204 -0.0384  0.7651
 3268SOL    HW221264   2.328   0.460  10.885  1.4118  1.5683 -0.3312
 3269SOL     OW21265   3.653   3.065  17.383 -0.0579  0.0548 -0.0562
 3269SOL    HW121266   3.666   3.149  17.426  0.7822  0.7919 -1.7402
 3269SOL    HW221267   3.646   3.019  17.467  0.3383  2.0024  1.0399
 3270SOL     OW21268   0.129   1.381  13.293 -0.3094  0.1965 -0.6383
 3270SOL    HW121269   0.055   1.321  13.284  0.9438 -1.0984 -2.0515
 3270SOL    HW221270   0.094   1.436  13.364 -0.5662  0.4612 -0.9738
 3271SOL     OW21271   1.076   3.581   7.351  0.1438 -0.3920  0.5031
 3271SOL    HW121272   1.114   3.542   7.429  1.4209  2.2393  1.2030
 3271SOL    HW221273   1.095   3.518   7.282 -0.0311  1.3129 -1.1213
 3272SOL     OW21274   0.132   2.126   8.509 -0.4569 -0.0346  0.0455
 3272SOL    HW121275   0.188   2.143   8.585  0.0253 -1.1644 -0.0536
 3272SOL    HW221276   0.110   2.217   8.489 -0.8174 -0.6106 -2.1602
 3273SOL     OW21277   2.040   4.450   7.957 -0.3483 -0.1017 -0.2822
 3273SOL    HW121278   2.023   4.488   8.044  1.6701 -0.8002  0.3990
 3273SOL    HW221279   1.954   4.457   7.915  0.0791 -0.5103 -1.2274
 3274SOL     OW21280   3.390   1.507   6.809 -0.2330 -0.8076  0.1810
 3274SOL    HW121281   3.309   1.544   6.845 -0.5391 -0.9181 -0.3769
 3274SOL    HW221282   3.340   1.461   6.741 -1.3835  2.2717 -1.0580
 3275SOL     OW21283   0.988   3.485  11.024 -0.3490  0.3335  0.3524
 3275SOL    HW121284   0.897   3.503  11.048 -0.0141 -0.0653  1.9553
 3275SOL    HW221285   1.032   3.538  11.091  1.8898  0.2486 -1.0465
 3276SOL     OW21286   3.100   1.067   8.753  0.2257  0.2623  0.2622
 3276SOL    HW121287   3.112   1.161   8.763 -0.2293  0.2374  0.9911
 3276SOL    HW221288   3.159   1.051   8.679 -1.8056 -0.2128 -1.2740
 3277SOL     OW21289   0.764   1.154  10.339 -0.2459  0.2535 -0.5127
 3277SOL    HW121290   0.798   1.086  10.280  0.0885  0.8472 -1.0114
 3277SOL    HW221291   0.835   1.147  10.403  1.5931 -1.5788 -2.7360
 3278SOL     OW21292   2.966   4.144   3.285 -0.2238  0.1315  0.4494
 3278SOL    HW121293   2.938   4.173   3.198  0.8922  0.2550  0.1270
 3278SOL    HW221294   3.018   4.219   3.313 -1.2055  1.0738 -0.2672
 3279SOL     OW21295   3.347   3.631   5.842  0.2250  0.2606  0.3757
 3279SOL    HW121296   3.258   3.601   5.821 -0.5948  2.0833  1.2438
 3279SOL    HW221297   3.410   3.604   5.776  0.0893  1.6675 -0.3158
 3280SOL     OW21298   4.206   3.623   4.398 -0.2578 -0.3414 -0.3433
 3280SOL    HW121299   4.170   3.702   4.436 -0.2803 -1.4921  2.0158
 3280SOL    HW221300   4.132   3.568   4.422  0.0699 -1.8985 -2.8512
 3281SOL     OW21301   2.485   3.189  12.409  0.3199 -0.2901  0.2161
 3281SOL    HW121302   2.418   3.183  12.477  1.7198 -1.9721  1.4421
 3281SOL    HW221303   2.548   3.255  12.436 -0.8196  1.7282 -2.0464
 3282SOL     OW21304   1.008   1.943   8.098  0.4475  0.3899 -0.0445
 3282SOL    HW121305   1.006   1.951   8.193  0.0760 -0.2587 -0.0013
 3282SOL    HW221306   0.924   1.902   8.078 -0.2346  1.6890  0.1446
 3283SOL     OW21307   3.124   4.687   9.790 -0.1717 -0.1349  0.5567
 3283SOL    HW121308   3.064   4.616   9.812  0.7109 -0.5769  1.5174
 3283SOL    HW221309   3.203   4.646   9.755  0.1090  1.0850 -0.2426
 3284SOL     OW21310   4.490   2.474   1.910  0.4423 -0.3207  0.3880
 3284SOL    HW121311   4.566   2.420   1.930  0.5337  0.1132  1.1915
 3284SOL    HW221312   4.467   2.506   1.997  1.5529 -1.0266  0.9336
 3285SOL     OW21313   2.975   0.206   6.123  0.8083  0.2846  0.0089
 3285SOL    HW121314   2.918   0.174   6.053  0.0918  0.0779  0.6906
 3285SOL    HW221315   3.044   0.139   6.128  1.4718  0.8912 -1.0952
 3286SOL     OW21316   3.781   0.689  13.568  0.0334  0.1041  0.2383
 3286SOL    HW121317   3.749   0.697  13.658 -3.3992  0.4287 -1.0385
 3286SOL    HW221318   3.718   0.628  13.530 -0.8865  0.7088  0.7833
 3287SOL     OW21319   2.119   1.550  10.920  0.0974 -0.1064  0.1907
 3287SOL    HW121320   2.205   1.578  10.954  0.5116 -1.3892  0.1756
 3287SOL    HW221321   2.134   1.550  10.825 -2.5281  1.7372 -0.2078
 3288SOL     OW21322   1.226   1.123  14.310 -0.0058  0.6770  0.7035
 3288SOL    HW121323   1.178   1.194  14.268 -2.1485 -0.3362  1.4703
 3288SOL    HW221324   1.314   1.140  14.275  0.1282  1.3570  1.3764
 3289SOL     OW21325   2.558   2.610  10.775  0.2945  0.1375  0.5370
 3289SOL    HW121326   2.502   2.616  10.852 -1.5778 -1.2227 -0.7267
 3289SOL    HW221327   2.636   2.658  10.802  1.0318 -0.1825 -1.0331
 3290SOL     OW21328   3.440   1.331  12.600  0.5872 -0.0363 -0.3667
 3290SOL    HW121329   3.467   1.249  12.641  1.5022  0.9003  0.9015
 3290SOL    HW221330   3.380   1.304  12.530  0.7674 -1.0144 -0.1383
 3291SOL     OW21331   4.284   3.036   2.617 -0.1898  0.1166  0.4715
 3291SOL    HW121332   4.367   3.061   2.657 -0.6058 -1.1498  2.1253
 3291SOL    HW221333   4.226   3.110   2.634 -0.0271  0.3366  0.0646
 3292SOL     OW21334   4.365   2.743   9.230 -0.6461 -0.1027  0.2230
 3292SOL    HW121335   4.311   2.814   9.265 -0.6581 -1.5120  3.0542
 3292SOL    HW221336   4.300   2.675   9.217 -0.2463 -0.5165  0.3846
 3293SOL     OW21337   0.107   2.967   3.021  0.7451  0.2285  0.1052
 3293SOL    HW121338   0.073   3.021   3.092  0.5183 -1.1115  1.0104
 3293SOL    HW221339   0.129   2.884   3.063  1.7503  0.1616 -0.5386
 3294SOL     OW21340   1.173   1.132   5.394  0.5857 -0.4357 -0.2332
 3294SOL    HW121341   1.115   1.186   5.339 -0.9657 -1.4865  0.3788
 3294SOL    HW221342   1.138   1.043   5.387  1.2030 -0.4928 -2.5335
 3295SOL     OW21343   1.258   4.272   4.279 -0.7791  0.3939 -0.5718
 3295SOL    HW121344   1.178   4.249   4.325 -0.7533 -1.0707 -1.2494
 3295SOL    HW221345   1.229   4.244   4.192  1.0084 -0.7820 -0.7891
 3296SOL     OW21346   0.581   0.271  15.191  0.2006 -0.3110 -0.8968
 3296SOL    HW121347   0.658   0.319  15.222 -0.1411 -1.4000  1.6348
 3296SOL    HW221348   0.572   0.287  15.097  0.9704 -1.3649 -1.1599
 3297SOL     OW21349   1.809   0.455   6.907 -0.1348  0.4167  0.1171
 3297SOL    HW121350   1.727   0.495   6.935 -1.2549 -2.3617  0.8467
 3297SOL    HW221351   1.855   0.532   6.873  0.7910  1.6126  4.1115
 3298SOL     OW21352   1.091   3.343  15.925  0.6824 -0.2874  0.0781
 3298SOL    HW121353   1.065   3.385  16.007 -0.5764 -0.7167 -0.1057
 3298SOL    HW221354   1.173   3.294  15.936  1.2634  0.9759  1.4083
 3299SOL     OW21355   3.646   0.183   0.093 -0.3837  0.3639 -0.2890
 3299SOL    HW121356   3.630   0.128   0.169 -0.9137 -1.5643 -1.8085
 3299SOL    HW221357   3.584   0.162   0.023 -1.0915 -1.9645  1.0193
 3300SOL     OW21358   3.060   0.776   4.586 -0.0880 -0.1727 -0.0643
 3300SOL    HW121359   3.132   0.785   4.523  0.1151  1.0357  0.3417
 3300SOL    HW221360   3.034   0.685   4.575  0.7329 -0.5775  1.4316
 3301SOL     OW21361   4.188   2.842   0.782  1.0974  0.5552 -0.1637
 3301SOL    HW121362   4.102   2.878   0.806  1.9703  0.6496  2.8272
 3301SOL    HW221363   4.216   2.843   0.874 -1.9851  3.0477  0.7581
 3302SOL     OW21364   4.541   1.561   2.804 -0.4247  0.4992  0.2265
 3302SOL    HW121365   4.572   1.492   2.746  0.3578  0.2815  0.8956
 3302SOL    HW221366   4.623   1.581   2.851 -0.0543  0.7287 -0.5186
 3303SOL     OW21367   0.717   3.352   7.650  0.2608  0.0843 -0.5513
 3303SOL    HW121368   0.749   3.438   7.679 -2.6589  1.5636 -1.6968
 3303SOL    HW221369   0.786   3.307   7.601  0.6887 -0.6191  0.6981
 3304SOL     OW21370   3.751   1.150   6.402 -0.6288 -0.1766  0.3469
 3304SOL    HW121371   3.846   1.166   6.406 -1.2130  2.7522  1.9075
 3304SOL    HW221372   3.731   1.153   6.495 -1.1615  1.1295  0.1854
 3305SOL     OW21373   4.099   0.830  11.367 -0.2727  0.0937  0.1495
 3305SOL    HW121374   4.183   0.877  11.373 -0.4191  0.7247 -2.8001
 3305SOL    HW221375   4.134   0.748  11.333  2.1994  0.8805  0.7348
 3306SOL     OW21376   3.005   2.432   6.065 -0.8156 -0.2231  0.1077
 3306SOL    HW121377   2.959   2.368   6.120 -0.3873 -0.1901  0.5029
 3306SOL    HW221378   3.071   2.382   6.017  1.1469  1.7115  0.8242
 3307SOL     OW21379   1.273   0.704   4.710  0.5159  0.2500 -1.0216
 3307SOL    HW121380   1.281   0.686   4.616 -3.4794 -0.4881 -1.2020
 3307SOL    HW221381   1.338   0.775   4.704 -2.1085  2.4649 -3.4216
 3308SOL     OW21382   0.143   0.936  10.624  0.1564  0.3170 -0.4601
 3308SOL    HW121383   0.122   0.934  10.530  0.5980 -1.6723 -0.5296
 3308SOL    HW221384   0.143   1.030  10.642  0.9460  0.2687 -0.2009
 3309SOL     OW21385   2.314   1.907   3.177  0.0161  0.3893 -0.3155
 3309SOL    HW121386   2.391   1.945   3.220 -1.2165  1.3074  1.1092
 3309SOL    HW221387   2.325   1.820   3.215  2.9917  0.1430 -1.7112
 3310SOL     OW21388   1.218   2.262   3.761 -0.5161 -0.4535  0.7793
 3310SOL    HW121389   1.137   2.235   3.719 -1.5663  0.4383  2.2146
 3310SOL    HW221390   1.226   2.211   3.842 -0.7239 -0.6324  0.6858
 3311SOL     OW21391   3.324   0.555   2.223  0.5819  0.7578  0.7369
 3311SOL    HW121392   3.368   0.601   2.152  2.7730 -2.4168  0.0161
 3311SOL    HW221393   3.252   0.613   2.245 -0.1867  0.0151  0.1745
 3312SOL     OW21394   1.235   0.836   6.754 -0.0882 -0.2200  0.0815
 3312SOL    HW121395   1.167   0.797   6.699 -1.1467  2.1292 -0.2856
 3312SOL    HW221396   1.287   0.890   6.694 -0.9319 -1.1998 -1.5200
 3313SOL     OW21397   4.708   1.451   9.652 -0.2320 -0.0160  0.0289
 3313SOL    HW121398   0.001   1.524   9.593 -2.6312 -0.6261 -1.4168
 3313SOL    HW221399   0.062   1.460   9.707  0.0189  3.0577 -0.8090
 3314SOL     OW21400   1.021   0.936   4.076 -0.5153 -0.0993 -0.2749
 3314SOL    HW121401   1.018   1.003   4.008  0.0191  0.4325  0.2299
 3314SOL    HW221402   0.975   0.980   4.147 -1.3175 -0.5791 -0.4978
 3315SOL     OW21403   1.671   4.354   6.777 -0.0059  0.0110 -0.5746
 3315SOL    HW121404   1.678   4.369   6.871  2.0953 -2.0724 -0.3843
 3315SOL    HW221405   1.764   4.348   6.756  0.5521 -1.5551  2.2664
 3316SOL     OW21406   4.266   4.043  15.435 -0.3781  0.0669  0.5352
 3316SOL    HW121407   4.257   4.021  15.342 -0.2191  0.1212  0.5064
 3316SOL    HW221408   4.357   4.015  15.444 -0.6316 -0.4654  1.4284
 3317SOL     OW21409   2.736   3.989   6.829  0.5580  0.0550  0.3922
 3317SOL    HW121410   2.710   4.041   6.752  3.6668  0.9336 -0.0560
 3317SOL    HW221411   2.713   4.057   6.893  0.8891 -1.3119  1.9500
 3318SOL     OW21412   2.507   2.375   0.592  0.5926 -0.0958 -0.0177
 3318SOL    HW121413   2.450   2.440   0.633 -0.1275 -1.4690  1.2015
 3318SOL    HW221414   2.464   2.293   0.617  0.5822 -0.4746 -1.2987
 3319SOL     OW21415   2.198   3.096   9.964  0.4335  0.3802 -0.4512
 3319SOL    HW121416   2.261   3.163   9.938  1.4192 -0.5187 -0.4292
 3319SOL    HW221417   2.127   3.100   9.900 -0.8733  2.7651  1.1587
 3320SOL     OW21418   4.670   3.048  12.263  0.0236  0.4876  0.1043
 3320SOL    HW121419   4.683   3.135  12.225  2.0152 -0.3699 -1.1409
 3320SOL    HW221420   0.030   3.008  12.245  0.6577  1.7036  0.4025
 3321SOL     OW21421   2.551   2.795   6.920  0.1972 -0.1277  0.4604
 3321SOL    HW121422   2.510   2.776   7.004 -2.2950 -0.6503 -0.8596
 3321SOL    HW221423   2.539   2.710   6.877  1.0349 -0.0299  0.0198
 3322SOL     OW21424   3.734   4.255   9.814 -0.2819 -0.0790  0.0972
 3322SOL    HW121425   3.788   4.334   9.822 -0.7956  0.0473  2.3633
 3322SOL    HW221426   3.771   4.194   9.878 -0.2119  1.9138  1.9622
 3323SOL     OW21427   1.225   0.391  17.576  0.4345  0.2143  0.5345
 3323SOL    HW121428   1.282   0.329  17.621 -2.4194 -3.1911 -0.5220
 3323SOL    HW221429   1.289   0.447  17.533  1.1097 -0.9474  0.0054
 3324SOL     OW21430   4.389   3.922  13.581 -0.0438 -0.0288  0.4211
 3324SOL    HW121431   4.333   3.961  13.515 -0.9325 -1.2065  0.4716
 3324SOL    HW221432   4.454   3.992  13.589 -1.6459  1.3520  1.3289
 3325SOL     OW21433   3.532   3.688   4.727 -0.0257 -0.2841  0.1208
 3325SOL    HW121434   3.597   3.721   4.788 -0.0369  1.0751 -0.6020
 3325SOL    HW221435   3.582   3.713   4.649  0.7435  1.4950  1.1994
 3326SOL     OW21436   1.499   0.367   3.780  0.2150 -0.2707  0.0511
 3326SOL    HW121437   1.501   0.462   3.770 -0.6640 -0.0783  1.7454
 3326SOL    HW221438   1.564   0.335   3.717 -0.8113 -1.6540 -0.3258
 3327SOL     OW21439   2.964   2.119   3.169 -0.0690 -0.0640  0.0172
 3327SOL    HW121440   3.055   2.094   3.157  0.0004 -0.1670  0.7501
 3327SOL    HW221441   2.944   2.118   3.076 -2.5950  1.2937  0.5545
 3328SOL     OW21442   1.486   3.734   3.993  0.1143  0.0819 -0.2749
 3328SOL    HW121443   1.503   3.661   3.934 -0.8763 -1.6371  1.5929
 3328SOL    HW221444   1.424   3.693   4.053  0.2569  0.5061  0.1579
 3329SOL     OW21445   0.628   4.658   8.829 -0.5361  0.5704 -0.5322
 3329SOL    HW121446   0.590   4.593   8.888 -0.0966 -0.2858 -1.1932
 3329SOL    HW221447   0.576   4.653   8.749 -0.7398 -0.8989 -0.3076
 3330SOL     OW21448   0.611   3.406   7.324  0.1574  0.4128 -0.0572
 3330SOL    HW121449   0.581   3.321   7.293  3.1556 -0.8946  0.6424
 3330SOL    HW221450   0.582   3.406   7.415  1.3511  1.3420  0.3342
 3331SOL     OW21451   2.289   2.596   9.365 -0.1409 -0.1458  0.0337
 3331SOL    HW121452   2.245   2.516   9.336 -0.3828  0.1090 -0.2956
 3331SOL    HW221453   2.371   2.549   9.381  0.0183 -0.5083 -1.8680
 3332SOL     OW21454   2.009   3.489  13.120 -0.3381  0.2915 -0.1277
 3332SOL    HW121455   2.038   3.418  13.176  0.5062 -0.8976 -2.0733
 3332SOL    HW221456   2.063   3.469  13.043 -1.0369 -2.1791  0.0483
 3333SOL     OW21457   0.971   2.580  11.116 -0.0749 -0.1572 -0.5793
 3333SOL    HW121458   0.914   2.536  11.178  1.2689 -1.4837 -0.2773
 3333SOL    HW221459   0.924   2.589  11.033  0.2688  1.3318 -0.6124
 3334SOL     OW21460   2.561   1.307   5.379  0.0385  0.2774 -0.2651
 3334SOL    HW121461   2.625   1.357   5.429 -0.5904  1.1860 -0.3558
 3334SOL    HW221462   2.566   1.222   5.422 -0.7058  0.0678 -0.5937
 3335SOL     OW21463   2.228   4.410   4.756  0.1599  0.0555  0.2957
 3335SOL    HW121464   2.204   4.503   4.764  0.8821  0.3896 -1.2994
 3335SOL    HW221465   2.269   4.415   4.669  0.5962 -0.4907  0.4760
 3336SOL     OW21466   2.171   1.596   5.898  0.0102  0.5290 -0.1130
 3336SOL    HW121467   2.149   1.648   5.821  3.1080  1.2119 -0.5695
 3336SOL    HW221468   2.154   1.512   5.856  0.2495  0.4875 -0.1320
 3337SOL     OW21469   2.247   1.460   5.009 -0.3371 -0.4428 -0.0282
 3337SOL    HW121470   2.307   1.493   4.942 -2.5354  0.7289 -1.4423
 3337SOL    HW221471   2.173   1.520   4.996  1.3453  1.5396 -0.4663
 3338SOL     OW21472   3.954   0.648   2.405 -0.4789  0.1611  0.0089
 3338SOL    HW121473   4.027   0.711   2.406 -0.4380  0.0991  0.7691
 3338SOL    HW221474   4.004   0.567   2.418  0.4759  0.4323 -2.0168
 3339SOL     OW21475   4.215   4.541   3.843 -0.1879 -0.3146 -0.4855
 3339SOL    HW121476   4.131   4.582   3.860 -0.6873 -1.9238  0.9664
 3339SOL    HW221477   4.189   4.454   3.812  0.9709 -0.5089 -0.9281
 3340SOL     OW21478   1.345   2.659   7.603  0.0407 -0.2470 -0.2026
 3340SOL    HW121479   1.389   2.673   7.519 -2.5783  2.1144 -1.1651
 3340SOL    HW221480   1.420   2.656   7.663 -0.6158  0.9979  0.6840
 3341SOL     OW21481   1.437   1.727   3.007 -0.6444  0.5775  0.6039
 3341SOL    HW121482   1.363   1.785   3.027 -2.5688 -1.7582  0.3281
 3341SOL    HW221483   1.508   1.789   3.021  3.3512 -3.5988 -1.3829
 3342SOL     OW21484   2.996   1.157   4.139  0.1380 -0.1762 -0.3239
 3342SOL    HW121485   3.045   1.218   4.083 -3.2023  0.1405 -2.9362
 3342SOL    HW221486   2.939   1.135   4.065  0.2598 -2.7625  0.3495
 3343SOL     OW21487   2.763   0.581   8.179 -0.1310 -1.3276 -0.1481
 3343SOL    HW121488   2.805   0.597   8.264  4.4449 -1.2918 -2.4030
 3343SOL    HW221489   2.794   0.655   8.127 -0.3952  0.9876  3.0191
 3344SOL     OW21490   2.015   4.671   4.988  0.1626  0.0907 -0.8715
 3344SOL    HW121491   2.017   4.634   5.077 -1.3986  1.5633 -0.2185
 3344SOL    HW221492   1.921   4.668   4.969  0.1977 -1.7157 -0.7659
 3345SOL     OW21493   2.100   1.425   6.507 -0.2728  0.3936  0.1964
 3345SOL    HW121494   2.148   1.345   6.485 -0.1401  0.6995 -0.6463
 3345SOL    HW221495   2.147   1.446   6.588  2.4015 -0.5120 -1.1146
 3346SOL     OW21496   0.581   3.143  13.260 -0.4071 -0.1640  0.3158
 3346SOL    HW121497   0.567   3.104  13.346  0.4085  1.0032  0.9725
 3346SOL    HW221498   0.563   3.071  13.201  1.6888 -0.2392 -0.2232
 3347SOL     OW21499   2.683   3.447  13.190  0.5877  0.9228  0.3260
 3347SOL    HW121500   2.673   3.542  13.185 -0.8600  0.8901  2.3868
 3347SOL    HW221501   2.667   3.442  13.285 -1.0580 -0.1475 -0.0034
 3348SOL     OW21502   1.226   4.479  15.649  0.3247  0.3535 -0.0649
 3348SOL    HW121503   1.156   4.457  15.710 -0.9373  0.1642 -1.5589
 3348SOL    HW221504   1.274   4.546  15.698  0.5153 -1.0533  1.6456
 3349SOL     OW21505   2.544   4.499   4.159 -0.1245  0.2001 -0.0919
 3349SOL    HW121506   2.608   4.459   4.100 -1.6987 -2.2119 -0.1385
 3349SOL    HW221507   2.489   4.425   4.183 -0.5696  0.1023 -1.4415
 3350SOL     OW21508   3.243   2.544  13.367 -0.0418 -0.0406 -0.2964
 3350SOL    HW121509   3.183   2.525  13.295 -0.6039  0.7340 -0.0292
 3350SOL    HW221510   3.180   2.585  13.426 -0.4838 -0.7051 -0.3135
 3351SOL     OW21511   0.549   2.631   2.171  0.2054  0.4938 -0.0874
 3351SOL    HW121512   0.603   2.612   2.095  2.4160  1.6280  1.2121
 3351SOL    HW221513   0.467   2.655   2.128  0.5413 -1.5990 -1.8865
 3352SOL     OW21514   1.977   3.872   3.023  0.6086  0.0325 -0.4846
 3352SOL    HW121515   1.965   3.959   2.984 -0.2003 -0.7245 -1.9255
 3352SOL    HW221516   2.031   3.894   3.099 -0.7912  1.7515 -0.0086
 3353SOL     OW21517   3.626   1.523   7.174  0.4984 -0.3277 -0.0974
 3353SOL    HW121518   3.595   1.520   7.084  0.7547 -0.2507 -0.1849
 3353SOL    HW221519   3.598   1.610   7.200 -0.8128 -1.4085  2.2050
 3354SOL     OW21520   1.082   2.972   5.522 -0.1207  0.3415 -0.0800
 3354SOL    HW121521   1.098   2.974   5.427 -1.0105  1.7623 -0.2116
 3354SOL    HW221522   1.047   3.057   5.550  0.3344  0.2029  0.8905
 3355SOL     OW21523   0.608   4.318   4.073 -0.2251 -0.6424  0.2610
 3355SOL    HW121524   0.615   4.414   4.068  1.8145 -0.7326  1.6858
 3355SOL    HW221525   0.632   4.309   3.981  0.7418 -2.8955  0.7547
 3356SOL     OW21526   2.517   2.670   7.164 -0.3172 -0.1759  0.0473
 3356SOL    HW121527   2.492   2.590   7.210  0.2174 -0.5629 -0.3286
 3356SOL    HW221528   2.564   2.712   7.236 -1.0177 -2.4168  1.8369
 3357SOL     OW21529   2.390   3.639   0.790  0.0162  0.3871 -0.0182
 3357SOL    HW121530   2.405   3.566   0.850 -0.3563 -0.0557 -0.4661
 3357SOL    HW221531   2.404   3.704   0.859  0.1221 -0.0713  0.3933
 3358SOL     OW21532   0.171   1.321   2.843 -0.1175  0.2343 -0.0200
 3358SOL    HW121533   0.257   1.349   2.875 -0.3655  0.1906  0.6912
 3358SOL    HW221534   0.120   1.402   2.839 -1.1250 -0.2537  2.4677
 3359SOL     OW21535   0.340   1.746   2.597  0.5780 -0.5527  0.5300
 3359SOL    HW121536   0.381   1.771   2.680  0.4611  0.0702  0.4006
 3359SOL    HW221537   0.412   1.692   2.565  1.9709  1.2545  0.6619
 3360SOL     OW21538   3.859   2.424   5.776 -0.0522  0.4108  0.7097
 3360SOL    HW121539   3.784   2.435   5.835  1.3273  0.2502  2.4984
 3360SOL    HW221540   3.817   2.415   5.690  1.1360  0.5199  0.1265
 3361SOL     OW21541   2.953   0.729   1.748  0.4923  0.1123  1.0295
 3361SOL    HW121542   2.984   0.804   1.697  0.7778 -2.2138 -2.1881
 3361SOL    HW221543   2.860   0.754   1.749  0.1858 -1.0064  0.2413
 3362SOL     OW21544   3.886   0.653  15.974 -0.1063  0.1893 -0.1893
 3362SOL    HW121545   3.822   0.668  16.043 -1.3979 -0.1379 -1.3121
 3362SOL    HW221546   3.833   0.613  15.905  0.0154 -0.2139 -0.0506
 3363SOL     OW21547   0.880   3.805   4.606  0.4966 -0.1261  0.2010
 3363SOL    HW121548   0.930   3.726   4.625 -1.4343 -2.0258 -2.6703
 3363SOL    HW221549   0.790   3.773   4.603  0.5184 -0.1724  0.0685
 3364SOL     OW21550   4.396   1.689  15.567  0.5096  0.5588  0.1421
 3364SOL    HW121551   4.473   1.711  15.620  0.3910  1.0195  0.1244
 3364SOL    HW221552   4.431   1.627  15.504 -2.0223 -0.2795 -0.4221
 3365SOL     OW21553   0.902   3.110   6.370 -0.0293 -0.3731  0.0875
 3365SOL    HW121554   0.869   3.196   6.396  0.4111 -0.9287  2.4438
 3365SOL    HW221555   0.965   3.093   6.440  1.0480  2.4342 -0.1704
 3366SOL     OW21556   4.166   0.054   5.227  0.5013 -0.3475  0.7724
 3366SOL    HW121557   4.226   0.090   5.293  0.3969 -1.1275  1.2940
 3366SOL    HW221558   4.108   0.004   5.285 -0.5784  0.2866  0.2320
 3367SOL     OW21559   4.163   0.767   7.694  0.0543  0.6040  0.4182
 3367SOL    HW121560   4.228   0.721   7.748 -0.5380 -1.1210 -0.3183
 3367SOL    HW221561   4.180   0.745   7.602 -1.9813  1.8431 -0.2771
 3368SOL     OW21562   0.231   4.281   3.303  0.0708 -0.6749  0.0695
 3368SOL    HW121563   0.151   4.326   3.273  0.4550 -1.6006 -2.3511
 3368SOL    HW221564   0.273   4.254   3.221  1.5676  0.7092  0.3828
 3369SOL     OW21565   4.448   0.507   2.522  0.1430  0.1023  0.3347
 3369SOL    HW121566   4.527   0.453   2.508  0.6654  0.9284  0.1174
 3369SOL    HW221567   4.451   0.565   2.446  0.8434 -2.0464 -1.3117
 3370SOL     OW21568   0.794   1.302   2.714  0.1493  0.1582  0.9029
 3370SOL    HW121569   0.777   1.392   2.688 -0.0079 -0.2034 -0.2509
 3370SOL    HW221570   0.846   1.270   2.640  0.0111  0.1618  0.8019
 3371SOL     OW21571   3.080   3.232  13.389  0.2668  0.4231  0.1942
 3371SOL    HW121572   3.092   3.137  13.389 -1.2191  0.2316  1.4351
 3371SOL    HW221573   3.005   3.247  13.331 -0.7567 -1.5041  1.0020
 3372SOL     OW21574   4.623   1.319  13.925 -0.3877 -0.4052 -0.3964
 3372SOL    HW121575   4.658   1.230  13.933 -0.9718 -0.6913 -0.9821
 3372SOL    HW221576   4.661   1.346  14.008  1.0570 -1.2576 -0.7847
 3373SOL     OW21577   0.282   2.497   5.458 -0.0398 -0.1190 -0.1752
 3373SOL    HW121578   0.287   2.592   5.468  1.4415 -0.4334  2.0382
 3373SOL    HW221579   0.190   2.489   5.482 -0.3724  1.1974 -1.0215
 3374SOL     OW21580   4.242   2.775   3.620 -0.3083 -0.1205 -0.0826
 3374SOL    HW121581   4.186   2.723   3.562  2.2381 -0.9267 -1.7771
 3374SOL    HW221582   4.176   2.802   3.684  1.3906  0.0486  1.6017
 3375SOL     OW21583   0.560   0.859   8.110  0.2855 -0.8547 -0.4980
 3375SOL    HW121584   0.535   0.880   8.200  2.8820 -0.0544  0.0355
 3375SOL    HW221585   0.655   0.870   8.117 -0.0295  0.4539  1.7144
 3376SOL     OW21586   0.660   2.620   7.409 -0.0526  0.2972 -0.3188
 3376SOL    HW121587   0.727   2.666   7.459 -0.2723  0.5455 -0.2552
 3376SOL    HW221588   0.612   2.575   7.478  0.5696 -0.1596 -0.1792
 3377SOL     OW21589   1.867   0.178   7.862 -0.2946  0.4520  0.3418
 3377SOL    HW121590   1.905   0.154   7.946 -1.6661 -0.1225  0.7948
 3377SOL    HW221591   1.780   0.213   7.880 -0.1541  1.5267 -1.0449
 3378SOL     OW21592   4.035   3.034   7.498  0.6062 -0.0766  0.7362
 3378SOL    HW121593   3.969   3.062   7.562  0.9642 -0.2233  1.1700
 3378SOL    HW221594   4.053   2.948   7.536  3.0123 -0.8953 -2.3232
 3379SOL     OW21595   0.816   3.800   3.415  0.1795  0.3814 -0.3586
 3379SOL    HW121596   0.769   3.880   3.439  0.4414  0.2310  0.6404
 3379SOL    HW221597   0.789   3.791   3.323 -1.1534  1.9909 -0.1122
 3380SOL     OW21598   1.339   4.698  15.880 -0.4460 -0.2483 -0.5946
 3380SOL    HW121599   1.274   0.015  15.938  0.8532 -0.6384  1.1425
 3380SOL    HW221600   1.359   4.623  15.936  0.6415 -0.6879 -1.5933
 3381SOL     OW21601   0.735   3.518  14.199  0.0982  0.0933  0.0014
 3381SOL    HW121602   0.641   3.508  14.219 -0.0911  1.4626 -0.2313
 3381SOL    HW221603   0.730   3.608  14.231 -1.8669  0.2508 -0.7655
 3382SOL     OW21604   2.231   0.085   9.479 -0.7675  0.1215 -0.0273
 3382SOL    HW121605   2.280   0.157   9.440 -0.5896  0.8494  1.5236
 3382SOL    HW221606   2.259   0.095   9.570 -0.3059  0.2379 -0.1808
 3383SOL     OW21607   3.966   1.938  11.292  0.4360  0.3666  0.0314
 3383SOL    HW121608   3.968   1.853  11.336  1.0063  0.1196 -0.4582
 3383SOL    HW221609   3.882   1.974  11.320  1.5485  1.6664  1.6798
 3384SOL     OW21610   2.197   1.538  10.656 -0.4003 -0.3818 -0.4716
 3384SOL    HW121611   2.113   1.493  10.655 -0.3912 -0.4517  1.4874
 3384SOL    HW221612   2.249   1.523  10.577  0.1009 -1.6497  0.1067
 3385SOL     OW21613   0.257   4.228   5.498  0.0663 -0.2936 -0.2663
 3385SOL    HW121614   0.264   4.322   5.512 -1.6918 -0.2850  0.5644
 3385SOL    HW221615   0.298   4.187   5.574  1.2423  0.7872 -0.3208
 3386SOL     OW21616   1.050   0.247   9.119 -0.0987 -0.2349 -0.3116
 3386SOL    HW121617   1.121   0.311   9.118 -2.6906  2.6836  0.0260
 3386SOL    HW221618   1.001   0.281   9.194 -0.5397  0.5093 -0.9364
 3387SOL     OW21619   4.194   2.492   3.264  0.2709 -0.1396  0.2691
 3387SOL    HW121620   4.115   2.455   3.225  0.5983  0.5809 -1.0604
 3387SOL    HW221621   4.167   2.529   3.348 -0.7169 -0.3142  0.0309
 3388SOL     OW21622   0.814   0.982   5.452  0.0700  0.1412  0.3972
 3388SOL    HW121623   0.839   1.069   5.485 -0.6121  0.9704 -1.2895
 3388SOL    HW221624   0.893   0.956   5.404  0.0616 -1.2616  1.1367
 3389SOL     OW21625   0.355   1.443   8.082 -0.2206  0.2323 -0.0580
 3389SOL    HW121626   0.439   1.488   8.077 -1.5251  2.7901  1.3122
 3389SOL    HW221627   0.356   1.399   7.996 -0.5519 -0.0238  0.0680
 3390SOL     OW21628   3.442   2.406   4.099 -0.4573 -0.0205  0.2194
 3390SOL    HW121629   3.418   2.474   4.036  0.1621  1.3390  1.4521
 3390SOL    HW221630   3.371   2.341   4.097 -0.7138  0.3354 -2.3840
 3391SOL     OW21631   3.518   0.673  15.886 -0.3517 -0.4349 -0.1063
 3391SOL    HW121632   3.533   0.691  15.978 -2.1760  1.0538 -0.0982
 3391SOL    HW221633   3.446   0.730  15.857  1.2089  2.0867  0.9736
 3392SOL     OW21634   0.012   3.255   2.427 -0.3807 -0.3097 -0.8093
 3392SOL    HW121635   4.679   3.241   2.352 -0.7861 -2.0281 -0.1907
 3392SOL    HW221636   4.684   3.195   2.480 -0.2272  0.5765  0.3565
 3393SOL     OW21637   2.012   3.197   6.726  0.1858 -0.1961  0.5123
 3393SOL    HW121638   1.965   3.118   6.752  2.6020 -1.0488  2.2285
 3393SOL    HW221639   1.959   3.207   6.646 -0.7220 -0.6319  1.0536
 3394SOL     OW21640   0.455   2.452   7.916 -0.0069 -0.6279  0.0964
 3394SOL    HW121641   0.545   2.485   7.920 -0.3840  0.2056  1.6146
 3394SOL    HW221642   0.433   2.463   8.008  2.9436 -1.6514  0.9189
 3395SOL     OW21643   2.701   1.518   3.864  0.2101 -0.0359 -0.1345
 3395SOL    HW121644   2.760   1.455   3.823 -1.6775 -0.4799 -2.1706
 3395SOL    HW221645   2.640   1.459   3.907 -0.4810  0.7332 -0.0621
 3396SOL     OW21646   2.905   1.442   4.318  0.2408 -0.4827 -0.0199
 3396SOL    HW121647   2.821   1.397   4.321 -1.1789  1.9595 -4.2767
 3396SOL    HW221648   2.877   1.531   4.294 -1.4374 -1.2433 -0.8230
 3397SOL     OW21649   2.575   0.652  14.652  0.7169  0.0130  0.1526
 3397SOL    HW121650   2.527   0.576  14.620  0.4003  1.1215 -2.0588
 3397SOL    HW221651   2.664   0.634  14.623  0.4226  0.2155 -0.8850
 3398SOL     OW21652   3.058   0.385   2.213  0.4999  0.0777  0.3565
 3398SOL    HW121653   3.033   0.477   2.216 -1.3445 -0.4526  1.2186
 3398SOL    HW221654   3.114   0.381   2.135  1.2168  1.0420  0.8304
 3399SOL     OW21655   1.838   2.526   0.406 -0.5237  0.4256 -0.6346
 3399SOL    HW121656   1.859   2.501   0.316  1.4723  0.3769 -0.1552
 3399SOL    HW221657   1.916   2.501   0.455 -1.7106  0.7345  1.4147
 3400SOL     OW21658   3.061   1.220  11.063 -0.0257 -0.1902 -0.0204
 3400SOL    HW121659   3.121   1.253  10.996  0.6536 -3.5247 -1.0847
 3400SOL    HW221660   3.072   1.125  11.059 -2.2236 -0.3755 -1.8358
 3401SOL     OW21661   0.462   3.455   3.672 -0.1096  0.3323 -0.1669
 3401SOL    HW121662   0.484   3.362   3.670  0.3937  0.4224  0.8546
 3401SOL    HW221663   0.374   3.468   3.636  0.3620  2.1032 -0.6732
 3402SOL     OW21664   1.829   4.224   1.087 -0.0685  0.1041  0.0660
 3402SOL    HW121665   1.898   4.158   1.077 -0.8096 -0.4750 -1.2698
 3402SOL    HW221666   1.755   4.173   1.053  0.0179 -0.6557  1.0154
 3403SOL     OW21667   0.706   0.115   4.534 -1.0005 -0.3212  0.2543
 3403SOL    HW121668   0.630   0.173   4.522 -0.8351  0.1672  1.5542
 3403SOL    HW221669   0.666   0.029   4.527  0.1584 -0.7782 -0.6046
 3404SOL     OW21670   3.825   1.868   5.958 -0.2095 -0.0237 -0.3973
 3404SOL    HW121671   3.746   1.815   5.957  0.5177 -1.1205 -0.2458
 3404SOL    HW221672   3.848   1.880   5.866  0.8504 -0.6307 -0.2153
 3405SOL     OW21673   4.208   1.228   4.303  0.1139  0.0093 -0.3199
 3405SOL    HW121674   4.137   1.282   4.268  1.6417  1.3555 -1.3185
 3405SOL    HW221675   4.265   1.215   4.227 -2.0018 -0.2250 -1.8552
 3406SOL     OW21676   1.804   3.541   0.092 -0.1604  0.0113  0.0156
 3406SOL    HW121677   1.786   3.452   0.122  2.3939 -0.1743  1.0726
 3406SOL    HW221678   1.744   3.536   0.018  1.5997 -0.4585 -1.3809
 3407SOL     OW21679   0.670   2.179  14.874  0.0360 -0.6634  0.6277
 3407SOL    HW121680   0.760   2.208  14.860  0.0855 -1.2896 -0.4044
 3407SOL    HW221681   0.628   2.261  14.901  0.6884  0.2755 -1.1755
 3408SOL     OW21682   1.271   1.017  14.594 -0.3537 -0.2244 -0.2875
 3408SOL    HW121683   1.330   1.064  14.534  0.7609 -0.4388  0.6334
 3408SOL    HW221684   1.337   0.981  14.653  1.7347  1.4358 -1.5541
 3409SOL     OW21685   2.092   1.955   4.331  0.3424 -0.1955  0.4388
 3409SOL    HW121686   2.099   2.013   4.255 -0.1643 -0.1938  0.3943
 3409SOL    HW221687   2.069   2.005   4.409 -1.0964 -2.4707  1.4808
 3410SOL     OW21688   1.748   1.652   8.489  0.7177 -0.4950 -0.6495
 3410SOL    HW121689   1.656   1.678   8.494  0.4058 -1.5618 -0.7466
 3410SOL    HW221690   1.758   1.606   8.573 -1.7891  0.5556  0.2435
 3411SOL     OW21691   2.319   4.028   1.745  0.3322  0.1042 -0.0283
 3411SOL    HW121692   2.300   4.095   1.811  0.2036  3.0530 -3.0787
 3411SOL    HW221693   2.367   4.087   1.687 -1.1931 -0.9175 -2.3098
 3412SOL     OW21694   3.375   2.984   0.994 -0.0014  0.1745 -0.6432
 3412SOL    HW121695   3.414   2.965   0.909 -0.2157  1.1532 -0.9602
 3412SOL    HW221696   3.283   2.968   0.971  0.7336 -0.8545 -2.8536
 3413SOL     OW21697   0.392   2.655  15.726  1.3832 -0.4270  0.1915
 3413SOL    HW121698   0.417   2.736  15.772 -0.6679  0.0921  0.3889
 3413SOL    HW221699   0.345   2.678  15.646 -0.0642 -1.9853  0.6163
 3414SOL     OW21700   4.614   1.828   6.863 -0.6785  0.1337  0.2100
 3414SOL    HW121701   4.553   1.774   6.813 -0.1062 -0.1424 -0.1893
 3414SOL    HW221702   4.563   1.843   6.942  0.8524  1.1124  1.0203
 3415SOL     OW21703   2.241   1.954   1.765 -0.0880  0.0656 -0.3617
 3415SOL    HW121704   2.263   1.908   1.683  4.2480  0.9785  0.3041
 3415SOL    HW221705   2.275   2.043   1.755 -0.6334  0.2923 -0.1647
 3416SOL     OW21706   1.322   1.804  10.921 -0.2356  0.5314 -0.3638
 3416SOL    HW121707   1.415   1.816  10.899 -0.3996  1.1864 -0.7039
 3416SOL    HW221708   1.287   1.858  10.851 -1.9948  2.1003  1.7066
 3417SOL     OW21709   2.494   0.035  15.429 -0.1685  0.0868 -0.5156
 3417SOL    HW121710   2.589   0.039  15.416 -0.3473 -0.0905 -1.8088
 3417SOL    HW221711   2.489   0.122  15.467 -0.1472 -0.8537  1.6565
 3418SOL     OW21712   0.890   3.860   6.945 -0.5524 -0.0569 -0.0319
 3418SOL    HW121713   0.811   3.847   6.998 -0.9227  3.2580  0.2465
 3418SOL    HW221714   0.961   3.812   6.988  0.9883  1.2157 -1.1452
 3419SOL     OW21715   0.106   1.697  10.139 -0.3590 -0.5555  0.5507
 3419SOL    HW121716   0.043   1.682  10.209 -0.8433  0.3169  0.3030
 3419SOL    HW221717   0.157   1.616  10.131 -2.2109 -1.9101  2.2424
 3420SOL     OW21718   4.650   3.612   3.500 -0.2919  1.1918 -0.1877
 3420SOL    HW121719   4.652   3.645   3.411 -0.0295  0.4447 -0.4633
 3420SOL    HW221720   4.576   3.550   3.503  1.1878 -0.5918 -0.7603
 3421SOL     OW21721   4.702   1.689   7.373 -0.7898 -0.3288  0.2910
 3421SOL    HW121722   0.025   1.713   7.293 -0.6864  0.1402  0.4924
 3421SOL    HW221723   4.719   1.768   7.424 -0.0883 -0.9741  1.0453
 3422SOL     OW21724   3.567   0.220   9.405 -0.2641 -0.5785 -0.6221
 3422SOL    HW121725   3.553   0.165   9.482 -3.0534  0.1039 -0.6367
 3422SOL    HW221726   3.637   0.168   9.365 -0.2809 -0.2449 -1.0830
 3423SOL     OW21727   1.293   4.241   9.437 -0.3360 -0.0613 -0.4009
 3423SOL    HW121728   1.362   4.209   9.380 -1.0268 -1.3437 -0.5270
 3423SOL    HW221729   1.288   4.157   9.483 -2.0154 -0.5634 -1.4901
 3424SOL     OW21730   4.465   1.543  10.210 -0.2349  1.1258  0.2450
 3424SOL    HW121731   4.524   1.488  10.158 -0.5195  1.8844 -0.9022
 3424SOL    HW221732   4.399   1.478  10.235  0.2626  0.2152 -0.7948
 3425SOL     OW21733   3.375   1.806   8.392  0.2347  0.3903 -0.1294
 3425SOL    HW121734   3.375   1.875   8.458 -1.8826  0.2066  0.0575
 3425SOL    HW221735   3.462   1.771   8.413 -0.5422  0.2368  2.8875
 3426SOL     OW21736   1.592   2.747  15.634 -0.5359  0.0707  0.3806
 3426SOL    HW121737   1.679   2.779  15.610 -0.7727  1.3994  1.3037
 3426SOL    HW221738   1.556   2.727  15.547  1.3869 -2.1174  0.1015
 3427SOL     OW21739   4.704   1.620   6.233  0.7180 -0.2866 -1.0814
 3427SOL    HW121740   4.645   1.684   6.273  1.3339 -0.0387 -0.5775
 3427SOL    HW221741   4.714   1.649   6.142  2.3228  0.0526 -0.7969
 3428SOL     OW21742   2.180   0.970   8.174 -0.0828 -0.5290  1.3882
 3428SOL    HW121743   2.122   1.013   8.237 -1.5744  0.2780 -0.5123
 3428SOL    HW221744   2.121   0.992   8.102  0.2171 -1.8174  0.7537
 3429SOL     OW21745   2.074   1.331  16.947  0.1344 -0.7849  0.0501
 3429SOL    HW121746   2.154   1.382  16.936  0.3532 -0.9261  0.9594
 3429SOL    HW221747   2.019   1.375  17.012  0.4573  0.5717 -0.6013
 3430SOL     OW21748   0.122   0.245   7.311  0.0488  0.0334 -0.2846
 3430SOL    HW121749   0.212   0.267   7.288 -0.1582  0.3219 -0.8313
 3430SOL    HW221750   0.105   0.156   7.278  1.4253  0.0094 -0.9078
 3431SOL     OW21751   4.475   0.854   8.417 -0.4469  0.6030 -0.3275
 3431SOL    HW121752   4.474   0.940   8.373  2.1609  0.0318 -1.5173
 3431SOL    HW221753   4.568   0.832   8.414 -0.3432  0.6497  2.7561
 3432SOL     OW21754   0.848   2.069   7.723 -0.1031 -0.0607 -0.0031
 3432SOL    HW121755   0.857   1.977   7.700  0.3089  0.2856 -1.2377
 3432SOL    HW221756   0.753   2.080   7.725  0.0343  1.1163  0.5054
 3433SOL     OW21757   0.660   0.956   3.186 -0.1940 -0.0738 -0.3941
 3433SOL    HW121758   0.748   0.969   3.151 -0.0750  0.2830  0.0289
 3433SOL    HW221759   0.680   0.890   3.253  2.8933 -0.0861 -1.3099
 3434SOL     OW21760   0.933   3.211  14.838  0.7043 -0.0690 -0.1433
 3434SOL    HW121761   0.859   3.158  14.866  0.0398  1.4300  0.9587
 3434SOL    HW221762   0.911   3.233  14.747  1.2591  2.7535  0.3856
 3435SOL     OW21763   4.014   0.870  17.448 -0.1821 -0.2926  0.1038
 3435SOL    HW121764   3.971   0.939  17.398  1.5793  0.3757 -0.4824
 3435SOL    HW221765   4.101   0.906  17.434 -0.4517  0.0612 -0.6851
 3436SOL     OW21766   2.221   1.872   8.256 -0.1173  0.3415 -0.0536
 3436SOL    HW121767   2.166   1.812   8.306  2.1053 -1.8794 -0.3371
 3436SOL    HW221768   2.174   1.952   8.282 -0.2762 -0.6009  2.5272
 3437SOL     OW21769   3.850   4.090  16.902  0.1248  0.6000  0.6203
 3437SOL    HW121770   3.829   4.120  16.990 -0.2169  0.9569  0.4191
 3437SOL    HW221771   3.771   4.103  16.849 -1.7261  0.5196  3.3383
 3438SOL     OW21772   0.698   3.748   8.818  0.3305  0.2875  0.3987
 3438SOL    HW121773   0.686   3.814   8.750 -0.6579  0.2568  0.5370
 3438SOL    HW221774   0.785   3.713   8.799  0.3604  0.8128 -0.4334
 3439SOL     OW21775   3.775   3.470   3.023 -0.3302  0.0947 -0.4035
 3439SOL    HW121776   3.796   3.557   3.057 -4.4139  1.1991 -0.6877
 3439SOL    HW221777   3.853   3.419   3.046  0.2385  1.7957  1.3740
 3440SOL     OW21778   3.249   0.759   7.814 -0.0361 -0.4935 -0.3608
 3440SOL    HW121779   3.319   0.742   7.751  1.8066  2.0295  1.0236
 3440SOL    HW221780   3.277   0.689   7.873  1.6928  0.3610 -0.1746
 3441SOL     OW21781   3.659   1.241  11.322 -0.0123 -0.0119  0.8745
 3441SOL    HW121782   3.566   1.241  11.303  0.6434 -3.1074 -2.2875
 3441SOL    HW221783   3.656   1.292  11.404 -2.9745  1.4963 -0.1728
 3442SOL     OW21784   2.395   0.287   1.267 -0.1947  0.2019  0.2857
 3442SOL    HW121785   2.402   0.233   1.346 -2.6215  0.3388  0.5983
 3442SOL    HW221786   2.414   0.222   1.199 -0.5009 -1.2398  1.5586
 3443SOL     OW21787   2.970   4.675  11.326  0.1403 -0.0091  0.1063
 3443SOL    HW121788   3.015   4.590  11.324  0.3169  0.0887 -0.0511
 3443SOL    HW221789   3.047   0.006  11.339 -1.1741  1.8811 -0.2322
 3444SOL     OW21790   0.472   3.357   1.163  0.0408  0.4359 -0.0101
 3444SOL    HW121791   0.479   3.432   1.103  3.4535  0.2527  0.1617
 3444SOL    HW221792   0.379   3.358   1.183 -0.0766  2.3939 -0.6021
 3445SOL     OW21793   0.233   3.390   5.556 -0.0873 -0.9376 -0.2608
 3445SOL    HW121794   0.236   3.446   5.478  0.6806  0.9145  1.1155
 3445SOL    HW221795   0.318   3.348   5.542  1.4240  2.4134 -0.9333
 3446SOL     OW21796   4.034   0.312   7.786 -0.1549  0.4167  0.4115
 3446SOL    HW121797   4.027   0.229   7.740  2.3266  0.5838 -0.2635
 3446SOL    HW221798   4.109   0.346   7.738  0.6467 -0.2025  1.2118
 3447SOL     OW21799   2.408   4.188   3.612 -0.2578  0.1201  0.1293
 3447SOL    HW121800   2.434   4.279   3.600  2.4133 -0.4622  1.5643
 3447SOL    HW221801   2.487   4.157   3.657  0.3683 -0.2484 -1.1903
 3448SOL     OW21802   0.690   2.856   2.658  0.3296  0.2893 -0.6445
 3448SOL    HW121803   0.609   2.907   2.666  0.0147 -0.3853  0.5493
 3448SOL    HW221804   0.664   2.785   2.599  1.3866 -0.3661 -0.3152
 3449SOL     OW21805   4.168   3.124   3.442 -0.5747  0.2500  0.2931
 3449SOL    HW121806   4.175   3.219   3.442  1.0989  0.1221  0.4611
 3449SOL    HW221807   4.219   3.103   3.520 -0.5760  0.9944  0.4831
 3450SOL     OW21808   4.116   1.137   3.716 -0.4679 -0.0321  0.0065
 3450SOL    HW121809   4.165   1.211   3.753  1.1158 -0.4520 -1.2808
 3450SOL    HW221810   4.150   1.063   3.765 -0.7938  0.3773  0.8518
 3451SOL     OW21811   1.956   1.550   0.903  0.3066 -0.0723  0.3934
 3451SOL    HW121812   1.921   1.523   0.988 -1.8325  1.4521  0.0009
 3451SOL    HW221813   2.002   1.632   0.923 -0.2796  0.2872  0.2967
 3452SOL     OW21814   1.102   0.332  10.006  0.1941  0.4174 -0.4075
 3452SOL    HW121815   1.152   0.411  10.025  0.5987 -0.3037  1.5647
 3452SOL    HW221816   1.094   0.294  10.093  0.2790  0.0535 -0.5582
 3453SOL     OW21817   2.399   1.429   7.126  0.1759  0.4507 -0.4916
 3453SOL    HW121818   2.304   1.421   7.140  0.6716 -0.6647  2.0877
 3453SOL    HW221819   2.433   1.340   7.138 -0.7015  0.1528 -0.1832
 3454SOL     OW21820   0.746   0.307   4.966 -0.0712  0.6774  0.0290
 3454SOL    HW121821   0.801   0.384   4.958  0.0574  0.7019  1.0789
 3454SOL    HW221822   0.696   0.320   4.885  0.0060  1.3864  0.0970
 3455SOL     OW21823   0.138   3.461  11.051 -0.5783 -0.5251 -0.3373
 3455SOL    HW121824   0.135   3.532  11.115 -1.4571 -2.1756  1.4454
 3455SOL    HW221825   0.165   3.510  10.973 -1.3993 -1.7470 -1.3938
 3456SOL     OW21826   0.835   3.168   2.205 -0.0423  0.0381 -0.4637
 3456SOL    HW121827   0.754   3.119   2.196  0.0457 -0.6285  2.4193
 3456SOL    HW221828   0.844   3.181   2.300  2.8415  1.2875 -0.8963
 3457SOL     OW21829   3.258   0.780  15.833  0.4601 -0.4598 -0.4815
 3457SOL    HW121830   3.215   0.854  15.875  0.5194 -0.5175 -0.3156
 3457SOL    HW221831   3.189   0.716  15.850  0.1757 -0.0958 -0.2587
 3458SOL     OW21832   3.800   3.725  15.549 -0.2634 -0.2088 -0.1364
 3458SOL    HW121833   3.858   3.796  15.573  0.8924 -0.8568 -0.9985
 3458SOL    HW221834   3.823   3.717  15.456 -1.8754 -1.2604 -0.4567
 3459SOL     OW21835   3.056   2.300   7.492  0.0964  1.2002  0.2150
 3459SOL    HW121836   3.000   2.314   7.416 -0.0691  0.5719  0.2256
 3459SOL    HW221837   3.030   2.211   7.515  1.1484  0.4373 -1.5584
 3460SOL     OW21838   0.123   4.380  13.248 -0.1778  0.4253 -0.2334
 3460SOL    HW121839   0.047   4.357  13.194  1.2990 -1.0399 -1.6545
 3460SOL    HW221840   0.171   4.299  13.266 -1.5279 -0.4202 -0.3806
 3461SOL     OW21841   4.202   0.744   2.392  0.2703 -0.5821  0.1106
 3461SOL    HW121842   4.291   0.721   2.363 -0.0596 -0.7491 -0.7656
 3461SOL    HW221843   4.224   0.791   2.472 -1.4097 -0.9335  0.7725
 3462SOL     OW21844   1.867   2.892   6.500 -0.0224 -0.1751  0.0887
 3462SOL    HW121845   1.875   2.910   6.594  0.0476 -3.0850  0.6296
 3462SOL    HW221846   1.777   2.867   6.482 -0.2312  1.4284 -1.0698
 3463SOL     OW21847   2.360   3.147   7.111  0.2012 -0.2516  0.0098
 3463SOL    HW121848   2.436   3.125   7.059  0.6224 -0.2560  0.6236
 3463SOL    HW221849   2.365   3.240   7.132 -1.7431 -0.9826  3.7768
 3464SOL     OW21850   2.830   3.814   0.776 -0.1871  0.2645  0.1033
 3464SOL    HW121851   2.842   3.729   0.818  0.3993 -0.0836 -0.7614
 3464SOL    HW221852   2.735   3.818   0.767 -0.4532  0.2623  2.9748
 3465SOL     OW21853   4.693   0.357   2.477  0.0051  0.1699 -0.5871
 3465SOL    HW121854   4.721   0.326   2.563  0.2607  0.5750 -0.5272
 3465SOL    HW221855   0.034   0.423   2.454  0.3435 -0.1303 -0.4845
 3466SOL     OW21856   0.141   3.279  15.935 -0.1440 -0.6296  0.1882
 3466SOL    HW121857   0.221   3.322  15.965  0.3343 -0.4538 -1.3708
 3466SOL    HW221858   0.080   3.323  15.995  1.9671 -0.5613  2.2770
 3467SOL     OW21859   0.436   2.597  10.543 -0.2039  0.1024 -0.0168
 3467SOL    HW121860   0.485   2.665  10.496  0.2288 -0.1532  0.0609
 3467SOL    HW221861   0.463   2.522  10.490 -1.5332 -1.0810  1.0001
 3468SOL     OW21862   3.010   4.030   8.313 -0.2653  0.2940  0.1524
 3468SOL    HW121863   2.985   4.030   8.405  0.5999  1.8282  0.3860
 3468SOL    HW221864   2.942   3.973   8.277  0.7475 -2.2252  2.2275
 3469SOL     OW21865   3.571   2.137   2.255  0.0110 -0.3859  0.5958
 3469SOL    HW121866   3.585   2.214   2.200 -0.7696 -0.2058  0.6435
 3469SOL    HW221867   3.475   2.132   2.256  0.0063 -0.4495  0.1304
 3470SOL     OW21868   2.011   1.974   2.313 -0.4714 -0.0931  0.2419
 3470SOL    HW121869   1.916   1.974   2.302 -0.2736 -0.5673 -1.5556
 3470SOL    HW221870   2.032   2.062   2.283 -0.2186 -0.0621  0.5158
 3471SOL     OW21871   3.586   0.550   8.125  0.2896 -0.2330  0.6284
 3471SOL    HW121872   3.566   0.643   8.115 -0.4797 -0.3073  1.5054
 3471SOL    HW221873   3.659   0.558   8.188 -1.3289  0.6341  2.3977
 3472SOL     OW21874   1.309   4.079   2.849 -0.7671 -0.3644  0.1474
 3472SOL    HW121875   1.266   4.164   2.842  1.1623  0.8201  2.9908
 3472SOL    HW221876   1.302   4.057   2.757  0.5139 -1.4924  0.3276
 3473SOL     OW21877   1.174   1.836   1.298 -0.1167  0.3891 -0.0714
 3473SOL    HW121878   1.140   1.765   1.244  0.4216  0.4005 -0.4179
 3473SOL    HW221879   1.231   1.794   1.363 -0.7599 -2.2088 -1.2078
 3474SOL     OW21880   2.555   1.467  10.119  0.2978 -0.2287  0.6427
 3474SOL    HW121881   2.484   1.530  10.125  2.4945  2.3860 -0.8134
 3474SOL    HW221882   2.583   1.459  10.028  0.5764 -1.1330  0.8059
 3475SOL     OW21883   4.276   1.744   6.305  0.0928  0.3937  0.2686
 3475SOL    HW121884   4.220   1.714   6.377 -1.7760 -0.0822 -1.3882
 3475SOL    HW221885   4.292   1.661   6.261 -0.5398  0.3414  0.1423
 3476SOL     OW21886   1.644   4.224   4.306 -0.3172  0.0910  0.2018
 3476SOL    HW121887   1.711   4.155   4.311  0.8947  1.2628  0.0837
 3476SOL    HW221888   1.618   4.230   4.214  1.5876  0.1821 -0.3382
 3477SOL     OW21889   0.062   2.327  13.496  0.6461  0.2302  0.2635
 3477SOL    HW121890   0.131   2.261  13.506  0.4345  0.1095  0.9266
 3477SOL    HW221891   0.039   2.350  13.586  0.9464  1.1055  0.1090
 3478SOL     OW21892   4.262   0.243   4.062 -0.0598 -0.4245  0.1906
 3478SOL    HW121893   4.179   0.260   4.018  0.8343 -2.1577 -2.1544
 3478SOL    HW221894   4.221   0.171   4.109 -1.9841  0.0031 -0.8406
 3479SOL     OW21895   0.003   2.803  16.201  0.3418  0.6135 -0.1606
 3479SOL    HW121896   4.716   2.884  16.152 -0.6081  0.3785 -0.3300
 3479SOL    HW221897   0.084   2.769  16.163  0.7801 -0.0501  1.3601
 3480SOL     OW21898   2.678   1.857   2.525  0.0215 -0.6232  0.0938
 3480SOL    HW121899   2.649   1.873   2.615 -0.7088  1.1258 -0.4717
 3480SOL    HW221900   2.617   1.915   2.480  1.1403 -0.0413 -0.6641
 3481SOL     OW21901   3.361   0.082   9.908 -0.3989  0.2548 -0.1234
 3481SOL    HW121902   3.280   0.058   9.863 -0.3418 -0.3724  0.1039
 3481SOL    HW221903   3.398   0.137   9.839 -0.1941  1.4516  0.9368
 3482SOL     OW21904   3.989   1.780  17.362 -0.2670  0.1146  0.5495
 3482SOL    HW121905   4.082   1.761  17.348 -0.3220 -0.1690  0.5624
 3482SOL    HW221906   3.970   1.696  17.404 -0.3325 -0.7334 -1.1849
 3483SOL     OW21907   2.263   1.548   3.611 -0.2493 -0.6152  0.3160
 3483SOL    HW121908   2.271   1.644   3.609 -0.7190 -0.6175 -1.4941
 3483SOL    HW221909   2.258   1.523   3.703 -3.2303  2.4841  1.0121
 3484SOL     OW21910   4.271   1.318   8.643 -0.1784  0.1835 -0.3291
 3484SOL    HW121911   4.346   1.273   8.603 -0.9120 -1.9832  0.7129
 3484SOL    HW221912   4.307   1.340   8.728  0.1069 -1.6308  0.0260
 3485SOL     OW21913   2.678   3.735   4.832 -0.3511 -0.1877  0.2869
 3485SOL    HW121914   2.631   3.652   4.829 -1.2278  0.3571 -0.8288
 3485SOL    HW221915   2.765   3.699   4.850  0.0917  0.9083  0.3275
 3486SOL     OW21916   0.291   0.828  11.594 -0.1486  0.0812  0.5184
 3486SOL    HW121917   0.278   0.736  11.570 -0.6135  0.2790  0.0234
 3486SOL    HW221918   0.326   0.861  11.511  0.0778 -2.7909 -0.5295
 3487SOL     OW21919   4.693   2.037  11.084 -0.4575 -0.0739 -0.1294
 3487SOL    HW121920   0.059   2.024  11.112 -0.6362  0.8006  0.8647
 3487SOL    HW221921   4.704   2.065  10.993 -2.1227  0.6214 -0.1136
 3488SOL     OW21922   1.807   0.471   0.722  0.3958 -0.7222  0.1040
 3488SOL    HW121923   1.742   0.523   0.674 -0.4155 -1.5234  0.3230
 3488SOL    HW221924   1.870   0.466   0.650  1.5443  0.2002  1.0617
 3489SOL     OW21925   0.990   4.116   4.997 -0.1133 -0.2595  0.1480
 3489SOL    HW121926   1.035   4.184   4.948  1.7802 -1.2598  0.4990
 3489SOL    HW221927   0.965   4.058   4.925 -0.9574 -1.6526  1.5554
 3490SOL     OW21928   3.090   4.653   3.515  0.0305 -0.0564 -0.1483
 3490SOL    HW121929   3.111   4.590   3.584 -0.8406  0.3012  0.4442
 3490SOL    HW221930   2.997   4.642   3.493 -0.0064 -2.6238  1.2825
 3491SOL     OW21931   2.011   1.619   9.642  0.2605 -0.3189 -0.0203
 3491SOL    HW121932   2.021   1.701   9.594  0.1057 -0.1373  0.2538
 3491SOL    HW221933   2.031   1.557   9.573 -1.2794 -0.3851 -0.4106
 3492SOL     OW21934   4.452   4.428   8.449 -0.0822  0.3844 -0.0379
 3492SOL    HW121935   4.468   4.345   8.403 -0.8958  0.2828 -0.1305
 3492SOL    HW221936   4.449   4.494   8.380  0.5670  0.9533  0.4779
 3493SOL     OW21937   2.591   4.071   5.967  0.2436 -0.1394 -0.1864
 3493SOL    HW121938   2.682   4.071   5.998  0.1346  0.1729  0.1237
 3493SOL    HW221939   2.591   4.166   5.958 -1.8335  0.1307  2.7495
 3494SOL     OW21940   1.174   0.492   0.481  0.6792  0.1333 -0.0683
 3494SOL    HW121941   1.144   0.493   0.390 -0.6633 -2.0491  0.3430
 3494SOL    HW221942   1.180   0.587   0.492  0.2586 -0.0018  1.2151
 3495SOL     OW21943   0.866   2.162   8.438  0.8051 -0.2471  0.5914
 3495SOL    HW121944   0.776   2.144   8.410  0.6760  0.1858  0.7202
 3495SOL    HW221945   0.864   2.147   8.533 -0.5615 -2.4418  0.2163
 3496SOL     OW21946   2.735   0.785   2.450  0.2274  0.4018  0.4183
 3496SOL    HW121947   2.696   0.804   2.535 -0.1454 -4.6067  1.3569
 3496SOL    HW221948   2.706   0.854   2.390  0.4696  0.5336  0.4509
 3497SOL     OW21949   3.282   3.748   0.579 -0.2012 -0.5283  0.0682
 3497SOL    HW121950   3.355   3.687   0.563 -2.4512 -2.4578 -2.9793
 3497SOL    HW221951   3.244   3.751   0.491  0.7811  1.3533 -0.2890
 3498SOL     OW21952   3.499   3.653   5.392  0.4403 -0.1272 -0.1502
 3498SOL    HW121953   3.501   3.641   5.487  1.2418  1.4499  0.0327
 3498SOL    HW221954   3.585   3.624   5.360  1.0925  0.2707  1.2249
 3499SOL     OW21955   2.470   0.853  17.444 -0.4167  0.2788 -0.1055
 3499SOL    HW121956   2.490   0.761  17.459 -2.2326 -0.2063 -0.5966
 3499SOL    HW221957   2.387   0.856  17.492 -0.7654 -0.3009 -0.6673
 3500SOL     OW21958   3.902   4.619  12.561  0.4644  0.1790  0.2255
 3500SOL    HW121959   3.861   4.702  12.584  0.2712 -0.2631  1.4519
 3500SOL    HW221960   3.960   4.650  12.491 -0.5134 -0.1429 -0.7397
 3501SOL     OW21961   3.685   4.716   5.690 -0.0885  0.4322 -0.3524
 3501SOL    HW121962   3.633   4.645   5.727 -0.0880  0.3930 -0.4265
 3501SOL    HW221963   3.646   0.066   5.736 -0.9382 -0.1099 -0.1899
 3502SOL     OW21964   4.038   0.268   3.895 -0.1803  0.2370  0.1470
 3502SOL    HW121965   3.961   0.273   3.838 -0.2916  1.9124  0.4190
 3502SOL    HW221966   4.012   0.334   3.960  0.8053  0.2538  0.5131
 3503SOL     OW21967   3.943   1.280   8.307  0.1338 -0.6764 -0.2534
 3503SOL    HW121968   3.973   1.216   8.371  1.5205  0.2077 -0.0417
 3503SOL    HW221969   3.849   1.278   8.327 -0.0551 -2.9538 -1.2860
 3504SOL     OW21970   0.668   0.163   6.625 -0.1134  0.0982  0.1641
 3504SOL    HW121971   0.716   0.232   6.672  0.0683  0.0049  0.1137
 3504SOL    HW221972   0.716   0.164   6.542 -1.5567  0.1741 -0.6835
 3505SOL     OW21973   1.046   4.302  11.390 -0.1666 -0.4340  0.2386
 3505SOL    HW121974   1.020   4.356  11.314 -0.2591  0.9363  1.2408
 3505SOL    HW221975   1.090   4.365  11.446 -1.8109  0.0291  1.0277
 3506SOL     OW21976   3.785   3.518   2.098  1.0533 -0.8574 -0.2468
 3506SOL    HW121977   3.806   3.608   2.120 -0.6386 -0.7582  1.0073
 3506SOL    HW221978   3.735   3.484   2.173  1.2021 -0.0630  0.2194
 3507SOL     OW21979   1.754   3.815   9.692  0.1051 -1.0399  0.2958
 3507SOL    HW121980   1.816   3.747   9.719 -0.7941 -3.0869 -2.7540
 3507SOL    HW221981   1.676   3.790   9.742 -0.4138 -0.2836 -0.1385
 3508SOL     OW21982   1.282   0.443   3.407  0.2400  0.8330  0.2158
 3508SOL    HW121983   1.321   0.382   3.470 -2.3193  0.3875  1.3607
 3508SOL    HW221984   1.229   0.376   3.363 -0.2340  1.0021  0.5245
 3509SOL     OW21985   0.838   4.171   5.308  0.3936  0.4024 -0.4120
 3509SOL    HW121986   0.886   4.092   5.333  1.6385  0.5976 -2.1834
 3509SOL    HW221987   0.869   4.176   5.218 -0.5428  0.6841 -0.7152
 3510SOL     OW21988   3.821   0.999   3.926 -0.7873 -0.2942  0.6875
 3510SOL    HW121989   3.861   0.986   3.839 -3.1893 -1.5787 -0.2217
 3510SOL    HW221990   3.893   0.969   3.982 -1.5113 -1.5807  0.9291
 3511SOL     OW21991   3.870   4.361   8.109 -0.4902 -0.0443 -0.0442
 3511SOL    HW121992   3.821   4.409   8.043  1.0857 -0.5284 -1.5955
 3511SOL    HW221993   3.869   4.270   8.079 -0.5344  0.1999 -0.7858
 3512SOL     OW21994   3.233   2.553   4.996 -0.8050 -0.0429  0.6464
 3512SOL    HW121995   3.272   2.640   5.011 -1.7306  0.3602  0.7399
 3512SOL    HW221996   3.155   2.559   5.052 -0.0329 -0.3626  1.7693
 3513SOL     OW21997   0.083   2.952  15.605  0.0214  0.5328  0.0120
 3513SOL    HW121998   0.027   2.874  15.606 -0.6493  1.0059 -1.3151
 3513SOL    HW221999   0.147   2.931  15.673 -1.3105  1.5946  1.5989
 3514SOL     OW22000   2.958   0.276   9.072 -0.7338 -0.7553  0.5064
 3514SOL    HW122001   2.930   0.366   9.058 -1.1216 -0.6586  1.9462
 3514SOL    HW222002   2.895   0.242   9.135  0.0494 -1.4384  0.9122
 3515SOL     OW22003   1.454   0.560   8.697 -0.1655  0.3726 -0.7628
 3515SOL    HW122004   1.376   0.577   8.644 -0.4877 -0.0034 -0.4099
 3515SOL    HW222005   1.440   0.468   8.720 -3.2647  0.7343 -1.1923
 3516SOL     OW22006   2.698   3.769   9.191 -0.1928  0.1652  0.1781
 3516SOL    HW122007   2.742   3.798   9.111 -2.0040 -1.3233 -1.3500
 3516SOL    HW222008   2.723   3.678   9.208  2.8022  1.0390  0.3322
 3517SOL     OW22009   0.501   1.501   9.624 -0.4569  0.0977  0.0661
 3517SOL    HW122010   0.458   1.490   9.709 -2.7191  2.6010 -0.7595
 3517SOL    HW222011   0.581   1.451   9.642  0.2926  1.3651  0.2462
 3518SOL     OW22012   1.188   3.598   6.368 -0.0950 -0.6064  0.5672
 3518SOL    HW122013   1.207   3.517   6.321  0.1320 -0.8551  1.0843
 3518SOL    HW222014   1.207   3.557   6.453 -2.8297  1.6236  2.2642
 3519SOL     OW22015   2.419   3.260   3.377  0.6057 -0.5629  0.4073
 3519SOL    HW122016   2.379   3.245   3.291 -0.2337 -1.4435  0.9374
 3519SOL    HW222017   2.394   3.350   3.395  1.4386 -0.6016  1.7710
 3520SOL     OW22018   0.590   2.122   6.971  0.0521  0.4742 -0.1189
 3520SOL    HW122019   0.636   2.179   6.910  1.6586 -1.2996 -0.5652
 3520SOL    HW222020   0.658   2.102   7.035  0.0559 -0.0172 -0.2778
 3521SOL     OW22021   1.202   3.861   6.332 -0.0991  0.1041  0.4237
 3521SOL    HW122022   1.221   3.901   6.417  0.3538  1.0439 -0.1217
 3521SOL    HW222023   1.197   3.767   6.349  1.4249 -0.2261 -1.0118
 3522SOL     OW22024   4.538   2.395   3.848  0.1179  0.0141  0.2163
 3522SOL    HW122025   4.563   2.367   3.760  0.3797  1.1243 -0.0669
 3522SOL    HW222026   4.624   2.404   3.887 -0.9244  1.5302  2.1735
 3523SOL     OW22027   0.545   2.443   5.077  0.3423 -0.0271  0.1601
 3523SOL    HW122028   0.505   2.403   5.000  2.6899 -0.4101 -0.8774
 3523SOL    HW222029   0.504   2.405   5.155  1.1738 -1.1994  0.0336
 3524SOL     OW22030   0.455   1.284   5.129  0.3986 -0.0510  0.5655
 3524SOL    HW122031   0.452   1.288   5.033 -1.7734  0.9241  0.6808
 3524SOL    HW222032   0.540   1.329   5.133  0.5841 -0.4292  0.9280
 3525SOL     OW22033   3.842   1.891   2.159 -0.2822 -0.3596 -0.3969
 3525SOL    HW122034   3.782   1.830   2.116 -1.4287  3.1592 -3.7216
 3525SOL    HW222035   3.848   1.856   2.248  0.0964 -0.2805 -0.3898
 3526SOL     OW22036   1.590   1.771  16.038  0.0887 -0.1033  0.2163
 3526SOL    HW122037   1.676   1.802  16.008 -0.8027  3.1115  0.9712
 3526SOL    HW222038   1.567   1.724  15.958  0.1145  0.0671  0.1085
 3527SOL     OW22039   1.706   0.241   2.388 -0.3813  0.1854  0.1047
 3527SOL    HW122040   1.646   0.189   2.334  2.0738 -0.0657 -2.4193
 3527SOL    HW222041   1.707   0.320   2.334  2.0508  0.6378  0.8326
 3528SOL     OW22042   2.198   3.945   4.720  0.1223 -0.1793 -0.1270
 3528SOL    HW122043   2.292   3.929   4.712  0.0784 -0.8229  0.5959
 3528SOL    HW222044   2.174   3.881   4.787  1.1304 -1.9016 -1.4275
 3529SOL     OW22045   2.212   2.837   4.571  0.2659 -0.2673  0.0382
 3529SOL    HW122046   2.175   2.771   4.512  0.3790 -0.7141  0.4572
 3529SOL    HW222047   2.221   2.775   4.644 -3.3498  1.7400  2.1812
 3530SOL     OW22048   3.770   3.589   5.431 -0.9602 -0.2617  0.1585
 3530SOL    HW122049   3.827   3.625   5.500  1.4720 -1.4614 -1.2118
 3530SOL    HW222050   3.779   3.498   5.459 -2.5371 -0.4298  0.1017
 3531SOL     OW22051   2.244   4.654  16.302 -0.0239  0.1692  0.7391
 3531SOL    HW122052   2.148   4.654  16.306 -0.0867 -0.4611 -0.5442
 3531SOL    HW222053   2.260   4.560  16.313  1.7472 -0.1982 -4.8412
 3532SOL     OW22054   2.577   1.877  16.058 -0.0049 -0.7496 -0.2280
 3532SOL    HW122055   2.513   1.825  16.009  0.2966 -0.5761 -0.8126
 3532SOL    HW222056   2.541   1.872  16.146  0.2907  1.5378  0.0242
 3533SOL     OW22057   0.639   2.730   0.725  0.4716  0.1012 -0.4116
 3533SOL    HW122058   0.698   2.797   0.690  0.0718  0.5117 -0.3060
 3533SOL    HW222059   0.560   2.781   0.742 -1.9453 -3.6468 -0.4267
 3534SOL     OW22060   2.244   3.804   6.028 -0.2934  0.2479 -0.1181
 3534SOL    HW122061   2.251   3.711   6.006 -3.1712 -0.3120  1.3161
 3534SOL    HW222062   2.287   3.839   5.950  2.8130 -1.1157  0.9943
 3535SOL     OW22063   1.689   3.819  16.750 -0.5692 -0.4520 -0.5210
 3535SOL    HW122064   1.721   3.809  16.839  1.1544 -0.9637 -1.1915
 3535SOL    HW222065   1.771   3.844  16.707  0.9012 -2.0728  1.3799
 3536SOL     OW22066   1.585   4.507   9.226  0.2304  0.3346  0.0551
 3536SOL    HW122067   1.517   4.573   9.241 -0.1244  0.0472 -0.3017
 3536SOL    HW222068   1.653   4.532   9.289 -0.7091  1.5429  0.5836
 3537SOL     OW22069   1.997   0.393  15.000 -0.2312 -0.0479  0.6939
 3537SOL    HW122070   1.992   0.365  15.091 -0.7317  1.2014  1.0592
 3537SOL    HW222071   2.057   0.468  15.009  0.0639 -0.1428 -0.4610
 3538SOL     OW22072   2.303   1.917   5.546 -0.2216 -0.4473  0.2702
 3538SOL    HW122073   2.337   1.828   5.535  0.6542 -0.0019 -0.7151
 3538SOL    HW222074   2.269   1.931   5.457  1.7826 -0.0372 -0.4409
 3539SOL     OW22075   3.637   1.425   5.558  0.1519  0.6816  0.1777
 3539SOL    HW122076   3.650   1.433   5.464 -0.8971  0.1748 -0.0144
 3539SOL    HW222077   3.686   1.501   5.591 -0.8876  0.8620  1.3341
 3540SOL     OW22078   0.699   0.682  14.221 -0.4361 -0.2944  1.1116
 3540SOL    HW122079   0.669   0.765  14.258 -1.9161  0.7606 -2.3899
 3540SOL    HW222080   0.619   0.631  14.206 -0.8079 -0.1488  2.6357
 3541SOL     OW22081   0.533   4.662   6.625  0.5923 -0.0065 -0.2254
 3541SOL    HW122082   0.577   4.591   6.672  0.0466 -1.6901 -2.2459
 3541SOL    HW222083   0.595   0.010   6.624  0.3101  0.2437  0.3045
 3542SOL     OW22084   2.580   1.157   7.013 -0.0234 -0.3382  0.1235
 3542SOL    HW122085   2.542   1.118   7.091 -2.6130  1.1992 -0.3592
 3542SOL    HW222086   2.505   1.172   6.955  1.3211  1.5529 -1.1202
 3543SOL     OW22087   1.384   0.440   2.890  0.3808  0.6280 -0.5670
 3543SOL    HW122088   1.450   0.383   2.849 -1.0156 -0.7309 -0.8931
 3543SOL    HW222089   1.438   0.486   2.955 -0.3919  1.5042 -0.5516
 3544SOL     OW22090   2.057   4.522   8.794  0.5004  1.0426  0.1950
 3544SOL    HW122091   2.028   4.460   8.861 -1.1214  1.1245 -0.4144
 3544SOL    HW222092   2.136   4.560   8.831 -0.6378  3.2356  0.3579
 3545SOL     OW22093   0.037   4.157  16.121  0.3103  0.0582  0.0390
 3545SOL    HW122094   0.041   4.245  16.159 -1.1929 -0.3766  1.2403
 3545SOL    HW222095   4.717   4.184  16.040  0.5934 -0.2323 -0.2127
 3546SOL     OW22096   4.116   0.311   8.474 -0.3713  0.0250  0.5238
 3546SOL    HW122097   4.116   0.216   8.482  3.1593 -0.1026 -1.2423
 3546SOL    HW222098   4.198   0.337   8.516  0.3954 -0.7107 -0.5190
 3547SOL     OW22099   3.224   1.308   3.074 -0.3334 -0.3387 -0.0441
 3547SOL    HW122100   3.219   1.222   3.115  0.5281 -0.7683 -0.8523
 3547SOL    HW222101   3.195   1.363   3.147 -1.4046 -0.4553 -0.3924
 3548SOL     OW22102   3.459   3.646  10.835  0.0127 -0.4911 -0.0858
 3548SOL    HW122103   3.401   3.709  10.878 -0.0595 -0.6724  0.0833
 3548SOL    HW222104   3.502   3.598  10.905 -0.9572  0.3205  1.0619
 3549SOL     OW22105   0.291   0.277   4.193 -0.6571  0.1095  0.0206
 3549SOL    HW122106   0.273   0.371   4.192  1.7613  0.5915  1.0611
 3549SOL    HW222107   0.239   0.246   4.119 -0.4999  1.5809 -0.7158
 3550SOL     OW22108   2.817   1.179   1.038  0.3336 -0.0779 -0.1412
 3550SOL    HW122109   2.804   1.109   1.102  1.5121  1.7971  2.1436
 3550SOL    HW222110   2.759   1.250   1.066  0.3954 -1.1046  2.6300
 3551SOL     OW22111   3.066   2.788   2.219 -0.2615  0.4233  0.6586
 3551SOL    HW122112   3.089   2.868   2.267  1.7506  2.0238 -3.0127
 3551SOL    HW222113   3.106   2.719   2.273  2.4691  2.2166  0.9084
 3552SOL     OW22114   0.617   0.334   5.260 -0.8026 -0.6475  0.5381
 3552SOL    HW122115   0.666   0.341   5.178  0.5738  2.1409  1.5876
 3552SOL    HW222116   0.642   0.417   5.300 -0.0392  0.1594 -1.6426
 3553SOL     OW22117   1.064   3.322   4.848 -0.4098  0.4029 -0.2481
 3553SOL    HW122118   1.133   3.383   4.822  0.0631 -0.3538 -0.7527
 3553SOL    HW222119   1.057   3.253   4.783  4.0500  0.7515 -1.1037
 3554SOL     OW22120   2.558   0.843  13.163 -0.1645  0.1828 -0.2456
 3554SOL    HW122121   2.615   0.821  13.089  0.5360 -0.1326  0.3797
 3554SOL    HW222122   2.633   0.838  13.224 -1.6462 -0.7169  1.5023
 3555SOL     OW22123   0.522   2.513   7.613  0.2597  0.1552  0.3038
 3555SOL    HW122124   0.462   2.548   7.679  1.1033  5.6147 -1.7648
 3555SOL    HW222125   0.602   2.496   7.662  0.4874 -2.2308 -0.9019
 3556SOL     OW22126   0.625   2.834   6.694 -0.4911 -0.3102  0.3666
 3556SOL    HW122127   0.606   2.877   6.610  0.1088  0.5754  0.6769
 3556SOL    HW222128   0.672   2.912   6.725 -2.1139  0.8347 -0.0353
 3557SOL     OW22129   1.361   2.669   1.499 -0.1372  0.0979 -0.0790
 3557SOL    HW122130   1.447   2.657   1.541 -0.0502  1.2632  0.0781
 3557SOL    HW222131   1.309   2.714   1.566 -0.1601 -0.7755  0.4915
 3558SOL     OW22132   2.926   1.851   5.608 -0.4542  0.1376  0.2902
 3558SOL    HW122133   2.938   1.822   5.698  1.6155  0.0356  0.0037
 3558SOL    HW222134   2.860   1.796   5.566 -0.3855 -0.3054  0.7695
 3559SOL     OW22135   2.549   1.092  11.621 -0.3062 -0.1338 -0.6421
 3559SOL    HW122136   2.542   1.047  11.537  0.0797  0.5043 -1.0141
 3559SOL    HW222137   2.458   1.123  11.619 -0.2915 -0.0885 -0.6094
 3560SOL     OW22138   0.794   3.335   6.428  0.0016 -0.6282  0.2524
 3560SOL    HW122139   0.729   3.318   6.496  2.0433  0.0105  2.3843
 3560SOL    HW222140   0.828   3.423   6.440  1.8269 -1.4443  1.1982
 3561SOL     OW22141   4.305   4.520  16.686 -0.0559  0.4721  0.6964
 3561SOL    HW122142   4.400   4.534  16.688  0.0097  0.0472  0.3854
 3561SOL    HW222143   4.285   4.496  16.596  2.2069 -1.9244  0.8522
 3562SOL     OW22144   4.537   2.355   5.886 -0.3216 -0.1545  0.1563
 3562SOL    HW122145   4.513   2.428   5.944 -0.8478 -0.3549  0.1936
 3562SOL    HW222146   4.458   2.302   5.897 -0.3368 -0.1727 -0.0435
 3563SOL     OW22147   4.668   4.655   1.160 -0.4093  0.7086  0.1374
 3563SOL    HW122148   0.038   4.663   1.147 -0.3124  1.3308  1.1686
 3563SOL    HW222149   4.642   4.617   1.076 -1.2507 -0.1475  0.7940
 3564SOL     OW22150   2.825   3.342   7.009 -0.4152  0.2388  0.5514
 3564SOL    HW122151   2.901   3.304   6.966  0.4733  3.5731 -0.8700
 3564SOL    HW222152   2.862   3.352   7.097 -1.5565 -2.2111  1.3171
 3565SOL     OW22153   3.630   0.667   1.169 -0.3858 -0.2688 -0.2551
 3565SOL    HW122154   3.631   0.576   1.202  1.5882 -0.3416 -0.4978
 3565SOL    HW222155   3.547   0.670   1.122 -1.0099 -0.0776  0.8421
 3566SOL     OW22156   0.098   4.061   2.685  0.7328 -0.2041  0.1687
 3566SOL    HW122157   0.100   4.134   2.624  2.0769  1.0185  1.6717
 3566SOL    HW222158   0.103   4.109   2.768  0.0907  0.6392 -0.2832
 3567SOL     OW22159   0.463   0.577  15.150 -0.6262 -0.4173 -0.2931
 3567SOL    HW122160   0.556   0.589  15.167 -0.9595  0.4070  0.9362
 3567SOL    HW222161   0.436   0.529  15.228  2.5598 -2.4152 -0.4448
 3568SOL     OW22162   4.500   4.359   2.558  0.0084  0.4149 -0.0247
 3568SOL    HW122163   4.512   4.270   2.527  0.0857  1.6837 -3.6930
 3568SOL    HW222164   4.407   4.368   2.534 -0.3691 -0.8610  0.9358
 3569SOL     OW22165   3.147   3.484   6.792  0.6255  0.3737 -0.6988
 3569SOL    HW122166   3.210   3.466   6.723 -0.8463 -0.9756 -1.6895
 3569SOL    HW222167   3.183   3.563   6.833 -0.8580  0.8495 -0.2954
 3570SOL     OW22168   4.379   4.583   6.582 -0.5197  0.0634 -0.2638
 3570SOL    HW122169   4.474   4.573   6.591 -0.5362 -1.0615 -1.3893
 3570SOL    HW222170   4.366   4.536   6.500 -0.1425 -1.3222  0.4773
 3571SOL     OW22171   2.574   2.608   5.125 -0.2787  0.4414  0.0812
 3571SOL    HW122172   2.548   2.699   5.140 -1.8221  0.2042 -1.1916
 3571SOL    HW222173   2.491   2.561   5.114 -0.5827  0.6197  1.5063
 3572SOL     OW22174   0.476   3.565  11.122 -0.2020  0.1978  0.0252
 3572SOL    HW122175   0.481   3.531  11.033 -3.9534  0.7994 -0.4350
 3572SOL    HW222176   0.399   3.623  11.120 -0.8634 -0.6055  1.9162
 3573SOL     OW22177   0.756   2.512   4.322 -0.4536  0.1912 -0.4562
 3573SOL    HW122178   0.759   2.558   4.405  0.3464 -1.2260  0.2994
 3573SOL    HW222179   0.665   2.482   4.330 -0.3361  0.4671  1.9515
 3574SOL     OW22180   2.310   0.115   6.308  0.2394  0.0110 -0.3773
 3574SOL    HW122181   2.336   0.027   6.280  0.6133  0.1480 -0.4634
 3574SOL    HW222182   2.357   0.143   6.387 -2.7690  0.9342  1.0615
 3575SOL     OW22183   2.215   2.199  12.205  0.2964  0.4508 -0.4103
 3575SOL    HW122184   2.234   2.253  12.128 -0.8901 -0.1232 -1.1031
 3575SOL    HW222185   2.167   2.257  12.265 -0.5109  0.6536 -1.2541
 3576SOL     OW22186   3.343   2.408   5.827 -0.0968  0.3046  0.2044
 3576SOL    HW122187   3.291   2.360   5.892 -1.0735  1.1663  0.0621
 3576SOL    HW222188   3.368   2.484   5.878  1.8319 -0.9230  1.0762
 3577SOL     OW22189   2.780   3.875   5.340 -0.2319 -0.3019  0.3403
 3577SOL    HW122190   2.867   3.884   5.300 -0.2742 -1.6275 -0.0661
 3577SOL    HW222191   2.758   3.782   5.329 -0.6638 -0.0290 -1.0767
 3578SOL     OW22192   2.014   0.328   9.431 -0.0104 -0.1987 -0.6229
 3578SOL    HW122193   1.921   0.326   9.455  0.5732 -0.3581  1.6719
 3578SOL    HW222194   2.037   0.380   9.509  0.2826 -0.7881 -0.3182
 3579SOL     OW22195   1.409   0.657   4.948  0.3226  0.5765  0.3501
 3579SOL    HW122196   1.350   0.688   4.879 -0.0320 -2.9309 -0.9071
 3579SOL    HW222197   1.412   0.562   4.940 -0.5019  0.7150 -1.5908
 3580SOL     OW22198   3.064   4.140   5.779  0.2846  0.3293  0.1563
 3580SOL    HW122199   2.986   4.145   5.834  1.0536  0.1026  1.2674
 3580SOL    HW222200   3.025   4.120   5.694 -0.5328 -0.8949  0.8104
 3581SOL     OW22201   0.225   4.479   4.909  0.0017  0.3475 -0.3847
 3581SOL    HW122202   0.218   4.528   4.827 -1.6151 -0.7997 -0.9411
 3581SOL    HW222203   0.160   4.526   4.963  0.5510  0.5940  0.0623
 3582SOL     OW22204   2.066   3.267  12.727 -0.1182 -0.5912 -0.3222
 3582SOL    HW122205   2.094   3.306  12.810  0.3341 -0.6789 -0.4353
 3582SOL    HW222206   2.148   3.225  12.700  0.7287  0.7894  0.1103
 3583SOL     OW22207   3.656   4.209   6.805 -0.5795  0.5444 -0.6115
 3583SOL    HW122208   3.569   4.179   6.777 -1.1320  0.5389  1.1113
 3583SOL    HW222209   3.659   4.175   6.894  1.2142  0.3294 -0.7572
 3584SOL     OW22210   0.705   0.141   3.840 -0.1002 -0.2476  0.7074
 3584SOL    HW122211   0.759   0.105   3.910 -0.2528 -0.6339  0.6322
 3584SOL    HW222212   0.771   0.197   3.799 -0.4474  0.9038  1.7656
 3585SOL     OW22213   2.375   1.712  13.467  0.1798 -0.0899  0.1718
 3585SOL    HW122214   2.432   1.744  13.537  1.3492  1.3658 -1.4471
 3585SOL    HW222215   2.361   1.622  13.498  2.7147 -0.4541  0.2285
 3586SOL     OW22216   4.367   0.693   9.537  0.3010  0.0115  0.0621
 3586SOL    HW122217   4.284   0.740   9.528  0.4764 -0.2979 -3.0642
 3586SOL    HW222218   4.416   0.765   9.577  0.6012  0.0105 -0.3072
 3587SOL     OW22219   1.090   0.506   8.704 -0.0470 -0.2252 -0.4277
 3587SOL    HW122220   1.076   0.440   8.637  0.2007 -0.6543 -0.0590
 3587SOL    HW222221   1.013   0.499   8.760  1.4081 -3.1401  1.1938
 3588SOL     OW22222   2.641   0.639   5.810 -0.2118  0.3125  0.1670
 3588SOL    HW122223   2.567   0.693   5.784  0.6636  1.6363  0.4290
 3588SOL    HW222224   2.601   0.566   5.858 -2.1988  0.5653 -1.1106
 3589SOL     OW22225   2.778   0.262  16.351 -0.3127  0.2093  0.2656
 3589SOL    HW122226   2.748   0.347  16.319 -1.0060  0.4555  1.5631
 3589SOL    HW222227   2.794   0.278  16.444 -0.0997 -0.7710  0.3984
 3590SOL     OW22228   0.182   0.846   2.889  0.1757  0.2470 -0.7041
 3590SOL    HW122229   0.233   0.919   2.854 -0.6850  0.2550 -1.9471
 3590SOL    HW222230   0.155   0.809   2.805 -1.5641  0.2216 -0.1425
 3591SOL     OW22231   2.473   2.320   2.314 -0.1811 -0.6029  0.1061
 3591SOL    HW122232   2.391   2.346   2.356 -0.7842  1.0947 -2.1654
 3591SOL    HW222233   2.489   2.394   2.255  0.3639 -2.1563 -1.6549
 3592SOL     OW22234   1.414   2.797  13.761  0.2085 -0.1162 -0.4214
 3592SOL    HW122235   1.338   2.766  13.713 -0.3517  0.6068  0.0050
 3592SOL    HW222236   1.480   2.807  13.693 -0.0519  0.2569 -0.6211
 3593SOL     OW22237   0.493   2.719  10.829  0.0136 -0.2951  0.0698
 3593SOL    HW122238   0.401   2.733  10.807 -1.0079 -3.1338  2.6414
 3593SOL    HW222239   0.513   2.664  10.753  1.2378 -1.4596  1.2366
 3594SOL     OW22240   1.590   0.841   3.508 -0.4341  0.6331  0.3419
 3594SOL    HW122241   1.544   0.920   3.481  0.2327  1.3163  1.2271
 3594SOL    HW222242   1.613   0.807   3.421 -0.3002  0.2523  0.5236
 3595SOL     OW22243   2.719   0.389   4.469  0.7067  0.1353 -0.0438
 3595SOL    HW122244   2.684   0.467   4.426  0.5333 -0.0888 -0.3070
 3595SOL    HW222245   2.732   0.336   4.391 -1.5036 -1.9201  0.9615
 3596SOL     OW22246   1.861   2.620   2.317 -0.7949  0.3840 -0.0558
 3596SOL    HW122247   1.802   2.687   2.351 -0.1128 -0.1714  2.2322
 3596SOL    HW222248   1.942   2.649   2.358 -0.2703 -1.6578  0.3507
 3597SOL     OW22249   4.448   2.082  17.220 -0.1737  0.3895  0.5590
 3597SOL    HW122250   4.382   2.151  17.224  0.8657  1.4414 -0.0694
 3597SOL    HW222251   4.410   2.016  17.277  2.5928  0.2443  2.2611
 3598SOL     OW22252   3.580   3.942   9.486  0.0730  0.5180 -0.0907
 3598SOL    HW122253   3.496   3.921   9.526 -0.4489 -0.1861 -1.5204
 3598SOL    HW222254   3.620   3.855   9.491 -0.5608  0.3116  1.3307
 3599SOL     OW22255   1.001   1.354   3.417  0.5280 -0.2694 -0.2426
 3599SOL    HW122256   0.965   1.326   3.502 -1.2532  1.6740 -0.3492
 3599SOL    HW222257   1.011   1.447   3.435 -0.3190 -0.2431  0.0730
 3600SOL     OW22258   1.472   1.236  11.610  0.1778  0.2885 -0.3266
 3600SOL    HW122259   1.503   1.255  11.521 -1.1536 -0.7614 -1.0184
 3600SOL    HW222260   1.441   1.323  11.635 -2.6934 -0.7078 -0.3857
 3601SOL     OW22261   0.668   0.552  12.608  0.4599 -0.2612  0.0208
 3601SOL    HW122262   0.717   0.531  12.688  0.6619 -0.2518 -0.1018
 3601SOL    HW222263   0.578   0.568  12.636  1.2063  2.2012  0.9712
 3602SOL     OW22264   1.733   3.710  14.934  0.0262  0.3946  0.5400
 3602SOL    HW122265   1.800   3.697  15.002 -1.3870 -0.6418  1.7357
 3602SOL    HW222266   1.773   3.656  14.867 -0.9684 -0.4404  0.6155
 3603SOL     OW22267   3.371   2.675  11.357 -0.0620 -0.0669 -0.1752
 3603SOL    HW122268   3.367   2.764  11.392  2.2196  0.2379 -0.6785
 3603SOL    HW222269   3.321   2.693  11.277 -1.3650 -2.9666  0.0165
 3604SOL     OW22270   1.940   3.658   3.829  0.8342  0.4586  0.1989
 3604SOL    HW122271   1.916   3.581   3.882  2.1423 -0.3637 -0.4040
 3604SOL    HW222272   1.886   3.726   3.869 -2.5426 -2.3382  0.4089
 3605SOL     OW22273   4.684   0.530   9.046 -0.8183  0.8025 -0.7632
 3605SOL    HW122274   0.005   0.602   9.091  1.0321 -2.4243  2.5313
 3605SOL    HW222275   4.655   0.477   9.119  0.9312  0.7305 -0.1278
 3606SOL     OW22276   3.632   2.438   3.188  0.6915 -0.6720  0.4270
 3606SOL    HW122277   3.682   2.502   3.138  1.2604  0.4725  2.4437
 3606SOL    HW222278   3.623   2.368   3.123  1.4962  2.3247 -2.8665
 3607SOL     OW22279   1.937   2.202   3.456  0.6054 -0.6248 -0.0439
 3607SOL    HW122280   1.970   2.124   3.411 -2.3180 -0.7557 -1.9959
 3607SOL    HW222281   1.908   2.261   3.386 -1.9149 -0.3837  1.1683
 3608SOL     OW22282   1.851   3.272   6.484  0.3195 -0.0644  0.7309
 3608SOL    HW122283   1.779   3.336   6.488 -0.7035 -1.1183 -0.6609
 3608SOL    HW222284   1.806   3.216   6.421 -2.2189  3.7713 -0.8504
 3609SOL     OW22285   0.995   1.052  16.836 -0.4332 -0.1450  0.7055
 3609SOL    HW122286   0.904   1.022  16.831  0.0615 -1.0504 -2.2814
 3609SOL    HW222287   1.001   1.108  16.759 -2.2693 -2.4130 -1.0831
 3610SOL     OW22288   3.033   2.342  16.936  0.1751  0.4810  0.0437
 3610SOL    HW122289   3.100   2.312  16.998 -2.1157 -0.2867  2.1295
 3610SOL    HW222290   3.061   2.316  16.848  3.0623  2.3396  0.4000
 3611SOL     OW22291   0.861   0.695   2.374  0.2136 -0.8577  0.1489
 3611SOL    HW122292   0.892   0.649   2.453 -0.6590  0.1492  1.0759
 3611SOL    HW222293   0.871   0.789   2.387 -0.0488 -0.9162  0.7588
 3612SOL     OW22294   0.732   3.655  13.239 -0.0079 -0.5372 -0.8270
 3612SOL    HW122295   0.688   3.578  13.202 -1.1321  1.0106 -2.7144
 3612SOL    HW222296   0.706   3.640  13.330  1.9527  1.0778 -0.0089
 3613SOL     OW22297   1.632   2.525   8.035  0.0672  0.0682 -0.2856
 3613SOL    HW122298   1.717   2.557   8.003  0.2913 -1.3037 -1.0691
 3613SOL    HW222299   1.623   2.574   8.117  0.2713 -1.2990  0.5639
 3614SOL     OW22300   1.597   1.041   8.132 -0.1208 -0.1682  0.1963
 3614SOL    HW122301   1.642   0.983   8.071  0.0166  2.4059 -2.1434
 3614SOL    HW222302   1.633   1.018   8.218  1.0877  0.7511 -0.0556
 3615SOL     OW22303   2.755   2.568  14.059  0.5750  0.0865  0.0406
 3615SOL    HW122304   2.778   2.477  14.038 -0.3292  0.5082 -2.8287
 3615SOL    HW222305   2.667   2.563  14.022  1.2485  1.8218 -1.7977
 3616SOL     OW22306   4.673   2.108   9.815 -0.5134 -0.4015  0.5914
 3616SOL    HW122307   4.723   2.156   9.881 -0.0717 -0.6190  0.4123
 3616SOL    HW222308   4.684   2.018   9.847 -0.0981 -1.0052 -1.2688
 3617SOL     OW22309   2.089   3.842  13.213  0.0086 -0.6888  0.2825
 3617SOL    HW122310   2.151   3.772  13.233  0.3070 -0.6392 -0.4443
 3617SOL    HW222311   2.007   3.794  13.226 -0.3505 -0.9658 -2.9174
 3618SOL     OW22312   3.784   0.398  17.693  0.8056  0.7344 -0.4114
 3618SOL    HW122313   3.701   0.438   0.019  2.0284  2.6903  0.5082
 3618SOL    HW222314   3.766   0.311   0.030 -1.5464  1.3383 -0.1328
 3619SOL     OW22315   1.156   4.690   8.908 -0.2512 -0.0166 -0.0415
 3619SOL    HW122316   1.159   0.034   8.841  2.2498 -0.0263  0.0649
 3619SOL    HW222317   1.116   4.620   8.856 -1.9847 -1.1633  2.8643
 3620SOL     OW22318   3.496   1.205   4.817 -0.7640  0.3283 -0.0354
 3620SOL    HW122319   3.505   1.281   4.874 -0.9960 -0.4118  0.9989
 3620SOL    HW222320   3.408   1.212   4.779 -0.0321  0.3327 -1.7274
 3621SOL     OW22321   1.724   3.768  13.712 -0.4594 -0.4460  0.1772
 3621SOL    HW122322   1.740   3.860  13.733 -0.6941  0.5169 -3.7958
 3621SOL    HW222323   1.764   3.759  13.625 -0.3575  0.2753  0.1499
 3622SOL     OW22324   1.626   4.418   3.715 -0.4021  0.5406 -0.5881
 3622SOL    HW122325   1.698   4.392   3.772  0.4578 -2.3079 -2.9994
 3622SOL    HW222326   1.558   4.406   3.781  1.0405  1.7884  1.1082
 3623SOL     OW22327   4.349   1.490   4.026 -0.3826  0.4404  0.2961
 3623SOL    HW122328   4.407   1.562   4.052  1.0829 -0.9355  0.8511
 3623SOL    HW222329   4.353   1.439   4.107 -0.3291 -1.6655 -1.0449
 3624SOL     OW22330   4.598   1.898   8.680  0.0450  0.2185 -0.0240
 3624SOL    HW122331   4.530   1.833   8.696 -0.4171  0.9972  1.1081
 3624SOL    HW222332   4.643   1.912   8.763  1.2569  0.3934 -0.7028
 3625SOL     OW22333   3.274   2.388   0.341 -0.0188 -0.5793 -0.3880
 3625SOL    HW122334   3.338   2.348   0.283  0.6521 -1.2251  0.8262
 3625SOL    HW222335   3.198   2.398   0.283  0.6496  1.2177 -0.9687
 3626SOL     OW22336   0.116   1.581   3.803  0.2163  0.0737 -0.1727
 3626SOL    HW122337   0.024   1.603   3.818  0.4506  1.2634 -0.5048
 3626SOL    HW222338   0.133   1.603   3.711 -1.8876  2.1476 -0.0479
 3627SOL     OW22339   3.486   2.880   7.463  0.0432 -0.6100  0.1768
 3627SOL    HW122340   3.415   2.923   7.511 -0.9173 -1.9365 -0.0631
 3627SOL    HW222341   3.540   2.956   7.439 -1.5768  0.1801 -0.9787
 3628SOL     OW22342   2.933   0.322  12.357 -0.0237 -0.2524 -0.1142
 3628SOL    HW122343   2.882   0.401  12.376 -0.6180 -0.5526 -0.4628
 3628SOL    HW222344   2.869   0.256  12.381 -0.9921  1.1138  1.0820
 3629SOL     OW22345   0.509   1.093  16.790 -0.2303 -0.3691  0.6431
 3629SOL    HW122346   0.440   1.086  16.724 -0.7011 -0.6422  1.1578
 3629SOL    HW222347   0.522   1.187  16.802  2.2713 -0.6316 -0.1283
 3630SOL     OW22348   3.716   2.468   0.435  0.2876  0.1075 -0.1091
 3630SOL    HW122349   3.739   2.561   0.435  1.6380 -0.2436  1.1667
 3630SOL    HW222350   3.792   2.435   0.388  0.8613 -2.5875  2.7452
 3631SOL     OW22351   2.650   1.834   4.906  0.1563 -0.1518 -0.3123
 3631SOL    HW122352   2.556   1.843   4.888  0.6807  1.1216 -2.3775
 3631SOL    HW222353   2.680   1.771   4.840  1.0385  0.6625 -0.6864
 3632SOL     OW22354   3.919   3.856  12.573  0.8532 -0.3844  0.2968
 3632SOL    HW122355   3.969   3.792  12.524  0.9354 -0.9021  1.0521
 3632SOL    HW222356   3.974   3.876  12.649  0.1225 -0.5373  0.8627
 3633SOL     OW22357   0.878   2.173   8.704  0.0512  0.2736  0.4711
 3633SOL    HW122358   0.859   2.267   8.706  0.8243  0.4471 -0.4832
 3633SOL    HW222359   0.862   2.154   8.796  2.7524 -0.1615  0.8213
 3634SOL     OW22360   3.270   2.204   5.223  0.3087  0.5809  0.1091
 3634SOL    HW122361   3.204   2.203   5.292 -0.0546 -0.1776 -0.2406
 3634SOL    HW222362   3.209   2.218   5.151  0.2706  2.6830  0.5633
 3635SOL     OW22363   3.678   2.877   2.812 -0.0399 -0.0776  0.6960
 3635SOL    HW122364   3.702   2.893   2.903  0.6738  0.6642  0.3741
 3635SOL    HW222365   3.587   2.847   2.820 -0.0631 -0.1597  0.1054
 3636SOL     OW22366   0.651   4.403  13.538 -0.0100  0.3934 -0.4817
 3636SOL    HW122367   0.666   4.463  13.465  2.1827 -0.4208 -0.6769
 3636SOL    HW222368   0.724   4.342  13.537  0.0202  0.4412 -2.0323
 3637SOL     OW22369   0.303   1.506   4.195 -0.1657 -0.2696 -0.1405
 3637SOL    HW122370   0.309   1.533   4.104  0.2052  2.2739  0.6424
 3637SOL    HW222371   0.214   1.536   4.215 -0.5727 -0.3788 -1.8222
 3638SOL     OW22372   3.881   2.196   6.067  0.1644 -0.1098 -0.5663
 3638SOL    HW122373   3.845   2.266   6.121 -1.7300 -1.3455 -0.2133
 3638SOL    HW222374   3.930   2.138   6.127 -1.4757 -0.1061  0.7637
 3639SOL     OW22375   0.332   2.243   2.246  0.1112 -0.5481 -0.1497
 3639SOL    HW122376   0.307   2.287   2.164  2.1043  1.0890  0.1218
 3639SOL    HW222377   0.244   2.224   2.276 -0.4844  0.5270 -1.2229
 3640SOL     OW22378   1.725   1.131  17.479 -0.1888  0.1958  0.0401
 3640SOL    HW122379   1.691   1.067  17.417 -0.6864  2.6898 -2.2756
 3640SOL    HW222380   1.663   1.130  17.552 -2.3485 -0.5781 -1.8323
 3641SOL     OW22381   2.435   0.234  17.420  0.3999  0.3177  0.4075
 3641SOL    HW122382   2.517   0.186  17.428 -0.4700 -1.2602 -0.0022
 3641SOL    HW222383   2.389   0.153  17.395  2.1348 -0.3339 -0.6427
 3642SOL     OW22384   2.027   0.420   7.218  0.1804 -0.0063  0.5328
 3642SOL    HW122385   1.998   0.507   7.190  0.7268 -0.1414 -0.4664
 3642SOL    HW222386   2.114   0.414   7.178  0.4692  1.6836  0.9029
 3643SOL     OW22387   2.986   0.293  14.039  0.4036  0.4144 -0.0661
 3643SOL    HW122388   2.979   0.339  14.123 -0.5892  0.0708  0.0365
 3643SOL    HW222389   3.063   0.238  14.053  0.8184  1.5054  1.9663
 3644SOL     OW22390   2.320   0.917   9.205 -0.3160  0.0864  0.0688
 3644SOL    HW122391   2.333   0.979   9.132 -0.0513  1.1085  0.9841
 3644SOL    HW222392   2.247   0.960   9.251 -0.4343 -0.3072  0.2419
 3645SOL     OW22393   0.619   2.472   6.982  1.1229 -0.2806  0.6894
 3645SOL    HW122394   0.708   2.476   6.948  0.1303 -0.1505 -1.8955
 3645SOL    HW222395   0.629   2.411   7.055  2.3841 -0.0034  0.7398
 3646SOL     OW22396   2.916   3.066   4.641  0.5794 -0.1603 -0.3155
 3646SOL    HW122397   2.922   3.010   4.564 -1.1040 -2.0661  0.9447
 3646SOL    HW222398   2.853   3.133   4.613  0.0372  0.4137  2.3265
 3647SOL     OW22399   1.632   2.953   3.559  0.3099 -0.2542  0.4103
 3647SOL    HW122400   1.657   2.889   3.491 -1.3150 -1.1688  0.6717
 3647SOL    HW222401   1.680   3.032   3.537  0.6564 -0.7406 -0.5904
 3648SOL     OW22402   4.709   0.392  17.386 -0.3854  0.2086  0.0523
 3648SOL    HW122403   0.008   0.335  17.313 -0.7268 -2.1766  1.7904
 3648SOL    HW222404   0.036   0.348  17.454 -0.4089 -0.0029 -0.0696
 3649SOL     OW22405   2.367   1.913   4.510 -0.2615  0.5827 -0.2491
 3649SOL    HW122406   2.324   1.950   4.587 -0.7125 -1.5213  0.5074
 3649SOL    HW222407   2.460   1.936   4.517 -0.6972  2.5283 -0.8106
 3650SOL     OW22408   1.423   1.379  11.169 -0.1425  0.4719 -0.4944
 3650SOL    HW122409   1.426   1.433  11.248  1.4167  0.3956 -0.5002
 3650SOL    HW222410   1.466   1.299  11.198  2.3836  1.4279 -1.6202
 3651SOL     OW22411   1.921   1.105   4.156  0.5567 -0.1905  0.0235
 3651SOL    HW122412   1.993   1.074   4.210 -0.0805  0.4148  1.2277
 3651SOL    HW222413   1.962   1.176   4.106  0.9892 -1.9055 -2.0716
 3652SOL     OW22414   0.440   0.958   5.174  0.3450  0.2228 -0.1848
 3652SOL    HW122415   0.488   0.999   5.103  0.3561  0.2484 -0.1622
 3652SOL    HW222416   0.479   1.008   5.246  0.8343 -2.5428  1.4730
 3653SOL     OW22417   3.645   2.021   6.608  0.6807 -0.2244 -0.1283
 3653SOL    HW122418   3.597   1.987   6.532  0.2575 -0.0958  0.0841
 3653SOL    HW222419   3.717   2.075   6.577  1.5265  0.3491  2.8948
 3654SOL     OW22420   2.905   3.179   0.517 -0.5022 -0.0520 -0.8536
 3654SOL    HW122421   2.961   3.141   0.585  2.1091  1.5277 -2.1058
 3654SOL    HW222422   2.839   3.111   0.512 -2.4124  1.6869  0.8971
 3655SOL     OW22423   4.543   3.185   1.654  0.2528  0.3970 -0.4518
 3655SOL    HW122424   4.590   3.144   1.581  1.4809 -2.6091  2.0344
 3655SOL    HW222425   4.574   3.276   1.652  2.4205 -0.3708 -2.2486
 3656SOL     OW22426   1.169   2.711   4.372 -0.3669 -0.0043 -0.5048
 3656SOL    HW122427   1.077   2.704   4.347 -0.0016 -1.2801 -1.4617
 3656SOL    HW222428   1.213   2.633   4.338 -0.7103 -0.0531 -0.8322
 3657SOL     OW22429   0.498   2.376   8.344  0.2105 -0.0280  0.0986
 3657SOL    HW122430   0.549   2.451   8.315  0.3464 -0.8254 -1.7432
 3657SOL    HW222431   0.418   2.395   8.295 -0.2628 -0.5295  0.6821
 3658SOL     OW22432   3.547   2.968  13.108 -0.0600 -0.6413  0.0564
 3658SOL    HW122433   3.533   2.991  13.200  0.3054  1.1442 -0.3190
 3658SOL    HW222434   3.464   2.932  13.077  0.6143 -0.8416 -1.5331
 3659SOL     OW22435   2.513   3.695  13.555  0.0092  0.2489  0.2838
 3659SOL    HW122436   2.582   3.705  13.622  0.8207 -2.4778 -0.1594
 3659SOL    HW222437   2.546   3.747  13.482 -2.0239 -0.9693 -1.4842
 3660SOL     OW22438   2.215   0.145   5.639 -0.0032 -0.2632  0.6328
 3660SOL    HW122439   2.257   0.132   5.724 -2.8022 -1.1609  1.8573
 3660SOL    HW222440   2.174   0.231   5.644  0.9902  0.3417 -1.8576
 3661SOL     OW22441   0.047   1.465   1.130  0.1842 -0.2386  0.2398
 3661SOL    HW122442   4.678   1.463   1.108 -0.0636 -0.3168  1.2589
 3661SOL    HW222443   0.055   1.559   1.147 -3.0276  0.1345 -0.2244
 3662SOL     OW22444   0.862   1.336   0.202 -0.2542  0.1307  0.2937
 3662SOL    HW122445   0.795   1.270   0.220 -0.1562  0.3446  1.4558
 3662SOL    HW222446   0.917   1.338   0.281  0.1875 -1.3319  0.0202
 3663SOL     OW22447   1.932   0.563   1.284 -0.4311 -0.0064 -0.1022
 3663SOL    HW122448   1.842   0.529   1.277 -0.1492 -0.8921  0.5911
 3663SOL    HW222449   1.928   0.641   1.228  1.4857  0.4517  0.4249
 3664SOL     OW22450   2.832   0.139   1.977  0.1055  0.4731 -0.1367
 3664SOL    HW122451   2.866   0.076   1.914 -2.5363  0.6055 -1.7066
 3664SOL    HW222452   2.741   0.146   1.949 -0.8778 -2.5640  2.2421
 3665SOL     OW22453   3.239   3.809   6.159 -0.0243 -0.3264 -0.3532
 3665SOL    HW122454   3.320   3.801   6.110  0.6930  1.1819  0.5751
 3665SOL    HW222455   3.255   3.768   6.244 -1.3201  0.5544  0.3356
 3666SOL     OW22456   1.835   4.565   5.355 -0.1645 -0.2330  0.6382
 3666SOL    HW122457   1.925   4.546   5.326 -0.6660 -3.2243  0.9810
 3666SOL    HW222458   1.841   4.606   5.441  1.2699 -0.2696  0.5603
 3667SOL     OW22459   4.278   0.212  16.575  0.8842 -0.0934 -0.4573
 3667SOL    HW122460   4.222   0.241  16.502 -0.3278 -0.0384  0.4920
 3667SOL    HW222461   4.342   0.281  16.557 -1.5660  1.6264 -2.6295
 3668SOL     OW22462   3.587   1.579   2.929 -0.7589  0.3552 -0.5244
 3668SOL    HW122463   3.672   1.537   2.944  0.4521  3.0118 -0.0983
 3668SOL    HW222464   3.539   1.530   2.997 -1.8142  1.1347 -0.7062
 3669SOL     OW22465   0.401   0.779   0.532 -0.6826 -0.0792 -0.3747
 3669SOL    HW122466   0.329   0.829   0.496 -0.6213  0.5891  0.4212
 3669SOL    HW222467   0.464   0.845   0.562 -0.2309 -0.9397  0.5998
 3670SOL     OW22468   3.900   4.596   7.505  0.4517  0.0498 -0.6080
 3670SOL    HW122469   3.826   4.606   7.445 -0.3553 -3.4997 -0.1793
 3670SOL    HW222470   3.958   4.540   7.455  0.9560  0.6720 -0.7268
 3671SOL     OW22471   3.608   1.682   6.692  0.2386  0.0614  0.1185
 3671SOL    HW122472   3.700   1.679   6.667 -0.0713 -1.2860 -0.8206
 3671SOL    HW222473   3.576   1.592   6.686  0.8200 -0.1170 -0.1939
 3672SOL     OW22474   0.960   3.069   3.799  0.0854  0.1146 -0.0387
 3672SOL    HW122475   0.998   3.052   3.713 -1.0027 -3.4325  0.1887
 3672SOL    HW222476   0.915   2.986   3.813 -0.5636  0.5064  0.2265
 3673SOL     OW22477   3.549   1.854   2.281 -1.2157  0.2094 -0.3502
 3673SOL    HW122478   3.481   1.873   2.347 -1.6293  2.2932 -1.3781
 3673SOL    HW222479   3.566   1.940   2.242  2.4272  0.2971  1.4054
 3674SOL     OW22480   3.973   0.728   6.504 -0.4107 -0.0131 -0.1569
 3674SOL    HW122481   3.989   0.733   6.410  2.6907 -1.1009  0.2965
 3674SOL    HW222482   4.018   0.647   6.529  0.0393 -0.1259 -1.3304
 3675SOL     OW22483   3.565   4.644   7.644 -0.1133 -0.0477 -0.4472
 3675SOL    HW122484   3.589   0.004   7.605 -0.3696  0.6590  0.9579
 3675SOL    HW222485   3.558   4.678   7.732 -0.7265  0.0256 -0.5196
 3676SOL     OW22486   0.926   0.688   4.084 -0.1600  0.2408 -0.1333
 3676SOL    HW122487   1.010   0.648   4.105  0.1432  1.0482  0.1654
 3676SOL    HW222488   0.962   0.775   4.068 -0.4691  0.2135 -0.9642
 3677SOL     OW22489   1.793   1.533  13.426 -0.0450 -0.2678  0.2322
 3677SOL    HW122490   1.887   1.537  13.445  0.3723  0.2311 -1.9719
 3677SOL    HW222491   1.794   1.447  13.385  0.2714  0.3272 -1.0092
 3678SOL     OW22492   3.307   0.213   1.687 -0.5448 -0.6123  0.4641
 3678SOL    HW122493   3.255   0.149   1.640 -0.5192  0.1873 -0.6481
 3678SOL    HW222494   3.392   0.175   1.667 -0.4601  0.6308 -1.5750
 3679SOL     OW22495   4.514   4.668   0.703  0.4588  0.2249  0.0861
 3679SOL    HW122496   4.536   4.676   0.610 -1.0115  2.0523 -0.0903
 3679SOL    HW222497   4.427   4.627   0.700  0.6339 -0.3346  2.2659
 3680SOL     OW22498   0.213   1.647   6.472  0.3639  0.0347  0.1712
 3680SOL    HW122499   0.129   1.663   6.515  0.5748 -0.9223  0.9365
 3680SOL    HW222500   0.224   1.732   6.430 -3.9222 -0.0970 -1.2504
 3681SOL     OW22501   3.642   3.140   2.677  0.2135 -0.1627  0.7165
 3681SOL    HW122502   3.730   3.175   2.689  0.2334 -0.1899  0.6495
 3681SOL    HW222503   3.631   3.084   2.754  1.2584 -0.6847  0.4843
 3682SOL     OW22504   4.149   2.931   6.851 -0.1313 -0.1504  0.5386
 3682SOL    HW122505   4.234   2.888   6.842  0.0733  0.4906 -0.5318
 3682SOL    HW222506   4.112   2.872   6.917  0.8153 -0.6626  0.6042
 3683SOL     OW22507   1.636   2.373   1.327 -0.2653  0.1529 -0.2280
 3683SOL    HW122508   1.570   2.304   1.326  0.8219 -0.9184  1.5646
 3683SOL    HW222509   1.643   2.387   1.232  1.1045  0.8282 -0.0411
 3684SOL     OW22510   3.125   3.508  13.070 -0.5214 -0.2591 -0.1764
 3684SOL    HW122511   3.049   3.525  13.125 -0.1120 -0.0197  0.3130
 3684SOL    HW222512   3.185   3.469  13.134 -0.5553 -0.0668 -0.0277
 3685SOL     OW22513   3.872   1.846   1.046 -0.3150 -0.0657 -0.3160
 3685SOL    HW122514   3.895   1.807   1.130  1.7736 -0.0223 -0.8877
 3685SOL    HW222515   3.823   1.773   1.007 -1.0012 -0.3992  1.1808
 3686SOL     OW22516   2.858   2.228  10.750 -0.5551 -0.8817 -0.0043
 3686SOL    HW122517   2.882   2.176  10.674 -2.6759 -3.4320  1.0779
 3686SOL    HW222518   2.855   2.164  10.820  0.3266 -0.1507  0.6976
 3687SOL     OW22519   2.710   4.008   4.920  0.6208  0.2096  0.3922
 3687SOL    HW122520   2.692   4.051   5.004 -2.3800 -0.4948  0.0917
 3687SOL    HW222521   2.709   3.917   4.948  0.8876 -0.3153 -1.2835
 3688SOL     OW22522   1.755   2.049   5.536 -0.4775 -0.4903  0.8364
 3688SOL    HW122523   1.831   2.091   5.575 -1.0198  0.4034  0.9208
 3688SOL    HW222524   1.694   2.024   5.605 -1.5520 -0.0708  0.0401
 3689SOL     OW22525   4.585   1.458   7.037 -0.4034 -0.1045  0.7031
 3689SOL    HW122526   4.627   1.418   6.961 -2.0999 -0.6712  0.0505
 3689SOL    HW222527   4.650   1.509   7.085 -1.5828  1.1839  0.9391
 3690SOL     OW22528   0.090   3.899   7.530  0.5916 -0.1282  0.5151
 3690SOL    HW122529   0.177   3.861   7.541  1.2047  1.2849  0.5126
 3690SOL    HW222530   0.042   3.818   7.513 -2.1725  1.6190 -0.1325
 3691SOL     OW22531   0.989   1.328   5.282  0.1586  0.0783 -0.1453
 3691SOL    HW122532   0.973   1.389   5.210 -1.4614  1.5262  1.4167
 3691SOL    HW222533   0.899   1.304   5.303  0.3233  0.8320  1.4576
 3692SOL     OW22534   1.075   0.788  15.498 -0.4939 -0.9576 -0.0993
 3692SOL    HW122535   1.098   0.788  15.405  1.2061 -1.1317  0.3124
 3692SOL    HW222536   0.982   0.808  15.498 -0.6687 -1.7961 -1.2380
 3693SOL     OW22537   1.858   2.549  10.398  0.4777 -0.7107 -0.0321
 3693SOL    HW122538   1.923   2.597  10.347 -0.0204 -0.6408 -0.6053
 3693SOL    HW222539   1.815   2.620  10.445  0.7425  0.3414 -1.3801
 3694SOL     OW22540   3.979   0.736   6.898 -0.6641 -0.0223 -0.0554
 3694SOL    HW122541   3.984   0.703   6.988 -0.4428 -1.7392 -0.7076
 3694SOL    HW222542   4.032   0.669   6.855  0.1358 -1.1837  2.7516
 3695SOL     OW22543   2.337   3.606  15.218 -0.1799  0.3559 -0.2523
 3695SOL    HW122544   2.259   3.616  15.163 -1.0543 -1.4981  0.6422
 3695SOL    HW222545   2.355   3.694  15.250 -0.0494 -0.2745  1.4208
 3696SOL     OW22546   1.946   3.868   2.649  0.2439 -0.6744  0.3037
 3696SOL    HW122547   1.976   3.888   2.738 -0.9319 -1.2637  0.8235
 3696SOL    HW222548   1.962   3.774   2.645 -0.4988 -0.6546 -2.8647
 3697SOL     OW22549   0.520   2.705   6.346  0.2160  0.0325  0.4732
 3697SOL    HW122550   0.600   2.726   6.296  0.8737 -0.6895  1.2214
 3697SOL    HW222551   0.476   2.785   6.315 -3.1583 -1.7792  0.6508
 3698SOL     OW22552   1.489   0.871   4.684  0.6819  0.4276  0.6901
 3698SOL    HW122553   1.507   0.937   4.751 -0.8521  0.3447  1.1913
 3698SOL    HW222554   1.493   0.914   4.598  0.5701  0.7472  0.8419
 3699SOL     OW22555   3.228   4.090  16.408 -0.9873 -0.2997 -0.0839
 3699SOL    HW122556   3.210   4.184  16.402  0.3853 -0.0890 -0.7240
 3699SOL    HW222557   3.141   4.050  16.411 -1.4346  0.7690  1.4695
 3700SOL     OW22558   4.118   1.909   8.733  0.4969 -0.4236  0.7699
 3700SOL    HW122559   4.205   1.948   8.739 -0.0234  1.1077 -1.2933
 3700SOL    HW222560   4.143   1.829   8.778 -0.9046 -1.6418 -0.5864
 3701SOL     OW22561   3.576   3.519   9.981 -0.3558 -0.2593  0.3865
 3701SOL    HW122562   3.525   3.596   9.953  1.3023  0.8432  0.4327
 3701SOL    HW222563   3.503   3.468  10.015  0.8495 -1.4671  1.1241
 3702SOL     OW22564   3.662   0.874   1.337  0.4062 -0.0828 -0.3905
 3702SOL    HW122565   3.609   0.871   1.418  1.1168 -2.3922 -0.0001
 3702SOL    HW222566   3.631   0.795   1.294  0.0997 -0.1685 -0.0203
 3703SOL     OW22567   0.383   4.153   8.469  0.6418 -0.1102 -0.1109
 3703SOL    HW122568   0.305   4.144   8.523  1.6757 -2.0487  1.0541
 3703SOL    HW222569   0.353   4.083   8.411 -0.0873 -0.5490  0.8013
 3704SOL     OW22570   4.383   1.718   4.411  0.1524  0.4263  0.3335
 3704SOL    HW122571   4.350   1.779   4.477 -2.1451  0.3773 -0.7786
 3704SOL    HW222572   4.304   1.673   4.381 -0.2284 -0.4021  2.5559
 3705SOL     OW22573   2.354   0.185   8.170 -0.0611 -0.0784  0.4774
 3705SOL    HW122574   2.271   0.221   8.202 -0.6243 -0.6626 -0.3297
 3705SOL    HW222575   2.356   0.091   8.190  1.2031  0.3228  2.2627
 3706SOL     OW22576   3.690   2.096   5.506  0.2264  0.2076 -0.5762
 3706SOL    HW122577   3.625   2.150   5.551  0.7129 -1.0424  1.6718
 3706SOL    HW222578   3.746   2.166   5.472  1.7441 -0.0355  1.4426
 3707SOL     OW22579   2.604   2.309  11.165  0.4850  0.2046 -0.5233
 3707SOL    HW122580   2.552   2.272  11.094 -1.0422  1.7944 -0.2039
 3707SOL    HW222581   2.537   2.344  11.224  0.1711  1.6795 -1.7625
 3708SOL     OW22582   2.275   4.252  13.029  0.2183 -0.1322  0.3109
 3708SOL    HW122583   2.261   4.311  13.103 -0.3982 -0.9537  0.8535
 3708SOL    HW222584   2.365   4.262  13.001 -0.1161  1.1077 -0.3115
 3709SOL     OW22585   2.221   2.378   0.749 -0.5377 -0.3963 -0.7393
 3709SOL    HW122586   2.140   2.429   0.740 -0.1092  0.2135 -1.1711
 3709SOL    HW222587   2.282   2.452   0.749  1.4433 -2.0292 -0.4317
 3710SOL     OW22588   3.709   3.975   7.022  0.5889  0.4364  0.1252
 3710SOL    HW122589   3.687   3.884   7.042  5.2047 -0.4774  1.1048
 3710SOL    HW222590   3.802   3.970   6.999  0.9940  0.0972  1.8519
 3711SOL     OW22591   3.985   0.424   1.107  0.3841  0.1013 -0.0407
 3711SOL    HW122592   4.025   0.365   1.172 -1.0799 -3.4138 -2.3388
 3711SOL    HW222593   4.048   0.496   1.115  0.2459  0.1368  0.7499
 3712SOL     OW22594   3.221   3.576   8.998 -0.2952 -0.3939 -0.3995
 3712SOL    HW122595   3.233   3.587   9.092  2.0029 -0.4882 -0.6727
 3712SOL    HW222596   3.297   3.528   8.965 -1.0148 -0.2208 -2.2890
 3713SOL     OW22597   2.546   1.378   8.581 -0.2127  0.7955 -0.0596
 3713SOL    HW122598   2.484   1.420   8.522 -2.4985 -1.8284  0.5033
 3713SOL    HW222599   2.592   1.322   8.519 -1.8265 -0.6661  0.0531
 3714SOL     OW22600   3.407   1.844   6.140  0.3989  0.1098  0.1070
 3714SOL    HW122601   3.433   1.826   6.049  2.3378 -0.5001  0.7966
 3714SOL    HW222602   3.414   1.757   6.177  1.2442  0.8766  1.7215
 3715SOL     OW22603   4.147   1.089  10.797  0.3073  1.0015  0.0998
 3715SOL    HW122604   4.218   1.125  10.849  1.0538 -2.5878  1.5908
 3715SOL    HW222605   4.076   1.149  10.819  0.4687  1.0911  0.3760
 3716SOL     OW22606   3.183   4.197   7.924 -0.1068 -0.1654  0.0015
 3716SOL    HW122607   3.104   4.250   7.916 -0.5951 -0.6769  1.5760
 3716SOL    HW222608   3.238   4.255   7.976  0.2793 -0.5692  0.0501
 3717SOL     OW22609   0.787   3.751   2.594  0.2851  0.2527  0.2779
 3717SOL    HW122610   0.704   3.744   2.641 -1.0661  1.2457 -1.9483
 3717SOL    HW222611   0.765   3.715   2.508 -1.2129  0.9840  0.3554
 3718SOL     OW22612   1.613   3.056   8.494 -0.2300 -0.0537 -0.1740
 3718SOL    HW122613   1.658   2.971   8.502 -1.1257 -0.5191 -0.1361
 3718SOL    HW222614   1.519   3.044   8.505 -0.2636  0.1703 -0.2392
 3719SOL     OW22615   4.105   4.246   3.752 -0.2991  0.4588 -0.2184
 3719SOL    HW122616   4.024   4.297   3.760 -0.5162  0.0103  0.4451
 3719SOL    HW222617   4.124   4.217   3.842 -0.4620  0.2031 -0.2669
 3720SOL     OW22618   4.213   4.081   9.030  0.4030 -0.3591  0.6701
 3720SOL    HW122619   4.138   4.078   9.089 -1.9916  2.5905 -2.2327
 3720SOL    HW222620   4.283   4.053   9.089  1.0957 -0.6712 -0.2791
 3721SOL     OW22621   2.291   3.151   9.445 -0.1499 -0.5401  0.1802
 3721SOL    HW122622   2.229   3.173   9.515  2.0856 -0.1650  2.0513
 3721SOL    HW222623   2.260   3.068   9.410  0.1408 -1.5806  2.4049
 3722SOL     OW22624   3.418   2.618   6.009 -0.1806 -0.6204 -0.4110
 3722SOL    HW122625   3.384   2.689   5.955 -0.6742 -0.2467  0.3912
 3722SOL    HW222626   3.429   2.667   6.090  0.0548  0.3392 -1.0259
 3723SOL     OW22627   2.480   2.416   8.600 -0.8188  0.2988  0.1575
 3723SOL    HW122628   2.564   2.375   8.584 -1.8871 -2.4533  1.6758
 3723SOL    HW222629   2.417   2.344   8.600  1.8533 -2.0010  2.4662
 3724SOL     OW22630   2.966   0.623   2.034  0.0990 -0.0154  0.2182
 3724SOL    HW122631   2.986   0.713   2.059 -1.4471 -0.4222  2.8502
 3724SOL    HW222632   2.916   0.597   2.111  0.2538  0.2465  0.4085
 3725SOL     OW22633   0.794   0.542   9.205  0.3969  0.2197  0.4332
 3725SOL    HW122634   0.750   0.614   9.250  1.4925  0.7214  0.6981
 3725SOL    HW222635   0.823   0.478   9.270  1.1896  0.1668  0.0346
 3726SOL     OW22636   1.888   1.965   6.917  0.1157 -0.2595 -0.2012
 3726SOL    HW122637   1.826   1.894   6.905 -1.8433  1.6947 -1.5082
 3726SOL    HW222638   1.977   1.929   6.912  1.4847  3.1943 -0.6734
 3727SOL     OW22639   3.695   3.344   5.804  0.3749 -0.1900 -0.0793
 3727SOL    HW122640   3.621   3.294   5.838 -0.3945  0.3250 -0.9797
 3727SOL    HW222641   3.729   3.381   5.885  0.3975  0.9653 -0.6093
 3728SOL     OW22642   1.666   3.585   1.857  0.0287  0.0362  0.0838
 3728SOL    HW122643   1.706   3.500   1.875 -0.3255 -0.3089 -0.7789
 3728SOL    HW222644   1.659   3.614   1.948 -1.0802 -0.9044  0.3092
 3729SOL     OW22645   0.216   1.220  14.482  0.2479 -0.5041  0.1755
 3729SOL    HW122646   0.293   1.248  14.432  0.7536 -0.2334  1.1063
 3729SOL    HW222647   0.261   1.170  14.550  0.1915 -0.4487  0.2520
 3730SOL     OW22648   1.018   4.365  17.586  0.3054 -0.1741 -0.0215
 3730SOL    HW122649   0.960   4.436  17.560  0.1978 -1.8201 -4.1850
 3730SOL    HW222650   1.103   4.407  17.570  1.7752 -2.5897  1.3909
 3731SOL     OW22651   2.177   4.168   8.595 -0.2218  1.3521  0.3878
 3731SOL    HW122652   2.094   4.179   8.548 -1.1363 -1.1035  1.3741
 3731SOL    HW222653   2.160   4.159   8.689 -1.7311  2.2145  0.1939
 3732SOL     OW22654   2.737   1.443   1.818 -0.2017  0.1759  0.1121
 3732SOL    HW122655   2.820   1.480   1.850  0.0115 -0.3428  0.1556
 3732SOL    HW222656   2.675   1.450   1.890 -0.6663 -1.4471 -0.1241
 3733SOL     OW22657   1.536   3.978  11.145 -0.7160 -0.2849  0.3481
 3733SOL    HW122658   1.519   3.903  11.201 -0.4874  0.1128  0.9604
 3733SOL    HW222659   1.536   4.055  11.203  2.7896  0.4662 -0.6477
 3734SOL     OW22660   1.464   3.205   6.214  0.1244  0.3868 -0.3804
 3734SOL    HW122661   1.413   3.216   6.295  0.0658  1.5970 -0.5723
 3734SOL    HW222662   1.549   3.225   6.253  1.5662 -0.7364 -3.0164
 3735SOL     OW22663   0.966   0.981   7.598 -0.2573  0.3437  0.1660
 3735SOL    HW122664   1.034   1.043   7.626  0.5996 -1.0104  1.0946
 3735SOL    HW222665   0.998   0.896   7.627  2.7117  1.4897  0.2497
 3736SOL     OW22666   1.352   2.450   6.755  0.5225 -0.5987  0.5617
 3736SOL    HW122667   1.348   2.489   6.668 -0.1961 -1.9111  0.0061
 3736SOL    HW222668   1.258   2.458   6.774  1.1696  2.1342  2.6160
 3737SOL     OW22669   1.209   0.699   8.949  0.2294 -0.5163 -0.2487
 3737SOL    HW122670   1.117   0.725   8.959 -0.2064 -1.8579 -0.6991
 3737SOL    HW222671   1.217   0.677   8.856 -0.8289  1.7758 -0.8986
 3738SOL     OW22672   4.082   2.446  11.406 -0.0645 -0.3476  0.1194
 3738SOL    HW122673   3.999   2.401  11.390  0.4625 -1.6910  1.1249
 3738SOL    HW222674   4.060   2.535  11.433 -0.4807  0.0106 -1.4283
 3739SOL     OW22675   4.258   3.201  13.149  0.2909  0.0728 -0.0183
 3739SOL    HW122676   4.252   3.107  13.168  3.7213  0.0789  0.9746
 3739SOL    HW222677   4.349   3.192  13.123  0.1019 -1.6679 -0.0745
 3740SOL     OW22678   2.988   1.774   3.580  0.6088 -0.3414  0.0077
 3740SOL    HW122679   3.017   1.684   3.568 -0.3164 -0.8956  1.9475
 3740SOL    HW222680   3.075   1.803   3.553  0.2410 -0.3292 -1.1660
 3741SOL     OW22681   4.204   4.210  12.657  0.1186 -0.1707 -0.1899
 3741SOL    HW122682   4.161   4.125  12.666  0.9490 -0.7097 -1.3548
 3741SOL    HW222683   4.294   4.199  12.627 -0.3825  0.6881 -1.9974
 3742SOL     OW22684   0.267   3.700  11.142 -0.2248  0.1822  0.1308
 3742SOL    HW122685   0.319   3.781  11.147  2.5767 -1.5036 -2.0777
 3742SOL    HW222686   0.179   3.740  11.142 -0.6895 -0.8529 -0.5651
 3743SOL     OW22687   1.535   3.583   8.071  0.3751 -0.9515  0.2683
 3743SOL    HW122688   1.599   3.559   8.138 -3.0376 -0.5453  3.6825
 3743SOL    HW222689   1.592   3.613   8.001 -1.4377 -1.6859 -1.5205
 3744SOL     OW22690   0.919   3.865   9.166  0.4896  0.2225 -0.1871
 3744SOL    HW122691   0.888   3.952   9.191 -1.2516 -0.7850  1.0983
 3744SOL    HW222692   0.877   3.828   9.243  1.6327 -0.9782 -0.1398
 3745SOL     OW22693   1.689   0.935   3.019  0.1623  0.0933  0.6126
 3745SOL    HW122694   1.627   0.918   2.947 -1.0689  0.8765  1.4787
 3745SOL    HW222695   1.732   0.851   3.032 -1.4911 -1.1329 -1.7776
 3746SOL     OW22696   0.222   2.666  16.374  0.4970 -0.3951 -0.3949
 3746SOL    HW122697   0.217   2.630  16.285  0.1744 -2.2209  0.3646
 3746SOL    HW222698   0.214   2.761  16.359  2.9137 -0.1657 -0.1754
 3747SOL     OW22699   3.989   2.253   6.739  0.4282  0.0937 -0.5667
 3747SOL    HW122700   3.948   2.293   6.662  2.3624  1.0210 -1.1106
 3747SOL    HW222701   3.990   2.158   6.728 -1.5543  0.0438 -0.3266
 3748SOL     OW22702   2.001   2.400  14.461  0.2679  0.1404 -0.4173
 3748SOL    HW122703   2.026   2.417  14.371  1.3722  0.2841 -0.0810
 3748SOL    HW222704   2.008   2.488  14.499  2.1991 -0.1981 -0.0003
 3749SOL     OW22705   4.064   0.328   0.094  0.0589 -0.5953 -0.5757
 3749SOL    HW122706   4.146   0.347   0.140 -0.2079  1.4980 -0.9612
 3749SOL    HW222707   4.045   0.235   0.103 -0.8124 -0.1928  1.6521
 3750SOL     OW22708   1.742   2.838   4.907 -0.6778 -0.0047 -0.5288
 3750SOL    HW122709   1.826   2.819   4.865 -0.1021 -1.9791  1.4413
 3750SOL    HW222710   1.700   2.752   4.904 -1.4942  0.3164  1.3472
 3751SOL     OW22711   3.349   3.435   6.620 -0.3489 -0.7216  0.3567
 3751SOL    HW122712   3.386   3.495   6.684 -0.7412 -0.2300  0.1262
 3751SOL    HW222713   3.357   3.489   6.541 -1.6383 -2.0218 -0.6861
 3752SOL     OW22714   1.769   3.061   3.771 -0.3790 -0.6481  0.8416
 3752SOL    HW122715   1.704   2.997   3.741 -0.3974 -0.0686 -0.3858
 3752SOL    HW222716   1.846   3.010   3.795  1.6130  2.0942  0.1932
 3753SOL     OW22717   0.618   1.102   4.700  0.2246  0.0591  0.2010
 3753SOL    HW122718   0.608   1.130   4.609  1.9195 -3.1710 -1.0112
 3753SOL    HW222719   0.552   1.152   4.747  0.3766  0.8563 -0.4405
 3754SOL     OW22720   4.536   1.946  10.319 -0.2887  0.1908  0.0069
 3754SOL    HW122721   4.604   1.998  10.276 -0.4310 -0.5583 -1.1270
 3754SOL    HW222722   4.577   1.867  10.355 -1.4325 -1.3043 -1.9402
 3755SOL     OW22723   0.843   0.223   6.413 -0.7080  0.2378  0.1699
 3755SOL    HW122724   0.924   0.252   6.456  0.9863 -3.3069 -0.6373
 3755SOL    HW222725   0.878   0.147   6.366 -1.5214 -0.2879  0.4098
 3756SOL     OW22726   3.871   0.706   5.899 -0.0260  0.2356  0.3944
 3756SOL    HW122727   3.944   0.720   5.960  0.1144  1.7267 -0.1276
 3756SOL    HW222728   3.814   0.781   5.917 -0.6888 -0.4148  1.0112
 3757SOL     OW22729   4.568   2.431  14.632  0.4444 -0.1798  0.3731
 3757SOL    HW122730   4.622   2.394  14.563  1.9516  0.3691  1.2721
 3757SOL    HW222731   4.601   2.378  14.704 -1.0808 -1.9710 -0.2385
 3758SOL     OW22732   3.856   3.380   9.535 -0.0376  0.2142  0.2024
 3758SOL    HW122733   3.773   3.354   9.494 -0.9416 -0.3521  2.3984
 3758SOL    HW222734   3.868   3.460   9.484  0.6399 -0.2957 -0.4263
 3759SOL     OW22735   0.395   2.698   7.332  0.4792  0.3218 -0.2092
 3759SOL    HW122736   0.358   2.618   7.370 -0.7830  1.2070  0.4083
 3759SOL    HW222737   0.486   2.701   7.361  0.8300 -0.7301 -1.2000
 3760SOL     OW22738   3.206   2.575   9.981 -0.0654  0.3892  0.0239
 3760SOL    HW122739   3.118   2.598  10.011  0.1759  1.9943 -0.4941
 3760SOL    HW222740   3.222   2.508  10.048  2.1220  0.1442 -0.7533
 3761SOL     OW22741   3.663   3.131   0.966 -0.1140  0.1026  0.3214
 3761SOL    HW122742   3.669   3.224   0.942  2.3476  0.0592  0.8185
 3761SOL    HW222743   3.735   3.117   1.028 -0.6841  1.5184  1.3092
 3762SOL     OW22744   0.741   2.612  11.916 -0.2809 -0.0232 -0.0360
 3762SOL    HW122745   0.679   2.685  11.913 -1.6996 -1.3273 -2.2605
 3762SOL    HW222746   0.685   2.535  11.919  0.8280 -0.8248  0.1768
 3763SOL     OW22747   4.119   1.978   5.070  0.0147  0.3627  0.0216
 3763SOL    HW122748   4.129   1.943   5.159 -2.3731 -0.7985 -0.1660
 3763SOL    HW222749   4.035   2.023   5.065 -0.3478 -0.1478  1.3976
 3764SOL     OW22750   3.970   1.773   3.480  0.2914 -0.6249 -0.2358
 3764SOL    HW122751   3.957   1.692   3.530  2.3564 -1.4274 -0.9964
 3764SOL    HW222752   3.888   1.783   3.432  0.6000  1.1776 -0.3656
 3765SOL     OW22753   1.444   3.822  11.352 -0.2013 -0.3042 -0.5461
 3765SOL    HW122754   1.423   3.798  11.442 -0.3455  2.1220  0.0596
 3765SOL    HW222755   1.536   3.848  11.359 -0.6615  1.2294 -0.1200
 3766SOL     OW22756   3.364   3.313   3.261  0.5979 -0.1182  0.5649
 3766SOL    HW122757   3.380   3.385   3.322  2.5993  0.9866 -1.2650
 3766SOL    HW222758   3.357   3.233   3.312 -0.1148 -0.1608  0.3925
 3767SOL     OW22759   1.355   1.049   6.964 -0.4998 -0.5782 -0.2517
 3767SOL    HW122760   1.284   1.028   7.025 -1.2646  1.4407 -0.4155
 3767SOL    HW222761   1.336   0.982   6.898  1.0123  0.5030 -1.7902
 3768SOL     OW22762   2.544   2.880   5.281 -0.0352 -0.1639 -0.2963
 3768SOL    HW122763   2.477   2.836   5.334 -0.3541 -0.0860 -0.6354
 3768SOL    HW222764   2.545   2.970   5.314 -1.0931 -0.5654  0.8175
 3769SOL     OW22765   1.030   3.582   8.275  0.0794 -0.1438  0.1071
 3769SOL    HW122766   0.962   3.592   8.341 -0.6340 -0.7157 -0.5496
 3769SOL    HW222767   0.986   3.641   8.215  1.3732  1.6653  0.9444
 3770SOL     OW22768   1.499   0.288   8.423  0.1693 -0.4324  0.3961
 3770SOL    HW122769   1.437   0.323   8.360 -0.2766  0.1367  1.1467
 3770SOL    HW222770   1.453   0.210   8.455  0.6672 -0.7663  0.3026
 3771SOL     OW22771   2.839   4.114   6.063 -0.4490 -0.6845  0.0988
 3771SOL    HW122772   2.824   4.158   6.146 -0.4972 -0.9930  0.2520
 3771SOL    HW222773   2.876   4.033   6.096  1.8219  0.4171  0.2966
 3772SOL     OW22774   1.378   3.858   7.713 -0.3117 -0.0681 -0.1099
 3772SOL    HW122775   1.298   3.807   7.722 -1.8293  2.2214 -0.5804
 3772SOL    HW222776   1.373   3.879   7.620 -0.4277 -0.5562 -0.2101
 3773SOL     OW22777   0.757   3.522  11.166 -0.2831  0.8420  0.5563
 3773SOL    HW122778   0.725   3.434  11.144  0.4460  0.8095 -0.3771
 3773SOL    HW222779   0.675   3.563  11.193  0.1425  1.6893  0.5483
 3774SOL     OW22780   3.128   0.456   7.809 -0.1051 -0.4018 -0.1451
 3774SOL    HW122781   3.087   0.389   7.864 -1.4553 -0.4103 -1.1652
 3774SOL    HW222782   3.219   0.450   7.840 -0.6385 -1.1939  1.2630
 3775SOL     OW22783   2.164   2.170   7.027  0.2653  0.0167 -0.1259
 3775SOL    HW122784   2.248   2.133   7.056  0.0557 -0.9995 -0.7998
 3775SOL    HW222785   2.122   2.088   7.000  1.8152 -1.1092  0.8475
 3776SOL     OW22786   2.380   0.194   9.166  0.2911  0.3120  0.1612
 3776SOL    HW122787   2.422   0.182   9.251 -2.0550 -0.1371  1.2735
 3776SOL    HW222788   2.330   0.275   9.176 -2.9719 -2.0590  3.2752
 3777SOL     OW22789   3.854   1.061   9.149 -0.8177  0.3169 -0.4727
 3777SOL    HW122790   3.791   0.991   9.166 -1.6020  1.2304  0.3613
 3777SOL    HW222791   3.816   1.087   9.064 -1.1829  0.3288 -0.3068
 3778SOL     OW22792   1.584   1.750   2.390  0.0960  0.2975  0.4633
 3778SOL    HW122793   1.613   1.798   2.468 -2.2401 -0.6990  1.9676
 3778SOL    HW222794   1.488   1.754   2.396  0.1875  1.5693  1.0702
 3779SOL     OW22795   4.219   3.377   3.401 -0.0993  0.3548 -0.6277
 3779SOL    HW122796   4.287   3.405   3.339  0.8796 -0.7175 -0.0330
 3779SOL    HW222797   4.211   3.464   3.439  0.6204  0.3656 -0.5017
 3780SOL     OW22798   4.483   0.294  12.664 -0.1639  0.8853  0.3734
 3780SOL    HW122799   4.561   0.240  12.648 -1.9748 -1.5466 -0.2729
 3780SOL    HW222800   4.461   0.327  12.577 -1.8603  0.1050  0.5153
 3781SOL     OW22801   0.148   4.712   7.210  0.6520 -0.3599  0.5241
 3781SOL    HW122802   0.108   4.625   7.221 -0.9050  0.6979  3.3012
 3781SOL    HW222803   0.206   4.708   7.134  0.2278 -1.4649  0.2616
 3782SOL     OW22804   3.932   0.620   5.653 -0.7002  0.4282 -0.4971
 3782SOL    HW122805   3.893   0.636   5.739 -1.8814 -1.1587 -0.7274
 3782SOL    HW222806   4.011   0.674   5.654  0.3555 -1.0770 -2.4914
 3783SOL     OW22807   4.639   1.746  15.691 -0.2959 -0.7580  0.4286
 3783SOL    HW122808   4.665   1.782  15.776 -0.2401 -1.8245  0.8694
 3783SOL    HW222809   4.724   1.749  15.647 -0.2620 -0.7838  0.4908
 3784SOL     OW22810   1.430   1.356   6.570  0.3117 -0.0691  0.0999
 3784SOL    HW122811   1.385   1.441   6.573  0.0322 -0.2002 -0.3314
 3784SOL    HW222812   1.421   1.325   6.660  1.7833 -0.7992  0.0010
 3785SOL     OW22813   0.783   1.574  15.698  0.1232 -0.0143  0.2503
 3785SOL    HW122814   0.704   1.531  15.730  0.0227 -0.8724 -1.1361
 3785SOL    HW222815   0.761   1.667  15.705  0.6363  0.1150  0.1986
 3786SOL     OW22816   3.452   3.324   0.847 -0.0048  0.1395  0.4447
 3786SOL    HW122817   3.506   3.330   0.769  0.1146 -0.9994  0.4437
 3786SOL    HW222818   3.371   3.328   0.796 -0.1237  0.9190  0.6896
 3787SOL     OW22819   3.730   1.107   3.231 -0.5564 -0.6461 -0.0136
 3787SOL    HW122820   3.787   1.041   3.190 -2.9506 -4.3380  2.5817
 3787SOL    HW222821   3.697   1.158   3.157 -3.1548 -1.7811  0.3835
 3788SOL     OW22822   2.056   2.089   0.721  0.7449 -0.3799  0.0666
 3788SOL    HW122823   2.016   2.100   0.634  1.9495  0.7071 -0.3525
 3788SOL    HW222824   1.984   2.059   0.776  0.4589  0.5175  0.1837
 3789SOL     OW22825   3.635   3.357   1.158  0.2338  0.1803 -0.5362
 3789SOL    HW122826   3.722   3.357   1.196  0.0206 -1.0824 -0.0752
 3789SOL    HW222827   3.614   3.451   1.162 -0.5573  0.0018 -0.4708
 3790SOL     OW22828   0.007   4.155   3.416  0.0337 -0.0087  0.0832
 3790SOL    HW122829   0.097   4.175   3.392  0.5605 -0.3718  1.7221
 3790SOL    HW222830   4.721   4.217   3.489 -0.2728  0.5270 -0.4144
 3791SOL     OW22831   0.454   1.378   3.662 -0.4072 -0.7916 -0.2162
 3791SOL    HW122832   0.500   1.402   3.581  1.1084 -0.4000  0.7699
 3791SOL    HW222833   0.534   1.359   3.709 -1.3055  0.8776  1.9734
 3792SOL     OW22834   3.918   3.922   8.407 -0.0361 -0.6761 -0.6272
 3792SOL    HW122835   3.897   4.015   8.413 -0.2874 -0.8945  1.8338
 3792SOL    HW222836   3.973   3.909   8.484 -0.8769 -0.0957  0.0621
 3793SOL     OW22837   3.390   0.064  11.734 -0.0613 -0.1017  0.1267
 3793SOL    HW122838   3.467   0.114  11.705 -0.1832  1.0742  1.8097
 3793SOL    HW222839   3.429   4.715  11.782 -0.9719  0.6119  1.9209
 3794SOL     OW22840   2.887   2.396   9.127  0.5166  0.2087  0.2260
 3794SOL    HW122841   2.955   2.420   9.064  2.5028 -0.1426  2.2203
 3794SOL    HW222842   2.935   2.419   9.207 -0.7367 -1.4956  1.4659
 3795SOL     OW22843   2.376   2.446   3.893  0.0762 -0.1743 -0.5117
 3795SOL    HW122844   2.430   2.525   3.894  0.3085 -0.3386 -0.1350
 3795SOL    HW222845   2.424   2.403   3.964  1.2098  0.1445 -1.0904
 3796SOL     OW22846   2.887   4.079   3.576  0.2749 -0.1417 -0.0907
 3796SOL    HW122847   2.866   4.167   3.545  0.5033  0.6850  2.0726
 3796SOL    HW222848   2.953   4.048   3.514  1.4417  1.7985  0.1819
 3797SOL     OW22849   0.054   2.129  10.291 -0.3447  0.9756  0.0396
 3797SOL    HW122850   0.035   2.223  10.285 -1.3942  0.8398  1.4037
 3797SOL    HW222851   0.106   2.123  10.371  0.9671  0.2209 -0.8625
 3798SOL     OW22852   0.617   1.507   3.458 -0.0758  0.6455  0.2310
 3798SOL    HW122853   0.647   1.584   3.411  1.6308 -0.7519 -0.9613
 3798SOL    HW222854   0.689   1.446   3.443 -1.0654 -0.4934  0.0976
 3799SOL     OW22855   4.011   4.278  13.069 -0.3632 -0.3836 -0.0260
 3799SOL    HW122856   4.085   4.306  13.015 -2.2807  0.4810 -2.1825
 3799SOL    HW222857   3.962   4.220  13.010 -2.2106  2.2599 -1.1023
 3800SOL     OW22858   0.868   1.141   3.034  0.3958 -1.0109 -0.8649
 3800SOL    HW122859   0.921   1.220   3.043 -1.0232 -0.1728  0.0882
 3800SOL    HW222860   0.879   1.123   2.940  2.2480 -2.2086 -0.4229
 3801SOL     OW22861   2.957   3.823   6.885 -0.2009  0.2452  0.0219
 3801SOL    HW122862   2.885   3.865   6.839  0.5757 -1.2327 -2.5812
 3801SOL    HW222863   2.962   3.877   6.963  0.7943  0.3606 -0.1104
 3802SOL     OW22864   2.154   3.609   8.717  0.0791  0.1712 -0.1342
 3802SOL    HW122865   2.163   3.614   8.812 -0.3169  1.3631 -0.1624
 3802SOL    HW222866   2.062   3.582   8.713  0.1661 -0.1314 -0.0656
 3803SOL     OW22867   4.138   4.563   8.657 -0.0725  0.3994 -0.1475
 3803SOL    HW122868   4.193   4.486   8.640 -0.6677  0.1120 -0.7966
 3803SOL    HW222869   4.106   4.553   8.747 -1.0251 -1.3148 -0.6768
 3804SOL     OW22870   2.300   1.191  10.488 -0.7890  0.4051  0.1454
 3804SOL    HW122871   2.298   1.287  10.480  0.9968  0.5353  1.1801
 3804SOL    HW222872   2.230   1.179  10.552 -0.3381  0.3829  0.6352
 3805SOL     OW22873   0.458   0.053   3.883  0.2596  0.0329 -0.8649
 3805SOL    HW122874   0.525   0.115   3.855  0.5851  0.9986  2.0288
 3805SOL    HW222875   0.506   4.699   3.857  0.3229  0.4816 -2.0962
 3806SOL     OW22876   3.129   0.788   8.510  0.1278 -0.0795  0.2572
 3806SOL    HW122877   3.118   0.869   8.459  1.7979  0.3080  0.5038
 3806SOL    HW222878   3.053   0.745   8.471 -0.2731 -0.2853  1.2563
 3807SOL     OW22879   1.929   4.705   4.456  0.2876 -0.2606 -0.2084
 3807SOL    HW122880   2.021   4.677   4.460  0.3316 -0.3600 -1.8454
 3807SOL    HW222881   1.904   4.692   4.364 -0.1930 -1.1572  0.0508
 3808SOL     OW22882   3.839   1.465   5.975  0.0396 -0.2771  0.0855
 3808SOL    HW122883   3.927   1.472   6.013 -0.6309  1.0776  1.3817
 3808SOL    HW222884   3.854   1.415   5.895  1.5611  0.7199 -0.2577
 3809SOL     OW22885   3.198   0.222   5.428  0.0260 -0.1360 -0.1420
 3809SOL    HW122886   3.281   0.235   5.472  0.4889 -1.9830 -0.4557
 3809SOL    HW222887   3.150   0.202   5.509 -0.5559  0.1999 -0.4021
 3810SOL     OW22888   3.549   3.510  11.086  0.0474  0.1192  0.2398
 3810SOL    HW122889   3.528   3.539  11.175  0.8092 -1.1155  0.8191
 3810SOL    HW222890   3.468   3.461  11.071  0.1028 -0.0930  0.6439
 3811SOL     OW22891   0.512   2.388   4.366  0.3769  0.3489 -0.3963
 3811SOL    HW122892   0.434   2.441   4.382 -0.4041 -0.4082 -1.7698
 3811SOL    HW222893   0.475   2.329   4.301  0.6912 -0.3833  0.0874
 3812SOL     OW22894   0.686   1.782   9.769 -0.2672  0.0803 -0.0146
 3812SOL    HW122895   0.739   1.855   9.736 -1.4527  1.6209  1.4567
 3812SOL    HW222896   0.756   1.717   9.775  2.1188  2.4688 -1.9474
 3813SOL     OW22897   3.670   3.616  13.343  0.2318 -0.1938 -0.5450
 3813SOL    HW122898   3.680   3.712  13.342  0.9453 -0.2538  0.8310
 3813SOL    HW222899   3.577   3.600  13.354 -0.1870  2.4626 -0.0667
 3814SOL     OW22900   2.109   2.461   0.510  0.1878 -0.2915 -0.1537
 3814SOL    HW122901   2.183   2.418   0.555 -1.1283  0.0155  2.3125
 3814SOL    HW222902   2.141   2.552   0.510  0.5850 -0.4371 -1.2074
 3815SOL     OW22903   0.784   1.583   5.820 -0.2395  0.3782 -0.3878
 3815SOL    HW122904   0.803   1.538   5.901 -0.0160  1.8861  0.4048
 3815SOL    HW222905   0.689   1.572   5.814 -0.4155  0.7072  1.8441
 3816SOL     OW22906   4.491   4.271   4.750  0.3720  0.0118  0.1726
 3816SOL    HW122907   4.463   4.260   4.841 -5.0595  2.1545 -1.2683
 3816SOL    HW222908   4.420   4.332   4.732  0.0723 -0.2159  0.5914
 3817SOL     OW22909   0.536   4.415   4.824 -0.0054 -0.1957 -0.2955
 3817SOL    HW122910   0.442   4.432   4.835 -0.0823 -0.1241 -1.0904
 3817SOL    HW222911   0.556   4.331   4.866 -0.7692  0.8075  2.0824
 3818SOL     OW22912   1.591   3.628   7.804 -0.6285  0.4676 -0.1678
 3818SOL    HW122913   1.549   3.712   7.783 -2.5289 -0.2581  0.7118
 3818SOL    HW222914   1.521   3.563   7.805 -1.9631  1.9500  2.4653
 3819SOL     OW22915   2.961   4.306   4.129  0.4734  0.4746  0.1603
 3819SOL    HW122916   2.927   4.331   4.042  2.1996  0.2088 -0.5796
 3819SOL    HW222917   3.038   4.361   4.138  0.1412  0.7541  1.2351
 3820SOL     OW22918   3.508   4.446   3.421  0.4716  0.2814 -0.5485
 3820SOL    HW122919   3.433   4.433   3.478  0.7222 -0.5077 -0.3978
 3820SOL    HW222920   3.483   4.405   3.339  0.4055  0.3964 -0.5861
 3821SOL     OW22921   0.134   2.975  11.221  0.6367  0.3644 -0.5888
 3821SOL    HW122922   0.150   3.045  11.158  0.3134  0.8736 -0.1112
 3821SOL    HW222923   0.221   2.957  11.256  0.4072 -0.8197 -0.6484
 3822SOL     OW22924   1.120   0.053   2.995 -0.0852 -0.7422 -0.0578
 3822SOL    HW122925   1.098   4.699   3.045 -1.9837 -1.0119 -1.3035
 3822SOL    HW222926   1.028   0.080   2.984 -0.2710 -0.3260  2.3925
 3823SOL     OW22927   4.490   1.221   3.043  0.1146 -0.1501  0.0277
 3823SOL    HW122928   4.566   1.168   3.019  2.2271  3.5008 -1.1934
 3823SOL    HW222929   4.421   1.157   3.062  0.2730 -0.5349 -0.6897
 3824SOL     OW22930   1.206   1.927  11.139 -0.5698  0.4046  0.5028
 3824SOL    HW122931   1.281   1.986  11.139  0.8733 -1.4625 -0.6905
 3824SOL    HW222932   1.230   1.873  11.064  0.9692  1.0117  0.5642
 3825SOL     OW22933   1.939   4.346   1.592  0.4864  0.0958  0.1262
 3825SOL    HW122934   1.886   4.329   1.514  0.5232 -1.8079  0.5168
 3825SOL    HW222935   1.895   4.288   1.655 -1.6258  0.6681 -0.8135
 3826SOL     OW22936   0.510   4.241   6.774  0.0261  0.3433  0.0206
 3826SOL    HW122937   0.415   4.236   6.789 -0.0115 -0.3812 -0.4324
 3826SOL    HW222938   0.523   4.163   6.720  1.3302  1.2987 -1.0500
 3827SOL     OW22939   2.224   0.585   8.891  0.2071  0.5807  0.4372
 3827SOL    HW122940   2.168   0.509   8.876 -1.1024  1.3365  1.4473
 3827SOL    HW222941   2.227   0.624   8.804 -1.1917  0.2159  0.2311
 3828SOL     OW22942   2.407   4.011  13.903  0.5659 -0.2093 -0.3837
 3828SOL    HW122943   2.438   3.920  13.903  2.2555  0.3638  1.0374
 3828SOL    HW222944   2.408   4.042  13.993 -0.1490 -2.1750  0.2977
 3829SOL     OW22945   0.524   3.689   8.214  0.2708 -0.3891  0.4192
 3829SOL    HW122946   0.549   3.642   8.294  0.6139  0.4759  0.8192
 3829SOL    HW222947   0.612   3.715   8.187 -0.5019  0.3432 -1.3328
 3830SOL     OW22948   4.138   1.688   7.494  0.1319  0.2954  0.3135
 3830SOL    HW122949   4.084   1.748   7.443  0.9892 -0.4665 -1.5056
 3830SOL    HW222950   4.096   1.697   7.579 -0.6268  2.3835 -0.2900
 3831SOL     OW22951   2.525   0.736   8.989 -0.1569  0.0504  0.0672
 3831SOL    HW122952   2.596   0.695   8.939 -0.2765  0.1710 -0.2021
 3831SOL    HW222953   2.504   0.817   8.942 -1.2278 -1.0887 -1.3923
 3832SOL     OW22954   1.579   1.232   7.565  0.0068 -0.0291 -0.0274
 3832SOL    HW122955   1.523   1.276   7.629  0.6940 -0.6527  0.9883
 3832SOL    HW222956   1.618   1.170   7.627  1.3412  0.5661 -0.2898
 3833SOL     OW22957   2.697   3.842   4.343 -0.1407 -0.3577  0.2799
 3833SOL    HW122958   2.611   3.841   4.386  0.3839 -1.1079  1.3179
 3833SOL    HW222959   2.689   3.932   4.311  0.9430 -0.2262  0.3957
 3834SOL     OW22960   2.947   3.963   7.114  0.0933  0.1038 -0.0151
 3834SOL    HW122961   2.943   4.051   7.076  2.0569 -0.2003 -0.9517
 3834SOL    HW222962   2.929   3.985   7.205 -0.0165  3.3746 -0.8081
 3835SOL     OW22963   2.357   0.317  10.408  0.0207 -0.1142  0.0633
 3835SOL    HW122964   2.382   0.385  10.470 -0.3617  0.7755 -0.7465
 3835SOL    HW222965   2.271   0.294  10.443 -0.9326  1.3198 -1.2687
 3836SOL     OW22966   3.648   4.716  13.691 -0.1699  0.1202  0.1324
 3836SOL    HW122967   3.657   0.006  13.597 -0.1323  1.1998  0.2979
 3836SOL    HW222968   3.594   4.637  13.695  1.4617 -1.0782 -1.7998
 3837SOL     OW22969   2.456   0.627  15.879  0.6931 -0.5140 -0.1846
 3837SOL    HW122970   2.444   0.715  15.845 -0.8442 -0.3459  0.8170
 3837SOL    HW222971   2.550   0.620  15.896  0.4690 -1.9545  0.4663
 3838SOL     OW22972   0.765   4.237   7.824 -0.3755 -0.4958  0.0945
 3838SOL    HW122973   0.804   4.309   7.875  1.4091 -0.9960 -0.5723
 3838SOL    HW222974   0.839   4.195   7.781 -0.1924 -1.0760  0.9702
 3839SOL     OW22975   2.810   2.950   9.834  0.7505  0.2949 -0.6600
 3839SOL    HW122976   2.808   3.024   9.774 -0.4511  0.3281 -0.5924
 3839SOL    HW222977   2.756   2.983   9.906 -0.7823  0.7262 -1.9835
 3840SOL     OW22978   2.184   3.822   5.343 -0.2879 -0.1077  0.5333
 3840SOL    HW122979   2.179   3.871   5.425 -0.5763  2.6648 -1.1817
 3840SOL    HW222980   2.165   3.888   5.277 -0.1802 -2.9049 -2.2879
 3841SOL     OW22981   2.861   1.118  10.285 -0.3761 -0.7788  0.4939
 3841SOL    HW122982   2.897   1.205  10.266 -0.4411 -0.3170  2.4963
 3841SOL    HW222983   2.903   1.067  10.216  0.2327 -1.0553  1.0691
 3842SOL     OW22984   3.030   4.584  15.127 -0.3732 -0.4806  0.1087
 3842SOL    HW122985   2.967   4.541  15.184 -0.7447  0.9361  0.7669
 3842SOL    HW222986   3.014   4.542  15.042 -1.2148  0.2292 -0.0882
 3843SOL     OW22987   2.930   2.077   7.633  0.0309 -0.1911  0.3629
 3843SOL    HW122988   2.953   2.088   7.725 -2.2634  1.1152  0.7860
 3843SOL    HW222989   2.984   2.003   7.605  0.6780  0.1550  0.6934
 3844SOL     OW22990   0.835   1.012   4.557 -0.2724  0.0579 -0.3023
 3844SOL    HW122991   0.902   1.048   4.615 -1.0995  0.3904  0.4359
 3844SOL    HW222992   0.764   1.008   4.620  0.4663  0.9538  0.5780
 3845SOL     OW22993   2.019   0.030  16.865  1.1176 -0.2013  0.0556
 3845SOL    HW122994   2.007   0.125  16.874 -1.3377 -0.4839 -0.2319
 3845SOL    HW222995   2.114   0.030  16.862  1.0956 -2.2240 -0.8836
 3846SOL     OW22996   0.213   3.948   0.536  0.3775  0.5337 -0.0157
 3846SOL    HW122997   0.279   3.980   0.597  1.9204  1.8159 -2.3437
 3846SOL    HW222998   0.248   3.958   0.448 -0.9723 -1.5240 -0.7794
 3847SOL     OW22999   4.285   0.389   4.998  0.3784  0.0526  0.3036
 3847SOL    HW123000   4.216   0.444   5.036 -1.7372 -2.4540  0.0563
 3847SOL    HW223001   4.243   0.303   4.996  2.3825 -0.9294  0.2466
 3848SOL     OW23002   3.401   2.610   3.121 -0.0239  0.3903 -0.1354
 3848SOL    HW123003   3.438   2.525   3.098 -0.3254 -0.4160  2.3126
 3848SOL    HW223004   3.309   2.591   3.101 -0.7343  1.6474  1.9224
 3849SOL     OW23005   3.030   1.394   2.886 -0.4163 -0.0922  0.2762
 3849SOL    HW123006   2.988   1.472   2.851  0.8702 -0.2279 -1.5781
 3849SOL    HW223007   3.095   1.434   2.944 -0.0702 -0.9827  0.5096
 3850SOL     OW23008   0.792   1.791   7.718 -0.7453 -0.0971 -0.1629
 3850SOL    HW123009   0.782   1.701   7.750 -2.7105  0.9571  2.1967
 3850SOL    HW223010   0.854   1.771   7.648  2.2706  0.1786  2.4676
 3851SOL     OW23011   1.052   4.719  17.698  0.4527 -0.2194  0.4744
 3851SOL    HW123012   1.087   0.055   0.065  1.2121 -0.8841  0.6806
 3851SOL    HW223013   1.093   4.637   0.027  0.7481 -0.3620 -0.3734
 3852SOL     OW23014   2.821   0.510   6.706 -0.0241  0.7329 -0.7711
 3852SOL    HW123015   2.742   0.498   6.653 -0.0720 -0.6737 -0.3653
 3852SOL    HW223016   2.844   0.420   6.729 -2.8420  0.0133 -0.7777
 3853SOL     OW23017   4.042   3.814   7.298 -0.1394  0.1025  0.4248
 3853SOL    HW123018   4.039   3.811   7.394 -0.2423 -0.7145  0.3907
 3853SOL    HW223019   4.130   3.853   7.292  0.5043 -1.0716  2.1128
 3854SOL     OW23020   2.694   4.310   2.494 -0.1535 -0.5486 -0.1959
 3854SOL    HW123021   2.709   4.225   2.451  0.9050 -0.4202 -0.0868
 3854SOL    HW223022   2.648   4.357   2.425  1.1596 -1.4408 -1.6999
 3855SOL     OW23023   1.649   4.276  15.585 -0.3326  0.0172 -0.3902
 3855SOL    HW123024   1.617   4.199  15.538 -1.3302  1.8980 -2.8124
 3855SOL    HW223025   1.588   4.338  15.543 -2.1406 -1.2023  0.4367
 3856SOL     OW23026   4.721   4.208   6.650  0.0691  0.2810 -0.1109
 3856SOL    HW123027   4.712   4.297   6.618  0.4283  0.2070 -0.4166
 3856SOL    HW223028   0.002   4.163   6.566  2.4889  2.4788 -1.0955
 3857SOL     OW23029   4.026   0.594  15.018  0.0595  0.0912  0.5180
 3857SOL    HW123030   4.060   0.566  15.102  0.5245  1.0311  0.6333
 3857SOL    HW223031   4.031   0.508  14.977  2.5028  1.0602 -1.1865
 3858SOL     OW23032   3.809   0.284   6.959  0.3748 -0.1370 -0.4296
 3858SOL    HW123033   3.740   0.243   6.906 -1.6304 -0.8987  2.7927
 3858SOL    HW223034   3.765   0.366   6.980  1.8664  0.5099  0.2010
 3859SOL     OW23035   0.147   1.929   8.077 -0.1703  0.1304  0.6354
 3859SOL    HW123036   0.062   1.893   8.099 -0.1553 -0.0320  0.4214
 3859SOL    HW223037   0.189   1.879   8.147  0.9896 -1.9774 -1.5685
 3860SOL     OW23038   4.235   0.832  10.828 -0.1531  0.1726  0.0533
 3860SOL    HW123039   4.243   0.829  10.923  1.6800 -0.1750 -0.1049
 3860SOL    HW223040   4.216   0.924  10.813 -1.5655  0.0181  0.9188
 3861SOL     OW23041   0.210   4.210   7.607  0.0028  0.5248  0.3953
 3861SOL    HW123042   0.139   4.226   7.544  0.4091 -0.9037 -0.4283
 3861SOL    HW223043   0.168   4.238   7.688 -2.8029  1.7927 -1.5067
 3862SOL     OW23044   2.941   2.511  13.305 -0.2890 -0.3928  0.1900
 3862SOL    HW123045   2.887   2.449  13.353 -0.0314 -0.4002  0.4686
 3862SOL    HW223046   2.933   2.484  13.213 -2.6214  3.1395 -0.6640
 3863SOL     OW23047   2.031   3.679   8.066 -0.6087  0.1856  0.5739
 3863SOL    HW123048   2.047   3.601   8.119 -0.8239  1.2863  2.2833
 3863SOL    HW223049   2.082   3.657   7.988 -0.4416  0.7208  0.5297
 3864SOL     OW23050   1.571   4.239   4.769 -0.2380 -0.1380  0.3616
 3864SOL    HW123051   1.648   4.201   4.727 -1.0273 -0.1907 -1.0503
 3864SOL    HW223052   1.613   4.283   4.843 -0.4970 -0.9899  1.0230
 3865SOL     OW23053   0.675   2.381  16.675  0.2451  0.1789  0.0274
 3865SOL    HW123054   0.761   2.340  16.686 -0.2492 -0.8292  0.2009
 3865SOL    HW223055   0.696   2.472  16.657 -1.4726  0.7466  0.8711
 3866SOL     OW23056   1.719   3.297   8.722  0.0641  0.1851  0.3253
 3866SOL    HW123057   1.709   3.316   8.815  0.3926  0.4527  0.3037
 3866SOL    HW223058   1.716   3.201   8.715  1.1887  0.2142 -0.4397
 3867SOL     OW23059   4.568   1.231   5.863 -0.1785  0.0787  0.3064
 3867SOL    HW123060   4.473   1.228   5.864 -0.2538  2.4586 -0.8647
 3867SOL    HW223061   4.582   1.306   5.920  1.0018  0.4539 -0.4735
 3868SOL     OW23062   3.827   4.510  11.081 -0.2085  0.1176  0.2631
 3868SOL    HW123063   3.884   4.532  11.007  0.2306 -1.8861 -0.0007
 3868SOL    HW223064   3.872   4.550  11.156  0.8123  0.7159 -0.6704
 3869SOL     OW23065   2.159   4.399  15.388  0.4384  0.2444 -0.1728
 3869SOL    HW123066   2.197   4.440  15.309  1.0045 -1.0244 -0.5520
 3869SOL    HW223067   2.231   4.409  15.451  1.0687  2.4428 -1.2080
 3870SOL     OW23068   0.475   2.463  12.560  0.5921 -0.4257 -0.4131
 3870SOL    HW123069   0.389   2.439  12.524  0.8792 -1.8131 -0.1513
 3870SOL    HW223070   0.438   2.531  12.617  2.7768  0.1612  0.2960
 3871SOL     OW23071   3.490   3.517   6.083 -0.0077  0.7655 -0.7432
 3871SOL    HW123072   3.455   3.542   5.998 -0.7194  1.3553 -0.2807
 3871SOL    HW223073   3.419   3.463   6.117 -0.2016  0.7669 -1.1492
 3872SOL     OW23074   4.299   0.631   6.380  0.7236 -0.3306 -0.1597
 3872SOL    HW123075   4.234   0.560   6.385  1.9723 -1.4055  0.9934
 3872SOL    HW223076   4.288   0.660   6.290  0.1793 -0.9199 -0.2883
 3873SOL     OW23077   1.540   1.454   5.329  0.0803  0.1360  0.1965
 3873SOL    HW123078   1.587   1.377   5.359  0.3887  0.5644  0.8281
 3873SOL    HW223079   1.515   1.427   5.241 -1.2619  2.3405 -0.1040
 3874SOL     OW23080   3.966   3.999   2.572 -0.3783  0.6240 -0.3514
 3874SOL    HW123081   3.898   4.049   2.526  0.8113  0.6369 -2.1074
 3874SOL    HW223082   4.048   4.046   2.560  0.2742 -1.0012 -2.2729
 3875SOL     OW23083   1.497   0.480   9.091 -0.6770  0.2687 -0.8183
 3875SOL    HW123084   1.512   0.385   9.095  0.2179  0.4712  0.4279
 3875SOL    HW223085   1.513   0.501   8.999 -1.8815 -0.9412 -1.3201
 3876SOL     OW23086   1.894   0.862   5.206 -0.2533 -0.5927  0.7129
 3876SOL    HW123087   1.889   0.957   5.191  1.4850 -1.0482 -2.7322
 3876SOL    HW223088   1.850   0.855   5.291 -0.4645  0.7429  0.7165
 3877SOL     OW23089   1.351   1.599   6.551  0.2182  0.1827 -0.0588
 3877SOL    HW123090   1.332   1.671   6.611  1.3538  0.7120 -0.3458
 3877SOL    HW223091   1.331   1.642   6.469 -2.8512 -2.0052 -0.4746
 3878SOL     OW23092   4.048   2.126   2.940 -0.2695  0.8575 -0.3663
 3878SOL    HW123093   3.974   2.177   2.907  0.8734  1.7837 -1.5057
 3878SOL    HW223094   4.006   2.062   2.997 -0.3702  1.5815  0.3759
 3879SOL     OW23095   3.137   1.966   2.567 -0.0036 -0.5286 -0.5477
 3879SOL    HW123096   3.074   1.897   2.588 -0.6887  0.0226 -0.7573
 3879SOL    HW223097   3.124   2.017   2.647  1.6777  1.3299 -1.4735
 3880SOL     OW23098   3.903   3.848  16.793 -0.4595  0.0413  0.3742
 3880SOL    HW123099   3.952   3.895  16.726 -3.3280  2.4873 -0.0467
 3880SOL    HW223100   3.867   3.921  16.844 -0.7420  0.9881 -1.1761
 3881SOL     OW23101   4.196   3.827   5.043 -0.3196  0.9517  0.7098
 3881SOL    HW123102   4.148   3.765   4.988 -1.8123  2.3459  0.4305
 3881SOL    HW223103   4.144   3.835   5.123 -1.7555  1.7772 -0.2833
 3882SOL     OW23104   0.551   0.004  11.941  0.0796 -0.2396  0.2624
 3882SOL    HW123105   0.598   4.706  12.021  1.6868  0.0671 -0.5970
 3882SOL    HW223106   0.465   0.003  11.983  0.0665  1.2542  0.2911
 3883SOL     OW23107   4.498   3.399   3.631 -0.6608 -0.3820  0.2850
 3883SOL    HW123108   4.557   3.343   3.682  0.9191 -1.1044 -2.2725
 3883SOL    HW223109   4.484   3.342   3.555 -0.4860 -0.2751  0.1722
 3884SOL     OW23110   1.788   1.397   7.866 -0.1045  0.7636 -0.0579
 3884SOL    HW123111   1.757   1.359   7.948  0.1801  0.6073 -0.0212
 3884SOL    HW223112   1.741   1.351   7.797  1.3320 -2.1875  0.8663
 3885SOL     OW23113   4.003   0.568   8.459  0.4675 -0.4513 -0.2800
 3885SOL    HW123114   4.082   0.622   8.466 -0.5560  0.8747  0.9649
 3885SOL    HW223115   4.037   0.479   8.467 -1.0144 -0.9331  0.5217
 3886SOL     OW23116   0.070   1.054  12.214 -0.1639  0.2441 -0.1051
 3886SOL    HW123117   0.066   1.137  12.261  1.1624 -0.0748  0.5682
 3886SOL    HW223118   0.159   1.068  12.182 -1.0694  5.0190 -0.5753
 3887SOL     OW23119   4.117   1.836  14.657  0.0498 -0.3545 -0.2757
 3887SOL    HW123120   4.099   1.900  14.588 -0.0149  0.2547  0.2987
 3887SOL    HW223121   4.194   1.875  14.699 -0.1879 -0.3574  0.1640
 3888SOL     OW23122   2.649   0.962   0.746  0.1700 -0.3904 -0.0017
 3888SOL    HW123123   2.724   1.022   0.736  2.7755 -3.5427  0.6270
 3888SOL    HW223124   2.579   1.011   0.788 -0.1280 -3.7209  3.3908
 3889SOL     OW23125   3.234   3.926   7.958  0.1995  0.3863  0.3818
 3889SOL    HW123126   3.302   3.920   7.891 -0.7829 -0.9319 -0.4918
 3889SOL    HW223127   3.215   4.020   7.957 -1.7625  0.0026  2.4875
 3890SOL     OW23128   4.001   4.286  15.283 -0.0014 -0.3914  0.1172
 3890SOL    HW123129   3.933   4.326  15.228  1.6464  4.3109  1.5375
 3890SOL    HW223130   3.971   4.195  15.282  0.2219 -0.4602 -0.5003
 3891SOL     OW23131   1.268   4.141  11.498 -0.3253  0.1827 -1.0056
 3891SOL    HW123132   1.188   4.170  11.455 -0.1266 -0.3285 -1.7367
 3891SOL    HW223133   1.243   4.048  11.496 -0.1546  0.1408 -1.2195
 3892SOL     OW23134   4.402   3.486   7.944  0.3832 -0.8351 -0.3543
 3892SOL    HW123135   4.364   3.502   7.858 -1.9936  0.0538  0.8573
 3892SOL    HW223136   4.407   3.578   7.972  0.0213 -0.6212 -0.9920
 3893SOL     OW23137   1.600   0.258   7.143 -0.0851 -0.0070 -0.1743
 3893SOL    HW123138   1.510   0.259   7.110 -0.1095 -3.6316 -0.2230
 3893SOL    HW223139   1.646   0.249   7.060 -1.1468  1.6512 -0.9241
 3894SOL     OW23140   0.947   0.820   3.218 -0.0722 -0.2559  0.6857
 3894SOL    HW123141   0.923   0.793   3.307  2.1410 -1.6231  0.8735
 3894SOL    HW223142   1.042   0.806   3.219  0.0641  0.6679  0.1971
 3895SOL     OW23143   2.011   2.877   4.798 -0.5046  0.2689 -0.3207
 3895SOL    HW123144   2.101   2.866   4.765 -0.7737 -1.7720 -0.3831
 3895SOL    HW223145   1.984   2.948   4.740  0.4198  1.6412  0.9181
 3896SOL     OW23146   3.077   2.397   6.929  0.1049 -0.6827  0.2526
 3896SOL    HW123147   3.116   2.449   7.000  0.0018  0.0944 -0.2664
 3896SOL    HW223148   3.082   2.460   6.858  1.8615  0.6538  1.5620
 3897SOL     OW23149   2.663   0.958   2.245  0.5686 -0.2188 -0.3108
 3897SOL    HW123150   2.730   0.981   2.180 -0.1150 -0.8508 -1.2330
 3897SOL    HW223151   2.597   0.925   2.184  0.6041  0.1761 -0.5667
 3898SOL     OW23152   3.664   3.312  15.460 -0.0306 -0.2996 -0.2172
 3898SOL    HW123153   3.657   3.226  15.502 -0.8115  0.6011  1.5251
 3898SOL    HW223154   3.578   3.325  15.419  0.0295  0.0365 -0.2384
 3899SOL     OW23155   1.932   2.252   2.617 -0.1804  0.0357  0.4344
 3899SOL    HW123156   2.012   2.204   2.596 -0.7815 -1.7444  2.1505
 3899SOL    HW223157   1.917   2.221   2.707  0.0705  1.4604  0.9680
 3900SOL     OW23158   3.898   1.675   7.199  0.6679  0.4903  0.6671
 3900SOL    HW123159   3.954   1.749   7.221  0.4012  0.9488 -0.1799
 3900SOL    HW223160   3.819   1.705   7.245  1.3380  0.9499  1.5106
 3901SOL     OW23161   1.567   1.393   8.704  0.1254  0.2506  0.3473
 3901SOL    HW123162   1.645   1.436   8.737 -1.3090  3.4032 -0.3742
 3901SOL    HW223163   1.571   1.427   8.615  2.0136  0.2196  0.4268
 3902SOL     OW23164   2.864   4.715   2.448 -0.1835  0.0431 -0.6645
 3902SOL    HW123165   2.945   4.677   2.415  1.0372  2.5572 -0.5919
 3902SOL    HW223166   2.837   0.027   2.364  0.5998 -0.3028 -1.0649
 3903SOL     OW23167   2.242   3.466   3.610 -0.7036 -0.4117  0.2963
 3903SOL    HW123168   2.329   3.476   3.572 -0.6156 -1.5503  0.1918
 3903SOL    HW223169   2.207   3.553   3.591 -1.6563 -0.7069  0.7056
 3904SOL     OW23170   2.216   1.648   2.436  0.6838  0.1744  0.2666
 3904SOL    HW123171   2.267   1.598   2.371  1.3045 -0.3246  1.1271
 3904SOL    HW223172   2.136   1.597   2.431 -0.8215  2.6123 -0.1834
 3905SOL     OW23173   2.598   1.701  17.300  0.1855  0.0883 -0.0654
 3905SOL    HW123174   2.669   1.754  17.264 -1.0280  2.0171  0.3790
 3905SOL    HW223175   2.615   1.695  17.394 -0.2398 -1.4558 -0.0833
 3906SOL     OW23176   4.270   0.587  13.039  0.3444 -0.2512 -0.3024
 3906SOL    HW123177   4.301   0.630  12.959 -4.2190 -0.5109 -2.2312
 3906SOL    HW223178   4.356   0.579  13.080  0.0525 -1.0084  0.1602
 3907SOL     OW23179   3.999   0.537   9.057  0.0798 -0.0765  0.1813
 3907SOL    HW123180   3.955   0.609   9.101  1.1909  1.5941 -1.4418
 3907SOL    HW223181   3.992   0.472   9.127  0.8739 -0.3930 -0.0379
 3908SOL     OW23182   4.647   0.774   0.767 -0.3381  0.3888 -0.4042
 3908SOL    HW123183   4.681   0.685   0.764  0.6149  0.6969  1.1715
 3908SOL    HW223184   4.722   0.827   0.793  0.8079  0.5146 -3.9078
 3909SOL     OW23185   1.769   1.702  13.890 -0.2307  0.3731  0.1414
 3909SOL    HW123186   1.774   1.626  13.832  2.3955  1.4981 -1.0764
 3909SOL    HW223187   1.768   1.770  13.822 -0.4440 -0.1228 -0.3538
 3910SOL     OW23188   4.065   3.514   9.112  0.4291 -0.0207  0.1500
 3910SOL    HW123189   4.147   3.525   9.064  1.6163  0.3788  2.2360
 3910SOL    HW223190   4.082   3.433   9.161  3.2393 -0.6638 -1.8850
 3911SOL     OW23191   1.331   0.366   7.441  0.2427 -0.5540 -0.1315
 3911SOL    HW123192   1.284   0.299   7.391 -1.1054  1.1799 -1.2093
 3911SOL    HW223193   1.411   0.375   7.388  1.1093 -1.9576  0.9443
 3912SOL     OW23194   0.138   1.372   4.720 -0.2183 -0.2084 -0.2667
 3912SOL    HW123195   0.051   1.333   4.716  0.2475 -1.2273 -0.3293
 3912SOL    HW223196   0.189   1.297   4.691 -0.9122 -0.6037 -0.4536
 3913SOL     OW23197   3.130   0.067  11.931  0.2282  0.0461  0.2666
 3913SOL    HW123198   3.052   0.110  11.967  0.7972 -0.1589  1.7295
 3913SOL    HW223199   3.175   0.043  12.012  0.2850  0.6787  0.4303
 3914SOL     OW23200   0.118   2.132  16.361  0.3094 -0.3188 -0.2606
 3914SOL    HW123201   0.155   2.113  16.274 -0.2601 -1.1891 -0.3240
 3914SOL    HW223202   0.195   2.107  16.411  0.2016  2.2007  1.1274
 3915SOL     OW23203   0.679   0.317   3.517 -0.0604 -0.1382  0.1718
 3915SOL    HW123204   0.655   0.225   3.522  2.3930 -0.7195  1.2022
 3915SOL    HW223205   0.688   0.320   3.422 -0.9533 -0.8077  0.0744
 3916SOL     OW23206   3.143   4.504  17.525  0.2651  0.5740  0.4572
 3916SOL    HW123207   3.178   4.473  17.609 -0.1425 -1.2690 -0.0497
 3916SOL    HW223208   3.072   4.446  17.496 -0.5186  1.9545 -0.4008
 3917SOL     OW23209   0.302   3.882   8.504  0.0837 -0.1322  0.5776
 3917SOL    HW123210   0.295   3.869   8.598  2.8960 -2.1284  0.5221
 3917SOL    HW223211   0.336   3.795   8.480  1.5101  0.2711  1.1413
 3918SOL     OW23212   2.437   0.818   5.765  0.4192  0.1514  0.2022
 3918SOL    HW123213   2.344   0.804   5.783  0.7189 -0.3277  1.4557
 3918SOL    HW223214   2.441   0.872   5.686  1.0216 -1.0509 -0.5936
 3919SOL     OW23215   2.053   3.886   0.305  0.4138 -0.3878 -0.7029
 3919SOL    HW123216   1.994   3.851   0.371 -0.9825  0.5232 -1.4684
 3919SOL    HW223217   2.119   3.817   0.308  1.3354  0.5065 -0.2371
 3920SOL     OW23218   3.104   4.393   8.952 -0.2664  0.0371 -0.0166
 3920SOL    HW123219   3.036   4.396   9.019 -2.6478  0.0359 -2.3805
 3920SOL    HW223220   3.148   4.476   8.968  0.1114 -0.1837  0.0844
 3921SOL     OW23221   0.732   4.719   5.623 -0.1356  0.1509  0.1194
 3921SOL    HW123222   0.725   0.055   5.549  1.3478 -0.2303 -0.3324
 3921SOL    HW223223   0.652   0.008   5.674 -0.8742  0.2232 -1.0493
 3922SOL     OW23224   4.191   4.327   4.181  0.2313  0.2111 -0.3288
 3922SOL    HW123225   4.237   4.333   4.265  0.7725  1.3789 -0.7095
 3922SOL    HW223226   4.099   4.333   4.207 -0.5478 -3.4455 -2.2019
 3923SOL     OW23227   2.337   2.577  12.293  0.3164  0.0108  0.1934
 3923SOL    HW123228   2.261   2.615  12.248 -0.1878  0.9373  1.8340
 3923SOL    HW223229   2.357   2.656  12.341 -2.1202  0.5930  0.2834
 3924SOL     OW23230   2.228   1.588  16.390 -0.4384 -0.2370 -0.0426
 3924SOL    HW123231   2.154   1.638  16.357 -0.3463  0.4705  0.8060
 3924SOL    HW223232   2.258   1.645  16.461  0.5392 -0.4337 -0.2967
 3925SOL     OW23233   1.144   0.293  13.888 -0.3004  0.0295  0.3738
 3925SOL    HW123234   1.184   0.213  13.924 -2.1056 -0.4778  1.2545
 3925SOL    HW223235   1.132   0.256  13.801  2.0426  0.4654 -0.1427
 3926SOL     OW23236   0.181   1.802  15.617 -0.3458  0.4741  0.0892
 3926SOL    HW123237   0.249   1.739  15.641 -0.7562 -0.0790 -0.2059
 3926SOL    HW223238   0.182   1.791  15.522 -2.0421 -1.6543  0.3267
 3927SOL     OW23239   1.205   4.400   1.237  0.1638  0.6198 -0.3774
 3927SOL    HW123240   1.246   4.435   1.157  1.7372 -0.6462 -0.1380
 3927SOL    HW223241   1.274   4.397   1.303  0.4825 -1.0777 -0.7765
 3928SOL     OW23242   2.476   2.948   8.303  0.4429 -0.1565  0.6351
 3928SOL    HW123243   2.502   2.873   8.250 -0.6281  1.4342 -2.1542
 3928SOL    HW223244   2.508   3.023   8.252  0.6480 -1.5640 -1.3057
 3929SOL     OW23245   3.159   0.977   7.020  0.1016 -0.3391 -0.1081
 3929SOL    HW123246   3.171   0.955   6.927 -0.0155 -2.7915  0.4460
 3929SOL    HW223247   3.245   1.012   7.041  0.0356  0.1422 -0.6304
 3930SOL     OW23248   2.046   4.233   3.779 -0.0239  0.4860 -0.2131
 3930SOL    HW123249   1.958   4.233   3.817 -0.7377  0.4325 -1.8348
 3930SOL    HW223250   2.031   4.309   3.723 -1.4021 -0.0433 -0.5567
 3931SOL     OW23251   3.248   3.773   8.224  0.2672 -0.2536 -0.2907
 3931SOL    HW123252   3.250   3.858   8.180  1.5696 -1.4900 -2.6306
 3931SOL    HW223253   3.319   3.792   8.284 -0.1502 -1.2639  0.5127
 3932SOL     OW23254   1.150   1.699   0.602  0.2895  0.5963  0.7037
 3932SOL    HW123255   1.195   1.627   0.557 -2.7176 -0.9615  0.1756
 3932SOL    HW223256   1.231   1.744   0.625  0.2816  1.2234 -0.4980
 3933SOL     OW23257   2.460   4.685   8.434  0.5307 -0.0959 -0.4505
 3933SOL    HW123258   2.537   4.629   8.448 -0.0500 -0.9963 -0.8642
 3933SOL    HW223259   2.443   4.718   8.522  0.5410 -0.8633 -0.1591
 3934SOL     OW23260   1.211   0.942   7.179 -0.1321  0.2101 -0.2679
 3934SOL    HW123261   1.234   0.852   7.205  3.3248  0.8180 -1.1849
 3934SOL    HW223262   1.230   0.980   7.265  1.3323  0.0718 -0.5318
 3935SOL     OW23263   3.896   4.593  14.321 -0.3721 -0.0934  0.2711
 3935SOL    HW123264   3.837   4.528  14.281 -0.4897  0.2899 -0.1753
 3935SOL    HW223265   3.865   4.577  14.410  1.1640  1.2795  1.0294
 3936SOL     OW23266   2.540   2.374   9.002 -0.0500  0.1022  0.1903
 3936SOL    HW123267   2.449   2.356   8.978 -0.0209 -0.1960  0.3058
 3936SOL    HW223268   2.564   2.436   8.934  1.7122 -0.2541  0.4991
 3937SOL     OW23269   1.690   4.499   2.682  0.3164 -0.4407 -0.4323
 3937SOL    HW123270   1.723   4.561   2.746 -1.0894  0.1457 -0.2850
 3937SOL    HW223271   1.772   4.460   2.650  0.4555  0.0257 -0.6367
 3938SOL     OW23272   3.856   2.223   0.684  0.0429  0.0356 -0.4581
 3938SOL    HW123273   3.782   2.274   0.719 -0.2331 -0.3795 -0.4397
 3938SOL    HW223274   3.925   2.287   0.670  0.6107 -0.2991  0.8602
 3939SOL     OW23275   0.106   3.610   0.643 -0.5116 -1.0248 -0.1986
 3939SOL    HW123276   0.091   3.582   0.553 -0.2447  0.3541 -0.6606
 3939SOL    HW223277   0.070   3.699   0.641  0.0553 -0.7847  0.2484
 3940SOL     OW23278   1.359   2.188   8.496  0.0140  0.1573  0.1425
 3940SOL    HW123279   1.274   2.197   8.453  1.3339  1.7394 -2.1437
 3940SOL    HW223280   1.321   2.158   8.578 -1.3665 -0.0821 -0.5713
 3941SOL     OW23281   2.046   4.018   5.765  0.2088 -0.0563  0.0703
 3941SOL    HW123282   1.970   4.034   5.708 -0.4452 -2.0491  0.3768
 3941SOL    HW223283   2.006   4.013   5.852 -0.5705 -2.4972 -0.4364
 3942SOL     OW23284   1.370   3.514   8.550  0.4902 -0.2880  0.0915
 3942SOL    HW123285   1.367   3.521   8.455  0.1645 -0.0678  0.1157
 3942SOL    HW223286   1.429   3.587   8.566 -0.3950  0.5764 -0.6036
 3943SOL     OW23287   3.006   0.310   2.462  0.0577  0.1403 -0.8302
 3943SOL    HW123288   3.016   0.405   2.466  0.1394  0.1715 -1.6493
 3943SOL    HW223289   3.006   0.303   2.366  1.0772  2.6815 -1.0071
 3944SOL     OW23290   0.232   0.394   4.940  0.0593 -0.2097  0.4877
 3944SOL    HW123291   0.214   0.480   4.900  1.7791 -0.2822 -0.4684
 3944SOL    HW223292   0.250   0.415   5.031  1.6532  3.3758 -0.6407
 3945SOL     OW23293   3.682   3.856  12.730 -0.2950 -0.5085 -0.2057
 3945SOL    HW123294   3.753   3.859  12.665 -3.8719 -0.2622 -4.1429
 3945SOL    HW223295   3.724   3.811  12.803  1.3600  0.1961 -0.7317
 3946SOL     OW23296   3.780   0.332   6.228 -0.4067 -0.2858 -0.4596
 3946SOL    HW123297   3.751   0.352   6.139 -1.8688 -2.7475 -0.5356
 3946SOL    HW223298   3.712   0.376   6.278  1.1620  1.0747  0.4798
 3947SOL     OW23299   3.037   1.469   7.765  0.1312  0.2262 -0.4950
 3947SOL    HW123300   3.032   1.519   7.847 -1.6588 -1.7516  0.6034
 3947SOL    HW223301   2.997   1.519   7.694 -1.5048  0.3430  0.5021
 3948SOL     OW23302   1.734   0.225   2.646  0.1182  0.0047  0.4313
 3948SOL    HW123303   1.648   0.183   2.640 -1.0203  1.9979  2.5123
 3948SOL    HW223304   1.736   0.270   2.561 -1.1788 -0.5056  0.1260
 3949SOL     OW23305   0.858   2.807   4.921  0.4398 -0.3779  0.5510
 3949SOL    HW123306   0.823   2.790   5.008  1.2905  0.8650  1.1356
 3949SOL    HW223307   0.772   2.828   4.885 -0.2591 -1.9674  1.2840
 3950SOL     OW23308   1.959   0.914   3.679 -0.2049  0.3336  0.3676
 3950SOL    HW123309   1.983   1.003   3.706 -1.8056  0.3743  1.6962
 3950SOL    HW223310   1.874   0.904   3.722 -0.4332 -1.5317 -0.5160
 3951SOL     OW23311   0.330   2.125   7.179  0.4308 -1.1740  0.3056
 3951SOL    HW123312   0.295   2.045   7.219 -0.0256 -0.8698  0.5180
 3951SOL    HW223313   0.425   2.115   7.178  0.5505  0.1719 -1.2501
 3952SOL     OW23314   4.107   4.236   8.748  0.4014  0.0190 -0.1616
 3952SOL    HW123315   4.050   4.187   8.808  0.2828  0.3288 -0.0208
 3952SOL    HW223316   4.082   4.320   8.785 -2.4940 -1.6880  1.8127
 3953SOL     OW23317   3.125   2.881   4.718  0.1919  0.3448  0.3072
 3953SOL    HW123318   3.069   2.846   4.788 -0.2731  1.4347  0.4797
 3953SOL    HW223319   3.079   2.957   4.683 -1.8514 -1.2489 -0.4686
 3954SOL     OW23320   2.700   2.798   7.932  0.1085  0.2579  0.1559
 3954SOL    HW123321   2.710   2.852   7.853 -4.5553 -0.4658 -0.9054
 3954SOL    HW223322   2.709   2.712   7.891 -3.4139 -1.8773  3.9705
 3955SOL     OW23323   0.407   3.436   2.743  0.3965  0.2531  0.5465
 3955SOL    HW123324   0.467   3.371   2.778  0.1519 -0.8938 -1.1778
 3955SOL    HW223325   0.360   3.391   2.673  2.3633  0.1697 -0.7212
 3956SOL     OW23326   4.030   3.050   4.359 -0.0518  0.4830  0.3170
 3956SOL    HW123327   4.056   3.006   4.279 -0.7865 -2.1882  1.5643
 3956SOL    HW223328   4.114   3.084   4.391  1.5216 -0.2626 -3.1008
 3957SOL     OW23329   2.955   0.073   5.005  0.8453  0.5198  0.1230
 3957SOL    HW123330   2.862   0.090   4.986  0.3240 -3.2411 -0.7058
 3957SOL    HW223331   2.984   0.156   5.043  0.6380  0.5128  0.3020
 3958SOL     OW23332   2.082   2.327   5.818 -0.3408  0.0351  0.2049
 3958SOL    HW123333   2.086   2.360   5.908 -0.1852  3.4021 -1.0237
 3958SOL    HW223334   2.175   2.309   5.810 -0.4507 -0.5184  0.2155
 3959SOL     OW23335   0.536   1.969   0.012 -0.3530 -0.1555  0.5368
 3959SOL    HW123336   0.542   2.030   0.085  1.2903 -0.9884  1.0969
 3959SOL    HW223337   0.578   2.023  17.644  0.1365 -0.0315  0.9432
 3960SOL     OW23338   1.204   2.735   1.798  0.2976 -0.0531 -0.4041
 3960SOL    HW123339   1.133   2.738   1.863  0.8220 -0.8884  0.2117
 3960SOL    HW223340   1.183   2.650   1.759  0.2670  0.9692 -2.5808
 3961SOL     OW23341   1.457   1.252   1.715  0.1972 -0.5622  0.6751
 3961SOL    HW123342   1.548   1.234   1.690  0.0163  0.2825 -0.5794
 3961SOL    HW223343   1.437   1.230   1.806 -3.1660  1.9394  0.5650
 3962SOL     OW23344   0.622   3.720   4.584  0.0004  0.1529  0.2645
 3962SOL    HW123345   0.558   3.652   4.563  0.6073 -0.7231  1.3236
 3962SOL    HW223346   0.562   3.793   4.600 -0.7449 -0.6699  1.2297
 3963SOL     OW23347   3.229   0.368   4.948  0.4490  0.2928  0.1621
 3963SOL    HW123348   3.168   0.371   5.022 -2.1051 -1.2765 -1.9320
 3963SOL    HW223349   3.293   0.307   4.984  0.4814 -1.5704 -3.1031
 3964SOL     OW23350   2.945   0.660   2.339 -0.7079  0.1638  0.2804
 3964SOL    HW123351   3.027   0.709   2.339  0.2220 -1.3676  0.9647
 3964SOL    HW223352   2.889   0.728   2.376 -0.4938  1.5619 -2.0002
 3965SOL     OW23353   0.459   0.341   3.897 -0.0797 -0.5562 -0.0011
 3965SOL    HW123354   0.432   0.261   3.941  1.1892  0.8309  3.3340
 3965SOL    HW223355   0.395   0.398   3.941  0.2211 -1.3338  1.4202
 3966SOL     OW23356   4.531   2.565  17.255 -0.1263  0.4908 -0.5408
 3966SOL    HW123357   4.440   2.586  17.233 -0.0435  0.0655 -1.3119
 3966SOL    HW223358   4.539   2.476  17.221 -0.6730 -1.0050  3.2551
 3967SOL     OW23359   1.166   3.361   6.246  0.1182  0.5090  0.0524
 3967SOL    HW123360   1.177   3.273   6.210  1.0271  0.5837  0.1528
 3967SOL    HW223361   1.081   3.383   6.206  0.2263  0.4199 -0.2293
 3968SOL     OW23362   1.508   3.217   2.094  0.6466  0.8710 -1.0630
 3968SOL    HW123363   1.551   3.179   2.018  0.3995 -0.9488 -0.2980
 3968SOL    HW223364   1.576   3.185   2.152 -0.5261 -1.0615 -0.7466
 3969SOL     OW23365   0.513   3.639   7.201  0.7419  0.3101  0.0412
 3969SOL    HW123366   0.452   3.690   7.253  0.8277  1.7872 -1.3066
 3969SOL    HW223367   0.563   3.586   7.263  0.9637  0.4353 -0.0313
 3970SOL     OW23368   1.637   4.682   9.007 -0.3113 -0.4658  0.7640
 3970SOL    HW123369   1.715   4.663   9.060 -0.7927  0.1298  1.6733
 3970SOL    HW223370   1.584   4.615   9.050 -1.2347 -0.3923 -0.2837
 3971SOL     OW23371   1.163   0.101   0.391  0.1066  0.0320  0.5014
 3971SOL    HW123372   1.113   0.025   0.420 -0.9034  0.4077 -0.2760
 3971SOL    HW223373   1.255   0.075   0.399 -0.1092 -1.7299 -2.5705
 3972SOL     OW23374   0.956   2.582  11.758 -0.5729 -0.0193  0.7927
 3972SOL    HW123375   0.891   2.586  11.827 -0.7159  1.3539  0.5642
 3972SOL    HW223376   0.948   2.487  11.748  2.1188 -0.0915 -0.8163
 3973SOL     OW23377   4.020   3.622   3.218 -0.1050 -0.5456 -0.2253
 3973SOL    HW123378   4.101   3.673   3.218 -1.2291  1.2596  1.5315
 3973SOL    HW223379   3.980   3.685   3.158 -1.1314 -0.5331  0.4757
 3974SOL     OW23380   2.942   2.995   7.302  0.7214  0.8567 -0.2593
 3974SOL    HW123381   2.883   2.985   7.227 -0.4024 -1.7084  0.9854
 3974SOL    HW223382   2.885   3.047   7.358 -0.9183 -1.7748  0.4942
 3975SOL     OW23383   4.594   4.214   1.680 -0.4972 -0.5867  0.0091
 3975SOL    HW123384   4.499   4.213   1.669 -0.1175 -0.0013 -3.3037
 3975SOL    HW223385   4.617   4.307   1.671  1.2548 -1.1961 -1.7040
 3976SOL     OW23386   3.874   4.044  11.763  0.2901 -0.4314 -0.3010
 3976SOL    HW123387   3.938   3.975  11.745  1.6812  0.7429  0.2287
 3976SOL    HW223388   3.930   4.109  11.804  0.1330 -1.7031  1.9102
 3977SOL     OW23389   3.690   4.675   8.535  0.3582 -0.1554 -0.3709
 3977SOL    HW123390   3.775   4.701   8.499  1.3175 -0.8624  1.3290
 3977SOL    HW223391   3.654   4.617   8.469 -1.1645 -0.1693  0.4823
 3978SOL     OW23392   0.858   0.417   7.135  0.1542 -0.2628 -0.3320
 3978SOL    HW123393   0.945   0.449   7.160 -0.2345 -1.5144  2.6272
 3978SOL    HW223394   0.827   0.499   7.096  1.2776 -0.3511 -1.4068
 3979SOL     OW23395   3.467   1.972   5.844  0.4316 -0.6248  0.3664
 3979SOL    HW123396   3.469   1.922   5.763  2.6288  1.5546 -0.9429
 3979SOL    HW223397   3.542   2.029   5.828  0.8271 -1.4225 -0.6230
 3980SOL     OW23398   3.827   3.465  11.170 -0.0515  0.4826 -0.3824
 3980SOL    HW123399   3.865   3.536  11.118 -0.5709 -0.0895 -1.5192
 3980SOL    HW223400   3.734   3.469  11.149 -0.1714  0.2309  0.0897
 3981SOL     OW23401   3.341   1.627   2.168 -0.1322 -0.6360 -0.0372
 3981SOL    HW123402   3.392   1.564   2.118  1.8684 -0.4343  1.7337
 3981SOL    HW223403   3.371   1.712   2.137  1.3115 -1.8312 -1.8695
 3982SOL     OW23404   3.212   0.492   8.498  0.1100 -0.3177 -0.6377
 3982SOL    HW123405   3.212   0.397   8.513 -1.2490 -0.0077  1.3633
 3982SOL    HW223406   3.166   0.521   8.577  1.0193  0.4565 -0.4060
 3983SOL     OW23407   3.476   2.399   8.623 -0.0562  0.1918  0.4293
 3983SOL    HW123408   3.402   2.457   8.606 -1.3036 -1.1490  1.2558
 3983SOL    HW223409   3.473   2.393   8.719  2.5625  2.4047  0.6443
 3984SOL     OW23410   0.771   0.908  10.236 -0.3101 -0.1160 -0.1509
 3984SOL    HW123411   0.794   0.885  10.327  1.7967 -1.9362 -1.1374
 3984SOL    HW223412   0.854   0.879  10.198 -1.3241 -1.3740 -1.4061
 3985SOL     OW23413   3.051   3.475   0.947  0.5965  0.2750 -0.6456
 3985SOL    HW123414   3.083   3.532   0.877  1.7936 -0.3684 -0.6131
 3985SOL    HW223415   3.113   3.494   1.018 -0.7842  2.0099  0.1070
 3986SOL     OW23416   0.403   3.017   2.169 -0.5818 -0.5130 -0.2021
 3986SOL    HW123417   0.316   3.035   2.205 -0.3032 -1.1780  0.8065
 3986SOL    HW223418   0.425   3.105   2.139  0.5679 -0.4062  0.9732
 3987SOL     OW23419   1.260   0.380   2.204 -0.7024  0.2456  0.2089
 3987SOL    HW123420   1.254   0.475   2.208 -0.0911  0.3637 -1.6265
 3987SOL    HW223421   1.353   0.360   2.214 -1.1075 -0.2293  3.0721
 3988SOL     OW23422   1.843   4.328  15.755 -0.3833  0.0769  0.8299
 3988SOL    HW123423   1.834   4.272  15.832  2.1580 -2.6800 -0.9044
 3988SOL    HW223424   1.764   4.310  15.704  1.5331 -3.1190 -0.9906
 3989SOL     OW23425   0.469   1.385   6.179  0.1016 -0.9207  0.0378
 3989SOL    HW123426   0.391   1.377   6.123  1.2529 -0.9197 -1.5582
 3989SOL    HW223427   0.446   1.330   6.254 -1.5427  1.2548  1.1322
 3990SOL     OW23428   3.578   3.733   8.431 -0.0226 -0.7638 -0.2869
 3990SOL    HW123429   3.516   3.661   8.418  0.1854 -1.1388  0.8335
 3990SOL    HW223430   3.588   3.732   8.526  2.3227 -2.5092 -0.5584
 3991SOL     OW23431   2.971   3.940   2.806 -0.1947  0.3013 -0.5286
 3991SOL    HW123432   3.063   3.913   2.806 -0.0871  0.6304  2.1564
 3991SOL    HW223433   2.963   4.023   2.759 -3.2678  1.1573  1.4752
 3992SOL     OW23434   2.601   3.884   7.653  0.0537  0.4853 -0.1750
 3992SOL    HW123435   2.549   3.962   7.633  0.7241  1.2303  1.0752
 3992SOL    HW223436   2.686   3.925   7.667  0.5912 -0.1893 -1.4396
 3993SOL     OW23437   3.223   1.130   8.157  0.3746 -0.1474  0.2113
 3993SOL    HW123438   3.168   1.112   8.081  0.5062 -2.8682  0.7443
 3993SOL    HW223439   3.162   1.100   8.225 -1.9079 -1.2389 -2.3364
 3994SOL     OW23440   1.626   0.889   5.379 -0.2439 -0.0906  0.3355
 3994SOL    HW123441   1.574   0.962   5.347 -4.4595 -3.0705  0.3569
 3994SOL    HW223442   1.687   0.935   5.436  0.2709  1.5447 -1.5321
 3995SOL     OW23443   1.915   3.553   4.211  0.1848 -0.4643 -0.0968
 3995SOL    HW123444   1.923   3.556   4.306  0.7694 -2.3298 -0.0913
 3995SOL    HW223445   2.003   3.520   4.194  0.3868 -0.6794  1.3572
 3996SOL     OW23446   3.332   0.549   6.211  0.0726  0.2795 -0.2045
 3996SOL    HW123447   3.277   0.608   6.263  0.8090  0.4025  0.4341
 3996SOL    HW223448   3.272   0.493   6.161  0.9792 -2.8099  2.1348
 3997SOL     OW23449   1.721   0.869   2.412  0.2207 -0.1502  0.1412
 3997SOL    HW123450   1.697   0.891   2.322 -0.4410 -1.7694 -0.0803
 3997SOL    HW223451   1.753   0.954   2.442  2.2591 -1.0049  0.4287
 3998SOL     OW23452   3.417   2.438   5.327  0.7169 -1.0095 -0.4062
 3998SOL    HW123453   3.376   2.433   5.414 -2.0498 -0.5307 -1.6609
 3998SOL    HW223454   3.371   2.359   5.297 -2.1886  0.1034  1.0695
 3999SOL     OW23455   3.324   3.257   7.499  0.2946 -0.0616 -0.2186
 3999SOL    HW123456   3.316   3.203   7.421 -0.1500  0.2906 -0.4155
 3999SOL    HW223457   3.234   3.279   7.521  1.4342  1.6427  2.7662
 4000SOL     OW23458   2.754   0.718   0.790  0.2355 -0.5201 -0.3125
 4000SOL    HW123459   2.783   0.729   0.880  0.6492 -1.4390 -0.3403
 4000SOL    HW223460   2.714   0.803   0.769  2.3886  0.1509 -1.7292
 4001SOL     OW23461   1.475   0.629   2.137  0.3173 -0.0539  0.1102
 4001SOL    HW123462   1.399   0.638   2.080  1.3824 -1.1135 -1.4841
 4001SOL    HW223463   1.443   0.675   2.215 -1.8273 -1.1535 -0.1214
 4002SOL     OW23464   1.508   3.844   5.195 -0.6495 -0.4961  0.1297
 4002SOL    HW123465   1.475   3.929   5.224 -0.6389 -0.3464 -0.2959
 4002SOL    HW223466   1.437   3.783   5.213 -0.5576 -0.3767  0.8774
 4003SOL     OW23467   3.517   3.160   5.011  0.4855 -0.7168  0.7347
 4003SOL    HW123468   3.536   3.109   4.932  4.7514 -0.0069  1.3197
 4003SOL    HW223469   3.429   3.197   5.003 -0.0216 -1.4141  2.8623
 4004SOL     OW23470   3.778   1.588   3.144  0.2056 -0.6662 -0.2786
 4004SOL    HW123471   3.802   1.501   3.177  3.2770  0.7748  1.1963
 4004SOL    HW223472   3.757   1.629   3.228  1.7413  3.3975 -1.8814
 4005SOL     OW23473   1.400   2.168   2.354  0.0373 -0.2314 -0.3679
 4005SOL    HW123474   1.375   2.089   2.306  2.3293 -0.8964 -0.4373
 4005SOL    HW223475   1.493   2.183   2.339  0.1132 -0.2344  0.1172
 4006SOL     OW23476   3.534   3.117   9.448  0.3461 -0.2128 -0.6112
 4006SOL    HW123477   3.438   3.119   9.457  0.3946 -1.9402  0.4842
 4006SOL    HW223478   3.558   3.166   9.370  1.7143  2.5633  1.5737
 4007SOL     OW23479   4.550   1.208  15.884 -0.4208  0.2025 -0.1505
 4007SOL    HW123480   4.556   1.175  15.795  0.4983 -1.0442  0.3711
 4007SOL    HW223481   4.494   1.285  15.871 -0.5872 -0.2172 -1.8764
 4008SOL     OW23482   0.989   2.042   0.971 -0.1597 -0.1972 -0.2212
 4008SOL    HW123483   1.012   2.075   1.058  1.0932  0.2648 -0.7282
 4008SOL    HW223484   0.958   1.954   0.992  0.1185  0.0093  1.0852
 4009SOL     OW23485   0.097   2.416   1.795 -0.3252 -0.6120 -0.2252
 4009SOL    HW123486   0.101   2.412   1.699  2.6074  2.5253 -0.2084
 4009SOL    HW223487   0.046   2.337   1.814 -0.3941 -1.6787 -4.7441
 4010SOL     OW23488   2.316   2.781  14.841 -0.1481 -0.2647 -0.1343
 4010SOL    HW123489   2.349   2.748  14.758 -3.3469  1.1388 -1.9582
 4010SOL    HW223490   2.357   2.715  14.896 -1.5311  0.1791  1.4217
 4011SOL     OW23491   0.220   3.433   3.166  0.2144 -0.0531  0.2483
 4011SOL    HW123492   0.150   3.408   3.226 -0.2982 -0.4449 -0.5100
 4011SOL    HW223493   0.204   3.527   3.160  1.4082  0.2241  1.2815
 4012SOL     OW23494   2.416   1.193   2.245 -0.1683  0.0501  0.0639
 4012SOL    HW123495   2.389   1.132   2.314 -1.4303  0.0703 -0.4004
 4012SOL    HW223496   2.334   1.230   2.212  0.5257  1.4319 -0.1277
 4013SOL     OW23497   2.391   0.232   0.966  0.4909 -0.3221  0.5523
 4013SOL    HW123498   2.366   0.148   1.003  0.7072 -0.6258  0.0001
 4013SOL    HW223499   2.387   0.222   0.871 -1.1789  3.7966  0.1483
 4014SOL     OW23500   4.460   1.135  14.273  0.6233  0.0693  0.0230
 4014SOL    HW123501   4.525   1.136  14.342 -0.9572  1.3768  1.4791
 4014SOL    HW223502   4.524   1.169  14.211 -0.5777  3.4394  0.6285
 4015SOL     OW23503   0.272   1.227   4.166  0.1055  0.2955  0.3400
 4015SOL    HW123504   0.278   1.318   4.194 -0.2486  0.5694 -0.4685
 4015SOL    HW223505   0.177   1.216   4.172  0.4059 -2.0506  0.9963
 4016SOL     OW23506   3.724   1.564  14.525  0.2123  0.7692  0.3296
 4016SOL    HW123507   3.809   1.584  14.566 -0.2458 -0.5319  1.8857
 4016SOL    HW223508   3.661   1.559  14.596  1.2412  0.7206  1.2466
 4017SOL     OW23509   0.443   1.636  11.035  0.7916  0.5852  0.2519
 4017SOL    HW123510   0.356   1.673  11.049 -0.9677 -3.1128 -0.8389
 4017SOL    HW223511   0.435   1.555  10.984 -0.2947  1.7422 -1.4304
 4018SOL     OW23512   1.424   0.235   0.015 -0.4960 -0.4894 -0.2382
 4018SOL    HW123513   1.508   0.213  17.675  0.1714  0.2959  0.7744
 4018SOL    HW223514   1.398   0.145   0.036 -0.1345 -1.2650 -3.0659
 4019SOL     OW23515   4.529   3.129   5.122  0.1169 -0.5792 -0.1101
 4019SOL    HW123516   4.477   3.135   5.202  1.7242  1.8556  0.7483
 4019SOL    HW223517   4.470   3.082   5.063  0.5009 -0.6771 -0.4171
 4020SOL     OW23518   2.772   0.625   3.621 -0.3438  0.2684  0.6075
 4020SOL    HW123519   2.835   0.553   3.623 -1.5897 -0.9362 -2.8872
 4020SOL    HW223520   2.711   0.598   3.690 -3.1069 -0.1390 -2.0162
 4021SOL     OW23521   3.776   2.187   3.126 -0.7944  0.3120 -0.0407
 4021SOL    HW123522   3.736   2.198   3.212  0.5546  0.7561  0.5299
 4021SOL    HW223523   3.712   2.133   3.080  0.8873 -0.0991 -1.8827
 4022SOL     OW23524   2.727   4.137   2.728 -0.4439  0.1185 -0.4177
 4022SOL    HW123525   2.708   4.186   2.648  2.6190  0.8688 -0.6584
 4022SOL    HW223526   2.639   4.125   2.765  0.4218  0.2266  1.7078
 4023SOL     OW23527   4.167   4.246   9.672 -0.5557 -0.3759  0.0410
 4023SOL    HW123528   4.149   4.270   9.763 -0.8715  1.7999 -0.6102
 4023SOL    HW223529   4.245   4.191   9.686 -0.5318 -0.1597  0.7990
 4024SOL     OW23530   1.970   2.183  14.086  0.3294  0.6067 -0.0560
 4024SOL    HW123531   1.875   2.173  14.085  0.2235  1.4871  0.5373
 4024SOL    HW223532   1.973   2.277  14.106 -2.5372  0.7908 -0.4227
 4025SOL     OW23533   2.080   2.499   8.681  0.2419  0.4488 -0.2512
 4025SOL    HW123534   2.114   2.421   8.637  0.0486 -0.3949  1.1080
 4025SOL    HW223535   2.164   2.541   8.703  1.1468 -1.4641 -0.0701
 4026SOL     OW23536   0.048   2.320   7.529  0.1127 -0.1499  0.4770
 4026SOL    HW123537   0.058   2.265   7.607  2.1809  1.9353  1.6726
 4026SOL    HW223538   0.008   2.258   7.469 -0.0891 -0.8124  1.2924
 4027SOL     OW23539   4.706   0.960   2.506  0.5705 -0.1980 -0.6196
 4027SOL    HW123540   0.014   0.901   2.438 -1.5789  0.4285 -2.1644
 4027SOL    HW223541   4.716   0.913   2.589  0.2755  0.5698 -0.1488
 4028SOL     OW23542   3.051   1.663   7.242  0.8128 -0.4863  0.2122
 4028SOL    HW123543   3.124   1.718   7.215  1.3424 -2.1652 -1.7506
 4028SOL    HW223544   3.099   1.623   7.316 -0.0009  0.9764  1.5273
 4029SOL     OW23545   2.719   0.483   9.227  0.3662  0.0109  0.2960
 4029SOL    HW123546   2.728   0.404   9.281  1.8655 -0.1441 -0.1902
 4029SOL    HW223547   2.628   0.511   9.239  0.2402 -0.4216  0.3505
 4030SOL     OW23548   2.812   0.430   8.606  0.0181 -0.4988 -0.2951
 4030SOL    HW123549   2.794   0.391   8.692  1.5710 -0.2990  0.1130
 4030SOL    HW223550   2.721   0.428   8.575 -0.6487  0.4684  1.6265
 4031SOL     OW23551   3.322   4.323   5.395  0.0352 -0.0462 -0.6338
 4031SOL    HW123552   3.333   4.418   5.397  0.5886 -0.1209 -0.2357
 4031SOL    HW223553   3.261   4.311   5.467  2.0462  1.6565  1.3689
 4032SOL     OW23554   1.235   2.933   4.546  0.2120  0.0453  0.0992
 4032SOL    HW123555   1.326   2.906   4.556  0.3692  1.1258  1.5241
 4032SOL    HW223556   1.208   2.870   4.479  0.8556 -0.9951  0.8296
 4033SOL     OW23557   1.164   0.712   3.021  0.8800  0.0071 -0.1459
 4033SOL    HW123558   1.242   0.704   3.076  0.8126  0.2796 -0.0128
 4033SOL    HW223559   1.116   0.629   3.029 -0.7472  0.8866 -0.8183
 4034SOL     OW23560   0.973   0.461   8.207 -0.0188 -0.2873 -0.2071
 4034SOL    HW123561   0.886   0.494   8.185  0.9942  1.0178 -2.2649
 4034SOL    HW223562   1.014   0.539   8.243 -0.8025  0.1891 -0.3423
 4035SOL     OW23563   1.458   4.396  15.489 -0.1434 -0.3088 -0.1384
 4035SOL    HW123564   1.373   4.406  15.532  0.4250  1.9479  0.4949
 4035SOL    HW223565   1.462   4.462  15.420 -0.1903 -1.3653 -1.1361
 4036SOL     OW23566   0.261   4.225   1.619 -0.2530 -0.3843  0.2923
 4036SOL    HW123567   0.213   4.259   1.695 -0.0972 -1.2257  0.7677
 4036SOL    HW223568   0.318   4.300   1.602  0.5529 -0.9442  0.5475
 4037SOL     OW23569   0.552   0.992   4.944  0.5553  0.0966 -0.1417
 4037SOL    HW123570   0.484   0.927   4.926 -0.2992  0.5674  1.4332
 4037SOL    HW223571   0.566   1.023   4.854  2.9829  0.6052  0.4163
 4038SOL     OW23572   0.138   2.361   3.143 -0.1343 -0.3893  0.1592
 4038SOL    HW123573   0.081   2.377   3.068  0.7384 -1.1094 -0.6687
 4038SOL    HW223574   0.200   2.317   3.084  0.0511  0.9440 -0.6535
 4039SOL     OW23575   2.421   0.690  12.980 -0.0889  0.4148  0.2787
 4039SOL    HW123576   2.326   0.692  12.990 -0.2779 -0.4311 -1.3061
 4039SOL    HW223577   2.449   0.743  13.055  1.3971 -0.6625  0.4946
 4040SOL     OW23578   1.541   2.465  10.633  0.0565 -0.1986 -0.4162
 4040SOL    HW123579   1.468   2.409  10.605 -1.1875  1.6386 -0.8582
 4040SOL    HW223580   1.504   2.553  10.643 -0.0599 -0.4242  1.0986
 4041SOL     OW23581   0.452   4.532  17.429  0.0323  0.9669 -0.2218
 4041SOL    HW123582   0.502   4.504  17.506 -2.6350 -2.7705  0.1234
 4041SOL    HW223583   0.523   4.565  17.375  0.3950 -1.2081 -1.0828
 4042SOL     OW23584   0.749   4.489   1.399 -0.1862 -0.1734  0.5703
 4042SOL    HW123585   0.685   4.480   1.471  0.0377  2.5477  1.1427
 4042SOL    HW223586   0.687   4.484   1.326  0.6250 -0.8045 -0.0737
 4043SOL     OW23587   1.627   3.977   1.687  0.2124  0.2659 -0.0328
 4043SOL    HW123588   1.533   3.969   1.697  0.2056 -0.7130 -0.9282
 4043SOL    HW223589   1.663   3.890   1.705  0.1672 -0.1533 -1.9610
 4044SOL     OW23590   4.041   1.875   7.298  0.1479  0.1110 -0.2657
 4044SOL    HW123591   3.977   1.921   7.243 -0.2466  0.6694  0.6514
 4044SOL    HW223592   4.123   1.921   7.279  1.0980 -0.7728  1.6486
 4045SOL     OW23593   3.957   0.067   7.045 -0.0518  0.1082 -0.4395
 4045SOL    HW123594   3.882   0.012   7.068  1.1912 -1.1296  0.6338
 4045SOL    HW223595   3.917   0.147   7.011  2.9757  2.2486  1.0357
 4046SOL     OW23596   4.115   1.392   3.249  0.1472 -0.3074  0.1175
 4046SOL    HW123597   4.169   1.342   3.310 -0.0804 -0.5531  0.1183
 4046SOL    HW223598   4.128   1.483   3.277 -0.2789  0.0361 -0.7858
 4047SOL     OW23599   4.410   0.206   3.263 -0.0883  0.2812  0.4714
 4047SOL    HW123600   4.339   0.142   3.259  0.6311 -0.4889  0.0506
 4047SOL    HW223601   4.403   0.242   3.174 -0.1952 -0.1321  0.3139
 4048SOL     OW23602   3.478   1.648   0.575  0.7253 -0.1774 -0.1951
 4048SOL    HW123603   3.435   1.698   0.505  0.7235  1.0129  0.6655
 4048SOL    HW223604   3.409   1.658   0.641  1.4491  0.9014  0.3976
 4049SOL     OW23605   1.406   2.229  10.595  0.2110  0.6272 -0.1733
 4049SOL    HW123606   1.318   2.202  10.620  0.7549 -0.6687  0.3119
 4049SOL    HW223607   1.457   2.148  10.604 -0.6220  0.5214  3.2007
 4050SOL     OW23608   0.441   4.249   3.490  0.6382  0.5066 -0.1262
 4050SOL    HW123609   0.359   4.248   3.440  1.8034  1.6143 -2.0426
 4050SOL    HW223610   0.424   4.204   3.572 -1.5586  0.5003 -0.5934
 4051SOL     OW23611   2.648   4.671   4.332  0.3123 -0.4258 -0.0536
 4051SOL    HW123612   2.731   4.660   4.285 -0.0487  1.2103 -1.0780
 4051SOL    HW223613   2.596   4.620   4.270  0.9302 -1.0256 -0.0882
 4052SOL     OW23614   3.868   3.594   4.682 -0.2659 -0.1624 -0.1042
 4052SOL    HW123615   3.862   3.681   4.642 -0.9166  0.9848  2.4925
 4052SOL    HW223616   3.924   3.613   4.757 -1.1465  0.0247  0.5003
 4053SOL     OW23617   1.510   3.991   8.628  0.3095 -0.4617  0.0024
 4053SOL    HW123618   1.426   4.037   8.630  0.5866  0.0016  0.7285
 4053SOL    HW223619   1.565   4.068   8.617  0.8688 -0.7867  0.5787
 4054SOL     OW23620   3.788   3.325   5.538 -0.3343  0.4950 -0.0290
 4054SOL    HW123621   3.771   3.327   5.633 -1.9674  0.4166 -0.3118
 4054SOL    HW223622   3.731   3.252   5.515  1.5351  0.1602 -3.5332
 4055SOL     OW23623   3.694   2.308  12.975  0.0029 -0.3491 -0.2050
 4055SOL    HW123624   3.642   2.353  13.041 -0.9919 -2.8093  0.6934
 4055SOL    HW223625   3.778   2.327  13.017  0.7525 -1.0786 -1.3474
 4056SOL     OW23626   3.138   4.064   0.733 -0.1192  0.6083  0.1243
 4056SOL    HW123627   3.214   4.021   0.773  0.6505  2.6945  0.8971
 4056SOL    HW223628   3.125   4.148   0.777  0.0324  0.7983 -0.1947
 4057SOL     OW23629   1.259   4.666  13.636  0.4457  0.7754  0.7413
 4057SOL    HW123630   1.349   4.641  13.655  0.7570 -0.3504 -2.3237
 4057SOL    HW223631   1.231   4.691  13.725 -1.9903 -1.0587  0.4684
 4058SOL     OW23632   1.354   3.331   2.333 -0.6006 -0.2474 -0.1228
 4058SOL    HW123633   1.428   3.390   2.345  1.0378 -2.4598  0.7218
 4058SOL    HW223634   1.395   3.272   2.269 -0.1525  0.4269 -0.4580
 4059SOL     OW23635   0.908   2.793   3.903 -0.9908  0.2732  0.3092
 4059SOL    HW123636   0.867   2.708   3.917  1.8147 -0.6656  2.9850
 4059SOL    HW223637   0.860   2.835   3.974 -0.6160  0.9555  0.1615
 4060SOL     OW23638   1.437   1.378   7.761 -0.1064  0.2223 -0.3252
 4060SOL    HW123639   1.360   1.327   7.788  0.8914 -0.3050  1.5532
 4060SOL    HW223640   1.442   1.420   7.847  0.7434  0.2633 -0.3956
 4061SOL     OW23641   3.620   2.954  15.255 -0.1460 -0.2527  0.4412
 4061SOL    HW123642   3.525   2.962  15.243 -0.0114 -1.6648 -1.6023
 4061SOL    HW223643   3.614   2.957  15.351  0.3584  1.3886  0.4155
 4062SOL     OW23644   0.717   4.040   4.042 -0.4547  0.3035 -0.1905
 4062SOL    HW123645   0.781   4.007   4.106  0.9299  1.1716 -1.1299
 4062SOL    HW223646   0.772   4.073   3.972 -0.1154  0.0276 -0.0552
 4063SOL     OW23647   3.237   3.299   7.123 -0.2353  0.1696  0.3010
 4063SOL    HW123648   3.325   3.301   7.085 -0.1852  0.9381  0.4679
 4063SOL    HW223649   3.233   3.210   7.159 -1.2016  1.3018  2.9239
 4064SOL     OW23650   3.014   3.618  16.675  0.1540 -0.2801  0.2374
 4064SOL    HW123651   3.026   3.586  16.765 -1.1901 -0.4715  0.3563
 4064SOL    HW223652   3.068   3.551  16.632  3.7064  2.6262  0.1866
 4065SOL     OW23653   0.621   4.444   2.429 -0.0995 -0.2840 -0.7715
 4065SOL    HW123654   0.702   4.394   2.434  0.2518  0.4430  0.9743
 4065SOL    HW223655   0.576   4.415   2.350 -3.0861  0.8394  0.5103
 4066SOL     OW23656   2.405   4.238   2.635 -0.1040  0.0139 -0.1328
 4066SOL    HW123657   2.457   4.279   2.705  1.3237  0.2793 -1.3445
 4066SOL    HW223658   2.385   4.151   2.671 -1.3225  0.1908 -0.3946
 4067SOL     OW23659   0.738   2.796  12.568 -0.5562 -0.3272 -0.2764
 4067SOL    HW123660   0.778   2.868  12.617 -1.7147  0.5150 -0.5630
 4067SOL    HW223661   0.652   2.781  12.607 -0.4285 -1.4404 -0.4234
 4068SOL     OW23662   3.543   4.090   7.180  0.1168  0.6957  0.2518
 4068SOL    HW123663   3.608   4.044   7.126  0.7753  0.7311  1.0207
 4068SOL    HW223664   3.455   4.060   7.158  0.8270 -0.1314 -1.4675
 4069SOL     OW23665   3.412   3.967   0.900 -0.6683  0.4936  0.3435
 4069SOL    HW123666   3.485   4.023   0.928 -0.3408  1.2134 -1.9661
 4069SOL    HW223667   3.420   3.974   0.805  0.8857 -0.0850  0.4180
 4070SOL     OW23668   1.162   3.151   6.822  0.1006  0.2056  0.2567
 4070SOL    HW123669   1.110   3.148   6.742  0.6204  0.1258 -0.0746
 4070SOL    HW223670   1.242   3.197   6.797  0.4973 -1.2361 -1.1567
 4071SOL     OW23671   2.205   0.017   7.043 -0.0876 -0.1695 -0.3793
 4071SOL    HW123672   2.281   4.722   7.098  0.1868  0.5872 -0.5053
 4071SOL    HW223673   2.131   0.010   7.105  0.0075 -1.1978 -0.3735
 4072SOL     OW23674   0.454   1.475   9.908 -0.2761 -0.6428  0.3535
 4072SOL    HW123675   0.511   1.401   9.886  0.3598 -0.1200  0.2536
 4072SOL    HW223676   0.507   1.515   9.976  0.7755 -0.3941 -0.6028
 4073SOL     OW23677   2.412   0.701   0.713 -0.1263 -0.1586 -0.0829
 4073SOL    HW123678   2.460   0.782   0.729  0.3042 -0.5762  0.7332
 4073SOL    HW223679   2.322   0.724   0.738  0.0268  0.3291  0.0195
 4074SOL     OW23680   3.656   3.071   3.519 -0.2482 -0.1727 -0.2202
 4074SOL    HW123681   3.687   3.124   3.446 -0.9582  1.2417  0.5038
 4074SOL    HW223682   3.650   2.982   3.484  2.2336 -0.6415  0.5474
 4075SOL     OW23683   1.980   3.664   9.701  0.0073  0.2501 -0.3107
 4075SOL    HW123684   2.060   3.626   9.737 -0.1777 -0.1198 -0.2864
 4075SOL    HW223685   2.001   3.756   9.717  1.6899  0.1634 -2.1552
 4076SOL     OW23686   1.857   1.534   0.643  0.2100 -0.1460 -0.0469
 4076SOL    HW123687   1.888   1.510   0.730 -0.7112 -0.0583  0.2982
 4076SOL    HW223688   1.855   1.629   0.658 -0.0230  0.3662 -3.4112
 4077SOL     OW23689   0.663   3.392   6.206  0.1734 -0.0933  0.5467
 4077SOL    HW123690   0.728   3.381   6.136  0.0246 -2.6929  0.8459
 4077SOL    HW223691   0.709   3.355   6.280 -1.1236  0.7094  1.7501
 4078SOL     OW23692   1.647   3.125  16.248  0.2918  0.0840  0.2510
 4078SOL    HW123693   1.630   3.138  16.155 -1.5973 -1.6599  0.3559
 4078SOL    HW223694   1.644   3.215  16.281  0.2578 -0.6903  2.3700
 4079SOL     OW23695   1.852   4.182  14.799 -0.5471 -0.0175  0.1304
 4079SOL    HW123696   1.769   4.215  14.765 -1.1166  0.9235  2.4094
 4079SOL    HW223697   1.825   4.092  14.818 -0.2705 -0.2471 -0.5824
 4080SOL     OW23698   1.230   0.022   2.172  0.4739 -0.1360 -0.2015
 4080SOL    HW123699   1.282   4.676   2.132 -3.9863 -1.9706 -2.6916
 4080SOL    HW223700   1.298   0.069   2.221  0.7185 -0.3279 -0.3552
 4081SOL     OW23701   1.334   2.453  15.641  0.6218  0.2024 -0.0067
 4081SOL    HW123702   1.348   2.488  15.729 -0.5866  1.8770 -0.4814
 4081SOL    HW223703   1.422   2.418  15.625 -0.5726 -2.2412 -1.2757
 4082SOL     OW23704   3.589   4.462  16.263 -0.0809 -0.3087  0.6686
 4082SOL    HW123705   3.592   4.391  16.326 -0.8203  0.2390  1.3262
 4082SOL    HW223706   3.527   4.431  16.197  0.2681  1.1173 -0.3405
 4083SOL     OW23707   4.458   4.431   9.396  0.4983 -0.3572  0.3237
 4083SOL    HW123708   4.394   4.368   9.364  0.1642  1.2409 -2.1781
 4083SOL    HW223709   4.491   4.385   9.473  2.6658  1.4296  0.4792
 4084SOL     OW23710   1.618   3.683   9.016 -0.1775  0.2465  0.2175
 4084SOL    HW123711   1.658   3.766   9.044 -1.1016  0.2244  1.6183
 4084SOL    HW223712   1.686   3.633   8.970 -1.0115 -0.3901 -0.3088
 4085SOL     OW23713   0.206   3.411   1.235  0.0217  0.1147 -0.3398
 4085SOL    HW123714   0.196   3.473   1.163 -1.5845 -3.5097 -3.2311
 4085SOL    HW223715   0.198   3.478   1.303 -0.1853 -0.8442  0.5709
 4086SOL     OW23716   2.088   0.135   3.041  0.0107 -0.6022  0.3624
 4086SOL    HW123717   2.163   0.093   3.084  0.3957 -0.9026 -0.5870
 4086SOL    HW223718   2.116   0.223   3.016  0.0192 -1.2521 -1.9418
 4087SOL     OW23719   2.394   2.534   7.948 -0.2571 -0.0283  0.1287
 4087SOL    HW123720   2.478   2.551   7.905 -1.3839  0.8341 -1.6962
 4087SOL    HW223721   2.417   2.485   8.027 -0.1628 -1.3557 -0.7105
 4088SOL     OW23722   2.676   2.332   3.719  0.2565  0.5451  0.1561
 4088SOL    HW123723   2.606   2.397   3.731 -1.3056 -1.0460 -0.3128
 4088SOL    HW223724   2.724   2.355   3.798 -0.8104  0.0476  0.9584
 4089SOL     OW23725   2.955   2.750   7.158  0.4678 -0.2427  0.4881
 4089SOL    HW123726   2.901   2.769   7.234 -1.8242 -0.2996 -1.1003
 4089SOL    HW223727   2.983   2.837   7.128 -1.3408  0.4819  0.9170
 4090SOL     OW23728   1.930   3.963   5.996  0.3771  0.4131  0.9545
 4090SOL    HW123729   2.005   3.937   6.050  0.8826  2.3199  1.1508
 4090SOL    HW223730   1.885   4.031   6.047 -0.1678 -0.0595  1.1106
 4091SOL     OW23731   4.075   2.497   6.781 -0.1130  0.1364 -0.2021
 4091SOL    HW123732   4.053   2.404   6.782  1.3422 -0.1857  0.9885
 4091SOL    HW223733   3.993   2.540   6.756 -2.6143 -2.6350  3.2313
 4092SOL     OW23734   1.091   0.210   2.330 -0.6237  0.0168 -0.1672
 4092SOL    HW123735   1.129   0.275   2.270  0.0468 -1.0941 -0.9360
 4092SOL    HW223736   1.125   0.131   2.288 -0.4840  0.2425 -0.4815
 4093SOL     OW23737   2.490   4.501  15.124  0.5731 -0.0829  0.6097
 4093SOL    HW123738   2.571   4.544  15.098 -1.8919  4.0385 -0.2872
 4093SOL    HW223739   2.455   4.477  15.039  0.7069  1.0862  0.2231
 4094SOL     OW23740   3.093   3.007   5.918  0.2621  0.3559 -0.3723
 4094SOL    HW123741   3.079   3.044   6.005  1.9309 -3.0014  1.3132
 4094SOL    HW223742   3.033   2.932   5.921  0.3624  0.2786 -0.3041
 4095SOL     OW23743   3.661   1.657   5.917  0.9266 -0.1490  0.0402
 4095SOL    HW123744   3.597   1.590   5.894 -2.5410  2.9366  0.5816
 4095SOL    HW223745   3.729   1.601   5.953  1.0086  0.0342  0.1694
 4096SOL     OW23746   3.344   2.817   8.654  0.4348 -0.3725  0.9483
 4096SOL    HW123747   3.251   2.835   8.667  0.2396  0.3429 -1.4334
 4096SOL    HW223748   3.364   2.909   8.636 -0.8799 -0.5406 -1.3831
 4097SOL     OW23749   0.037   3.677  13.594 -0.5616 -0.0849  0.5486
 4097SOL    HW123750   0.055   3.763  13.630  0.3573 -0.0110 -0.0770
 4097SOL    HW223751   0.070   3.688  13.504 -1.1732 -0.4757  0.2768
 4098SOL     OW23752   1.994   4.498  13.872  0.3831 -0.1720 -0.1758
 4098SOL    HW123753   2.043   4.446  13.808 -0.9321  0.0262 -1.3483
 4098SOL    HW223754   2.062   4.535  13.927  1.0311 -1.0713 -0.3559
 4099SOL     OW23755   4.071   2.781   0.141  0.9314 -0.1048  0.2937
 4099SOL    HW123756   4.013   2.844   0.099 -1.1072 -0.7445  2.1744
 4099SOL    HW223757   4.081   2.707   0.081 -0.2872 -0.8882  1.0673
 4100SOL     OW23758   4.169   1.974  13.773 -0.5269  0.5567  0.0320
 4100SOL    HW123759   4.120   1.970  13.691  0.6576  2.6463 -0.7927
 4100SOL    HW223760   4.106   2.014  13.833 -0.6117 -0.7085  0.7794
 4101SOL     OW23761   0.935   2.407   6.334  0.7104  0.3202  0.5564
 4101SOL    HW123762   0.917   2.339   6.399  2.2915 -0.1235  0.5373
 4101SOL    HW223763   0.849   2.408   6.291  0.6078  0.2529  0.7607
 4102SOL     OW23764   2.815   2.456   6.700 -0.5647  0.3730  0.4149
 4102SOL    HW123765   2.869   2.499   6.765  0.0082 -0.3108  0.3928
 4102SOL    HW223766   2.883   2.444   6.634 -1.5569 -2.5172 -0.1160
 4103SOL     OW23767   2.563   2.752   9.547  0.2567  0.3645 -0.3475
 4103SOL    HW123768   2.550   2.846   9.556 -2.8437 -0.0870 -0.1843
 4103SOL    HW223769   2.572   2.746   9.451  0.0046 -0.4104 -0.3252
 4104SOL     OW23770   1.838   1.210  11.573 -0.3761 -0.1357 -0.0660
 4104SOL    HW123771   1.771   1.151  11.606 -0.7230  0.4798  0.3267
 4104SOL    HW223772   1.816   1.206  11.480 -2.5037 -1.9983  0.5060
 4105SOL     OW23773   0.921   1.383   4.158 -0.0398  0.6965 -0.1234
 4105SOL    HW123774   0.918   1.378   4.254  0.8065  2.2480 -0.0077
 4105SOL    HW223775   0.962   1.466   4.135 -3.1810  2.0587 -0.8957
 4106SOL     OW23776   0.829   0.903   8.051 -0.5244  0.8495 -0.0678
 4106SOL    HW123777   0.925   0.906   8.055 -0.5897  1.7520  0.9375
 4106SOL    HW223778   0.806   0.919   7.960  0.2135  2.6105  0.0412
 4107SOL     OW23779   3.877   1.939   7.914 -0.1425  0.6597 -0.0444
 4107SOL    HW123780   3.952   1.990   7.883 -0.3002  0.8613 -0.0899
 4107SOL    HW223781   3.814   2.009   7.900 -0.2521  0.4374 -0.6745
 4108SOL     OW23782   3.405   0.284   2.858 -0.0782 -0.0107 -0.0633
 4108SOL    HW123783   3.321   0.280   2.812  0.2726 -0.6733 -0.6303
 4108SOL    HW223784   3.397   0.211   2.920  1.8783 -0.9678 -0.9603
 4109SOL     OW23785   3.658   2.481   5.933 -0.6019  0.1403 -0.4144
 4109SOL    HW123786   3.598   2.553   5.950  0.1244  0.7768 -0.5355
 4109SOL    HW223787   3.606   2.403   5.950  0.6469 -0.6323 -0.1576
 4110SOL     OW23788   0.312   4.710  14.497 -0.0237  0.0456 -0.2221
 4110SOL    HW123789   0.273   4.627  14.470  0.6084 -0.6238  0.9574
 4110SOL    HW223790   0.256   0.052  14.457 -0.6232  0.5016  1.3924
 4111SOL     OW23791   3.692   1.289   8.361 -0.0114 -0.0367  0.2658
 4111SOL    HW123792   3.669   1.368   8.312 -2.6938 -1.4810 -0.7869
 4111SOL    HW223793   3.608   1.247   8.344  1.7261 -2.3216 -2.7611
 4112SOL     OW23794   2.038   0.135   9.234 -0.2602 -0.1640  0.7038
 4112SOL    HW123795   2.132   0.124   9.223  0.0619  2.8010  0.4227
 4112SOL    HW223796   2.038   0.188   9.314 -3.5564  2.2041 -0.8637
 4113SOL     OW23797   4.176   0.211   4.467 -0.3111  0.2768  0.1185
 4113SOL    HW123798   4.263   0.249   4.456 -0.7184  0.3719 -2.9511
 4113SOL    HW223799   4.182   0.157   4.388 -2.7043  2.4991 -1.6090
 4114SOL     OW23800   2.606   4.659   5.776 -0.1130  0.1696  0.2285
 4114SOL    HW123801   2.594   4.573   5.818  0.3418 -1.1582 -2.3567
 4114SOL    HW223802   2.519   4.699   5.775  0.0840  0.5490 -1.0048
 4115SOL     OW23803   3.560   3.862  13.191 -0.4326 -0.4215  0.5397
 4115SOL    HW123804   3.489   3.803  13.166  0.5112 -1.6537  0.7739
 4115SOL    HW223805   3.547   3.876  13.285 -0.9447 -1.2405  0.5905
 4116SOL     OW23806   2.542   0.848   6.383  0.3109  0.1268 -0.0107
 4116SOL    HW123807   2.554   0.813   6.471  1.1249 -0.9650 -0.5634
 4116SOL    HW223808   2.457   0.807   6.367  1.1200 -1.2134 -0.8002
 4117SOL     OW23809   4.529   2.063  15.990 -0.4963 -0.4620 -0.2812
 4117SOL    HW123810   4.477   2.092  15.915 -2.3980  1.2243  1.7058
 4117SOL    HW223811   4.482   1.983  16.016 -0.2394 -0.4010  0.3674
 4118SOL     OW23812   2.851   3.555   5.016  0.3494  0.4803  0.3093
 4118SOL    HW123813   2.883   3.639   5.048  0.9870  0.7576 -1.0548
 4118SOL    HW223814   2.934   3.510   4.999  0.2914  1.0362 -1.4503
 4119SOL     OW23815   2.015   3.914  14.952 -0.6050  0.3136 -0.0406
 4119SOL    HW123816   2.008   3.859  14.874  1.0862  0.5648 -0.3584
 4119SOL    HW223817   2.099   3.887  14.990 -0.6562  0.7460  0.3844
 4120SOL     OW23818   3.070   2.180  13.272  0.2106 -0.0112  0.2601
 4120SOL    HW123819   3.040   2.195  13.182 -2.2424 -2.3399  0.7062
 4120SOL    HW223820   3.004   2.231  13.318 -0.5231 -2.1289  1.5481
 4121SOL     OW23821   1.887   0.539  17.627  0.4680 -0.6514 -0.1593
 4121SOL    HW123822   1.960   0.576  17.578  1.1411 -0.9066  0.6455
 4121SOL    HW223823   1.854   0.615  17.676 -2.4028 -0.1857 -2.8035
 4122SOL     OW23824   4.600   4.383  11.476 -0.0417 -0.5581  0.0156
 4122SOL    HW123825   4.565   4.296  11.494 -0.0512 -0.4070  0.7215
 4122SOL    HW223826   4.558   4.432  11.546 -2.3205 -1.2966 -0.8375
 4123SOL     OW23827   2.376   2.814   1.863 -0.3319  0.1738 -0.5041
 4123SOL    HW123828   2.451   2.859   1.903  0.2647 -1.9461  0.7166
 4123SOL    HW223829   2.417   2.735   1.830 -3.3975 -0.9105 -1.7112
 4124SOL     OW23830   0.032   1.551   4.210 -0.5183  0.2197  0.6237
 4124SOL    HW123831   4.708   1.542   4.293 -0.6528  0.3353  0.5580
 4124SOL    HW223832   4.700   1.598   4.148  0.2452 -0.4348 -0.5480
 4125SOL     OW23833   0.806   0.459   3.961 -0.1479 -0.0095  0.4045
 4125SOL    HW123834   0.844   0.542   3.991 -3.1676  1.8915 -1.1000
 4125SOL    HW223835   0.743   0.497   3.900  1.5809  1.3426 -0.5374
 4126SOL     OW23836   2.325   1.364   1.909 -0.1633 -0.0887 -0.2104
 4126SOL    HW123837   2.353   1.454   1.921  1.1796 -0.7945  1.8878
 4126SOL    HW223838   2.263   1.369   1.982 -1.7281 -0.9698 -1.4790
 4127SOL     OW23839   3.653   1.160   2.979 -0.6079  0.4700  0.2599
 4127SOL    HW123840   3.593   1.112   2.921 -1.4388  1.2518  0.4682
 4127SOL    HW223841   3.719   1.188   2.915  1.0706 -0.1072  1.7365
 4128SOL     OW23842   4.580   1.507   2.279 -0.3163  0.1936 -0.0219
 4128SOL    HW123843   4.661   1.542   2.243  0.6217 -0.8468  1.0862
 4128SOL    HW223844   4.540   1.463   2.204 -1.2335 -2.0557  1.7689
 4129SOL     OW23845   4.628   2.564   2.369 -0.2234  0.5975  0.3701
 4129SOL    HW123846   4.555   2.532   2.315  0.7705  1.2829 -1.3784
 4129SOL    HW223847   4.575   2.616   2.430 -0.2075  0.2470  0.6833
 4130SOL     OW23848   2.749   3.076   2.503 -0.3122 -0.2277  0.1896
 4130SOL    HW123849   2.808   3.094   2.576 -0.1544  0.9281 -0.2243
 4130SOL    HW223850   2.702   3.159   2.503 -0.3106 -0.2281 -1.7885
 4131SOL     OW23851   2.200   2.988   1.764  0.0516  0.1372 -0.9575
 4131SOL    HW123852   2.258   2.930   1.814 -0.0001  0.8521 -0.0668
 4131SOL    HW223853   2.180   2.939   1.685 -3.2657 -0.9527  0.5710
 4132SOL     OW23854   4.264   0.140   2.537 -0.1165 -0.2644 -0.5323
 4132SOL    HW123855   4.315   0.064   2.507  2.9406  0.9134  1.6276
 4132SOL    HW223856   4.183   0.092   2.555 -0.5637  0.5571 -0.3844
 4133SOL     OW23857   3.999   3.327   3.109 -0.2800  0.0729  0.0528
 4133SOL    HW123858   4.050   3.374   3.174 -0.1811 -0.5613  0.4354
 4133SOL    HW223859   4.065   3.328   3.040  1.4165  0.2087  1.6799
 4134SOL     OW23860   3.982   3.515  13.731  0.3445  0.6271  0.5141
 4134SOL    HW123861   3.925   3.591  13.730  0.9154  1.0604  1.1989
 4134SOL    HW223862   4.046   3.549  13.793  0.3340  2.7693 -0.6565
 4135SOL     OW23863   2.045   2.578   5.666 -0.2381  0.3834 -0.0421
 4135SOL    HW123864   2.119   2.575   5.727 -0.9286 -3.4371  0.6071
 4135SOL    HW223865   2.027   2.485   5.676 -4.6572  0.8062 -4.4867
 4136SOL     OW23866   2.440   0.549   4.060 -0.2257  0.0465 -0.3009
 4136SOL    HW123867   2.491   0.551   3.979 -0.0728 -0.3155 -0.2167
 4136SOL    HW223868   2.409   0.635   4.087 -0.7604  0.0016 -0.7767
 4137SOL     OW23869   1.790   0.951   1.626 -0.1525 -0.3394 -0.2924
 4137SOL    HW123870   1.790   1.045   1.607 -1.3318 -0.0318  1.3299
 4137SOL    HW223871   1.878   0.940   1.662 -0.8360 -1.0810  1.1472
 4138SOL     OW23872   1.579   4.101   2.954 -0.4297 -0.7897  0.4832
 4138SOL    HW123873   1.636   4.077   2.881  0.9478 -1.0469  1.6302
 4138SOL    HW223874   1.499   4.065   2.916  0.0074  0.2347 -1.3965
 4139SOL     OW23875   4.581   0.981   1.603  0.1953 -0.1675 -0.3606
 4139SOL    HW123876   4.639   0.911   1.575  3.4154  1.2516  2.7027
 4139SOL    HW223877   4.571   1.047   1.535 -0.0970  1.0489  0.8408
 4140SOL     OW23878   1.974   4.453   7.493 -0.6671 -0.3068  0.4039
 4140SOL    HW123879   2.062   4.487   7.476 -1.0300  1.1127  1.3075
 4140SOL    HW223880   1.924   4.529   7.523 -0.5428 -0.1937  0.3261
 4141SOL     OW23881   0.243   0.593   1.396 -0.2066  0.1165 -0.3369
 4141SOL    HW123882   0.215   0.666   1.341  1.7283  0.9705 -0.1557
 4141SOL    HW223883   0.335   0.578   1.374  0.3272  1.0312  1.2654
 4142SOL     OW23884   4.459   3.783  10.705  0.6155  0.4579 -0.5274
 4142SOL    HW123885   4.396   3.855  10.704 -0.0680 -0.1353  0.4378
 4142SOL    HW223886   4.424   3.737  10.781 -1.8527  1.4542 -1.0772
 4143SOL     OW23887   1.681   3.981  12.734  0.2256  0.3720 -0.3649
 4143SOL    HW123888   1.643   4.037  12.803 -1.5518  0.5458 -1.4878
 4143SOL    HW223889   1.730   4.041  12.678 -2.4340  0.1865 -2.8934
 4144SOL     OW23890   0.290   1.628   3.540 -0.8266 -0.4270  0.7024
 4144SOL    HW123891   0.285   1.600   3.449  0.8319  0.2753  0.3948
 4144SOL    HW223892   0.337   1.553   3.576 -1.2416 -0.7557  0.5640
 4145SOL     OW23893   1.589   0.820   1.718  0.7211 -0.3049  0.0250
 4145SOL    HW123894   1.569   0.872   1.795 -1.3536  1.3631 -1.6307
 4145SOL    HW223895   1.647   0.878   1.668 -2.1094  1.8568 -0.7571
 4146SOL     OW23896   3.830   0.586   4.986 -0.2688 -0.0676  0.1451
 4146SOL    HW123897   3.835   0.679   4.966 -0.4045 -0.2092 -0.5254
 4146SOL    HW223898   3.849   0.549   4.900  2.1097 -1.3306  1.1968
 4147SOL     OW23899   4.695   3.600   6.395 -0.4159  0.0512 -0.4854
 4147SOL    HW123900   4.723   3.691   6.382  1.4613 -0.5838 -0.8734
 4147SOL    HW223901   0.047   3.554   6.430 -0.2186 -0.5270 -1.6706
 4148SOL     OW23902   1.558   3.452  14.616  0.0980 -0.1389  0.0546
 4148SOL    HW123903   1.503   3.402  14.676 -1.1856  0.4570 -0.6417
 4148SOL    HW223904   1.542   3.405  14.534  1.0424 -1.8062  0.8088
 4149SOL     OW23905   4.707   0.952   1.147 -0.3132 -0.0823 -0.5660
 4149SOL    HW123906   0.042   1.020   1.177 -1.5117  1.1117 -0.9269
 4149SOL    HW223907   0.034   0.889   1.096  0.8623  1.6886 -1.5536
 4150SOL     OW23908   0.365   0.642   8.509  0.2134  0.9399  0.6944
 4150SOL    HW123909   0.324   0.701   8.446 -1.2570  0.9832  1.6969
 4150SOL    HW223910   0.442   0.616   8.458  0.4566  0.7834  1.1417
 4151SOL     OW23911   0.410   0.221  10.939  0.1867 -0.0069  0.5109
 4151SOL    HW123912   0.337   0.283  10.932  0.0117 -0.1264  1.2487
 4151SOL    HW223913   0.471   0.249  10.870 -2.0367  0.9659 -1.0930
 4152SOL     OW23914   3.364   4.305   1.385  0.2098 -0.4260  0.4411
 4152SOL    HW123915   3.416   4.280   1.461  1.1833 -0.5400 -0.2603
 4152SOL    HW223916   3.281   4.313   1.431  0.7432  0.0473  1.3153
 4153SOL     OW23917   3.492   1.613   6.174  0.0679 -0.3473  0.7284
 4153SOL    HW123918   3.569   1.558   6.185  0.6533  0.0874 -1.2933
 4153SOL    HW223919   3.417   1.560   6.145 -1.4766  1.3489  1.6040
 4154SOL     OW23920   0.127   2.773   6.100  0.0550  0.6218  0.1432
 4154SOL    HW123921   0.127   2.682   6.073 -1.7325 -0.5122  3.9955
 4154SOL    HW223922   0.081   2.810   6.024 -1.5510  1.5475  1.5564
 4155SOL     OW23923   1.707   3.287   5.148  0.0548  0.9461 -0.5529
 4155SOL    HW123924   1.679   3.300   5.239  0.3329  0.4547 -0.3915
 4155SOL    HW223925   1.754   3.367   5.128 -0.0702  1.2987  0.5378
 4156SOL     OW23926   0.044   2.317   0.852 -0.0049 -1.0028 -0.1799
 4156SOL    HW123927   0.066   2.409   0.863  1.1772 -0.9970 -2.7969
 4156SOL    HW223928   0.044   2.288   0.944  0.7880  0.3003  0.2196
 4157SOL     OW23929   0.014   2.332  17.438  0.3754 -0.2302 -0.3305
 4157SOL    HW123930   4.654   2.315  17.478  0.8618 -0.3546  0.6511
 4157SOL    HW223931   4.705   2.322  17.349  0.9218  1.4681 -0.7301
 4158SOL     OW23932   1.320   1.525   8.904  0.4172  0.3857  0.0740
 4158SOL    HW123933   1.246   1.466   8.896  0.3194  0.5572 -0.2977
 4158SOL    HW223934   1.345   1.533   8.812 -2.5812 -2.2182 -0.9392
 4159SOL     OW23935   3.019   3.620   7.197  0.2756  0.0068  0.6776
 4159SOL    HW123936   3.013   3.650   7.107 -1.3282  3.2715  1.8711
 4159SOL    HW223937   2.960   3.677   7.247  0.4953 -0.4701  1.4853
 4160SOL     OW23938   4.720   0.697   4.287  0.4456 -0.3110  0.5515
 4160SOL    HW123939   0.019   0.788   4.273 -1.8207 -0.1228 -2.0585
 4160SOL    HW223940   0.033   0.682   4.374  1.3598 -0.2392  0.1653
 4161SOL     OW23941   0.546   1.777   4.640 -0.5468 -0.8590  0.8976
 4161SOL    HW123942   0.567   1.703   4.583 -1.5064 -0.5578  0.1574
 4161SOL    HW223943   0.488   1.814   4.573  0.7205 -0.6887 -0.1056
 4162SOL     OW23944   1.981   2.162   0.159  0.4944  0.4386 -0.2950
 4162SOL    HW123945   2.071   2.134   0.173  0.4915  1.1097  1.0214
 4162SOL    HW223946   1.983   2.256   0.176 -0.5961  0.0775  1.8644
 4163SOL     OW23947   1.444   3.625  14.900 -0.3101 -0.5717  0.4110
 4163SOL    HW123948   1.538   3.636  14.916  0.1360  0.8678 -2.9817
 4163SOL    HW223949   1.415   3.622  14.991  0.3945  0.0296  0.6601
 4164SOL     OW23950   0.419   3.465   4.958  0.1993 -0.1670  0.1535
 4164SOL    HW123951   0.370   3.543   4.931 -0.7108 -0.7612  0.1061
 4164SOL    HW223952   0.349   3.422   5.006 -0.3425  1.0886  0.4846
 4165SOL     OW23953   2.209   0.912  13.578  0.2221  0.7526 -0.0934
 4165SOL    HW123954   2.284   0.855  13.561 -0.1872  0.0613  0.4138
 4165SOL    HW223955   2.143   0.857  13.621 -0.8164  2.4285  0.4671
 4166SOL     OW23956   2.261   1.040   2.920  0.2897 -0.4983  0.6759
 4166SOL    HW123957   2.325   1.105   2.891 -2.3760  0.9132 -2.1467
 4166SOL    HW223958   2.231   1.073   3.004  1.6253 -0.7069  1.2289
 4167SOL     OW23959   4.082   0.935   5.751  0.4332  0.1110  0.0042
 4167SOL    HW123960   4.135   0.897   5.681  0.5132 -0.8773  0.6018
 4167SOL    HW223961   4.001   0.960   5.707  0.0355  1.2390  1.3532
 4168SOL     OW23962   1.374   0.936   0.578 -0.3409  0.2866  0.0486
 4168SOL    HW123963   1.429   0.997   0.529 -0.4909 -0.5467 -1.1603
 4168SOL    HW223964   1.430   0.932   0.655 -0.0319  1.6920 -0.0989
 4169SOL     OW23965   3.053   2.600   9.588 -0.2221 -0.3975  0.0097
 4169SOL    HW123966   3.135   2.623   9.632 -0.2681  0.2680 -0.2638
 4169SOL    HW223967   2.980   2.632   9.642  1.6190  1.7387  1.2095
 4170SOL     OW23968   2.340   1.425   5.624 -0.3042 -0.5517 -0.5495
 4170SOL    HW123969   2.300   1.388   5.703 -1.0013  1.9626  0.2641
 4170SOL    HW223970   2.282   1.377   5.565  0.1377 -1.6838 -0.0572
 4171SOL     OW23971   3.154   2.948   9.692 -0.2817  0.2600 -0.1579
 4171SOL    HW123972   3.222   3.009   9.722 -0.6549 -0.5918  2.4965
 4171SOL    HW223973   3.199   2.865   9.706 -0.4759 -0.2931 -3.0280
 4172SOL     OW23974   2.474   1.776   6.514 -0.2840 -0.1826  0.2175
 4172SOL    HW123975   2.548   1.725   6.547 -0.4583 -0.0674  0.7873
 4172SOL    HW223976   2.399   1.717   6.523 -0.1750 -0.6863 -2.1657
 4173SOL     OW23977   4.645   3.315  16.818  0.0619 -0.3806 -0.2883
 4173SOL    HW123978   4.590   3.241  16.842 -1.1079  0.1751 -1.2255
 4173SOL    HW223979   4.586   3.390  16.816  1.2777  0.5693 -0.2580
 4174SOL     OW23980   3.449   0.797   9.230 -0.2517 -0.5983 -0.3796
 4174SOL    HW123981   3.406   0.727   9.280  1.6450 -1.5456 -0.0734
 4174SOL    HW223982   3.395   0.802   9.151 -0.2037  1.3808 -0.2839
 4175SOL     OW23983   1.586   3.225   8.295 -0.3489 -0.4732 -0.5658
 4175SOL    HW123984   1.493   3.209   8.308 -0.2555 -0.2498  0.3756
 4175SOL    HW223985   1.620   3.165   8.362  0.4962  0.1342 -0.4481
 4176SOL     OW23986   2.357   3.565   1.921  0.1986 -0.2238  0.5117
 4176SOL    HW123987   2.262   3.575   1.930  0.3009  2.4354 -1.4786
 4176SOL    HW223988   2.383   3.657   1.914 -1.4144  0.3699  2.3643
 4177SOL     OW23989   0.591   1.538   4.080  0.0264 -0.1509  0.4049
 4177SOL    HW123990   0.523   1.519   4.016 -0.0788  2.4378 -0.2322
 4177SOL    HW223991   0.587   1.457   4.131 -0.7422 -0.3344  0.0585
 4178SOL     OW23992   3.733   2.604   8.731 -0.3208 -0.2147 -0.0737
 4178SOL    HW123993   3.657   2.558   8.766  0.0391 -0.3848  0.4718
 4178SOL    HW223994   3.801   2.540   8.749 -0.9047 -0.8783 -0.2597
 4179SOL     OW23995   0.825   1.049   6.266  0.6108  0.3222 -0.5485
 4179SOL    HW123996   0.813   1.068   6.359  0.5614  0.1558 -0.5212
 4179SOL    HW223997   0.812   1.136   6.229  1.6665 -0.5060 -2.8948
 4180SOL     OW23998   1.874   3.058   8.798  1.1490  0.5909 -0.4312
 4180SOL    HW123999   1.896   3.076   8.889  1.9981  4.1438 -1.3671
 4180SOL    HW224000   1.877   2.962   8.794  1.3929  0.5628  0.3809
 4181SOL     OW24001   2.771   2.562   8.786 -0.0652  0.3261 -0.5056
 4181SOL    HW124002   2.861   2.593   8.774 -0.4338  2.6039  2.5812
 4181SOL    HW224003   2.725   2.645   8.774  0.8814  0.9689  0.3031
 4182SOL     OW24004   3.253   2.282   6.038 -0.2737  0.0993  0.2998
 4182SOL    HW124005   3.337   2.292   6.084 -0.1071 -0.0363  0.0188
 4182SOL    HW224006   3.229   2.192   6.060  2.0056 -0.5304  0.1918
 4183SOL     OW24007   4.477   4.256   3.315 -0.7312 -0.3845  0.9084
 4183SOL    HW124008   4.486   4.342   3.276 -0.2268 -1.1525 -0.6684
 4183SOL    HW224009   4.565   4.240   3.349 -0.1328  1.4673  0.2062
 4184SOL     OW24010   0.407   0.237  16.063  0.1585  0.9349  0.1330
 4184SOL    HW124011   0.318   0.229  16.097 -0.7921  0.9310 -2.4010
 4184SOL    HW224012   0.455   0.273  16.138 -1.2352 -0.3311  1.6432
 4185SOL     OW24013   4.657   1.778   8.162  0.1992  0.1511 -0.1060
 4185SOL    HW124014   4.661   1.813   8.251  1.1134  1.0245 -0.4909
 4185SOL    HW224015   4.662   1.682   8.166 -0.3998  0.1113 -0.2838
 4186SOL     OW24016   4.711   1.371   5.080  0.3216  0.1287  0.0438
 4186SOL    HW124017   4.648   1.435   5.048  0.8877  0.5748 -0.1716
 4186SOL    HW224018   4.698   1.313   5.006  2.9865  0.1378 -0.4103
 4187SOL     OW24019   4.079   3.704   1.049  0.2558  0.1307  0.0728
 4187SOL    HW124020   4.070   3.677   1.141 -0.5888 -4.3283 -1.2951
 4187SOL    HW224021   4.112   3.792   1.065  0.8355 -0.3062  1.3027
 4188SOL     OW24022   2.093   2.891   7.546 -0.5529  0.2224 -0.3542
 4188SOL    HW124023   2.035   2.840   7.603  0.3396 -1.0985 -0.6315
 4188SOL    HW224024   2.110   2.970   7.597 -0.0061  0.7995 -1.4111
 4189SOL     OW24025   3.744   1.481   6.325 -0.5617  0.1961  0.2822
 4189SOL    HW124026   3.753   1.452   6.416  0.0120 -0.6749 -0.0573
 4189SOL    HW224027   3.728   1.411   6.263  0.2371  1.4233 -1.2959
 4190SOL     OW24028   3.706   0.159  16.084  0.2459  0.0563  0.0541
 4190SOL    HW124029   3.693   0.142  15.991  1.9190 -2.8123  0.3582
 4190SOL    HW224030   3.799   0.135  16.083  0.1665 -0.2993  1.1040
 4191SOL     OW24031   3.755   1.013   7.475  0.0678 -0.1384 -0.1599
 4191SOL    HW124032   3.680   1.035   7.420 -0.1393  1.0332  0.5863
 4191SOL    HW224033   3.746   1.069   7.552 -0.4418 -0.7953  0.2497
 4192SOL     OW24034   3.948   4.480   4.518  0.2304  0.5464 -0.0970
 4192SOL    HW124035   3.876   4.434   4.474 -0.3749 -0.9442  2.4198
 4192SOL    HW224036   3.963   4.432   4.600 -1.4327 -0.2854 -0.2659
 4193SOL     OW24037   0.955   3.824  16.091  0.4223 -0.3305  0.2316
 4193SOL    HW124038   1.009   3.896  16.059  0.8007 -0.4990  0.5014
 4193SOL    HW224039   0.938   3.774  16.011 -1.1803 -2.4017  1.8496
 4194SOL     OW24040   4.341   0.002  11.916 -0.2590 -0.7666  0.0119
 4194SOL    HW124041   4.400   0.055  11.862 -0.9056  0.3886  0.4267
 4194SOL    HW224042   4.275   4.714  11.849  1.3892  0.9952 -1.9570
 4195SOL     OW24043   0.079   3.704  15.462  0.2430 -0.1408 -0.4276
 4195SOL    HW124044   4.721   3.725  15.417  0.1006 -0.0509 -0.1241
 4195SOL    HW224045   0.062   3.719  15.555  1.6394 -0.4377 -0.1304
 4196SOL     OW24046   2.944   3.311  16.803  0.0922 -0.1016  0.0125
 4196SOL    HW124047   2.896   3.348  16.729 -0.7939 -0.3759  0.4556
 4196SOL    HW224048   2.906   3.223  16.805  0.6894 -0.3544  0.3621
 4197SOL     OW24049   4.577   1.675   5.664 -0.2765 -0.0327  0.4118
 4197SOL    HW124050   4.579   1.707   5.754 -1.8664  2.8920 -0.5975
 4197SOL    HW224051   4.661   1.631   5.648 -0.1616  0.4883 -0.4707
 4198SOL     OW24052   1.423   4.521   5.441  0.0774  0.1530 -0.0871
 4198SOL    HW124053   1.461   4.567   5.516 -0.2451  1.6807 -0.8617
 4198SOL    HW224054   1.498   4.474   5.403 -0.6939  0.8621 -2.4794
 4199SOL     OW24055   4.321   3.247  11.166 -0.0506  0.7565 -0.0310
 4199SOL    HW124056   4.235   3.275  11.199 -0.9205 -0.8819 -0.8951
 4199SOL    HW224057   4.322   3.161  11.208  1.1503  1.2656  0.9798
 4200SOL     OW24058   4.227   4.683   6.926  0.5037 -0.1919 -0.3960
 4200SOL    HW124059   4.156   0.021   6.944  0.0235 -0.0977 -2.6527
 4200SOL    HW224060   4.306   0.010   6.909  0.4254  0.1285  0.1997
 4201SOL     OW24061   1.814   0.965   3.414 -0.0723 -0.6624  0.1254
 4201SOL    HW124062   1.881   0.940   3.478  0.1353  2.8675  1.2921
 4201SOL    HW224063   1.740   0.948   3.472  1.2151 -0.9503  1.6930
 4202SOL     OW24064   2.402   1.946   7.829  0.3953 -0.0477 -0.3019
 4202SOL    HW124065   2.325   1.989   7.792 -0.3670 -1.8673 -0.7758
 4202SOL    HW224066   2.396   1.990   7.914  0.4460  1.2086 -0.9459
 4203SOL     OW24067   1.784   0.527  11.329  0.4766 -0.4576 -0.6214
 4203SOL    HW124068   1.867   0.482  11.310  0.0073 -0.9698 -1.4371
 4203SOL    HW224069   1.766   0.599  11.269  1.6913  1.2692  1.0940
 4204SOL     OW24070   0.642   3.669   2.817  0.0833 -0.2831 -0.0764
 4204SOL    HW124071   0.687   3.620   2.885  1.6964  1.1626 -0.1013
 4204SOL    HW224072   0.575   3.608   2.786 -2.2470  1.3328  1.7624
 4205SOL     OW24073   2.069   0.075  15.394 -0.3019 -0.3596 -0.7942
 4205SOL    HW124074   2.014   0.081  15.315 -2.7321  2.1358  1.0782
 4205SOL    HW224075   2.151   0.056  15.349 -0.3908  0.8762 -1.4913
 4206SOL     OW24076   1.407   2.839   5.556  0.1951  0.3767 -0.6002
 4206SOL    HW124077   1.336   2.842   5.620  1.3530 -0.7539  0.7426
 4206SOL    HW224078   1.484   2.834   5.612 -1.8043 -1.8158  1.9624
 4207SOL     OW24079   0.783   2.919  13.006 -0.1249  0.9713 -0.7698
 4207SOL    HW124080   0.845   2.930  13.078 -0.4230 -1.6988 -0.1402
 4207SOL    HW224081   0.699   2.929  13.050  1.8918 -0.1629  3.3669
 4208SOL     OW24082   1.216   0.761  11.733  0.2702  0.7888  0.1134
 4208SOL    HW124083   1.200   0.855  11.724  1.3582  0.8228 -1.5422
 4208SOL    HW224084   1.300   0.757  11.687 -0.0808 -0.4851 -0.4070
 4209SOL     OW24085   1.759   2.825   3.084  0.0400 -0.1702 -0.2172
 4209SOL    HW124086   1.695   2.755   3.092 -0.1006 -0.3313 -2.6444
 4209SOL    HW224087   1.814   2.782   3.019  3.5110  0.5728  2.2226
 4210SOL     OW24088   2.754   1.669   4.682 -0.4193 -0.6808 -0.8106
 4210SOL    HW124089   2.841   1.697   4.653 -0.6405 -0.5559 -1.3598
 4210SOL    HW224090   2.754   1.589   4.630 -1.3922 -2.6975  2.3343
 4211SOL     OW24091   2.378   1.867  14.412 -0.1621  0.4844  0.1596
 4211SOL    HW124092   2.306   1.922  14.443 -0.2214  0.7362 -0.4151
 4211SOL    HW224093   2.372   1.880  14.317 -0.7996  0.1240  0.1471
 4212SOL     OW24094   0.961   3.840  10.210 -0.0032 -0.0813  0.1003
 4212SOL    HW124095   0.938   3.899  10.282 -1.1298  0.2680 -0.5237
 4212SOL    HW224096   0.980   3.761  10.260  0.5987 -0.2813 -0.4506
 4213SOL     OW24097   4.357   4.290   0.850 -0.4402  0.1468 -0.6696
 4213SOL    HW124098   4.443   4.279   0.889 -1.6383 -1.4791  1.5297
 4213SOL    HW224099   4.359   4.238   0.769  1.1489 -0.3823 -0.2833
 4214SOL     OW24100   3.712   2.812  10.383 -0.0567 -0.8152 -0.0880
 4214SOL    HW124101   3.795   2.842  10.420  0.0547 -1.4357  0.1604
 4214SOL    HW224102   3.651   2.878  10.416 -0.6783 -1.1244 -0.5952
 4215SOL     OW24103   0.370   2.116   2.643 -0.0500  0.2482 -0.2431
 4215SOL    HW124104   0.403   2.202   2.614 -1.2465  0.7450 -0.1122
 4215SOL    HW224105   0.289   2.119   2.593 -0.3661 -1.4516  0.1979
 4216SOL     OW24106   3.450   0.765   7.002 -0.1917  0.5057  0.3875
 4216SOL    HW124107   3.405   0.848   6.987  1.7778  1.2592 -1.4648
 4216SOL    HW224108   3.409   0.705   6.939 -0.2553  2.6567 -1.6063
 4217SOL     OW24109   2.523   2.262   7.838  0.0489  0.0345 -0.0352
 4217SOL    HW124110   2.439   2.241   7.799  0.0190 -3.4694  1.8673
 4217SOL    HW224111   2.521   2.208   7.917 -1.2333  0.2713  0.0903
 4218SOL     OW24112   4.021   4.050   0.896 -0.8009 -0.8000 -0.2860
 4218SOL    HW124113   4.088   4.038   0.963 -0.5491 -4.3541 -1.1374
 4218SOL    HW224114   3.939   4.049   0.945 -0.6029  1.4831  0.0816
 4219SOL     OW24115   1.523   1.146   6.387  0.3604  0.3160 -0.2606
 4219SOL    HW124116   1.474   1.126   6.466  0.3934  0.0056 -0.3195
 4219SOL    HW224117   1.542   1.240   6.391  1.7820 -0.0044  0.4935
 4220SOL     OW24118   3.066   4.275   9.987  0.1904  0.6241 -0.4481
 4220SOL    HW124119   3.158   4.291   9.965  0.0799  0.9159 -0.7020
 4220SOL    HW224120   3.017   4.318   9.917 -0.2139 -0.7300 -1.0081
 4221SOL     OW24121   1.237   2.448   1.409 -0.3521  0.7035 -0.0240
 4221SOL    HW124122   1.305   2.511   1.431 -0.3041  1.2388 -1.6553
 4221SOL    HW224123   1.224   2.405   1.493 -3.5602 -1.0089 -1.3489
 4222SOL     OW24124   3.813   1.591  13.058 -0.4402  0.1273 -0.3288
 4222SOL    HW124125   3.906   1.595  13.034  0.2997 -1.4058  2.2874
 4222SOL    HW224126   3.801   1.685  13.061 -0.1760  0.1281  0.6936
 4223SOL     OW24127   2.894   1.498   6.908 -0.2874 -0.1614  0.0292
 4223SOL    HW124128   2.888   1.402   6.906 -1.3943 -0.0740 -1.0980
 4223SOL    HW224129   2.987   1.512   6.893 -0.6952  2.7273  0.2446
 4224SOL     OW24130   1.512   1.971   1.722 -0.4496 -0.1287  0.3098
 4224SOL    HW124131   1.571   2.027   1.773 -1.1197  1.4157 -0.5761
 4224SOL    HW224132   1.435   1.956   1.776 -0.5091  1.3502  0.6418
 4225SOL     OW24133   0.413   2.144   4.762  0.7188 -0.0737 -0.2448
 4225SOL    HW124134   0.456   2.167   4.680  1.0169 -1.9983 -0.6287
 4225SOL    HW224135   0.354   2.068   4.758 -0.5090  0.9204 -0.7857
 4226SOL     OW24136   0.244   1.691   8.864 -0.1102  0.2720 -0.2644
 4226SOL    HW124137   0.215   1.627   8.799  1.1057  0.8399 -1.3760
 4226SOL    HW224138   0.300   1.753   8.817  0.1642  1.1658  1.2343
 4227SOL     OW24139   0.277   2.268   9.477  0.0121  0.2832  0.2361
 4227SOL    HW124140   0.368   2.272   9.448  0.3152 -1.4471  0.9183
 4227SOL    HW224141   0.275   2.175   9.499 -1.9176 -0.1571 -1.8521
 4228SOL     OW24142   3.179   4.208  14.078 -0.1555  0.3477 -0.3852
 4228SOL    HW124143   3.086   4.203  14.055  0.2669 -3.1629 -1.4040
 4228SOL    HW224144   3.176   4.279  14.142  1.3085  0.4747 -0.4551
 4229SOL     OW24145   1.818   0.484   2.523  0.0594  0.1964  0.7203
 4229SOL    HW124146   1.765   0.518   2.451  2.4646  1.6701 -0.3476
 4229SOL    HW224147   1.876   0.558   2.537 -0.1306  0.6394 -0.8241
 4230SOL     OW24148   3.610   2.175   5.213 -0.7399 -0.5655 -1.0134
 4230SOL    HW124149   3.547   2.209   5.150 -0.8443  1.1190  0.0229
 4230SOL    HW224150   3.557   2.177   5.292  0.5655  0.5929 -0.1694
 4231SOL     OW24151   2.934   2.527   8.105 -0.5179  0.6824  0.3679
 4231SOL    HW124152   2.880   2.452   8.079 -0.9491  1.5192 -1.1448
 4231SOL    HW224153   2.878   2.561   8.175  0.2862  1.2234  0.7459
 4232SOL     OW24154   2.811   1.254   7.102 -0.3442 -0.3638  0.1768
 4232SOL    HW124155   2.850   1.169   7.086  0.4008 -0.1297  0.7520
 4232SOL    HW224156   2.719   1.251   7.074  0.6748  0.4974 -3.2490
 4233SOL     OW24157   3.877   3.360  13.954  0.2901  0.7801 -0.5504
 4233SOL    HW124158   3.926   3.371  13.873  1.2282 -4.3084 -0.6944
 4233SOL    HW224159   3.787   3.353  13.921  0.4189 -0.7812 -0.5686
 4234SOL     OW24160   3.034   1.920  12.395 -0.6367 -0.0377 -0.0461
 4234SOL    HW124161   3.044   1.839  12.344  1.4385  0.2321 -0.0763
 4234SOL    HW224162   2.957   1.949  12.345 -2.4314 -0.8813  2.2489
 4235SOL     OW24163   3.617   3.024   8.842 -0.0098  0.0005 -0.1400
 4235SOL    HW124164   3.680   3.076   8.791  1.8919 -3.0638 -0.9002
 4235SOL    HW224165   3.529   3.058   8.823 -0.4254  0.2835  2.2462
 4236SOL     OW24166   2.779   2.337   3.195  0.6530  0.5944 -0.2676
 4236SOL    HW124167   2.850   2.273   3.197  1.8530  1.9007 -1.3922
 4236SOL    HW224168   2.733   2.309   3.274  3.6366 -3.0634  0.1913
 4237SOL     OW24169   1.620   4.490   8.709 -0.2670 -0.4551  0.4365
 4237SOL    HW124170   1.543   4.546   8.724 -0.0902 -0.3700  1.0273
 4237SOL    HW224171   1.690   4.546   8.677 -1.2566  0.1460 -0.7029
 4238SOL     OW24172   1.085   4.337   6.153  0.4101 -0.0628 -0.1180
 4238SOL    HW124173   1.020   4.274   6.185  1.0409 -0.3557  0.5659
 4238SOL    HW224174   1.084   4.319   6.059  0.8533  0.3810 -0.2084
 4239SOL     OW24175   2.365   0.995   6.603  0.2552 -0.1095 -0.5660
 4239SOL    HW124176   2.331   0.989   6.692 -1.5004 -1.9490 -1.3477
 4239SOL    HW224177   2.415   0.913   6.607  0.0548 -0.1927  0.1391
 4240SOL     OW24178   3.471   4.360   2.167  0.6487  0.1204 -0.0774
 4240SOL    HW124179   3.509   4.275   2.188  0.4627  0.3855  1.3659
 4240SOL    HW224180   3.550   4.410   2.146  0.3988 -0.3758 -2.1634
 4241SOL     OW24181   0.570   4.021   6.568 -0.4274  0.0094  0.0298
 4241SOL    HW124182   0.565   3.937   6.615 -0.1054 -0.3134 -0.5201
 4241SOL    HW224183   0.510   4.007   6.495 -0.4762 -1.3736  0.3273
 4242SOL     OW24184   0.482   4.301  14.289  0.4157  0.0556 -0.7777
 4242SOL    HW124185   0.459   4.347  14.370 -0.7337  3.2079 -2.8571
 4242SOL    HW224186   0.401   4.310  14.239 -0.6603  2.6938  1.3957
 4243SOL     OW24187   2.379   2.417  11.303 -0.1450  0.7011 -0.0162
 4243SOL    HW124188   2.377   2.478  11.377  0.8047 -0.3380  0.8629
 4243SOL    HW224189   2.300   2.452  11.261 -0.9472 -0.3849  0.5687
 4244SOL     OW24190   2.142   2.254  14.644  0.1679  0.0849 -0.0809
 4244SOL    HW124191   2.222   2.305  14.629  0.4036 -0.6941 -1.4637
 4244SOL    HW224192   2.093   2.284  14.567 -2.1239 -2.3185  0.4651
 4245SOL     OW24193   3.630   0.586   2.411 -0.2834 -0.2004 -0.5330
 4245SOL    HW124194   3.686   0.628   2.476  1.2362 -1.6020 -0.9426
 4245SOL    HW224195   3.611   0.508   2.461  0.1281  0.6405  0.9269
 4246SOL     OW24196   1.037   0.006   3.606  0.3146  0.3847  0.2753
 4246SOL    HW124197   0.996   0.080   3.651 -0.5974 -0.2868  0.5431
 4246SOL    HW224198   0.959   4.682   3.579  1.2526  0.0432 -1.8301
 4247SOL     OW24199   1.755   1.377   7.415 -0.2203 -0.0667 -0.2240
 4247SOL    HW124200   1.694   1.402   7.345  1.0509  0.2780 -1.2130
 4247SOL    HW224201   1.699   1.326   7.473  0.9156  0.0443  0.9684
 4248SOL     OW24202   1.857   4.437  15.294 -0.4664  0.4413 -0.3249
 4248SOL    HW124203   1.940   4.413  15.253  0.6899 -0.5777  2.6444
 4248SOL    HW224204   1.810   4.354  15.293  2.7051 -1.3562  3.3518
 4249SOL     OW24205   2.916   0.260   6.822  0.6785  0.1803 -0.0166
 4249SOL    HW124206   2.846   0.263   6.888  1.9057  0.8585  1.2499
 4249SOL    HW224207   2.963   0.185   6.860 -0.2917 -1.0159 -1.1563
 4250SOL     OW24208   0.102   3.117  16.609 -0.5564  0.2024 -0.4000
 4250SOL    HW124209   0.020   3.069  16.617 -1.6393  1.9536 -1.0760
 4250SOL    HW224210   0.114   3.166  16.690  3.3198 -0.6540 -0.4314
 4251SOL     OW24211   0.275   2.827  16.764 -0.3758 -0.5283  0.0210
 4251SOL    HW124212   0.192   2.795  16.800 -0.3133 -2.3138 -1.4371
 4251SOL    HW224213   0.284   2.908  16.815  1.0539  0.0677 -1.1578
 4252SOL     OW24214   1.022   2.812   8.483 -0.7314  0.2270  0.0417
 4252SOL    HW124215   1.054   2.813   8.574 -3.4281  3.0315  0.9540
 4252SOL    HW224216   1.095   2.761   8.449 -1.3852 -0.0160 -0.9786
 4253SOL     OW24217   0.628   0.234  14.902 -0.0013  0.1710 -0.0978
 4253SOL    HW124218   0.714   0.276  14.911 -0.0785  0.6433 -1.5155
 4253SOL    HW224219   0.604   0.244  14.810  1.1467 -2.8219 -0.7296
 4254SOL     OW24220   2.780   1.233  11.028 -0.0005 -0.9241  0.2405
 4254SOL    HW124221   2.747   1.317  10.999 -1.0009 -1.2494  0.4447
 4254SOL    HW224222   2.875   1.243  11.027  0.0669 -1.6861 -0.4732
 4255SOL     OW24223   2.149   0.706   5.522 -0.0144 -0.0748 -0.1787
 4255SOL    HW124224   2.221   0.656   5.483  0.6877  0.1453  0.8422
 4255SOL    HW224225   2.134   0.655   5.602  1.8238  0.1238  0.3026
 4256SOL     OW24226   0.437   0.887   5.925 -0.0706 -0.2448  0.1338
 4256SOL    HW124227   0.479   0.949   5.985 -0.1897 -0.6444  0.6355
 4256SOL    HW224228   0.443   0.939   5.845  2.5843  2.8011  2.3258
 4257SOL     OW24229   0.382   3.573   4.019 -0.5056 -0.0942 -0.1641
 4257SOL    HW124230   0.457   3.632   4.015  0.7548 -1.5464  2.0495
 4257SOL    HW224231   0.339   3.599   4.100  0.5329  1.6532 -0.1776
 4258SOL     OW24232   0.577   0.919   7.417  0.5482  0.6439 -0.1529
 4258SOL    HW124233   0.537   0.926   7.330 -0.1444  1.5287  0.2396
 4258SOL    HW224234   0.501   0.933   7.474  1.8664  0.3438  1.6709
 4259SOL     OW24235   1.458   2.101   7.262  0.6007 -0.0423  0.1258
 4259SOL    HW124236   1.469   2.013   7.224  1.9347 -0.2035  0.8824
 4259SOL    HW224237   1.540   2.110   7.311  0.8151  0.9431 -0.4181
 4260SOL     OW24238   3.574   4.153   5.026 -0.1467  0.8557 -0.2691
 4260SOL    HW124239   3.560   4.077   4.971 -0.6105  0.1919  0.7631
 4260SOL    HW224240   3.486   4.176   5.057  0.1857  1.5536  0.1683
 4261SOL     OW24241   3.941   3.783  15.309  0.2872 -0.1238  0.1245
 4261SOL    HW124242   3.997   3.737  15.247  1.6363  1.1515  0.3881
 4261SOL    HW224243   3.944   3.872  15.274 -1.5949 -0.2895 -0.4425
 4262SOL     OW24244   1.977   2.207   0.475  0.0008 -0.2118  0.1850
 4262SOL    HW124245   2.015   2.293   0.494  2.4458 -1.3324  0.3772
 4262SOL    HW224246   2.036   2.184   0.403 -1.2778 -0.2468 -0.8500
 4263SOL     OW24247   2.079   2.333  10.730 -0.5462 -0.0602  0.3429
 4263SOL    HW124248   2.151   2.271  10.737  0.3963  0.9779 -0.1213
 4263SOL    HW224249   2.107   2.389  10.657 -0.3401  1.7764  1.8254
 4264SOL     OW24250   1.223   1.877   3.031 -0.5159 -0.1325  0.2314
 4264SOL    HW124251   1.163   1.900   3.102 -1.1594  1.2360 -0.7530
 4264SOL    HW224252   1.222   1.964   2.991 -3.7894 -1.4611 -2.6515
 4265SOL     OW24253   3.798   4.376   2.651 -0.1319  0.3136 -0.6653
 4265SOL    HW124254   3.770   4.305   2.593  1.0508  1.1853 -2.3103
 4265SOL    HW224255   3.721   4.433   2.645 -1.1042 -0.7780  1.2190
 4266SOL     OW24256   3.996   3.678   7.047 -0.0394  0.2749 -0.1469
 4266SOL    HW124257   3.941   3.734   6.994  0.2523 -0.8707 -1.6731
 4266SOL    HW224258   4.013   3.742   7.116 -3.5056 -0.1754  1.0962
 4267SOL     OW24259   1.613   0.619   4.198 -0.5758 -0.0238 -0.4103
 4267SOL    HW124260   1.668   0.697   4.189 -0.8513  0.3405  0.9751
 4267SOL    HW224261   1.641   0.566   4.123 -0.5897 -0.5338 -0.0550
 4268SOL     OW24262   0.531   0.701   9.930  0.1605  0.0723  0.1456
 4268SOL    HW124263   0.552   0.617   9.890 -0.2439 -0.6548  1.4768
 4268SOL    HW224264   0.443   0.673   9.954 -0.1269  1.5441  0.7980
 4269SOL     OW24265   2.453   3.839   1.897 -0.1059 -0.8674 -0.3718
 4269SOL    HW124266   2.396   3.892   1.842  1.9381  1.6261 -0.0912
 4269SOL    HW224267   2.480   3.904   1.962  1.4293 -1.3579 -0.5217
 4270SOL     OW24268   3.771   3.085   9.155  0.0028  0.2207 -0.4129
 4270SOL    HW124269   3.765   3.149   9.225 -0.1821 -1.1015  0.7773
 4270SOL    HW224270   3.779   3.136   9.074  5.5033 -0.5511 -0.3441
 4271SOL     OW24271   3.826   0.689   0.515  0.0427  0.6897  0.5936
 4271SOL    HW124272   3.731   0.682   0.505  0.1814  0.7257 -0.7147
 4271SOL    HW224273   3.838   0.595   0.507  0.2836  0.5273  2.9924
 4272SOL     OW24274   0.795   0.435  10.175 -0.6165  0.4180  0.4154
 4272SOL    HW124275   0.855   0.364  10.199 -2.1141 -1.0308 -0.1157
 4272SOL    HW224276   0.860   0.504  10.165 -1.2777  1.2030  1.5206
 4273SOL     OW24277   4.536   0.217   7.747 -0.0878  0.7548 -0.0441
 4273SOL    HW124278   4.546   0.128   7.781  2.5972  1.2521  0.5040
 4273SOL    HW224279   4.582   0.273   7.810  0.9383  1.4977 -1.4599
 4274SOL     OW24280   4.516   2.996   7.299 -0.0241 -0.4939 -0.1240
 4274SOL    HW124281   4.556   2.983   7.385  1.6920 -1.2351 -1.0282
 4274SOL    HW224282   4.540   3.089   7.293 -0.8622 -0.1277  2.2187
 4275SOL     OW24283   3.711   4.705  12.767 -0.3519  1.0401  0.0252
 4275SOL    HW124284   3.799   0.016  12.751 -0.2150  0.2122 -1.0375
 4275SOL    HW224285   3.670   0.048  12.822  0.0017 -1.0667  2.8679
 4276SOL     OW24286   1.246   3.184  14.878  0.4924 -0.3096 -0.6689
 4276SOL    HW124287   1.303   3.236  14.821 -0.8064  0.4651 -1.2607
 4276SOL    HW224288   1.159   3.221  14.859 -0.5408 -2.5408 -0.3017
 4277SOL     OW24289   2.070   3.106   8.115  0.5121  0.0223 -0.0969
 4277SOL    HW124290   2.113   3.185   8.083  2.6045  0.0762  2.8648
 4277SOL    HW224291   2.036   3.074   8.031 -1.7520 -1.1299  1.2473
 4278SOL     OW24292   2.080   0.203   0.542  0.0162 -0.3981 -0.3908
 4278SOL    HW124293   2.163   0.188   0.497 -1.6635 -0.4517 -3.4607
 4278SOL    HW224294   2.069   0.115   0.580  0.4043 -0.0494  0.5122
 4279SOL     OW24295   0.388   3.444   4.388  0.2555 -0.0975 -0.4456
 4279SOL    HW124296   0.303   3.484   4.368 -0.6848 -3.2212 -2.7336
 4279SOL    HW224297   0.395   3.445   4.484  1.0257  2.7059 -0.5495
 4280SOL     OW24298   0.517   0.053   9.092  0.8519  0.2233  0.4497
 4280SOL    HW124299   0.502   0.144   9.069  0.5169  0.3686  1.2305
 4280SOL    HW224300   0.542   0.019   9.006  0.0015 -1.7922  0.9823
 4281SOL     OW24301   2.075   1.823  11.655 -0.3920 -0.5409  0.0153
 4281SOL    HW124302   2.083   1.844  11.562 -0.9052  1.3103  0.3885
 4281SOL    HW224303   2.115   1.898  11.700  0.3642 -1.9393  1.6941
 4282SOL     OW24304   3.121   2.072   5.677 -0.6837  0.2333 -1.1147
 4282SOL    HW124305   3.097   2.045   5.765 -0.7566  0.9543 -0.9098
 4282SOL    HW224306   3.077   2.001   5.631  0.1295  0.2490 -1.9367
 4283SOL     OW24307   2.183   2.173   6.407  0.5732  0.5514  0.3026
 4283SOL    HW124308   2.177   2.117   6.484  0.1314  1.2811  0.7913
 4283SOL    HW224309   2.222   2.116   6.341 -1.5212  1.9224 -2.1159
 4284SOL     OW24310   2.936   2.762   4.886  0.3688 -0.0272 -0.2193
 4284SOL    HW124311   2.978   2.701   4.947  0.7736 -0.5733 -1.0447
 4284SOL    HW224312   2.871   2.802   4.943  1.8641 -0.9402  2.1232
 4285SOL     OW24313   3.761   0.911   7.986 -0.2221 -0.2743  0.3162
 4285SOL    HW124314   3.838   0.855   7.979 -1.0152 -1.3219 -0.1830
 4285SOL    HW224315   3.806   0.995   7.990 -1.2889  0.3019  0.3466
 4286SOL     OW24316   4.258   0.267  11.447 -0.3054  0.0266 -0.8395
 4286SOL    HW124317   4.227   0.343  11.497 -0.0090  1.3846 -2.7123
 4286SOL    HW224318   4.326   0.308  11.393  0.6514 -1.1573 -0.5373
 4287SOL     OW24319   2.007   2.164   4.128 -0.2542  0.2301  0.5311
 4287SOL    HW124320   2.038   2.222   4.198  0.3685  1.0842 -0.4571
 4287SOL    HW224321   2.063   2.193   4.056  0.5001 -1.6471  0.3516
 4288SOL     OW24322   1.041   1.324   3.150  0.2777  0.0023 -0.0496
 4288SOL    HW124323   1.124   1.370   3.140 -0.6863  1.9250  0.8144
 4288SOL    HW224324   1.040   1.344   3.243 -1.3694  1.6543 -0.4263
 4289SOL     OW24325   0.420   4.202  17.051 -0.1726 -0.4180 -0.0404
 4289SOL    HW124326   0.401   4.235  17.139 -2.8978 -0.0074 -0.8051
 4289SOL    HW224327   0.339   4.153  17.037 -0.1821 -0.9361  1.7508
 4290SOL     OW24328   0.831   1.705   5.220 -0.0077 -0.0326 -0.9120
 4290SOL    HW124329   0.900   1.748   5.169  0.0208  2.3974  1.1945
 4290SOL    HW224330   0.761   1.770   5.225  0.0397  0.1470 -2.5331
 4291SOL     OW24331   1.330   3.416   8.909 -0.2362  0.2509 -0.4308
 4291SOL    HW124332   1.300   3.506   8.893 -0.9800  0.1325  0.3398
 4291SOL    HW224333   1.374   3.436   8.991 -1.8213  1.4379  0.1328
 4292SOL     OW24334   3.351   3.139   5.908 -0.4781  0.5584 -0.3766
 4292SOL    HW124335   3.338   3.194   5.985  0.4482  0.7991 -0.4005
 4292SOL    HW224336   3.261   3.107   5.912 -0.7310  1.2938 -0.2112
 4293SOL     OW24337   3.707   0.963  16.116  0.7401 -0.8205  0.2757
 4293SOL    HW124338   3.768   0.926  16.180 -1.8043 -2.4488  1.7802
 4293SOL    HW224339   3.627   0.941  16.164  0.8859 -0.9615  0.4548
 4294SOL     OW24340   1.930   1.992  12.395 -0.8057 -0.6773 -0.3438
 4294SOL    HW124341   1.924   2.044  12.315 -1.8465 -2.9747 -1.7582
 4294SOL    HW224342   1.888   2.053  12.457  0.9417 -1.4366  1.5884
 4295SOL     OW24343   0.602   4.208  17.508 -0.8077 -0.0911  0.5073
 4295SOL    HW124344   0.659   4.141  17.547  0.8326  0.4931 -0.8626
 4295SOL    HW224345   0.608   4.273  17.578  0.2556  0.8370 -0.4425
 4296SOL     OW24346   1.867   4.215  16.182 -0.1400  0.2453 -0.3264
 4296SOL    HW124347   1.818   4.237  16.262 -0.3559  0.2683 -0.4649
 4296SOL    HW224348   1.923   4.292  16.175 -0.9064  0.7205 -1.3444
 4297SOL     OW24349   0.809   2.439   8.751  0.1871  0.1653  0.0775
 4297SOL    HW124350   0.843   2.488   8.676 -0.8760  1.6907  0.5901
 4297SOL    HW224351   0.731   2.493   8.760  2.3458  3.3681 -0.5748
 4298SOL     OW24352   3.322   2.486   4.735 -0.3228 -0.6972 -0.3095
 4298SOL    HW124353   3.308   2.490   4.830  2.6264  1.0815  0.0671
 4298SOL    HW224354   3.238   2.518   4.701 -0.4302 -1.4740 -0.7587
 4299SOL     OW24355   2.985   3.921   2.477  0.0371  0.2033 -0.1515
 4299SOL    HW124356   2.918   3.856   2.498 -0.2042 -0.0639 -1.7324
 4299SOL    HW224357   3.069   3.876   2.471 -1.4896 -2.6917  0.0097
 4300SOL     OW24358   4.322   2.531  14.527  0.3692 -0.5220  0.1067
 4300SOL    HW124359   4.269   2.458  14.496  0.2014 -0.6076  0.5988
 4300SOL    HW224360   4.403   2.489  14.557 -0.6011 -0.8688  2.2811
 4301SOL     OW24361   0.656   2.519   3.593  0.1883 -0.2822  0.2728
 4301SOL    HW124362   0.694   2.448   3.541 -1.1576  0.1573 -1.3290
 4301SOL    HW224363   0.655   2.595   3.535  0.3693 -0.6274 -0.1889
 4302SOL     OW24364   0.777   3.696   2.311 -1.0002  0.5776 -0.5336
 4302SOL    HW124365   0.683   3.677   2.306 -0.8466 -0.2819 -0.1080
 4302SOL    HW224366   0.809   3.609   2.285 -1.5741 -0.7364  3.2110
 4303SOL     OW24367   1.860   1.118   0.438  0.0672 -0.1934  0.0305
 4303SOL    HW124368   1.889   1.198   0.394 -1.4260  0.9869  1.1815
 4303SOL    HW224369   1.844   1.065   0.360  1.1191 -0.5389  0.0468
 4304SOL     OW24370   0.450   3.785   0.547 -0.1758  0.0433 -0.2844
 4304SOL    HW124371   0.453   3.873   0.509 -3.1246 -0.3338 -1.3905
 4304SOL    HW224372   0.388   3.739   0.491 -3.4634 -0.4437  3.7591
 4305SOL     OW24373   0.030   2.945   8.302  0.7809  0.5709 -0.3698
 4305SOL    HW124374   4.681   2.955   8.241 -0.5839 -0.9301  1.0254
 4305SOL    HW224375   0.066   3.032   8.286  2.3172  0.1002  0.4618
 4306SOL     OW24376   0.388   1.801   1.056  0.0445  0.3041  0.2380
 4306SOL    HW124377   0.307   1.784   1.008 -0.5522  1.0683  0.9688
 4306SOL    HW224378   0.452   1.790   0.985  0.2730 -0.8713  0.6387
 4307SOL     OW24379   4.389   4.222   6.631 -0.1380  0.7852  0.3285
 4307SOL    HW124380   4.393   4.140   6.680 -0.1529 -0.6936 -2.1055
 4307SOL    HW224381   4.339   4.280   6.687  0.7823  0.2944  1.6653
 4308SOL     OW24382   3.964   0.264   9.135  0.0850 -0.3270 -0.0987
 4308SOL    HW124383   3.982   0.172   9.154 -1.7120 -0.4561  1.0462
 4308SOL    HW224384   3.868   0.268   9.140  0.0331 -2.3984  0.7829
 4309SOL     OW24385   3.904   1.385   2.588  0.6230  0.0164  0.3319
 4309SOL    HW124386   3.950   1.342   2.516  1.0253 -0.6250  0.9785
 4309SOL    HW224387   3.969   1.438   2.635  2.5714 -0.7328 -1.5208
 4310SOL     OW24388   0.286   2.686   5.034 -0.0958  0.1011 -0.0876
 4310SOL    HW124389   0.290   2.778   5.011 -0.3674 -0.2670 -1.6159
 4310SOL    HW224390   0.371   2.667   5.074  0.1062  0.7945 -0.1962
 4311SOL     OW24391   3.073   2.485   8.952 -0.1949 -0.1230 -0.0270
 4311SOL    HW124392   3.153   2.533   8.972 -0.8073  0.0398  2.0125
 4311SOL    HW224393   3.030   2.542   8.888  1.2188 -0.4219 -1.2299
 4312SOL     OW24394   1.826   1.089   2.495 -1.0164 -0.0729  0.4753
 4312SOL    HW124395   1.822   1.112   2.588  2.7953  2.0879  0.1320
 4312SOL    HW224396   1.920   1.089   2.476 -0.9841  0.8515  0.6027
 4313SOL     OW24397   2.637   0.216   0.242  0.2741  0.0207 -0.2360
 4313SOL    HW124398   2.576   0.200   0.170  0.0859 -0.4546  0.0327
 4313SOL    HW224399   2.617   0.148   0.306 -1.0840 -0.6544 -1.3628
 4314SOL     OW24400   2.771   4.503   6.372  0.0276  0.0223 -0.1916
 4314SOL    HW124401   2.804   4.551   6.448 -1.3754  0.1242  0.3616
 4314SOL    HW224402   2.815   4.539   6.296  0.8087  1.0233  0.7306
 4315SOL     OW24403   2.279   0.140   4.311 -0.2399 -0.5715  0.2769
 4315SOL    HW124404   2.331   0.155   4.232  0.0856 -1.2967  0.3610
 4315SOL    HW224405   2.252   0.049   4.299 -0.1416 -0.6908  0.9812
 4316SOL     OW24406   1.910   2.065  11.755 -0.0152 -0.6215  0.4054
 4316SOL    HW124407   1.818   2.058  11.731  0.3530 -0.0671 -1.1227
 4316SOL    HW224408   1.915   2.005  11.830  0.3639  1.4868  2.0485
 4317SOL     OW24409   0.205   1.534   9.808 -0.5008  0.2059  0.5041
 4317SOL    HW124410   0.228   1.627   9.819 -1.2618  0.7419 -2.4554
 4317SOL    HW224411   0.284   1.497   9.848  1.0139 -0.2302 -2.9142
 4318SOL     OW24412   3.333   2.295   1.461  0.0433 -0.2502  0.1887
 4318SOL    HW124413   3.362   2.311   1.551 -2.8167 -2.3845  1.5113
 4318SOL    HW224414   3.410   2.249   1.428 -1.0607 -1.1933 -1.0785
 4319SOL     OW24415   3.466   4.156   8.449  0.1809 -0.0889  0.1658
 4319SOL    HW124416   3.428   4.139   8.364  0.7876 -0.0177 -0.1207
 4319SOL    HW224417   3.400   4.117   8.506 -1.6837  1.7716 -0.7512
 4320SOL     OW24418   0.521   1.804   4.961  0.1249 -0.3541 -0.1958
 4320SOL    HW124419   0.540   1.844   4.876 -2.4454 -0.1421 -0.6700
 4320SOL    HW224420   0.557   1.874   5.016 -0.9052 -0.6434  0.8390
 4321SOL     OW24421   0.178   2.402   6.863  0.1169  0.3007 -0.1524
 4321SOL    HW124422   0.086   2.423   6.847 -0.5300 -2.3678  0.0500
 4321SOL    HW224423   0.160   2.309   6.881  3.2720 -0.2086  0.3161
 4322SOL     OW24424   0.557   1.015   0.549  0.0265  0.2214 -0.2746
 4322SOL    HW124425   0.622   1.076   0.585 -1.1817  1.0812  0.4772
 4322SOL    HW224426   0.508   1.074   0.492 -1.9830  1.3703  2.6274
 4323SOL     OW24427   2.704   1.274   2.641  0.6980  0.2283  0.0072
 4323SOL    HW124428   2.666   1.358   2.665 -0.9710 -0.7534  0.8391
 4323SOL    HW224429   2.680   1.275   2.548 -1.4882 -3.5810  0.5360
 4324SOL     OW24430   2.008   2.865   6.107 -0.2159  0.0589 -0.2840
 4324SOL    HW124431   2.011   2.792   6.169  1.2391 -0.1813 -0.6382
 4324SOL    HW224432   2.015   2.940   6.165 -1.8105 -0.2356  0.2857
 4325SOL     OW24433   0.460   4.119  13.359  0.7690 -0.1843  0.3696
 4325SOL    HW124434   0.530   4.057  13.342  0.2899 -0.4972 -0.4552
 4325SOL    HW224435   0.500   4.200  13.328  1.5803 -0.6116  0.3119
 4326SOL     OW24436   0.150   1.056  10.334  0.7124 -0.0992  0.7699
 4326SOL    HW124437   0.080   1.106  10.291  0.6381 -0.9456 -0.0712
 4326SOL    HW224438   0.158   1.103  10.417  0.8976  1.5211 -0.1674
 4327SOL     OW24439   3.449   4.418  17.466  0.3356  0.0440 -0.1183
 4327SOL    HW124440   3.401   4.361  17.526  2.1833  0.4877  1.7811
 4327SOL    HW224441   3.386   4.447  17.400 -0.6868  0.8310  1.2218
 4328SOL     OW24442   4.111   1.724  15.437  0.3800  0.0323 -0.7234
 4328SOL    HW124443   4.203   1.709  15.459  0.1788  0.8799  0.7236
 4328SOL    HW224444   4.064   1.669  15.499  0.9521  1.7702  1.2721
 4329SOL     OW24445   2.845   1.863  14.418  0.4811 -0.0923 -0.4972
 4329SOL    HW124446   2.770   1.878  14.476  0.8965 -0.5562  0.1671
 4329SOL    HW224447   2.911   1.813  14.466  1.6044 -0.1820 -2.1630
 4330SOL     OW24448   4.122   3.306   7.986  0.1659  0.2700  0.5175
 4330SOL    HW124449   4.172   3.265   8.057 -0.4787 -0.1934  0.6978
 4330SOL    HW224450   4.139   3.398   8.005  1.3771 -0.0188  0.8309
 4331SOL     OW24451   1.025   1.425   0.919 -0.1662  0.0666 -0.2625
 4331SOL    HW124452   1.009   1.435   0.825  1.1889 -1.3794 -0.6460
 4331SOL    HW224453   1.026   1.515   0.951 -0.3558  0.7506 -2.2050
 4332SOL     OW24454   2.873   2.089   1.979 -0.3850 -0.1324  0.2689
 4332SOL    HW124455   2.778   2.084   1.974 -0.4070 -0.9486  1.3222
 4332SOL    HW224456   2.876   2.184   1.974  3.5690 -0.1977  1.4763
 4333SOL     OW24457   0.410   2.636   6.720 -0.3260 -0.2035 -0.2228
 4333SOL    HW124458   0.370   2.704   6.774 -2.8241 -2.0449  0.2192
 4333SOL    HW224459   0.500   2.670   6.724 -0.7786  1.1250 -1.4144
 4334SOL     OW24460   4.623   4.424  10.391  0.1797 -0.3202 -0.4052
 4334SOL    HW124461   4.565   4.473  10.333  0.2301  1.0237  0.6803
 4334SOL    HW224462   4.699   4.481  10.384 -1.9300  2.5615  0.2196
 4335SOL     OW24463   3.548   2.959  17.169  0.4547  0.0268  0.1670
 4335SOL    HW124464   3.588   2.985  17.252  0.9929  2.3336 -0.8094
 4335SOL    HW224465   3.553   3.041  17.120 -0.2138 -0.0927 -0.1038
 4336SOL     OW24466   1.061   3.468   5.452  0.2569 -0.0524  0.5454
 4336SOL    HW124467   1.025   3.556   5.437 -0.3012 -0.3552  0.1334
 4336SOL    HW224468   1.002   3.410   5.405  1.1909  0.0286 -0.7081
 4337SOL     OW24469   4.543   1.443   6.056  0.0253 -0.2301 -0.1079
 4337SOL    HW124470   4.598   1.445   6.134 -0.6783 -0.2763  0.3895
 4337SOL    HW224471   4.453   1.451   6.087  0.6144  1.6432  1.1596
 4338SOL     OW24472   3.676   1.607  11.713 -0.4923  0.1318 -0.5844
 4338SOL    HW124473   3.687   1.702  11.713 -3.2079  0.4397  0.3141
 4338SOL    HW224474   3.698   1.590  11.805 -0.6505 -1.1595 -0.7799
 4339SOL     OW24475   1.984   0.385   5.195  0.2121 -0.1339 -0.6266
 4339SOL    HW124476   1.996   0.385   5.100  2.2125  1.9477 -0.3746
 4339SOL    HW224477   2.057   0.443   5.218 -0.5150  0.3992  0.3490
 4340SOL     OW24478   0.610   0.230  10.337  0.2048  0.3389 -0.0761
 4340SOL    HW124479   0.528   0.192  10.370 -0.3153  1.2215 -0.3750
 4340SOL    HW224480   0.660   0.151  10.358 -0.5290 -0.9782 -3.3215
 4341SOL     OW24481   0.322   2.097   5.328  0.1645 -0.4680  0.1840
 4341SOL    HW124482   0.286   2.030   5.269  0.0359  0.3166 -0.6272
 4341SOL    HW224483   0.266   2.096   5.406 -0.8850  0.7413 -0.5709
 4342SOL     OW24484   2.312   1.261  16.726  0.0832  0.3073 -0.0935
 4342SOL    HW124485   2.312   1.327  16.795 -0.5716  1.3068 -1.0348
 4342SOL    HW224486   2.256   1.284  16.652 -0.2753  0.5528  0.2501
 4343SOL     OW24487   3.901   1.229  13.029 -0.3619  0.1975  0.2536
 4343SOL    HW124488   3.850   1.286  13.087 -1.8610 -0.4180 -0.4569
 4343SOL    HW224489   3.832   1.166  13.007 -2.2259  1.8619  1.3124
 4344SOL     OW24490   2.461   0.876  14.451  0.2429  0.2043  0.1428
 4344SOL    HW124491   2.507   0.793  14.457  1.2599  0.8270  0.9119
 4344SOL    HW224492   2.432   0.869  14.360 -0.4724 -2.1661  0.5532
 4345SOL     OW24493   2.644   1.017   5.041  0.7709  0.1999 -1.0964
 4345SOL    HW124494   2.552   0.999   5.056  0.9048  0.8482  0.4522
 4345SOL    HW224495   2.681   0.947   5.095  0.0817 -0.7711 -1.8796
 4346SOL     OW24496   4.262   4.602   8.174  0.2488 -0.6220 -0.2435
 4346SOL    HW124497   4.229   4.574   8.089  2.6760 -0.8675 -1.1089
 4346SOL    HW224498   4.195   4.555   8.224 -1.3764  1.5759 -0.3302
 4347SOL     OW24499   3.909   4.125   8.892  0.3451 -0.0032  0.1869
 4347SOL    HW124500   3.833   4.173   8.925  1.9448  1.7872  1.2536
 4347SOL    HW224501   3.944   4.085   8.972  0.3912  1.5264  0.9456
 4348SOL     OW24502   0.450   2.949  15.817  0.4707 -0.1672  0.0065
 4348SOL    HW124503   0.491   3.003  15.884 -0.1734 -0.4003  0.5858
 4348SOL    HW224504   0.461   3.002  15.738 -0.5777  2.0759  1.3692
 4349SOL     OW24505   2.767   0.442   7.010 -0.3211 -0.6047 -0.2826
 4349SOL    HW124506   2.742   0.534   7.018  2.0517 -0.2049  2.4791
 4349SOL    HW224507   2.849   0.460   6.964 -0.0245 -2.7191 -0.5984
 4350SOL     OW24508   3.880   4.104  12.829  0.1198  0.5278  0.7642
 4350SOL    HW124509   3.935   4.047  12.774  0.1829  0.8930  0.4505
 4350SOL    HW224510   3.895   4.068  12.916  0.3965 -1.4184 -0.0768
 4351SOL     OW24511   0.830   2.691   2.395 -0.4907 -1.1241 -0.6087
 4351SOL    HW124512   0.920   2.723   2.395 -1.2186  0.8986 -0.2228
 4351SOL    HW224513   0.782   2.769   2.370  0.9689 -0.1532 -0.3834
 4352SOL     OW24514   3.819   2.354   3.495 -0.2572 -0.6952 -0.2910
 4352SOL    HW124515   3.856   2.429   3.448  0.9230 -0.7437  0.5567
 4352SOL    HW224516   3.865   2.362   3.578 -2.9977 -1.1131  1.2791
 4353SOL     OW24517   0.769   2.524   7.715 -0.1296  0.2180  0.7318
 4353SOL    HW124518   0.817   2.602   7.688 -0.5939 -0.0093 -0.7269
 4353SOL    HW224519   0.821   2.458   7.670 -1.5361 -0.2987 -0.1228
 4354SOL     OW24520   1.621   0.644   5.267 -0.0285  0.2156  0.5237
 4354SOL    HW124521   1.652   0.608   5.350  0.4367  2.3343  1.2846
 4354SOL    HW224522   1.607   0.738   5.281  0.8467  0.1934  1.5751
 4355SOL     OW24523   0.195   1.174   5.828 -0.3920  0.1382  0.4671
 4355SOL    HW124524   0.162   1.120   5.900  0.3582  2.1155  2.2596
 4355SOL    HW224525   0.170   1.107   5.763  1.0022  0.9950 -0.9686
 4356SOL     OW24526   2.744   2.360   7.145 -1.1456  0.4373  0.2347
 4356SOL    HW124527   2.706   2.439   7.183  1.5503  1.3897  0.8938
 4356SOL    HW224528   2.672   2.302   7.171 -0.2201 -1.0352 -0.4768
 4357SOL     OW24529   4.178   2.544   9.163  0.3129  0.3623 -0.0130
 4357SOL    HW124530   4.100   2.569   9.114  0.3919 -0.2509 -0.4594
 4357SOL    HW224531   4.203   2.462   9.119 -0.9778 -0.5871  1.0268
 4358SOL     OW24532   1.978   4.178   4.189 -0.2016 -0.1850 -0.0259
 4358SOL    HW124533   2.011   4.225   4.266 -0.6168 -1.9420  1.2123
 4358SOL    HW224534   1.927   4.106   4.226  1.8611 -0.7750  1.6514
 4359SOL     OW24535   1.442   1.856  14.430  0.0044 -0.1188  0.3897
 4359SOL    HW124536   1.366   1.881  14.378  1.9050  1.0564 -1.8288
 4359SOL    HW224537   1.455   1.772  14.386  2.0814 -1.1213  2.9670
 4360SOL     OW24538   3.830   3.124   4.802 -0.0638  0.1090 -0.1171
 4360SOL    HW124539   3.896   3.187   4.773  0.7808  1.1613  4.0138
 4360SOL    HW224540   3.765   3.191   4.821  0.6912 -0.0914  3.1984
 4361SOL     OW24541   1.364   4.389  11.447 -0.0631 -0.5426  0.0220
 4361SOL    HW124542   1.373   4.300  11.481  3.6722  0.3092  1.2698
 4361SOL    HW224543   1.286   4.399  11.503 -1.1533 -1.9969 -1.2248
 4362SOL     OW24544   3.104   2.746  10.614  0.2100  0.1569 -0.7189
 4362SOL    HW124545   3.199   2.746  10.604  0.1832  0.5534 -0.9573
 4362SOL    HW224546   3.077   2.837  10.601 -1.6130 -0.0157  1.8687
 4363SOL     OW24547   3.539   2.695   2.277  0.5455 -0.0460  0.4743
 4363SOL    HW124548   3.554   2.784   2.243 -1.7598  0.0424 -0.3343
 4363SOL    HW224549   3.481   2.650   2.216  0.6964 -1.9579  1.7670
 4364SOL     OW24550   3.812   2.277  14.296  0.3792 -0.0091 -0.0544
 4364SOL    HW124551   3.859   2.199  14.265  1.4939 -0.0895  1.8709
 4364SOL    HW224552   3.874   2.344  14.268  0.9730 -0.7772 -0.5812
 4365SOL     OW24553   0.713   2.287   1.993 -0.3071  0.0386  0.5544
 4365SOL    HW124554   0.800   2.249   2.003 -0.9889 -1.4784  0.8001
 4365SOL    HW224555   0.726   2.377   1.964 -1.6978  0.3697  0.9277
 4366SOL     OW24556   4.231   2.453   7.559  0.0503  0.6042 -0.0857
 4366SOL    HW124557   4.302   2.389   7.572 -1.8265 -1.6085 -0.6543
 4366SOL    HW224558   4.164   2.392   7.527  0.9081  0.3707 -1.4649
 4367SOL     OW24559   3.490   2.555   2.543  0.1193  0.5631 -0.0073
 4367SOL    HW124560   3.504   2.597   2.459  1.4591 -1.4272 -0.7883
 4367SOL    HW224561   3.427   2.487   2.519  1.1162  0.4881 -2.3586
 4368SOL     OW24562   0.442   0.035  12.967  0.0326  0.5835  0.0064
 4368SOL    HW124563   0.433   0.091  13.044 -1.8182 -1.5174  1.3296
 4368SOL    HW224564   0.510   4.703  13.004  1.5025  2.1423 -0.3054
 4369SOL     OW24565   0.303   3.658   2.149  0.4815  0.1324 -0.6347
 4369SOL    HW124566   0.305   3.590   2.216  5.2313 -0.2537 -1.1860
 4369SOL    HW224567   0.374   3.638   2.088 -0.7800 -0.7646 -1.8212
 4370SOL     OW24568   4.122   2.610  12.039 -0.1951  0.4535 -0.6598
 4370SOL    HW124569   4.143   2.701  12.060  0.2880  0.0465  0.6116
 4370SOL    HW224570   4.178   2.579  12.110 -0.2966 -0.2741 -0.9003
 4371SOL     OW24571   0.669   3.910  10.864 -0.2229  0.3376 -0.1889
 4371SOL    HW124572   0.710   3.854  10.930  1.1771  0.5720 -0.8399
 4371SOL    HW224573   0.716   3.877  10.787  0.8749 -0.4357  0.8205
 4372SOL     OW24574   3.427   3.948   1.263 -0.0384 -0.3429 -0.3557
 4372SOL    HW124575   3.363   3.918   1.199 -0.9225 -1.7635  1.1833
 4372SOL    HW224576   3.440   3.862   1.303 -0.6346 -0.0926  0.3798
 4373SOL     OW24577   3.542   4.423   4.271 -0.4180  0.1009  1.3765
 4373SOL    HW124578   3.501   4.496   4.224 -2.3035 -0.8319  1.5781
 4373SOL    HW224579   3.477   4.377   4.324 -1.1212  1.1562  1.4342
 4374SOL     OW24580   2.231   0.935  17.084 -0.6469  0.1317  0.5602
 4374SOL    HW124581   2.314   0.906  17.121 -0.3840 -1.0194 -0.9123
 4374SOL    HW224582   2.263   1.006  17.028  1.0892 -0.1138  1.2501
 4375SOL     OW24583   3.722   1.119  16.868 -0.2812 -0.2306 -0.5371
 4375SOL    HW124584   3.661   1.145  16.937  1.1731  1.8231 -0.0313
 4375SOL    HW224585   3.678   1.152  16.790  0.7260  2.6210  0.0844
 4376SOL     OW24586   4.330   2.924   3.903  0.1446 -0.1458  0.3426
 4376SOL    HW124587   4.321   2.875   3.984  2.2042  0.0101  0.6530
 4376SOL    HW224588   4.266   2.874   3.852  0.3477  1.5922 -1.6660
 4377SOL     OW24589   3.459   1.229   8.199  0.2966  0.4055 -0.2907
 4377SOL    HW124590   3.372   1.190   8.193 -0.1389  1.4507 -0.8823
 4377SOL    HW224591   3.480   1.257   8.110 -1.6875 -0.9295 -1.1836
 4378SOL     OW24592   1.592   0.814  10.007 -0.1273 -0.0302  0.0902
 4378SOL    HW124593   1.501   0.785  10.001  0.0988 -0.8435  0.5254
 4378SOL    HW224594   1.584   0.906  10.032 -2.5564 -0.7226  1.8228
 4379SOL     OW24595   2.046   3.330   4.930 -0.0812 -0.4478 -0.0702
 4379SOL    HW124596   2.047   3.400   4.995 -0.1461  0.1323 -0.6933
 4379SOL    HW224597   1.953   3.315   4.910 -0.4909  2.3425 -0.3958
 4380SOL     OW24598   0.444   1.977   4.122  0.1683 -0.6361 -0.0434
 4380SOL    HW124599   0.414   2.060   4.158  1.4865  0.0429 -0.5071
 4380SOL    HW224600   0.433   2.004   4.031 -2.3185 -2.0606 -0.1646
 4381SOL     OW24601   1.918   1.295   8.245 -0.0718  0.9301  0.4049
 4381SOL    HW124602   2.006   1.286   8.208  1.3350  0.9043  3.7867
 4381SOL    HW224603   1.926   1.338   8.330 -0.6539  0.1211  0.8695
 4382SOL     OW24604   0.397   1.021   9.191 -1.0422 -0.2156  0.3950
 4382SOL    HW124605   0.351   1.034   9.109 -0.8368 -1.9858 -0.0018
 4382SOL    HW224606   0.339   1.072   9.249 -2.1174 -1.2323  0.2090
 4383SOL     OW24607   4.065   1.459   6.758  0.1917 -0.3939 -0.5246
 4383SOL    HW124608   4.118   1.435   6.834  1.6132  0.0627 -1.3917
 4383SOL    HW224609   3.996   1.506   6.806  0.2206 -0.3705 -0.5059
 4384SOL     OW24610   0.849   2.266   8.051 -0.3564 -0.3910  0.1278
 4384SOL    HW124611   0.865   2.271   7.957  3.0944  1.1305  0.8221
 4384SOL    HW224612   0.832   2.172   8.062 -1.0349 -0.2111  0.6579
 4385SOL     OW24613   0.010   1.490   8.163  0.4562  0.3388  0.1676
 4385SOL    HW124614   0.080   1.516   8.104 -0.2330  1.2120 -0.2498
 4385SOL    HW224615   4.672   1.446   8.106 -2.2910  2.9740  1.1181
 4386SOL     OW24616   2.562   0.263  16.706 -0.1575  0.6901  0.8449
 4386SOL    HW124617   2.474   0.274  16.671  0.1995  0.4924 -0.0940
 4386SOL    HW224618   2.543   0.263  16.800 -1.2587  2.5524  0.6005
 4387SOL     OW24619   4.161   2.568   0.294 -0.4442 -0.0990  0.2121
 4387SOL    HW124620   4.199   2.550   0.379 -1.2008  0.4976  0.6740
 4387SOL    HW224621   4.148   2.663   0.295 -3.8385 -0.5764  0.0690
 4388SOL     OW24622   0.763   1.275   4.918 -0.1273  0.1816  0.0470
 4388SOL    HW124623   0.799   1.260   4.830  0.7654  0.8051  0.3110
 4388SOL    HW224624   0.671   1.259   4.899 -0.0598  0.6264 -0.6427
 4389SOL     OW24625   3.834   1.116   0.537 -0.2301 -0.5687  0.1633
 4389SOL    HW124626   3.851   1.062   0.614  0.4821  1.0099  1.1035
 4389SOL    HW224627   3.913   1.168   0.526 -1.2423  0.7134 -0.9354
 4390SOL     OW24628   3.750   0.819   8.809  0.3537  0.5015  0.5998
 4390SOL    HW124629   3.660   0.834   8.781 -0.0503 -1.3204  0.8727
 4390SOL    HW224630   3.742   0.872   8.888 -0.3535  0.6693  0.4212
 4391SOL     OW24631   1.135   1.329  14.135 -0.2874  0.3123 -0.7090
 4391SOL    HW124632   1.106   1.419  14.119  4.8317  2.6326  2.9725
 4391SOL    HW224633   1.227   1.334  14.112 -0.8889  1.1441 -2.8834
 4392SOL     OW24634   0.123   4.537  14.302  0.0072  0.1479 -0.0763
 4392SOL    HW124635   0.162   4.485  14.232 -0.9051 -0.9940  0.2687
 4392SOL    HW224636   0.115   4.466  14.366 -1.4058 -0.1070 -0.5230
 4393SOL     OW24637   3.484   2.546   3.386  0.5211  0.0480 -0.2168
 4393SOL    HW124638   3.553   2.488   3.354  0.4337  0.3333 -0.9092
 4393SOL    HW224639   3.436   2.573   3.307 -2.2746  0.8336  1.7250
 4394SOL     OW24640   0.487   0.063   6.268  0.3857  0.2564  0.8773
 4394SOL    HW124641   0.455   0.123   6.335 -2.2298 -0.4250  0.2494
 4394SOL    HW224642   0.442   0.092   6.188  0.6693 -0.1541  0.5701
 4395SOL     OW24643   1.833   4.576   6.169  0.0012  0.5687  0.9375
 4395SOL    HW124644   1.741   4.605   6.172 -0.0007  0.7504 -0.8391
 4395SOL    HW224645   1.857   4.615   6.253  1.6195  0.4569  0.5211
 4396SOL     OW24646   0.586   1.499   2.000  0.0863 -0.0038 -0.3344
 4396SOL    HW124647   0.597   1.558   2.075 -3.1105  0.5975 -0.3266
 4396SOL    HW224648   0.576   1.414   2.042 -0.1275  0.4607  0.5486
 4397SOL     OW24649   4.691   3.430  14.563  0.3972 -0.3530  0.7643
 4397SOL    HW124650   4.701   3.378  14.484 -1.5650 -0.1401  0.3675
 4397SOL    HW224651   4.604   3.406  14.595 -0.8078 -0.8467 -2.9635
 4398SOL     OW24652   2.541   4.099  13.551  0.0851  0.0272  0.2642
 4398SOL    HW124653   2.606   4.162  13.519 -0.3254 -0.2309 -1.0632
 4398SOL    HW224654   2.457   4.146  13.549  0.0896  0.1407  2.0551
 4399SOL     OW24655   0.732   3.282   3.753 -0.5494  0.6777  0.2771
 4399SOL    HW124656   0.660   3.226   3.725 -0.3148  0.5206 -0.0108
 4399SOL    HW224657   0.798   3.221   3.788 -0.1664  1.2810  0.6072
 4400SOL     OW24658   3.245   4.061   8.559  0.1136 -0.3594  0.1935
 4400SOL    HW124659   3.156   4.068   8.524  0.1752 -0.2321  0.0606
 4400SOL    HW224660   3.237   4.095   8.648  0.3693 -3.7403  1.5095
 4401SOL     OW24661   4.412   4.275   6.278 -0.3423 -0.5364  0.3815
 4401SOL    HW124662   4.453   4.361   6.286  0.1782 -1.0283  2.9776
 4401SOL    HW224663   4.414   4.249   6.370  0.4143  0.6371  0.6888
 4402SOL     OW24664   4.067   1.238   1.992  0.1894  0.0925  0.0245
 4402SOL    HW124665   4.060   1.259   2.085 -1.9565  1.8503 -0.5368
 4402SOL    HW224666   4.033   1.149   1.992 -1.2189  0.6291 -1.1154
 4403SOL     OW24667   4.684   1.202  14.826 -0.2834 -0.1804  0.0155
 4403SOL    HW124668   0.044   1.210  14.871 -0.0574 -0.8668 -0.2921
 4403SOL    HW224669   4.688   1.109  14.805 -0.6173 -0.2635  0.3052
 4404SOL     OW24670   2.071   3.527   3.356 -0.1456 -0.4167  0.3692
 4404SOL    HW124671   2.039   3.447   3.315  0.1441 -1.1700  1.6295
 4404SOL    HW224672   2.164   3.507   3.343  0.0932  0.7659  0.2691
 4405SOL     OW24673   2.095   2.836   2.445 -0.6320  0.0659 -0.1569
 4405SOL    HW124674   2.180   2.805   2.414  1.8509  3.4144  3.4672
 4405SOL    HW224675   2.092   2.820   2.539  1.1592 -1.8066 -0.4171
 4406SOL     OW24676   3.309   0.173   8.142 -0.1564 -1.0381 -0.5036
 4406SOL    HW124677   3.214   0.172   8.128  0.2265 -0.4484 -3.2190
 4406SOL    HW224678   3.318   0.119   8.220  1.3644  1.5657  1.1436
 4407SOL     OW24679   0.286   3.628   6.295  0.1087  0.3801 -0.5693
 4407SOL    HW124680   0.363   3.638   6.239 -0.1434 -3.1266 -1.5755
 4407SOL    HW224681   0.254   3.718   6.301 -0.9427 -0.0779  0.7185
 4408SOL     OW24682   2.614   2.811   4.446  0.1115  0.3854  0.0629
 4408SOL    HW124683   2.593   2.726   4.484 -0.5619  0.3854 -0.3274
 4408SOL    HW224684   2.582   2.875   4.510 -1.8450 -1.5215  0.9699
 4409SOL     OW24685   3.935   1.642  12.022 -0.1010  0.2147  0.0677
 4409SOL    HW124686   3.949   1.616  12.113  1.1086  0.9258  0.0992
 4409SOL    HW224687   3.858   1.697  12.036  0.5594  0.6152  2.1036
 4410SOL     OW24688   3.383   3.804   2.877  0.3984  0.0410  0.0815
 4410SOL    HW124689   3.335   3.770   2.953 -1.8158  0.3532 -1.1742
 4410SOL    HW224690   3.432   3.724   2.856  1.6605  1.2239 -1.5066
 4411SOL     OW24691   1.016   3.978   4.176  0.0916  0.1508  0.0786
 4411SOL    HW124692   1.074   3.918   4.224  0.4055 -1.6991 -2.6092
 4411SOL    HW224693   1.040   4.063   4.213  1.0383 -0.2541  0.4139
 4412SOL     OW24694   1.586   3.326   5.397 -0.1027 -0.5228 -0.1615
 4412SOL    HW124695   1.528   3.401   5.416 -0.7652 -1.6448  2.2740
 4412SOL    HW224696   1.523   3.255   5.399 -3.1000  2.0455 -2.7012
 4413SOL     OW24697   0.193   3.060   5.811 -0.2540 -0.1426  0.0493
 4413SOL    HW124698   0.245   3.056   5.891  0.6848 -0.9328 -0.5906
 4413SOL    HW224699   0.158   2.971   5.804  1.7737 -0.9629  0.2758
 4414SOL     OW24700   4.234   3.658  13.509  0.2727  0.1717 -0.2131
 4414SOL    HW124701   4.213   3.678  13.600 -2.5775 -1.3204 -0.5570
 4414SOL    HW224702   4.164   3.707  13.466 -0.4702 -0.2396  0.5279
 4415SOL     OW24703   1.387   1.795   0.706  0.1413  0.3790 -0.3294
 4415SOL    HW124704   1.444   1.862   0.745 -0.7810  1.7263 -1.2805
 4415SOL    HW224705   1.409   1.708   0.740 -0.8068 -0.5315 -2.0830
 4416SOL     OW24706   2.012   1.644  17.102  0.1784 -0.2829  0.1449
 4416SOL    HW124707   2.035   1.564  17.150  2.6740  0.3103 -0.0823
 4416SOL    HW224708   1.930   1.670  17.144 -0.2790 -1.5237  0.0349
 4417SOL     OW24709   2.436   3.532   6.393  0.4721  0.0395  0.1627
 4417SOL    HW124710   2.343   3.524   6.413  0.4704 -0.2789  0.0199
 4417SOL    HW224711   2.439   3.618   6.351 -0.6006  0.2221  0.4585
 4418SOL     OW24712   4.565   2.146   3.469 -0.0400 -0.6901 -0.0247
 4418SOL    HW124713   4.487   2.151   3.414 -2.1619 -0.1239  3.0339
 4418SOL    HW224714   4.632   2.115   3.408 -1.1964  0.8097 -2.0444
 4419SOL     OW24715   0.036   3.520   8.598  0.1873 -0.8862 -0.3714
 4419SOL    HW124716   0.111   3.551   8.649 -1.6306 -0.0067  1.7399
 4419SOL    HW224717   4.712   3.479   8.669 -0.4597 -1.1806 -0.9835
 4420SOL     OW24718   2.824   2.080  10.977 -0.4983  0.0079  0.7362
 4420SOL    HW124719   2.910   2.090  11.019  0.4778  1.1859 -1.5353
 4420SOL    HW224720   2.801   1.992  11.007  0.0584  0.0647  1.3302
 4421SOL     OW24721   1.953   4.347   9.281  0.4525 -0.2218 -0.4345
 4421SOL    HW124722   1.863   4.318   9.271 -0.2410  0.3755  3.9965
 4421SOL    HW224723   1.997   4.270   9.247  0.9905 -0.2918  0.3973
 4422SOL     OW24724   2.563   3.262   9.493  0.0057  0.0496 -0.8526
 4422SOL    HW124725   2.468   3.277   9.493 -0.1005 -0.6260  0.7141
 4422SOL    HW224726   2.595   3.322   9.560 -0.2131 -0.5374 -0.2272
 4423SOL     OW24727   4.413   2.793  11.384 -0.5687  0.2110  0.2720
 4423SOL    HW124728   4.490   2.791  11.327 -1.2278  2.2144 -0.6767
 4423SOL    HW224729   4.375   2.705  11.382 -0.8430  0.3196  0.8333
 4424SOL     OW24730   3.581   3.576   5.659 -0.2866  0.3850 -0.1332
 4424SOL    HW124731   3.638   3.501   5.640  0.3875  1.0640 -0.7929
 4424SOL    HW224732   3.628   3.613   5.733 -0.5043 -2.5276  1.4494
 4425SOL     OW24733   2.200   2.240   5.159  0.2127  0.0967 -0.2914
 4425SOL    HW124734   2.110   2.233   5.127  0.8303 -3.2572 -1.3497
 4425SOL    HW224735   2.219   2.333   5.155  2.2883 -0.3511 -1.0188
 4426SOL     OW24736   3.160   3.515   8.115 -0.6075 -0.1166 -0.2773
 4426SOL    HW124737   3.075   3.544   8.149 -1.6350 -0.0193 -2.9284
 4426SOL    HW224738   3.215   3.587   8.144 -0.5360 -0.2598 -0.0623
 4427SOL     OW24739   1.792   3.148   7.548  0.0552  0.2825 -0.3691
 4427SOL    HW124740   1.817   3.109   7.632  0.7667 -0.1127 -0.7591
 4427SOL    HW224741   1.814   3.075   7.490  4.9271  0.0979  1.7047
 4428SOL     OW24742   3.661   3.251  11.701  0.2723 -0.1104  0.2429
 4428SOL    HW124743   3.650   3.335  11.746 -3.5788  0.1356 -1.2038
 4428SOL    HW224744   3.726   3.274  11.634 -2.1228  0.1928 -1.9812
 4429SOL     OW24745   2.611   2.365  11.996  0.2683  0.4101 -0.8582
 4429SOL    HW124746   2.644   2.284  12.036 -0.4832  1.6267  2.1873
 4429SOL    HW224747   2.529   2.336  11.958 -0.6197 -0.1751  1.4910
 4430SOL     OW24748   2.794   4.042  10.375  0.0741 -0.3932 -0.1343
 4430SOL    HW124749   2.793   4.000  10.461 -0.5889 -1.2268 -0.5508
 4430SOL    HW224750   2.828   3.973  10.318  1.6146 -0.1038  0.4267
 4431SOL     OW24751   0.885   1.933   1.446 -0.5876 -0.5381  0.9947
 4431SOL    HW124752   0.820   1.869   1.417 -1.7183  1.1865 -0.3167
 4431SOL    HW224753   0.927   1.878   1.512 -0.3308 -2.4938 -0.8240
 4432SOL     OW24754   2.440   4.069   9.345  0.2671 -0.5665 -0.0995
 4432SOL    HW124755   2.414   4.014   9.419 -0.5257 -2.0310 -1.5004
 4432SOL    HW224756   2.513   4.115   9.387 -0.8029  3.2321 -2.3255
 4433SOL     OW24757   4.565   1.992   0.649  0.1410  0.7074  0.0563
 4433SOL    HW124758   4.476   1.962   0.630  0.1060 -0.0474  1.4480
 4433SOL    HW224759   4.579   1.941   0.728 -1.2313 -0.7252 -0.6125
 4434SOL     OW24760   3.293   4.068   8.246 -0.2222  0.3914  0.2100
 4434SOL    HW124761   3.290   4.135   8.178 -0.3385  0.5754  0.3949
 4434SOL    HW224762   3.202   4.069   8.277 -0.3987  1.8447 -0.3784
 4435SOL     OW24763   4.380   4.074   7.582  0.4899 -0.1070 -0.5086
 4435SOL    HW124764   4.383   4.165   7.610  2.6797 -0.7116  1.2811
 4435SOL    HW224765   4.448   4.037   7.639  1.1287  0.1286 -1.1196
 4436SOL     OW24766   2.236   4.227  14.389  0.1677 -0.1445 -0.2423
 4436SOL    HW124767   2.214   4.265  14.473 -1.9998  0.6237 -1.1674
 4436SOL    HW224768   2.224   4.132  14.396 -1.9791  0.3147  2.1037
 4437SOL     OW24769   3.963   0.664   3.536  0.1893  0.1902 -0.0508
 4437SOL    HW124770   3.942   0.685   3.445 -1.6543 -1.2005  0.0499
 4437SOL    HW224771   4.055   0.687   3.539  0.1014  0.5109  0.2028
 4438SOL     OW24772   2.753   3.719   3.811 -0.0635 -0.1376  0.5943
 4438SOL    HW124773   2.772   3.725   3.905  2.6302 -0.1062  0.0481
 4438SOL    HW224774   2.658   3.711   3.821  0.0632 -1.3109  0.8502
 4439SOL     OW24775   1.181   2.173  14.051 -0.1457 -0.2404 -0.0755
 4439SOL    HW124776   1.269   2.208  14.035  0.1008 -1.4988 -1.5396
 4439SOL    HW224777   1.178   2.114  13.975 -0.3761 -0.5429  0.1685
 4440SOL     OW24778   3.999   3.437   4.494 -0.1250  0.2318  0.2175
 4440SOL    HW124779   3.963   3.507   4.549 -0.0863  0.6029 -0.2351
 4440SOL    HW224780   3.929   3.372   4.485  1.3225 -1.4320  0.9457
 4441SOL     OW24781   3.255   2.039   7.626 -0.2052  0.0117 -0.1272
 4441SOL    HW124782   3.238   2.083   7.543 -1.3166 -0.2442 -0.0347
 4441SOL    HW224783   3.273   2.114   7.682  0.3690  1.0099 -1.6286
 4442SOL     OW24784   0.003   3.340   1.785  0.1108  0.3874  0.2478
 4442SOL    HW124785   4.668   3.355   1.859 -1.5776 -0.9944 -0.8303
 4442SOL    HW224786   0.057   3.417   1.805  1.8615 -0.7361 -0.1483
 4443SOL     OW24787   0.478   4.415   2.662 -0.4344  0.3839  0.8898
 4443SOL    HW124788   0.438   4.328   2.655  2.2044 -0.9414  2.1525
 4443SOL    HW224789   0.505   4.439   2.574  1.9547 -3.1147  0.6546
 4444SOL     OW24790   4.092   2.320   5.424  0.0144 -0.4774  0.4837
 4444SOL    HW124791   4.129   2.302   5.338 -3.1860 -3.5178 -0.2547
 4444SOL    HW224792   4.087   2.237   5.471  0.9605 -1.0301 -0.4006
 4445SOL     OW24793   3.569   4.560  15.970  0.2715  0.1405 -0.6491
 4445SOL    HW124794   3.584   4.640  16.021 -0.2763  0.3176 -0.7711
 4445SOL    HW224795   3.656   4.520  15.964  1.1921  2.0922 -0.6521
 4446SOL     OW24796   2.911   2.030   9.067 -0.2936 -0.5360 -0.3124
 4446SOL    HW124797   2.843   2.089   9.099  0.5899  0.9680 -1.1896
 4446SOL    HW224798   2.986   2.034   9.126 -0.9822 -2.6396  0.6822
 4447SOL     OW24799   1.996   1.608   8.064  0.2033 -0.4444  0.3426
 4447SOL    HW124800   1.914   1.585   8.107 -1.0502 -0.7841 -2.2383
 4447SOL    HW224801   2.038   1.522   8.057  1.2539  0.0386  0.7029
 4448SOL     OW24802   4.107   2.959   5.051  0.1641  0.7372  0.0714
 4448SOL    HW124803   4.123   3.052   5.067  1.6539  0.0920  2.4069
 4448SOL    HW224804   4.013   2.969   5.034 -0.0574  0.7735  1.2932
 4449SOL     OW24805   0.622   0.417  13.423 -0.5788 -0.4881  0.4418
 4449SOL    HW124806   0.568   0.468  13.483 -1.3690 -0.9605  0.1370
 4449SOL    HW224807   0.568   0.420  13.344  0.0996 -0.6224 -0.0292
 4450SOL     OW24808   3.389   3.184   0.224 -0.5063  0.4140 -0.1886
 4450SOL    HW124809   3.371   3.264   0.175 -1.7745  0.2660  0.0445
 4450SOL    HW224810   3.350   3.121   0.163  0.6261 -1.0498  0.5936
 4451SOL     OW24811   3.728   0.279   8.686 -0.3094  0.0673  0.0995
 4451SOL    HW124812   3.637   0.302   8.667 -0.8958 -1.4934  1.0192
 4451SOL    HW224813   3.769   0.351   8.638  0.5657 -0.8749 -0.5843
 4452SOL     OW24814   4.396   4.060   7.914 -0.6843  0.0054  0.5791
 4452SOL    HW124815   4.487   4.082   7.891 -1.0158 -1.0186 -1.7376
 4452SOL    HW224816   4.408   4.058   8.009  0.5813  0.2707  0.4330
 4453SOL     OW24817   4.217   2.724   1.096 -0.1513 -0.1644  0.5385
 4453SOL    HW124818   4.246   2.687   1.180  0.7670 -1.4718 -0.3673
 4453SOL    HW224819   4.253   2.812   1.108 -0.6851 -0.1749  2.3641
 4454SOL     OW24820   4.045   0.735  13.410 -0.3637  0.3354 -0.0990
 4454SOL    HW124821   3.959   0.776  13.417 -1.6145 -2.2361 -0.4097
 4454SOL    HW224822   4.013   0.646  13.395 -3.3186  1.2877  0.5943
 4455SOL     OW24823   3.673   3.360   4.174 -0.0998  0.0503 -0.3735
 4455SOL    HW124824   3.748   3.345   4.116 -1.2039 -2.5011 -1.1059
 4455SOL    HW224825   3.611   3.364   4.102 -0.4875 -3.6947 -0.2732
 4456SOL     OW24826   1.100   1.748   0.890 -0.4476  0.1851  0.0245
 4456SOL    HW124827   1.179   1.802   0.900 -0.2324  0.0098 -0.7024
 4456SOL    HW224828   1.092   1.744   0.795 -1.9757 -2.9586  0.2934
 4457SOL     OW24829   2.168   3.872   6.462  0.2286 -0.3274  1.1817
 4457SOL    HW124830   2.255   3.844   6.433  0.1292 -0.4244  0.9782
 4457SOL    HW224831   2.156   3.828   6.546  1.3797  0.5273  1.8009
 4458SOL     OW24832   1.733   2.939   7.059 -0.0833 -0.1120 -0.0147
 4458SOL    HW124833   1.823   2.941   7.093 -0.2078 -0.2486  0.3212
 4458SOL    HW224834   1.703   2.855   7.095  1.2621 -0.9087 -0.7501
 4459SOL     OW24835   2.024   1.745  16.338 -0.3446  0.4130  0.1940
 4459SOL    HW124836   2.056   1.835  16.342  0.7560  0.0031  0.5731
 4459SOL    HW224837   1.935   1.773  16.361 -0.7087 -0.5693 -0.0277
 4460SOL     OW24838   0.045   2.846   7.243  0.1421  0.3207 -0.3218
 4460SOL    HW124839   0.082   2.773   7.294 -1.3976 -1.3821 -1.6510
 4460SOL    HW224840   4.683   2.855   7.282  1.0135 -2.2791  2.3056
 4461SOL     OW24841   1.388   4.589   7.078 -0.5001  0.1356  0.0775
 4461SOL    HW124842   1.338   4.580   6.996 -0.3538 -0.4715  0.0497
 4461SOL    HW224843   1.362   4.509   7.124  2.2938  0.0405  1.5281
 4462SOL     OW24844   2.173   4.156   8.863 -0.0432  0.2632  0.2763
 4462SOL    HW124845   2.144   4.104   8.938  0.0905 -0.9737 -0.5143
 4462SOL    HW224846   2.267   4.167   8.881 -0.2054  0.0729  1.2328
 4463SOL     OW24847   3.656   1.829   6.371 -0.6165  0.0648 -0.0291
 4463SOL    HW124848   3.575   1.779   6.385  0.2129 -1.5977 -1.3170
 4463SOL    HW224849   3.700   1.776   6.305  0.4197 -1.2360  1.6899
 4464SOL     OW24850   3.033   3.592   0.207 -0.2544  0.3756 -0.1271
 4464SOL    HW124851   3.030   3.667   0.266  2.0413 -0.0023  0.4892
 4464SOL    HW224852   3.025   3.521   0.271 -0.4865  1.8882  1.5373
 4465SOL     OW24853   2.742   2.149   6.809  0.9302  0.0070  0.1489
 4465SOL    HW124854   2.694   2.105   6.879  1.3399 -1.3774 -0.4404
 4465SOL    HW224855   2.834   2.140   6.833  0.9593  0.7828  0.3259
 4466SOL     OW24856   1.201   3.266   5.082 -0.1501 -0.0605  0.1852
 4466SOL    HW124857   1.244   3.352   5.085 -0.1463  0.0345 -2.1359
 4466SOL    HW224858   1.149   3.267   5.001 -1.4012 -0.1875  0.9985
 4467SOL     OW24859   4.700   1.126   2.842 -0.8310 -0.1963  0.7399
 4467SOL    HW124860   4.616   1.160   2.812 -0.1784  0.9417  0.2007
 4467SOL    HW224861   0.026   1.207   2.832 -1.6948  0.3356  0.7353
 4468SOL     OW24862   4.314   2.411   2.825  0.0436 -0.3720 -0.1069
 4468SOL    HW124863   4.350   2.389   2.911 -1.6667  3.0024  1.4697
 4468SOL    HW224864   4.361   2.356   2.763 -2.6067  1.3880 -3.6223
 4469SOL     OW24865   4.497   4.356   3.064 -0.6007 -0.2266  0.1864
 4469SOL    HW124866   4.442   4.288   3.024  0.7082 -1.6252  0.7427
 4469SOL    HW224867   4.439   4.432   3.069 -2.3899 -1.5932  0.2792
 4470SOL     OW24868   2.048   1.069   5.367 -0.6056  0.2528  0.1312
 4470SOL    HW124869   2.003   1.018   5.434 -0.0415 -1.4783 -0.7881
 4470SOL    HW224870   2.012   1.024   5.291  0.1859  1.2811 -0.8403
 4471SOL     OW24871   0.922   0.983   7.082 -0.6002  0.0183  0.4781
 4471SOL    HW124872   0.883   0.973   7.168 -0.0460 -1.0406  0.6172
 4471SOL    HW224873   1.015   0.973   7.105 -0.5538 -1.6442 -0.3679
 4472SOL     OW24874   3.671   0.126   4.555 -0.2889 -0.3192  0.3478
 4472SOL    HW124875   3.608   0.062   4.587 -1.2930  1.3344  1.6757
 4472SOL    HW224876   3.751   0.079   4.577  2.0282  2.7940 -1.3703
 4473SOL     OW24877   2.289   4.246   5.777  0.2706 -0.5187  0.3928
 4473SOL    HW124878   2.299   4.253   5.682  0.6490  0.0482  0.4736
 4473SOL    HW224879   2.225   4.175   5.783  1.0769 -1.2939 -0.2622
 4474SOL     OW24880   2.279   0.409  17.146 -0.0469 -0.2233  0.0208
 4474SOL    HW124881   2.242   0.322  17.162  0.7888 -0.4423  0.7697
 4474SOL    HW224882   2.251   0.438  17.059 -0.6769 -1.9941 -0.3559
 4475SOL     OW24883   4.268   1.245   5.843  0.1220 -0.7015  0.2534
 4475SOL    HW124884   4.300   1.311   5.782  0.5412 -2.1095 -1.0538
 4475SOL    HW224885   4.195   1.205   5.795 -0.7443  2.1822 -0.8785
 4476SOL     OW24886   4.014   3.987   4.825  0.0337  0.3558 -0.4632
 4476SOL    HW124887   4.010   3.979   4.920 -0.8337 -0.7914 -0.5971
 4476SOL    HW224888   3.919   3.991   4.813 -0.0464  0.2132  0.1339
 4477SOL     OW24889   0.112   4.390  16.869  0.6616  0.2373 -0.3940
 4477SOL    HW124890   0.152   4.472  16.842  0.0472  0.0678 -1.7961
 4477SOL    HW224891   0.044   4.368  16.805  0.3301  0.6097 -0.1675
 4478SOL     OW24892   1.044   0.305   8.452 -0.0568  0.1413  0.1673
 4478SOL    HW124893   1.025   0.276   8.362 -1.4433  1.7844 -0.0670
 4478SOL    HW224894   0.977   0.258   8.502 -0.4077  0.3686 -0.0863
 4479SOL     OW24895   1.059   0.035   6.059  0.2056 -0.6619  0.3123
 4479SOL    HW124896   1.023   0.123   6.046  0.0691 -0.7456  0.1225
 4479SOL    HW224897   1.039   4.718   5.975 -2.9763 -0.6174  1.0256
 4480SOL     OW24898   3.237   2.895   6.855  0.7648 -0.8525  0.2514
 4480SOL    HW124899   3.196   2.855   6.777 -2.6585  1.1991  1.0185
 4480SOL    HW224900   3.157   2.918   6.903  1.4279  2.0308 -0.0593
 4481SOL     OW24901   0.122   0.281  17.595  0.2821  0.0888 -0.3274
 4481SOL    HW124902   0.218   0.286  17.589  0.0895  1.1273 -2.7642
 4481SOL    HW224903   0.110   0.205  17.651 -0.3487  0.6789  0.3419
 4482SOL     OW24904   0.078   3.563  10.427 -0.5612  0.9211  0.5921
 4482SOL    HW124905   4.719   3.600  10.455 -1.3928 -0.7877  0.3551
 4482SOL    HW224906   0.043   3.475  10.411 -0.6047  0.7077  1.9188
 4483SOL     OW24907   3.414   4.104   6.612  0.4205 -0.0135 -0.3318
 4483SOL    HW124908   3.324   4.076   6.625  0.4575 -0.1564 -0.3766
 4483SOL    HW224909   3.416   4.132   6.520  1.6043 -0.5974 -0.4929
 4484SOL     OW24910   1.522   2.028   5.239  0.0678  0.1768  0.1943
 4484SOL    HW124911   1.460   1.965   5.274  3.4148 -3.3149 -0.1703
 4484SOL    HW224912   1.512   2.096   5.306 -0.6670 -1.4481  1.7144
 4485SOL     OW24913   3.185   1.656   6.599 -0.7182 -0.3975 -0.0892
 4485SOL    HW124914   3.192   1.564   6.621 -0.2859 -0.6728 -1.3465
 4485SOL    HW224915   3.111   1.676   6.655  0.0104  1.4953  0.1942
 4486SOL     OW24916   0.652   1.599   6.094  0.0195  0.1079  0.3703
 4486SOL    HW124917   0.576   1.543   6.077 -0.3651  0.6297  0.3752
 4486SOL    HW224918   0.646   1.685   6.054  0.1178 -1.6648 -3.5077
 4487SOL     OW24919   1.240   0.637  14.214  0.3011 -0.2787 -0.4498
 4487SOL    HW124920   1.206   0.645  14.303  0.5733  1.5858 -0.5116
 4487SOL    HW224921   1.170   0.581  14.181  0.6995  0.1482 -2.0037
 4488SOL     OW24922   3.167   4.695   6.414 -0.0908 -0.5337  0.4398
 4488SOL    HW124923   3.081   0.010   6.427 -0.3063 -0.2107 -1.9466
 4488SOL    HW224924   3.217   0.009   6.485  0.1798  0.9885 -0.5881
 4489SOL     OW24925   4.502   0.227   8.548 -0.2153  0.3048 -0.3775
 4489SOL    HW124926   4.491   0.276   8.630  0.3135  1.7039 -1.1466
 4489SOL    HW224927   4.426   0.169   8.546  1.4264 -1.7971 -1.3179
 4490SOL     OW24928   2.929   2.086   4.307  0.4736 -0.1778  0.2505
 4490SOL    HW124929   2.899   2.157   4.363  1.0177  1.1645 -1.1382
 4490SOL    HW224930   2.969   2.023   4.367  0.8482 -0.2627 -0.0799
 4491SOL     OW24931   0.960   0.300  12.431  0.4348 -0.3851  0.3079
 4491SOL    HW124932   0.928   0.353  12.358  1.4497 -0.2802 -0.0466
 4491SOL    HW224933   0.874   0.277  12.469  0.2327 -0.2036 -0.0410
 4492SOL     OW24934   0.408   1.562   1.520  0.7861  0.0580 -0.4595
 4492SOL    HW124935   0.478   1.549   1.457  2.3146  0.7322  1.1101
 4492SOL    HW224936   0.355   1.634   1.485 -2.1192 -0.2804  3.1812
 4493SOL     OW24937   0.857   4.697   8.516  0.0182  0.4648  0.3085
 4493SOL    HW124938   0.801   4.629   8.550 -1.4160  1.1999 -0.5825
 4493SOL    HW224939   0.803   4.715   8.439  2.4177 -0.8737 -1.7071
 4494SOL     OW24940   4.514   3.751   6.913 -0.1813 -0.0364  0.5157
 4494SOL    HW124941   4.424   3.722   6.905  0.4616 -1.5268 -1.2632
 4494SOL    HW224942   4.539   3.719   7.000 -3.3675 -1.5738  0.8491
 4495SOL     OW24943   3.614   2.559   6.539 -0.4313  0.3539 -0.0251
 4495SOL    HW124944   3.550   2.553   6.609  0.6094  1.3141  1.0177
 4495SOL    HW224945   3.624   2.654   6.530  1.1249  0.2640  0.6419
 4496SOL     OW24946   0.789   3.540   7.173 -0.0681  0.4499  0.6250
 4496SOL    HW124947   0.737   3.521   7.095  1.3161 -2.7960  0.4882
 4496SOL    HW224948   0.768   3.477   7.242 -0.7406 -2.2425 -2.0519
 4497SOL     OW24949   3.850   4.536   7.842  0.8075  0.0941  0.0036
 4497SOL    HW124950   3.854   4.625   7.807  0.0628  0.7839  1.6706
 4497SOL    HW224951   3.864   4.478   7.767  2.6608  1.4419 -0.7036
 4498SOL     OW24952   3.456   4.661   0.698  0.2107 -0.0384  0.0049
 4498SOL    HW124953   3.411   4.580   0.675  1.5102 -0.9161  0.6255
 4498SOL    HW224954   3.546   4.635   0.712  1.0758  3.0726  0.2919
 4499SOL     OW24955   1.853   1.346  11.818 -0.2187  0.3266 -0.2857
 4499SOL    HW124956   1.842   1.305  11.732 -2.2177  0.0221  0.1275
 4499SOL    HW224957   1.818   1.273  11.869 -0.6160 -0.5969 -1.8698
 4500SOL     OW24958   3.499   3.004   2.210  0.1355  0.5571  0.1691
 4500SOL    HW124959   3.501   3.040   2.121  1.7230  0.2211  0.0702
 4500SOL    HW224960   3.430   2.937   2.202  0.6370  0.3239 -2.3880
 4501SOL     OW24961   1.847   3.842   3.663  0.0000 -0.1003 -0.6869
 4501SOL    HW124962   1.935   3.879   3.665  0.3203 -0.7555 -2.2646
 4501SOL    HW224963   1.865   3.759   3.707 -0.2947  0.3643  0.3023
 4502SOL     OW24964   1.565   4.238   4.065  0.2823  0.0904  0.0893
 4502SOL    HW124965   1.508   4.161   4.057  2.1020 -1.2289 -0.3759
 4502SOL    HW224966   1.508   4.301   4.021 -0.4914  0.6258  1.8863
 4503SOL     OW24967   3.721   2.105   5.839 -0.0504 -0.0830  0.0935
 4503SOL    HW124968   3.785   2.055   5.788  2.3068  3.0998 -0.0668
 4503SOL    HW224969   3.773   2.125   5.917  0.0919  1.8700 -0.4990
 4504SOL     OW24970   2.724   0.892   6.192  0.5332 -0.0166  0.6396
 4504SOL    HW124971   2.709   0.847   6.275  1.4035 -1.6425 -0.0897
 4504SOL    HW224972   2.638   0.891   6.152  0.3186 -0.7909  1.1213
 4505SOL     OW24973   4.636   3.613   5.819  0.2346 -0.1469  0.1988
 4505SOL    HW124974   4.695   3.542   5.797 -0.2878 -0.8517  1.0535
 4505SOL    HW224975   4.670   3.651   5.900  2.0764 -2.1416  0.3571
 4506SOL     OW24976   1.645   3.130   2.335  0.6741  0.1352  0.0954
 4506SOL    HW124977   1.696   3.202   2.373  1.3478 -0.4827  0.3759
 4506SOL    HW224978   1.704   3.055   2.346  0.3769 -0.3642 -1.7068
 4507SOL     OW24979   4.643   1.686  10.353 -0.4158  0.3663  0.3278
 4507SOL    HW124980   4.687   1.609  10.389  0.1925  1.4684  1.9537
 4507SOL    HW224981   4.566   1.645  10.314  2.6062 -3.6625 -1.3679
 4508SOL     OW24982   4.511   2.287   7.052 -0.4817 -0.1141  0.5576
 4508SOL    HW124983   4.470   2.342   7.119 -0.9872  0.6956 -0.4197
 4508SOL    HW224984   4.430   2.241   7.031 -1.6486  1.6963  1.0658
 4509SOL     OW24985   1.130   4.219   2.477 -0.1180 -0.0239 -0.3873
 4509SOL    HW124986   1.148   4.310   2.501  0.8080 -0.3979  0.3424
 4509SOL    HW224987   1.206   4.167   2.504 -0.7245  0.3850  2.1191
 4510SOL     OW24988   1.885   0.348   5.465  0.3191 -0.1196 -0.0214
 4510SOL    HW124989   1.894   0.355   5.370  1.3182  0.9119  0.1373
 4510SOL    HW224990   1.822   0.418   5.481  0.2046 -0.2016 -0.1203
 4511SOL     OW24991   3.987   0.557   9.664 -0.4454  0.6101  0.1816
 4511SOL    HW124992   3.980   0.598   9.578  2.0288  0.1033 -0.2648
 4511SOL    HW224993   3.936   0.480   9.642  0.6563  0.9105 -3.3883
 4512SOL     OW24994   2.557   3.201   4.331  0.3460 -0.0169  0.2965
 4512SOL    HW124995   2.508   3.146   4.393 -0.6171  1.8645  1.2197
 4512SOL    HW224996   2.606   3.135   4.282 -1.3103 -0.8604 -0.2522
 4513SOL     OW24997   4.328   2.941  13.223  0.1589  0.6414  0.7551
 4513SOL    HW124998   4.364   2.936  13.135 -0.5046  1.6158  0.4223
 4513SOL    HW224999   4.294   2.852  13.226 -2.1842  1.3558 -4.0660
 4514SOL     OW25000   2.166   2.822   4.092 -0.1264  0.0581  0.5848
 4514SOL    HW125001   2.223   2.775   4.154 -1.4677 -1.0975  0.9310
 4514SOL    HW225002   2.099   2.757   4.069  0.2441  0.4667 -1.6928
 4515SOL     OW25003   1.519   0.223   5.441  0.8924 -0.0689  0.0516
 4515SOL    HW125004   1.425   0.240   5.448  0.8736  0.0378 -0.4478
 4515SOL    HW225005   1.556   0.295   5.492 -1.1467  0.5645  0.6335
 4516SOL     OW25006   3.839   1.145   1.695  0.2471  0.0273 -0.1471
 4516SOL    HW125007   3.884   1.210   1.641 -1.6093  0.8943 -0.6533
 4516SOL    HW225008   3.887   1.152   1.777  0.2260 -2.3766  0.0663
 4517SOL     OW25009   0.714   0.460   8.958 -0.5145  0.2418  0.2980
 4517SOL    HW125010   0.744   0.463   9.049 -0.5473 -2.2635  0.4002
 4517SOL    HW225011   0.795   0.442   8.910 -1.0571 -0.9095 -0.1751
 4518SOL     OW25012   1.146   1.359   6.695  0.0264 -0.0336  0.7768
 4518SOL    HW125013   1.175   1.268   6.686 -0.6985 -0.3804  1.9764
 4518SOL    HW225014   1.116   1.369   6.605  0.0861 -1.5135  0.6004
 4519SOL     OW25015   2.405   0.099   3.910  0.1709  0.4219 -0.1150
 4519SOL    HW125016   2.407   0.164   3.981 -1.0172 -1.4877  1.6784
 4519SOL    HW225017   2.481   0.123   3.858  0.3031 -2.1073 -1.0687
 4520SOL     OW25018   2.693   1.085   5.474 -0.5701  0.8171  0.3290
 4520SOL    HW125019   2.739   1.064   5.556  0.2911  0.0461 -0.3517
 4520SOL    HW225020   2.766   1.087   5.412  0.8595 -1.2943  1.9365
 4521SOL     OW25021   0.997   0.826   2.808  0.2718  0.5264 -1.0199
 4521SOL    HW125022   0.945   0.746   2.799  1.5002 -0.1545 -2.1352
 4521SOL    HW225023   1.069   0.796   2.864 -0.4916  0.4738 -0.0683
 4522SOL     OW25024   0.233   4.241   6.809  0.3716  0.6271 -0.0612
 4522SOL    HW125025   0.209   4.333   6.800  1.3484  1.2975  4.0448
 4522SOL    HW225026   0.149   4.216   6.771  0.8346 -0.1440 -0.5958
 4523SOL     OW25027   1.531   2.082   4.044  0.3302  0.3555 -0.0015
 4523SOL    HW125028   1.513   2.136   4.121 -3.3565 -0.2805 -0.4227
 4523SOL    HW225029   1.472   2.118   3.977 -2.3940  0.0075  2.1910
 4524SOL     OW25030   1.954   0.844  16.001  0.3605  0.3449  0.7667
 4524SOL    HW125031   1.942   0.780  15.930  2.4138  0.5991  0.1670
 4524SOL    HW225032   1.923   0.919  15.950 -2.5303  1.1701  3.7505
 4525SOL     OW25033   4.315   2.978   1.162 -0.1731 -0.1620 -0.2742
 4525SOL    HW125034   4.384   2.940   1.217 -0.7063 -1.6077 -0.6261
 4525SOL    HW225035   4.303   3.056   1.218  2.2110  0.8770 -1.2039
 4526SOL     OW25036   1.665   0.423   2.182 -0.5752 -0.0258  0.2319
 4526SOL    HW125037   1.612   0.499   2.160  1.2102  0.3955 -2.5070
 4526SOL    HW225038   1.598   0.357   2.162  0.1085 -0.9905  1.1127
 4527SOL     OW25039   2.165   2.906   8.290 -0.1226 -0.0867 -0.3740
 4527SOL    HW125040   2.259   2.923   8.291 -0.2729  0.7385 -1.6275
 4527SOL    HW225041   2.151   2.968   8.219  1.0277  0.6224  0.0123
 4528SOL     OW25042   1.919   0.024   9.510 -0.0659 -0.0303  0.0229
 4528SOL    HW125043   2.010   0.054   9.503  0.1505 -0.2986  1.8443
 4528SOL    HW225044   1.937   4.665   9.553 -0.6437 -0.4251 -0.4972
 4529SOL     OW25045   3.214   3.290  17.503  0.4794 -0.1217  0.0828
 4529SOL    HW125046   3.206   3.371  17.554  1.7691 -0.0571  0.1771
 4529SOL    HW225047   3.263   3.237  17.565  0.2703 -0.2442  0.1444
 4530SOL     OW25048   3.637   1.577  12.821  0.3923  0.5529  0.0809
 4530SOL    HW125049   3.718   1.593  12.870  0.9582 -0.4616 -0.5342
 4530SOL    HW225050   3.619   1.487  12.848  0.6812  1.0716  1.9971
 4531SOL     OW25051   3.967   2.386   3.158  0.7310  0.1562 -0.2899
 4531SOL    HW125052   3.893   2.329   3.138  1.4135 -0.3425 -1.4018
 4531SOL    HW225053   3.968   2.425   3.071 -0.0543  0.8056 -0.0032
 4532SOL     OW25054   4.422   0.797   9.159 -0.2961 -0.0913  0.4113
 4532SOL    HW125055   4.508   0.833   9.135 -0.6739  0.9833  0.6515
 4532SOL    HW225056   4.415   0.856   9.234  2.6126  1.2508 -0.3778
 4533SOL     OW25057   2.525   3.966   7.120 -1.1423 -0.0438 -0.0261
 4533SOL    HW125058   2.574   4.047   7.103  0.6765 -1.4400 -1.4158
 4533SOL    HW225059   2.436   4.000   7.117 -0.1671  2.5297  0.2360
 4534SOL     OW25060   2.959   2.777   9.959 -0.1932 -0.0143  0.1017
 4534SOL    HW125061   2.979   2.828  10.038 -0.3065  0.4741 -0.1815
 4534SOL    HW225062   2.906   2.840   9.910 -1.0184  0.8923  2.1986
 4535SOL     OW25063   3.776   3.134   1.656 -0.0551 -0.5986  0.2246
 4535SOL    HW125064   3.722   3.067   1.697  0.3401  0.2901  2.1863
 4535SOL    HW225065   3.802   3.179   1.736  0.5905 -0.4103 -0.0851
 4536SOL     OW25066   1.004   0.260   0.628 -0.0331 -0.1639  0.4577
 4536SOL    HW125067   1.037   0.192   0.569 -1.2041 -0.7911  0.5263
 4536SOL    HW225068   0.987   0.333   0.568 -1.2713 -0.2443  0.7008
 4537SOL     OW25069   3.865   3.397  13.502 -0.2208  0.2026 -0.2445
 4537SOL    HW125070   3.928   3.397  13.431  1.7829 -2.6041  1.5453
 4537SOL    HW225071   3.918   3.439  13.569  0.5782  1.7677 -1.8566
 4538SOL     OW25072   2.923   3.595   8.257  0.3143 -0.3502  0.3620
 4538SOL    HW125073   2.828   3.599   8.273  0.0613 -1.9564 -0.7457
 4538SOL    HW225074   2.945   3.686   8.238 -2.0414 -0.0849 -1.1402
 4539SOL     OW25075   4.066   3.374   6.371  0.2651  0.4948  0.7854
 4539SOL    HW125076   4.098   3.431   6.301  0.3329  1.7859  1.8637
 4539SOL    HW225077   4.017   3.303   6.331 -0.6413  0.7107  1.5213
 4540SOL     OW25078   1.556   4.080   7.347  0.1626  0.5344  0.1135
 4540SOL    HW125079   1.602   4.096   7.429 -3.2877 -1.0599  2.3828
 4540SOL    HW225080   1.542   4.170   7.315  0.6214  0.3353 -0.6430
 4541SOL     OW25081   0.587   4.599   4.180  0.2766  0.4023 -0.6734
 4541SOL    HW125082   0.608   4.673   4.123  0.8043  0.5261 -0.3207
 4541SOL    HW225083   0.583   4.653   4.259  1.0588 -0.7319  0.1492
 4542SOL     OW25084   2.765   0.221  13.783  0.0584  0.3538 -0.2083
 4542SOL    HW125085   2.777   0.212  13.878 -0.4312  1.9460  0.0103
 4542SOL    HW225086   2.686   0.170  13.769 -0.4119  0.9728  0.1719
 4543SOL     OW25087   3.068   0.894   2.918  0.5655  0.4125  0.2322
 4543SOL    HW125088   2.989   0.840   2.919  1.0386 -0.2619  2.6348
 4543SOL    HW225089   3.105   0.859   2.837 -1.5202  0.7257 -0.8608
 4544SOL     OW25090   3.940   2.509   4.924  0.5001  0.0061  0.6130
 4544SOL    HW125091   3.993   2.575   4.967  0.6281 -0.3389  0.9869
 4544SOL    HW225092   3.943   2.533   4.831 -2.6174  1.6111  0.9440
 4545SOL     OW25093   3.043   0.230  14.923 -0.0809  0.5612 -0.1869
 4545SOL    HW125094   3.004   0.284  14.855  2.8814  0.0615 -2.2819
 4545SOL    HW225095   3.003   0.255  15.006  0.5513  1.6320 -0.2078
 4546SOL     OW25096   4.307   0.516   8.597  0.0238  0.0836 -0.7045
 4546SOL    HW125097   4.373   0.493   8.662 -1.3819  1.8131  1.3328
 4546SOL    HW225098   4.227   0.489   8.642  1.2963 -3.1139 -0.3901
 4547SOL     OW25099   0.527   0.138   4.247 -0.1783 -0.4329  0.3121
 4547SOL    HW125100   0.452   0.193   4.225  0.6174  0.8115  0.7053
 4547SOL    HW225101   0.596   0.205   4.237  0.0136 -0.4961  1.1757
 4548SOL     OW25102   4.022   3.187  13.346  0.3299  0.1547  0.5745
 4548SOL    HW125103   4.104   3.144  13.372  0.8835 -0.1748 -1.7685
 4548SOL    HW225104   3.964   3.111  13.338  1.5535 -0.4893 -1.9838
 4549SOL     OW25105   2.813   2.977   2.847  0.0416  0.5516 -0.0759
 4549SOL    HW125106   2.874   3.009   2.781 -1.6967  3.9429 -0.0681
 4549SOL    HW225107   2.873   2.964   2.920 -0.5878  0.7302  0.4733
 4550SOL     OW25108   4.196   1.242   1.254  0.5271  0.2434  0.6591
 4550SOL    HW125109   4.168   1.237   1.163  2.9427 -1.1290  0.0040
 4550SOL    HW225110   4.140   1.311   1.290  0.2132 -0.3412  1.3044
 4551SOL     OW25111   2.186   3.988   8.268 -0.1095  0.1432 -0.3115
 4551SOL    HW125112   2.226   4.013   8.185 -1.3986  2.3763 -0.2674
 4551SOL    HW225113   2.094   4.012   8.251  0.5887  1.9320 -1.5516
 4552SOL     OW25114   0.823   3.345   5.993  0.1881 -0.2098  0.2398
 4552SOL    HW125115   0.860   3.257   6.007 -0.0004  0.3280  4.0455
 4552SOL    HW225116   0.888   3.381   5.934  0.0974  0.0715  0.3119
 4553SOL     OW25117   2.052   1.239   7.558 -0.4508  0.2653 -0.1580
 4553SOL    HW125118   2.130   1.286   7.587 -0.7038  0.2646  0.5163
 4553SOL    HW225119   2.011   1.315   7.515 -2.2921 -0.0027  1.1613
 4554SOL     OW25120   4.355   3.202   5.830 -0.1951  0.1939  0.4950
 4554SOL    HW125121   4.406   3.127   5.861 -1.3095  0.2465  2.4990
 4554SOL    HW225122   4.425   3.265   5.812  0.3931 -0.6546 -0.2028
 4555SOL     OW25123   0.155   4.359   8.087  0.4288  0.1125 -0.4138
 4555SOL    HW125124   0.138   4.269   8.114 -0.7664  0.6671  0.7033
 4555SOL    HW225125   0.250   4.372   8.093  0.2193  1.7079 -0.5301
 4556SOL     OW25126   0.747   1.063   5.772  0.3063 -0.0598 -0.2967
 4556SOL    HW125127   0.724   1.079   5.863 -0.8681 -2.9840 -0.0873
 4556SOL    HW225128   0.715   1.148   5.741 -1.9694 -0.2387  1.5970
 4557SOL     OW25129   2.403   1.219  11.345 -0.2937  0.1108 -0.2207
 4557SOL    HW125130   2.485   1.268  11.344 -0.2824  0.0727 -1.1479
 4557SOL    HW225131   2.365   1.264  11.420  0.1458  1.1327 -0.6140
 4558SOL     OW25132   0.095   3.001  16.930 -0.5491  0.1888 -0.0311
 4558SOL    HW125133   0.103   2.956  17.014  0.4116  0.0775 -0.1741
 4558SOL    HW225134   0.002   2.998  16.909 -0.6652  0.6949  0.3967
 4559SOL     OW25135   2.007   3.018   6.328 -0.2862 -0.0917  0.0117
 4559SOL    HW125136   2.016   3.103   6.372 -3.2309 -0.0469  0.5311
 4559SOL    HW225137   1.945   2.975   6.386 -0.7637  0.5639 -0.0106
 4560SOL     OW25138   3.718   3.028  13.528 -0.3491 -0.5038 -0.5923
 4560SOL    HW125139   3.744   2.997  13.615 -0.2957 -0.2205 -0.5070
 4560SOL    HW225140   3.800   3.051  13.486 -0.5359  0.8742 -0.2075
 4561SOL     OW25141   0.386   0.950   7.590 -0.1753 -0.6293 -0.2155
 4561SOL    HW125142   0.433   1.028   7.620 -2.8967  1.3374 -1.0746
 4561SOL    HW225143   0.393   0.901   7.671  1.8947  0.4739  0.2680
 4562SOL     OW25144   1.196   0.982  13.188 -0.0168 -0.0454 -0.2856
 4562SOL    HW125145   1.115   1.033  13.201 -0.4041 -0.2899 -1.7483
 4562SOL    HW225146   1.162   0.909  13.136 -1.8096  1.4837 -1.2637
 4563SOL     OW25147   2.637   4.529   6.970  0.8296 -0.6736 -0.1062
 4563SOL    HW125148   2.601   4.511   7.057  1.9645 -4.1663 -0.3761
 4563SOL    HW225149   2.703   4.594   6.992 -0.2562  0.7899 -1.1348
 4564SOL     OW25150   4.191   1.986   4.822  0.4692  0.3088  0.1883
 4564SOL    HW125151   4.171   2.079   4.809 -2.1422  0.5402  5.6949
 4564SOL    HW225152   4.169   1.975   4.915  3.6165 -0.8177  0.8172
 4565SOL     OW25153   2.621   4.641   6.156 -0.1316  0.3468 -0.1525
 4565SOL    HW125154   2.621   4.695   6.236  2.8819 -1.6183  1.1752
 4565SOL    HW225155   2.639   4.716   6.098  1.1286 -2.0411 -2.8173
 4566SOL     OW25156   0.213   3.879   2.393  0.0113  0.2286 -0.2816
 4566SOL    HW125157   0.209   3.846   2.483 -0.3212 -1.8310 -1.0450
 4566SOL    HW225158   0.267   3.824   2.336 -0.6843 -0.2288 -0.4968
 4567SOL     OW25159   4.453   3.470   3.267 -0.1858  0.5126 -0.3813
 4567SOL    HW125160   4.525   3.530   3.249  0.5445 -0.5256 -0.8777
 4567SOL    HW225161   4.467   3.394   3.211 -1.0611 -0.7456  1.0931
 4568SOL     OW25162   4.559   4.151  13.529 -0.1859  0.4909 -0.4211
 4568SOL    HW125163   4.518   4.225  13.572 -1.2015 -0.5218  0.3440
 4568SOL    HW225164   4.649   4.175  13.550  0.0836 -2.3010  1.6450
 4569SOL     OW25165   0.935   2.057   6.188 -0.1231 -0.1035 -0.0533
 4569SOL    HW125166   0.872   2.094   6.126  2.7940  1.3115 -2.1614
 4569SOL    HW225167   0.958   1.971   6.151  1.0010 -1.0012  2.7480
 4570SOL     OW25168   1.019   0.582   2.553 -0.3123  0.5657 -0.1105
 4570SOL    HW125169   1.105   0.591   2.594 -0.7392 -1.7634  1.2920
 4570SOL    HW225170   1.017   0.488   2.534 -1.6272  0.3484  1.1031
 4571SOL     OW25171   1.190   1.050   8.253  0.5055  0.5467  0.4056
 4571SOL    HW125172   1.242   1.120   8.292  1.3747  1.1038 -1.7540
 4571SOL    HW225173   1.252   0.983   8.226 -0.0664 -0.3858  1.3921
 4572SOL     OW25174   4.447   0.029   5.653  0.5975  0.1558 -0.0981
 4572SOL    HW125175   4.539   0.055   5.662  0.0250  1.5556  1.5611
 4572SOL    HW225176   4.419   0.037   5.744 -0.8539  0.9989 -0.6098
 4573SOL     OW25177   3.019   1.707   2.144 -0.1229  0.0432 -0.8185
 4573SOL    HW125178   2.933   1.739   2.172 -0.1330  0.2520 -1.0839
 4573SOL    HW225179   3.037   1.645   2.215 -0.6601  1.3665  0.4906
 4574SOL     OW25180   1.765   1.160  14.401 -0.5582 -0.2659  0.1962
 4574SOL    HW125181   1.719   1.076  14.409  1.2087 -1.2035  0.5480
 4574SOL    HW225182   1.702   1.223  14.366 -0.3621  0.8683  1.9478
 4575SOL     OW25183   1.691   4.462   7.025  0.2334  0.1954 -0.0025
 4575SOL    HW125184   1.762   4.447   7.087 -0.1622  0.1222  0.4399
 4575SOL    HW225185   1.628   4.511   7.078  0.3236 -1.0648  1.2985
 4576SOL     OW25186   4.571   0.589   6.881  0.7379  0.1641  0.1461
 4576SOL    HW125187   4.534   0.604   6.794 -0.2455 -0.0115  0.5372
 4576SOL    HW225188   4.494   0.598   6.937  1.1079  0.1632  0.6577
 4577SOL     OW25189   2.184   0.373   2.190  0.4088  0.4949  0.2167
 4577SOL    HW125190   2.093   0.389   2.164 -0.5278  0.7041  3.6459
 4577SOL    HW225191   2.176   0.423   2.272 -1.7173  1.3690 -0.5267
 4578SOL     OW25192   3.374   2.376   9.441  0.0754  0.4953 -0.6375
 4578SOL    HW125193   3.371   2.468   9.467 -1.2186  1.0050 -2.5468
 4578SOL    HW225194   3.369   2.325   9.522 -2.1694 -1.1443 -1.8236
 4579SOL     OW25195   3.461   0.984   1.940  0.1397 -0.2793 -0.1404
 4579SOL    HW125196   3.532   0.994   1.877  0.0792  2.0953  0.1530
 4579SOL    HW225197   3.441   0.891   1.931  0.5805 -0.6147  2.4159
 4580SOL     OW25198   1.352   3.037   8.570  0.2377  0.0045 -0.2804
 4580SOL    HW125199   1.263   3.001   8.578  0.0914  0.1065 -1.3904
 4580SOL    HW225200   1.330   3.125   8.599 -2.3425 -0.9890  0.8151
 4581SOL     OW25201   2.214   2.054   7.645 -0.6290  0.1533 -0.0107
 4581SOL    HW125202   2.132   2.005   7.644 -0.9665  0.6939  2.7529
 4581SOL    HW225203   2.264   1.994   7.589  0.9474 -0.1535  1.7433
 4582SOL     OW25204   3.503   0.863   5.366 -0.7585  0.2926 -0.2918
 4582SOL    HW125205   3.512   0.958   5.354  2.2812  0.2252  1.4555
 4582SOL    HW225206   3.552   0.836   5.288 -0.7554 -2.0090  0.5152
 4583SOL     OW25207   4.381   2.047  10.869 -0.0850 -0.3534  0.0103
 4583SOL    HW125208   4.434   1.979  10.828  0.2189  0.5465 -1.0813
 4583SOL    HW225209   4.306   1.989  10.875  0.9003 -1.4948  1.1717
 4584SOL     OW25210   0.692   0.746  15.846  0.1772  0.1131 -0.5056
 4584SOL    HW125211   0.763   0.720  15.787  0.3462 -1.2018  0.2743
 4584SOL    HW225212   0.669   0.831  15.809 -0.3078 -0.2450 -1.0291
 4585SOL     OW25213   4.430   2.810   8.392 -0.1529 -0.2197 -0.4650
 4585SOL    HW125214   4.454   2.748   8.461  1.6897  1.1063  0.1014
 4585SOL    HW225215   4.458   2.890   8.436  0.7184 -2.0270  2.2428
 4586SOL     OW25216   3.505   2.222   7.205  0.5380 -0.3920 -0.6800
 4586SOL    HW125217   3.541   2.310   7.218 -0.8535 -0.0021  0.5528
 4586SOL    HW225218   3.414   2.248   7.221  0.7666 -0.8429  1.3328
 4587SOL     OW25219   1.070   1.873   2.011  0.2215  0.4441  0.0685
 4587SOL    HW125220   1.063   1.806   2.079 -0.1962  0.3427 -0.0743
 4587SOL    HW225221   1.001   1.845   1.950 -0.1892 -0.1939  0.8358
 4588SOL     OW25222   1.568   3.193   3.180 -0.0863 -0.3226  0.1211
 4588SOL    HW125223   1.531   3.279   3.200  0.3208 -0.2793  0.6742
 4588SOL    HW225224   1.493   3.136   3.158 -1.0114  1.4574 -1.3213
 4589SOL     OW25225   0.588   4.153   1.604  0.3783  0.3174  0.1623
 4589SOL    HW125226   0.679   4.174   1.583  1.1051 -0.1596  2.8029
 4589SOL    HW225227   0.545   4.236   1.582  1.1242  0.0393 -2.3455
 4590SOL     OW25228   3.550   0.525   4.347 -0.1941  0.5632  0.1917
 4590SOL    HW125229   3.629   0.470   4.350 -0.0280  0.7464 -0.8540
 4590SOL    HW225230   3.501   0.489   4.273 -1.1286  0.1021  1.0248
 4591SOL     OW25231   3.621   2.770   8.554 -0.1949  0.5721 -0.1699
 4591SOL    HW125232   3.554   2.784   8.621  0.7432  0.3002  0.8283
 4591SOL    HW225233   3.675   2.702   8.595 -0.2969  0.3623 -0.3800
 4592SOL     OW25234   2.345   4.258   2.375 -0.0201  0.3851  0.8163
 4592SOL    HW125235   2.375   4.251   2.466 -0.5573  2.9355  1.1817
 4592SOL    HW225236   2.430   4.267   2.331 -0.2499  0.4982  0.4009
 4593SOL     OW25237   0.144   1.428   2.321 -0.1440 -0.8111  0.0523
 4593SOL    HW125238   0.192   1.381   2.252 -0.0112 -3.8559  2.2007
 4593SOL    HW225239   0.087   1.360   2.356 -0.9423 -1.0690 -1.7411
 4594SOL     OW25240   2.650   1.596   6.611 -0.3356  0.1010  0.2038
 4594SOL    HW125241   2.712   1.528   6.585 -2.1412 -0.6054 -2.1265
 4594SOL    HW225242   2.580   1.537   6.638 -2.4442  2.2229 -0.5933
 4595SOL     OW25243   4.522   2.770   3.224 -0.1484  0.1649  0.5901
 4595SOL    HW125244   4.553   2.860   3.225 -1.7067  0.6936  2.3748
 4595SOL    HW225245   4.489   2.758   3.314  0.3080 -1.2666  0.5676
 4596SOL     OW25246   3.390   2.912   8.299 -0.6322  0.0558 -0.5114
 4596SOL    HW125247   3.438   2.834   8.272  0.1681 -0.5920  2.6999
 4596SOL    HW225248   3.318   2.918   8.237 -2.6466  0.0582  1.8466
 4597SOL     OW25249   4.107   2.130   0.434  0.5329  0.1848 -0.5795
 4597SOL    HW125250   4.196   2.137   0.400  0.9917 -0.6190  0.4443
 4597SOL    HW225251   4.093   2.035   0.433  1.5733  0.0302 -1.0881
 4598SOL     OW25252   2.287   4.421   6.660 -0.2975 -0.0901 -1.2647
 4598SOL    HW125253   2.246   4.434   6.575  0.8965 -1.1031 -1.9919
 4598SOL    HW225254   2.370   4.468   6.658  0.3814 -1.0486  3.0697
 4599SOL     OW25255   2.546   4.142  16.690 -0.0327 -0.0998 -0.0054
 4599SOL    HW125256   2.628   4.191  16.682 -0.3727  0.8359  2.3347
 4599SOL    HW225257   2.488   4.206  16.650 -0.5158 -1.3815 -1.3446
 4600SOL     OW25258   1.910   4.394   2.853  0.0404 -0.0768 -0.1892
 4600SOL    HW125259   1.975   4.376   2.921 -1.5751  0.9457  1.6490
 4600SOL    HW225260   1.919   4.490   2.851 -0.4099 -0.0140  0.8765
 4601SOL     OW25261   4.065   0.357   6.009  0.4102 -0.0927 -0.3033
 4601SOL    HW125262   4.031   0.273   6.040 -1.9845  0.5316 -1.2815
 4601SOL    HW225263   4.036   0.365   5.918 -1.2208  2.1743  0.4423
 4602SOL     OW25264   3.360   1.808   4.783 -0.3405 -0.2824  0.0150
 4602SOL    HW125265   3.404   1.724   4.768  1.4032  0.9127 -1.4922
 4602SOL    HW225266   3.406   1.861   4.718  0.8957  0.5863  1.5962
 4603SOL     OW25267   0.410   3.488  16.965 -0.0068  0.8928 -0.4854
 4603SOL    HW125268   0.388   3.552  16.898 -0.5244  0.8426 -0.3632
 4603SOL    HW225269   0.364   3.518  17.044  0.4972 -0.3394  0.2750
 4604SOL     OW25270   0.221   4.215   4.968  0.3829 -0.2642 -0.4804
 4604SOL    HW125271   0.187   4.159   4.899  1.2240  0.4516 -1.4837
 4604SOL    HW225272   0.194   4.304   4.944  1.5033  0.4222  0.7617
 4605SOL     OW25273   0.278   1.842   9.881 -0.3164  0.5210 -0.0250
 4605SOL    HW125274   0.318   1.920   9.843  0.6018 -0.2342 -0.5851
 4605SOL    HW225275   0.349   1.828   9.944 -1.1482  0.4121  0.8922
 4606SOL     OW25276   0.295   3.663   0.355 -0.3508 -0.0259 -0.5083
 4606SOL    HW125277   0.292   3.744   0.305  1.9563 -0.6103 -1.6018
 4606SOL    HW225278   0.299   3.600   0.283 -0.0476  1.3631 -1.7110
 4607SOL     OW25279   0.980   2.413   5.558  0.2034 -0.3456 -0.4128
 4607SOL    HW125280   1.054   2.354   5.544  1.0889  0.4814  0.7585
 4607SOL    HW225281   0.965   2.401   5.652 -0.5961  1.7494 -0.2845
 4608SOL     OW25282   0.733   0.259   7.346  0.0090  0.9374 -0.5035
 4608SOL    HW125283   0.705   0.206   7.271  1.5127 -1.6638  0.8199
 4608SOL    HW225284   0.772   0.333   7.298 -1.9206  1.2087 -1.6711
 4609SOL     OW25285   1.013   3.751   0.781 -0.5941  0.1503 -0.0643
 4609SOL    HW125286   0.940   3.692   0.799 -1.5011  1.8553  1.8969
 4609SOL    HW225287   1.007   3.787   0.870  0.5338 -1.6631  0.7206
 4610SOL     OW25288   3.387   3.279   5.250  0.1819 -0.7854  0.0956
 4610SOL    HW125289   3.366   3.336   5.324  0.6976  0.3156 -0.6062
 4610SOL    HW225290   3.312   3.279   5.192 -1.0636  1.2981  1.6908
 4611SOL     OW25291   0.835   2.603  16.634 -0.0752 -0.1189  0.3904
 4611SOL    HW125292   0.804   2.692  16.615  1.8151  0.4784  0.1771
 4611SOL    HW225293   0.872   2.625  16.719  0.3570 -0.6266  0.3348
 4612SOL     OW25294   3.603   3.258   7.571 -0.0105 -0.3421  0.5925
 4612SOL    HW125295   3.521   3.260   7.523 -1.5278 -0.9313  3.1351
 4612SOL    HW225296   3.570   3.288   7.656  0.5859  2.2198 -0.1037
 4613SOL     OW25297   3.274   2.137  17.297 -0.3009  0.6628 -0.2001
 4613SOL    HW125298   3.339   2.078  17.258 -1.0371 -0.6232  0.5149
 4613SOL    HW225299   3.262   2.213  17.239  1.3225  2.2179  1.5215
 4614SOL     OW25300   4.551   0.414   2.098  0.4567  0.2670  0.1231
 4614SOL    HW125301   4.633   0.456   2.124  1.0895 -1.0225  0.1750
 4614SOL    HW225302   4.510   0.400   2.184 -1.1241  1.5262 -0.4082
 4615SOL     OW25303   2.112   4.039   9.468 -0.1148  0.2611 -0.2709
 4615SOL    HW125304   2.196   4.031   9.513 -1.2952 -2.5620  1.3847
 4615SOL    HW225305   2.049   4.043   9.539  0.9051 -0.6523  0.6786
 4616SOL     OW25306   4.268   4.436   4.713 -0.2659 -0.7072 -0.3431
 4616SOL    HW125307   4.176   4.409   4.715  0.0003 -1.5929 -0.2806
 4616SOL    HW225308   4.263   4.532   4.716  0.2182 -0.6535 -1.7281
 4617SOL     OW25309   3.958   1.711   8.055 -0.4536 -0.3204 -0.0721
 4617SOL    HW125310   4.053   1.723   8.052 -0.4669  0.8073  3.5819
 4617SOL    HW225311   3.914   1.794   8.035  0.7728  1.2689  3.7411
 4618SOL     OW25312   3.806   4.310   3.827  0.3311 -0.2481 -0.3318
 4618SOL    HW125313   3.749   4.343   3.758  0.8855  1.9224  0.2480
 4618SOL    HW225314   3.817   4.385   3.885 -1.5127  0.0350 -0.3567
 4619SOL     OW25315   4.347   2.768   2.996 -0.1994  0.4733  0.1704
 4619SOL    HW125316   4.406   2.740   3.067 -0.5174 -0.8481 -0.0980
 4619SOL    HW225317   4.334   2.858   3.027  0.7118 -0.3132  2.9171
 4620SOL     OW25318   2.658   0.614   3.098  0.3000  0.2322  0.6300
 4620SOL    HW125319   2.568   0.638   3.122 -0.0940 -0.7803  0.1814
 4620SOL    HW225320   2.652   0.532   3.049 -0.2462  0.0033  1.0647
 4621SOL     OW25321   3.136   0.288  16.101  0.1918 -0.2080 -0.0101
 4621SOL    HW125322   3.181   0.372  16.097  0.2198 -0.2483 -0.5220
 4621SOL    HW225323   3.175   0.238  16.030  1.1757  0.4348  0.0697
 4622SOL     OW25324   4.310   2.066  15.714  0.0825 -0.0096  0.0696
 4622SOL    HW125325   4.405   2.071  15.709  0.0863  1.1811  1.1605
 4622SOL    HW225326   4.287   2.152  15.751  2.0881  0.8730 -0.7368
 4623SOL     OW25327   4.111   2.955   2.224  0.0864 -0.0184  0.6683
 4623SOL    HW125328   4.031   2.945   2.172  0.8485  0.6505 -0.6475
 4623SOL    HW225329   4.158   3.010   2.162 -2.1228  1.4676  0.3006
 4624SOL     OW25330   1.446   3.246   1.719 -0.6351 -0.0553 -0.0808
 4624SOL    HW125331   1.524   3.193   1.702 -0.8065 -0.8356  1.5725
 4624SOL    HW225332   1.385   3.174   1.703 -2.5505  1.3310  0.9782
 4625SOL     OW25333   0.172   1.374   6.395 -0.0455 -0.1130 -0.2306
 4625SOL    HW125334   0.095   1.373   6.452 -0.2755  2.9986 -0.4894
 4625SOL    HW225335   0.192   1.467   6.386 -0.5217 -0.0466 -0.5902
 4626SOL     OW25336   3.147   0.193  11.587 -0.0516 -0.1333  0.2242
 4626SOL    HW125337   3.157   0.165  11.496 -0.2716  1.7863 -0.3917
 4626SOL    HW225338   3.219   0.255  11.594  0.1877 -0.5113  1.1912
 4627SOL     OW25339   4.379   0.518  10.278 -0.3939 -0.4176 -1.1550
 4627SOL    HW125340   4.324   0.513  10.200 -1.0368 -1.5521 -0.6206
 4627SOL    HW225341   4.323   0.567  10.338  0.6594 -1.6304  0.8184
 4628SOL     OW25342   1.639   4.295  14.679  0.1857  0.4947  0.2726
 4628SOL    HW125343   1.609   4.384  14.661  0.8450  0.3624 -1.5535
 4628SOL    HW225344   1.619   4.248  14.598 -2.4199 -2.3774  2.6431
 4629SOL     OW25345   1.829   1.398   1.139 -0.4392 -0.1043 -0.2720
 4629SOL    HW125346   1.790   1.385   1.226  1.1324 -1.7822  0.1767
 4629SOL    HW225347   1.906   1.343   1.153 -0.5671 -0.2600 -0.1814
 4630SOL     OW25348   2.775   2.988   3.188  0.1910  0.2666 -0.1162
 4630SOL    HW125349   2.826   2.946   3.257 -0.3313 -0.8626 -0.4090
 4630SOL    HW225350   2.839   2.971   3.119  1.4014 -1.3007  1.3770
 4631SOL     OW25351   2.563   2.214   2.661 -0.1177  0.6296 -0.2646
 4631SOL    HW125352   2.491   2.276   2.647 -1.4059 -0.7072  0.3793
 4631SOL    HW225353   2.545   2.183   2.750  0.9384  0.5777 -0.0693
 4632SOL     OW25354   4.691   1.505   4.478  0.2497  0.4118 -0.1598
 4632SOL    HW125355   4.611   1.453   4.486  1.0467 -0.5121  1.9391
 4632SOL    HW225356   0.021   1.465   4.546 -0.0526  0.7580  0.2836
 4633SOL     OW25357   4.330   4.520  11.477  0.1735 -0.0238  0.3582
 4633SOL    HW125358   4.266   4.586  11.504 -1.9252 -1.8149 -0.2624
 4633SOL    HW225359   4.310   4.517  11.384  0.4205 -3.0860  0.3963
 4634SOL     OW25360   4.224   3.130  14.322  0.1371  0.3163 -0.5879
 4634SOL    HW125361   4.276   3.068  14.271  0.7149  0.2464  0.0939
 4634SOL    HW225362   4.154   3.157  14.262 -0.5818  0.8470  0.4931
 4635SOL     OW25363   2.027   4.680   8.458 -0.1116 -0.5979 -0.0036
 4635SOL    HW125364   1.956   4.669   8.520  0.9791  0.1326  1.3969
 4635SOL    HW225365   2.091   4.613   8.481  0.1504 -0.4894 -0.3889
 4636SOL     OW25366   4.551   2.665   7.328  0.5516 -0.1413  0.3337
 4636SOL    HW125367   4.458   2.653   7.348  0.1126  0.3576 -1.3761
 4636SOL    HW225368   4.543   2.647   7.234 -0.9003 -0.3425  0.4930
 4637SOL     OW25369   3.240   3.846   2.404 -0.2067 -0.1231 -0.4639
 4637SOL    HW125370   3.228   3.868   2.312 -0.4071 -1.5229 -0.7743
 4637SOL    HW225371   3.305   3.776   2.394 -2.2346 -1.8073 -1.6733
 4638SOL     OW25372   3.226   1.594   7.443  0.5355  0.5350 -0.0271
 4638SOL    HW125373   3.248   1.529   7.510 -0.8708 -1.3073 -1.3506
 4638SOL    HW225374   3.270   1.669   7.484  1.6004 -0.2517  0.2575
 4639SOL     OW25375   1.894   1.207  13.538 -0.5881  0.4224  0.1951
 4639SOL    HW125376   1.849   1.251  13.466 -0.8090 -0.7749 -0.3892
 4639SOL    HW225377   1.820   1.191  13.596  1.0485 -3.8761  1.0996
 4640SOL     OW25378   2.729   0.092   9.491  0.0346 -0.2951 -0.2154
 4640SOL    HW125379   2.784   0.017   9.514  1.3219  0.8723  0.5331
 4640SOL    HW225380   2.707   0.136   9.573 -0.2636 -0.5421 -0.1636
 4641SOL     OW25381   2.632   3.230   4.000 -0.1942 -0.5006  0.6874
 4641SOL    HW125382   2.564   3.250   3.935  1.1775  0.4624 -0.4625
 4641SOL    HW225383   2.600   3.155   4.049  0.8183  0.6612  3.1454
 4642SOL     OW25384   3.943   0.139   6.195 -0.2168 -0.1701  0.1646
 4642SOL    HW125385   3.910   0.222   6.228  1.2047  1.4128 -2.4749
 4642SOL    HW225386   3.862   0.096   6.169  1.4243 -3.5426  0.5490
 4643SOL     OW25387   1.659   3.545  15.199  0.6215 -0.1263 -0.4653
 4643SOL    HW125388   1.570   3.521  15.226  0.8094 -1.9268 -1.4640
 4643SOL    HW225389   1.705   3.465  15.225  1.3291  0.4420  0.0360
 4644SOL     OW25390   3.264   4.159   3.782  0.1254 -0.1153 -0.1516
 4644SOL    HW125391   3.286   4.113   3.864  4.0429  0.8571 -0.6639
 4644SOL    HW225392   3.173   4.179   3.802  0.3225 -0.8409  1.4660
 4645SOL     OW25393   3.056   1.680   1.649  0.5140  0.1802  0.2407
 4645SOL    HW125394   3.146   1.711   1.660  0.2317  1.5717 -1.2158
 4645SOL    HW225395   3.052   1.615   1.719 -0.4307 -0.6711 -0.6099
 4646SOL     OW25396   1.113   4.300   6.525 -0.7515  0.6781 -0.1976
 4646SOL    HW125397   1.059   4.332   6.597 -0.5321  1.2808 -0.3062
 4646SOL    HW225398   1.183   4.360   6.502 -0.8241  0.9327  0.2511
 4647SOL     OW25399   0.437   0.314   9.096 -0.0110 -0.3781 -0.0945
 4647SOL    HW125400   0.449   0.383   9.161 -3.4562  0.0770  0.0492
 4647SOL    HW225401   0.345   0.317   9.071  0.0630  0.9673 -0.2165
 4648SOL     OW25402   4.293   3.278   4.344 -0.2063 -0.1922  0.4276
 4648SOL    HW125403   4.243   3.319   4.274  0.5194  1.3974  0.8340
 4648SOL    HW225404   4.375   3.260   4.298  0.8112 -1.4268  2.7316
 4649SOL     OW25405   0.477   2.208   3.685  0.0108  0.0326 -0.0647
 4649SOL    HW125406   0.563   2.168   3.702  0.3770  0.9848  0.3268
 4649SOL    HW225407   0.481   2.237   3.594  1.5755  0.5726  0.1738
 4650SOL     OW25408   2.965   2.663   5.638 -0.4403 -0.0224 -0.0029
 4650SOL    HW125409   2.887   2.664   5.581 -1.6416  0.1504  1.6316
 4650SOL    HW225410   2.934   2.592   5.695  0.4499  0.0843  0.6150
 4651SOL     OW25411   4.051   3.470   7.341  0.3132  0.1088  0.8082
 4651SOL    HW125412   3.977   3.463   7.402  0.7000 -1.1482  1.1282
 4651SOL    HW225413   4.010   3.412   7.277  1.5596 -1.1433  1.1615
 4652SOL     OW25414   2.921   0.971   5.986 -0.2236  0.0211  0.0094
 4652SOL    HW125415   2.910   1.064   5.968  0.3213 -0.2650 -1.8319
 4652SOL    HW225416   2.855   0.955   6.053 -0.9553  0.5678 -0.5687
 4653SOL     OW25417   1.504   4.529   4.660  0.1256 -0.0643  0.7660
 4653SOL    HW125418   1.539   4.538   4.572  1.7250 -2.3482  1.1670
 4653SOL    HW225419   1.521   4.437   4.682 -0.1075  0.0975  1.6267
 4654SOL     OW25420   1.591   4.683   3.898  1.0825  0.4636  0.2629
 4654SOL    HW125421   1.512   4.688   3.952  1.4918 -1.6823  1.0781
 4654SOL    HW225422   1.642   4.616   3.944  0.1188 -2.2851 -2.6450
 4655SOL     OW25423   2.214   1.658  11.949 -0.3551  0.1370  0.6680
 4655SOL    HW125424   2.122   1.639  11.966 -0.8795  1.4733 -0.5842
 4655SOL    HW225425   2.223   1.638  11.855 -1.7096  2.1299  0.1007
 4656SOL     OW25426   4.022   4.293   6.630 -0.1403 -0.0279  0.4887
 4656SOL    HW125427   4.056   4.207   6.656  0.1296  0.0336  0.3435
 4656SOL    HW225428   4.092   4.355   6.649 -1.1546  1.7521 -1.5663
 4657SOL     OW25429   3.704   0.962   6.912  0.0873  0.1947 -0.2508
 4657SOL    HW125430   3.625   0.918   6.944  0.1861 -0.3105 -0.7084
 4657SOL    HW225431   3.740   0.895   6.855 -0.5045 -0.3177 -0.0267
 4658SOL     OW25432   1.674   3.329   3.709  0.2741  0.4568  0.3450
 4658SOL    HW125433   1.695   3.313   3.617  0.2890  3.3619 -0.1526
 4658SOL    HW225434   1.690   3.245   3.753  2.4508 -0.8022 -2.8968
 4659SOL     OW25435   3.149   3.562   3.540  0.1498 -0.0202  0.1499
 4659SOL    HW125436   3.110   3.617   3.608  0.5707 -1.9625  1.9430
 4659SOL    HW225437   3.095   3.485   3.525  1.0257 -0.4447 -0.7982
 4660SOL     OW25438   4.692   2.751   6.768 -0.1635  0.1924 -0.1390
 4660SOL    HW125439   4.684   2.663   6.731  1.0141  0.0738 -0.1362
 4660SOL    HW225440   0.010   2.802   6.699  1.8488  0.1562  1.0646
 4661SOL     OW25441   0.555   3.934   4.917 -0.5748  0.4913 -0.1632
 4661SOL    HW125442   0.546   4.029   4.929  1.9285  0.6738  0.3626
 4661SOL    HW225443   0.486   3.902   4.975 -0.9901  0.4672 -0.6661
 4662SOL     OW25444   0.121   1.994  14.038  0.4464  0.0482 -0.5974
 4662SOL    HW125445   0.046   2.035  13.994  0.6628  0.0106 -0.9969
 4662SOL    HW225446   0.071   1.970  14.117 -0.0944  1.3369 -0.5494
 4663SOL     OW25447   4.336   3.661  13.051  0.0278  0.1821 -0.3074
 4663SOL    HW125448   4.375   3.679  13.137  1.8832  0.5021 -1.2011
 4663SOL    HW225449   4.262   3.720  13.043 -0.9310 -0.9192  0.4458
 4664SOL     OW25450   0.689   1.436   5.132  0.4468 -0.6923  0.2387
 4664SOL    HW125451   0.741   1.391   5.066 -0.4356 -0.2235 -0.7856
 4664SOL    HW225452   0.740   1.517   5.136 -0.2650 -0.2698  0.6999
 4665SOL     OW25453   3.055   1.394   6.401 -0.1652  0.0117 -0.3334
 4665SOL    HW125454   3.024   1.361   6.316  0.8013 -1.5237 -0.0955
 4665SOL    HW225455   3.149   1.408   6.388  0.0314 -0.7577  0.2506
 4666SOL     OW25456   3.866   3.094   1.136 -0.6604  0.0513 -0.5634
 4666SOL    HW125457   3.875   3.173   1.191  3.7624 -1.1956  0.5614
 4666SOL    HW225458   3.902   3.027   1.194  0.1270  0.5110 -0.5047
 4667SOL     OW25459   1.278   4.567   8.237  0.3372 -0.0814 -0.2978
 4667SOL    HW125460   1.301   4.547   8.146  2.3406 -1.4019  0.4870
 4667SOL    HW225461   1.361   4.558   8.284  1.2699  3.0183 -1.3195
 4668SOL     OW25462   0.517   1.778   9.551  0.0548 -0.2388  0.0745
 4668SOL    HW125463   0.495   1.687   9.571  0.3556 -0.2875  0.1813
 4668SOL    HW225464   0.571   1.797   9.628  1.9117 -0.5697 -1.1443
 4669SOL     OW25465   1.809   3.841   8.860  0.0136 -0.1095 -0.0445
 4669SOL    HW125466   1.773   3.927   8.840  1.6899  0.0151 -2.5466
 4669SOL    HW225467   1.822   3.797   8.776  0.1049  0.7499 -0.4795
 4670SOL     OW25468   0.025   1.434   1.454  0.2384  0.5623 -0.1763
 4670SOL    HW125469   4.716   1.426   1.543  2.3610 -0.0425  0.5799
 4670SOL    HW225470   0.106   1.384   1.463 -0.8914 -1.1739  0.2843
 4671SOL     OW25471   3.627   1.568   8.146  0.1422 -0.1535  0.7576
 4671SOL    HW125472   3.687   1.600   8.214  1.5572  1.2440 -1.1253
 4671SOL    HW225473   3.606   1.657   8.114  0.0395 -0.2875  0.4493
 4672SOL     OW25474   0.795   0.245   0.206 -0.4293  0.0575 -0.2663
 4672SOL    HW125475   0.751   0.205   0.282  2.0381  3.0293  2.7070
 4672SOL    HW225476   0.735   0.319   0.197  1.4259  1.7025  0.8550
 4673SOL     OW25477   0.684   0.810   3.969  0.6480 -0.2718  0.3599
 4673SOL    HW125478   0.646   0.835   4.053 -1.4484  2.7593 -1.4945
 4673SOL    HW225479   0.769   0.780   4.001  0.8363  0.8456  0.9215
 4674SOL     OW25480   1.397   2.838  16.899  0.1490 -0.4433  0.5269
 4674SOL    HW125481   1.412   2.800  16.986  3.9012 -1.2024 -0.4362
 4674SOL    HW225482   1.353   2.919  16.924 -4.2231 -3.0407  1.1779
 4675SOL     OW25483   0.413   4.175   9.340  0.4886  0.1213 -0.5391
 4675SOL    HW125484   0.408   4.141   9.430  1.3939 -1.3030 -1.0387
 4675SOL    HW225485   0.409   4.270   9.356  1.5364  0.4196 -2.0208
 4676SOL     OW25486   1.039   4.016   8.162  0.1027 -0.7517 -0.3057
 4676SOL    HW125487   1.090   3.998   8.083  0.1789 -0.2775 -0.3597
 4676SOL    HW225488   0.971   4.076   8.132  2.9312  2.2790 -0.5507
 4677SOL     OW25489   2.004   3.207  10.790  0.1677 -0.4342 -0.0950
 4677SOL    HW125490   2.089   3.222  10.750  0.2827  1.6122  0.8862
 4677SOL    HW225491   1.962   3.293  10.788  2.0271  0.4971  1.3515
 4678SOL     OW25492   3.053   3.844   7.790  0.2395 -0.7985 -0.2510
 4678SOL    HW125493   3.103   3.875   7.865 -0.4607 -0.3649  0.0323
 4678SOL    HW225494   3.093   3.757   7.796  1.9521  0.0061  0.0570
 4679SOL     OW25495   1.976   3.808  14.714 -0.4946 -0.1301 -0.5814
 4679SOL    HW125496   1.990   3.883  14.657  0.7383 -0.0718 -0.1835
 4679SOL    HW225497   1.895   3.773  14.675 -0.3305 -1.0285 -0.1020
 4680SOL     OW25498   2.032   1.834   0.939 -0.0040 -0.3435  0.3393
 4680SOL    HW125499   2.126   1.850   0.947 -0.4596  2.2913  0.6629
 4680SOL    HW225500   1.993   1.913   0.978  1.5234  0.8650 -0.5918
 4681SOL     OW25501   1.220   4.237   8.634  0.3591  0.0969 -0.5106
 4681SOL    HW125502   1.268   4.226   8.552  0.3816 -3.2039 -0.0634
 4681SOL    HW225503   1.127   4.235   8.611  0.5036  1.1231 -1.1868
 4682SOL     OW25504   0.285   1.696   3.029 -0.2373  0.2519 -0.1375
 4682SOL    HW125505   0.268   1.788   3.047  1.0453  0.1900  1.4225
 4682SOL    HW225506   0.340   1.707   2.951  1.1942 -1.9347  0.5508
 4683SOL     OW25507   3.361   0.020   2.968 -0.0080  0.5178  1.2073
 4683SOL    HW125508   3.289   4.699   3.012  0.3435 -0.0173  1.2375
 4683SOL    HW225509   3.370   4.685   2.893  1.8091  2.1589  0.1348
 4684SOL     OW25510   0.385   4.400   7.884 -0.2691  0.4155 -0.2303
 4684SOL    HW125511   0.295   4.428   7.902  0.1365  0.7680  1.2350
 4684SOL    HW225512   0.426   4.484   7.905  0.8748 -0.1864 -0.0332
 4685SOL     OW25513   3.501   2.085   8.062  0.1979 -0.1372 -0.4136
 4685SOL    HW125514   3.584   2.105   8.104  0.4075  0.2535 -1.0090
 4685SOL    HW225515   3.503   2.155   7.996 -0.8218  0.0195 -0.2823
 4686SOL     OW25516   3.954   1.000   3.540  0.2309  0.9254  0.2698
 4686SOL    HW125517   4.008   1.061   3.590  0.7014  0.9311 -0.2458
 4686SOL    HW225518   4.017   0.941   3.499 -0.2652  1.4735 -1.2662
 4687SOL     OW25519   2.015   2.585   8.182 -0.5896  0.7435  0.3301
 4687SOL    HW125520   2.031   2.608   8.274  2.5901 -2.0138  0.4509
 4687SOL    HW225521   2.100   2.591   8.138  0.1599  0.3987  1.7313
 4688SOL     OW25522   0.037   1.606   2.053 -0.1305  0.1785 -0.6491
 4688SOL    HW125523   4.687   1.560   2.016 -0.0786 -0.4959  0.0877
 4688SOL    HW225524   4.718   1.691   2.060  1.3866  0.8322  0.8277
 4689SOL     OW25525   2.750   2.792  10.710  0.0717 -0.5842  0.2530
 4689SOL    HW125526   2.800   2.810  10.630 -2.1702 -0.5890 -1.1590
 4689SOL    HW225527   2.742   2.879  10.747  0.3670 -0.3557 -0.2193
 4690SOL     OW25528   3.949   1.838  14.217 -0.4480 -0.1388 -0.2781
 4690SOL    HW125529   3.875   1.778  14.218 -1.4904  1.1480 -0.4256
 4690SOL    HW225530   3.971   1.848  14.310  0.7458 -1.6508 -0.4049
 4691SOL     OW25531   1.842   3.257   2.765  0.4302  0.8053  0.5028
 4691SOL    HW125532   1.750   3.259   2.739  0.1564  0.1019  1.4125
 4691SOL    HW225533   1.872   3.184   2.711 -1.5522 -0.1937  0.7536
 4692SOL     OW25534   0.813   4.359  14.479  0.3819  0.0457 -0.1834
 4692SOL    HW125535   0.732   4.356  14.529 -0.1071 -0.0868 -0.9941
 4692SOL    HW225536   0.797   4.444  14.436  1.8651  0.8234  0.7841
 4693SOL     OW25537   2.057   1.772   3.339  0.4278  0.7249 -0.8593
 4693SOL    HW125538   2.094   1.699   3.289 -1.7246 -0.5454 -0.5894
 4693SOL    HW225539   2.028   1.725   3.417 -0.4153  2.1940 -0.2854
 4694SOL     OW25540   2.527   0.134   3.675 -0.4059  0.5285  0.1429
 4694SOL    HW125541   2.462   0.157   3.609 -0.3147  1.8627  0.5008
 4694SOL    HW225542   2.594   0.192   3.637  0.5267  0.5995  1.9117
 4695SOL     OW25543   2.737   0.814  12.951 -0.6216  0.5657 -0.3621
 4695SOL    HW125544   2.708   0.735  12.905 -3.2389 -0.3761  2.8431
 4695SOL    HW225545   2.832   0.800  12.951 -0.3024  2.8397 -0.3746
 4696SOL     OW25546   1.865   3.389   5.417  0.3002 -0.2634  0.5573
 4696SOL    HW125547   1.902   3.474   5.392 -1.4071  0.9935  2.3512
 4696SOL    HW225548   1.772   3.403   5.433  0.5100  1.2100  0.4451
 4697SOL     OW25549   1.385   4.098   2.577  0.2501  0.0793  0.0239
 4697SOL    HW125550   1.464   4.150   2.568  0.4087 -0.1829 -0.1168
 4697SOL    HW225551   1.418   4.014   2.544 -0.4475 -0.6016  1.0512
 4698SOL     OW25552   1.681   0.356  12.502 -0.8956 -0.4703 -0.3151
 4698SOL    HW125553   1.777   0.355  12.506 -0.9317 -0.0656  0.4958
 4698SOL    HW225554   1.682   0.262  12.523 -0.6499 -1.1405 -3.2459
 4699SOL     OW25555   0.094   4.073  13.073 -0.0723  0.5098 -0.3401
 4699SOL    HW125556   0.172   4.120  13.043  0.1549  0.6403  0.4536
 4699SOL    HW225557   0.036   4.146  13.094  0.1093  0.2103  1.2161
 4700SOL     OW25558   2.390   3.434   4.287  0.4335 -0.4851 -0.0289
 4700SOL    HW125559   2.440   3.352   4.289 -1.3490 -1.5262  1.6476
 4700SOL    HW225560   2.307   3.406   4.246 -0.2011  0.4129  0.6489
 4701SOL     OW25561   0.457   2.090  10.137  0.4437 -0.0788  0.1577
 4701SOL    HW125562   0.370   2.061  10.162  1.8125 -0.6693  4.3060
 4701SOL    HW225563   0.487   2.011  10.092  2.1319  0.8667 -0.4015
 4702SOL     OW25564   0.459   1.814   7.751 -0.4504  0.5866 -0.0752
 4702SOL    HW125565   0.430   1.865   7.676 -1.2942  1.3856  0.7854
 4702SOL    HW225566   0.539   1.776   7.715 -0.2954  1.6794 -0.9078
 4703SOL     OW25567   3.153   3.606   1.757 -0.0355  0.3544 -0.0023
 4703SOL    HW125568   3.118   3.695   1.750 -0.4955  0.2108  0.4318
 4703SOL    HW225569   3.233   3.626   1.710  0.2763  0.1662  0.4464
 4704SOL     OW25570   2.031   3.548   4.752 -0.0026  0.1549  0.5687
 4704SOL    HW125571   2.056   3.618   4.813  0.5118 -0.6886  1.3227
 4704SOL    HW225572   2.023   3.487   4.825 -0.6555  1.5621  1.6700
 4705SOL     OW25573   1.997   1.534  17.485  0.2965 -0.5665 -0.4789
 4705SOL    HW125574   1.903   1.541  17.497 -0.0329 -1.8022 -2.3711
 4705SOL    HW225575   2.028   1.480  17.558  0.1560 -0.5696 -0.4213
 4706SOL     OW25576   1.837   4.234  16.602 -0.3424  0.2374  1.0166
 4706SOL    HW125577   1.820   4.283  16.522  1.9727  1.5573  1.3282
 4706SOL    HW225578   1.859   4.307  16.660 -0.5252  1.4129 -0.3908
 4707SOL     OW25579   4.297   1.390   0.493  0.4075 -0.2867 -0.6935
 4707SOL    HW125580   4.301   1.455   0.423  1.4928  1.9016  1.3787
 4707SOL    HW225581   4.317   1.444   0.570 -2.1372 -0.5584  0.1498
 4708SOL     OW25582   3.484   2.826   0.122 -0.6198 -0.1747 -0.2792
 4708SOL    HW125583   3.469   2.746   0.073  2.8565 -1.3025  0.5518
 4708SOL    HW225584   3.508   2.800   0.211 -0.9469  0.2068 -0.0781
 4709SOL     OW25585   2.575   3.880   2.617  0.0321  0.4058  0.0419
 4709SOL    HW125586   2.536   3.934   2.686  0.3209  2.8074 -1.6880
 4709SOL    HW225587   2.535   3.918   2.539 -0.7526 -1.3513 -0.4350
 4710SOL     OW25588   1.237   0.658  12.210  0.2531 -0.4635  0.5304
 4710SOL    HW125589   1.294   0.651  12.133  0.0316 -1.7774  0.4779
 4710SOL    HW225590   1.164   0.609  12.172 -1.0238 -0.8878  3.5078
 4711SOL     OW25591   4.038   0.442   4.486 -0.8067  0.1852 -0.3048
 4711SOL    HW125592   3.974   0.418   4.419 -2.6460  0.2681  1.4163
 4711SOL    HW225593   4.090   0.362   4.480 -1.2683 -0.1641  0.3572
 4712SOL     OW25594   3.156   1.394   6.653 -0.1257  0.5192 -0.0462
 4712SOL    HW125595   3.111   1.321   6.696 -0.5042  2.6905  3.2799
 4712SOL    HW225596   3.120   1.378   6.566 -1.6995  2.2764  0.2723
 4713SOL     OW25597   2.327   3.234   1.857  0.1666 -0.1184 -0.2029
 4713SOL    HW125598   2.403   3.286   1.831 -1.1854  0.9206 -2.1005
 4713SOL    HW225599   2.311   3.172   1.786  1.0092  1.8256 -2.1173
 4714SOL     OW25600   1.578   1.825   4.113  0.8415 -0.0295  0.3904
 4714SOL    HW125601   1.607   1.772   4.038  0.4694  0.3257 -0.0036
 4714SOL    HW225602   1.564   1.910   4.071 -0.8531  0.3529  1.7179
 4715SOL     OW25603   4.484   3.109   6.731  0.0214 -0.1200  0.0917
 4715SOL    HW125604   4.505   3.114   6.825 -1.7625 -0.3464  0.4988
 4715SOL    HW225605   4.427   3.185   6.718  1.4349  1.2108  1.5330
 4716SOL     OW25606   3.984   2.853   3.488  0.7194  0.0086 -0.0861
 4716SOL    HW125607   3.960   2.911   3.561  0.2984 -2.5693  1.7978
 4716SOL    HW225608   4.045   2.918   3.452  0.7591 -0.1619 -0.3272
 4717SOL     OW25609   0.476   1.120   9.785  0.3366 -0.0885 -0.2444
 4717SOL    HW125610   0.411   1.092   9.721  1.8341  0.4564 -2.0249
 4717SOL    HW225611   0.543   1.053   9.771  0.7142  0.2153  0.1221
 4718SOL     OW25612   1.671   1.871  12.154 -0.0970 -0.2866 -0.0442
 4718SOL    HW125613   1.638   1.954  12.119 -1.2257 -1.4601 -1.7685
 4718SOL    HW225614   1.645   1.872  12.246  0.1691 -0.0345  0.0301
 4719SOL     OW25615   0.881   4.456  10.415 -0.4189  0.5697  0.2803
 4719SOL    HW125616   0.798   4.408  10.416  0.9010 -1.6437  1.6574
 4719SOL    HW225617   0.940   4.415  10.478  0.3713  0.2022 -0.7119
 4720SOL     OW25618   1.343   2.297   6.291  0.0404 -0.0778 -0.3452
 4720SOL    HW125619   1.418   2.273   6.237  2.7875  1.6834  2.6922
 4720SOL    HW225620   1.365   2.290   6.384  0.0785 -1.7434 -0.4778
 4721SOL     OW25621   2.558   3.882  15.592  0.1293  0.3941 -0.0508
 4721SOL    HW125622   2.621   3.884  15.520  0.1158 -2.0579 -0.1208
 4721SOL    HW225623   2.569   3.790  15.613 -2.3789  0.1889  0.3197
 4722SOL     OW25624   0.816   4.410   2.099 -0.2521 -0.2752  0.6887
 4722SOL    HW125625   0.779   4.378   2.181  3.0398 -1.9102  1.5471
 4722SOL    HW225626   0.780   4.348   2.036  0.0293  1.6881 -1.4219
 4723SOL     OW25627   4.617   1.534  14.360  0.6094  0.2099 -0.3823
 4723SOL    HW125628   4.681   1.605  14.359  2.3488 -1.3487 -0.0015
 4723SOL    HW225629   4.639   1.485  14.439  3.2962  0.3340 -1.0730
 4724SOL     OW25630   0.036   2.034  12.409  0.3715 -0.0545  0.0400
 4724SOL    HW125631   4.681   2.011  12.360 -1.6520  2.0722  2.3172
 4724SOL    HW225632   0.074   1.947  12.421 -0.0470 -0.1310  0.8088
 4725SOL     OW25633   4.491   1.312   4.538 -0.0921 -0.0024 -0.0896
 4725SOL    HW125634   4.508   1.218   4.543 -2.7347 -0.5041 -0.3114
 4725SOL    HW225635   4.415   1.319   4.596  1.5528  2.6773  1.6787
 4726SOL     OW25636   3.779   3.841   6.670 -0.3674  0.2844 -0.3937
 4726SOL    HW125637   3.707   3.850   6.732 -1.4677 -0.3513 -1.5889
 4726SOL    HW225638   3.782   3.933   6.645 -1.7855  0.7150  1.0088
 4727SOL     OW25639   0.054   4.443   7.176  0.4551 -0.0776  0.1961
 4727SOL    HW125640   0.068   4.418   7.085 -1.6600 -1.8308  0.3450
 4727SOL    HW225641   4.686   4.468   7.179  0.2789 -0.4942 -1.7068
 4728SOL     OW25642   3.172   4.265   6.858  0.2412 -0.3576  0.2876
 4728SOL    HW125643   3.096   4.269   6.915 -0.4347 -2.5988 -0.4922
 4728SOL    HW225644   3.177   4.357   6.831  0.5122 -0.8767 -1.4370
 4729SOL     OW25645   2.875   4.473   2.627  0.0677  0.5158  0.3570
 4729SOL    HW125646   2.822   4.402   2.592 -0.5359  0.3614  1.5967
 4729SOL    HW225647   2.853   4.542   2.565  1.1801 -0.4227 -1.0643
 4730SOL     OW25648   2.544   0.073  12.111  0.2240 -0.4030  0.0022
 4730SOL    HW125649   2.584   0.118  12.036 -1.4907  0.8870 -0.1483
 4730SOL    HW225650   2.577   4.709  12.096 -2.1984 -1.6623  2.2220
 4731SOL     OW25651   0.919   2.438   2.531  0.1559 -0.2706 -0.0611
 4731SOL    HW125652   0.884   2.349   2.538 -0.2648 -0.0787  0.2909
 4731SOL    HW225653   0.835   2.482   2.521 -0.0956 -0.6054  0.5264
 4732SOL     OW25654   3.846   2.865   2.567  0.5641  0.1054 -0.5873
 4732SOL    HW125655   3.829   2.884   2.659 -1.0155 -0.0323 -0.8457
 4732SOL    HW225656   3.941   2.855   2.565  0.4867 -0.7963 -0.1009
 4733SOL     OW25657   4.644   1.145  16.139 -0.0924  0.0826 -0.2143
 4733SOL    HW125658   4.617   1.180  16.054 -1.5468 -1.1908 -0.2866
 4733SOL    HW225659   4.559   1.142  16.181 -0.4496 -1.0158 -1.0010
 4734SOL     OW25660   2.425   0.757   7.926  0.0015  0.0932  0.2762
 4734SOL    HW125661   2.397   0.785   7.839 -2.0441  0.4215  1.0499
 4734SOL    HW225662   2.393   0.667   7.930 -1.0695  0.5319  1.2463
 4735SOL     OW25663   2.311   2.806   7.442 -0.0251 -0.0867 -0.0376
 4735SOL    HW125664   2.222   2.825   7.472 -0.0201 -1.4842  0.8848
 4735SOL    HW225665   2.311   2.710   7.432 -0.1076 -0.0455 -0.4455
 4736SOL     OW25666   3.128   1.237   5.008  0.5255  0.0080 -0.3619
 4736SOL    HW125667   3.182   1.237   4.929  1.6285  1.5635  0.3870
 4736SOL    HW225668   3.090   1.325   5.000  0.8088  0.4316  2.7705
 4737SOL     OW25669   4.310   3.724   1.888  0.4075  0.8502 -0.0011
 4737SOL    HW125670   4.280   3.636   1.865 -0.0665  0.2662  2.8198
 4737SOL    HW225671   4.397   3.718   1.850  0.1497 -0.3229 -0.4337
 4738SOL     OW25672   3.445   2.413   9.187 -0.1610 -0.2754 -0.4301
 4738SOL    HW125673   3.423   2.375   9.272 -0.9008 -1.0454 -0.9578
 4738SOL    HW225674   3.389   2.491   9.191  1.6227  1.0494 -1.4332
 4739SOL     OW25675   2.981   3.630   9.314  0.4896 -0.1192 -0.2944
 4739SOL    HW125676   3.011   3.709   9.268 -1.0000  1.7211  1.8845
 4739SOL    HW225677   3.054   3.609   9.372 -2.0050 -1.4723  2.3232
 4740SOL     OW25678   3.975   3.001   2.880 -0.1373  0.0651 -0.8293
 4740SOL    HW125679   3.887   3.023   2.912  0.4992 -2.8489  2.8849
 4740SOL    HW225680   3.989   2.914   2.917  1.0417  1.0150  0.9264
 4741SOL     OW25681   1.465   1.787   7.327 -0.1726  0.3026 -0.2078
 4741SOL    HW125682   1.472   1.693   7.311  0.8660  0.3611 -0.1262
 4741SOL    HW225683   1.483   1.791   7.421  1.1924  0.1986 -0.4553
 4742SOL     OW25684   4.394   2.412   7.957  0.2175 -0.4385 -0.1662
 4742SOL    HW125685   4.357   2.352   8.023  0.6574  0.2527  0.7120
 4742SOL    HW225686   4.327   2.434   7.892 -0.0676 -0.3269  0.1661
 4743SOL     OW25687   2.199   0.971   4.738  0.0725  0.6623  0.1697
 4743SOL    HW125688   2.154   0.895   4.774 -0.3231  0.2067 -1.2853
 4743SOL    HW225689   2.189   1.023   4.818 -1.2332  0.9186 -0.1520
 4744SOL     OW25690   4.555   0.233  11.886 -0.2489 -0.6256 -0.7502
 4744SOL    HW125691   4.489   0.242  11.955 -0.2387 -1.8670 -0.5711
 4744SOL    HW225692   4.500   0.246  11.809 -0.0428  0.1922 -0.7548
 4745SOL     OW25693   2.490   0.115  14.903 -1.0072 -0.8231  0.3326
 4745SOL    HW125694   2.505   0.040  14.845 -0.2863 -2.0490  2.1036
 4745SOL    HW225695   2.403   0.087  14.932 -2.2391  0.6801 -1.8773
 4746SOL     OW25696   2.100   3.921   9.802  0.2926 -0.2664 -0.1753
 4746SOL    HW125697   2.191   3.916   9.775  0.5658  1.3956  0.4283
 4746SOL    HW225698   2.066   3.998   9.756 -1.8144 -1.6755 -0.9798
 4747SOL     OW25699   1.282   4.099   6.600 -0.4790  0.1107  0.0365
 4747SOL    HW125700   1.217   4.165   6.578 -0.3825  0.3135  0.3542
 4747SOL    HW225701   1.356   4.130   6.547 -0.1862  0.3879  0.6049
 4748SOL     OW25702   2.184   2.640   7.005 -0.0032 -0.0205 -0.3663
 4748SOL    HW125703   2.201   2.722   7.050  2.7678 -0.7454 -0.1173
 4748SOL    HW225704   2.262   2.612   6.957 -0.5461  0.9533 -1.8104
 4749SOL     OW25705   1.515   3.611   5.927 -0.1558 -0.2135 -0.0246
 4749SOL    HW125706   1.470   3.603   6.011  3.2842 -2.2611  1.6619
 4749SOL    HW225707   1.440   3.651   5.884 -2.4091 -1.3339  2.8632
 4750SOL     OW25708   2.960   1.031   7.180  0.1589  0.6251 -0.2999
 4750SOL    HW125709   3.040   1.019   7.129 -0.4132 -1.5060 -0.7398
 4750SOL    HW225710   2.986   1.090   7.250  3.1930 -2.4893  1.2463
 4751SOL     OW25711   2.609   2.558  12.185  0.2713 -0.3765  0.3318
 4751SOL    HW125712   2.517   2.561  12.210  0.0389 -2.0893 -0.2779
 4751SOL    HW225713   2.609   2.489  12.119  0.6465 -0.5484  0.5117
 4752SOL     OW25714   4.308   4.036   6.834  0.0552  0.5315  0.4086
 4752SOL    HW125715   4.255   4.001   6.905 -1.1271 -0.5579 -1.0080
 4752SOL    HW225716   4.391   3.994   6.858  0.7208  0.7730 -1.5026
 4753SOL     OW25717   0.340   4.023   5.697 -0.1599  0.0767  0.4917
 4753SOL    HW125718   0.259   4.041   5.744  0.7717  0.2014  2.0537
 4753SOL    HW225719   0.310   3.951   5.642 -0.7426  0.7361 -0.0594
 4754SOL     OW25720   0.462   2.489  13.488  0.1000  0.1558  0.6622
 4754SOL    HW125721   0.374   2.478  13.451 -0.0712  1.3922  0.7005
 4754SOL    HW225722   0.451   2.433  13.565 -1.6450 -0.3964  0.0190
 4755SOL     OW25723   4.131   4.545   9.669  0.4980  0.4885  0.2049
 4755SOL    HW125724   4.038   4.567   9.659  0.5713  0.0554 -1.4078
 4755SOL    HW225725   4.143   4.514   9.580  0.6253  1.8069 -0.2417
 4756SOL     OW25726   3.899   2.262   4.986  0.0477  0.0521 -0.7498
 4756SOL    HW125727   3.898   2.355   4.967  1.0658  0.1237 -0.4607
 4756SOL    HW225728   3.820   2.233   4.941 -1.4152 -1.5871  2.8383
 4757SOL     OW25729   0.808   4.228   5.903  0.3242  0.0676  0.1838
 4757SOL    HW125730   0.740   4.165   5.877 -0.2469  0.6917  0.1847
 4757SOL    HW225731   0.793   4.224   5.997  2.8496 -0.3594  0.5683
 4758SOL     OW25732   0.891   0.085  13.127 -0.3784 -0.9827 -0.4523
 4758SOL    HW125733   0.836   0.104  13.203  0.1084 -0.6089 -0.1931
 4758SOL    HW225734   0.875   4.716  13.119  1.3113 -1.5554  2.6437
 4759SOL     OW25735   0.191   0.714  13.926 -0.1933 -0.1783 -0.4227
 4759SOL    HW125736   0.114   0.658  13.915  1.1886 -2.1262 -0.3103
 4759SOL    HW225737   0.193   0.732  14.020  0.5501 -0.6934 -0.3382
 4760SOL     OW25738   1.046   4.642   2.641 -0.0602  0.1075 -0.6966
 4760SOL    HW125739   0.991   4.692   2.701  1.3764  1.1463 -0.2291
 4760SOL    HW225740   0.993   4.645   2.561 -2.3227 -0.3532  0.7859
 4761SOL     OW25741   2.992   1.789   5.867  0.2569  0.6660 -0.0841
 4761SOL    HW125742   2.936   1.795   5.944 -1.3635  0.0628 -1.2035
 4761SOL    HW225743   3.050   1.863   5.884  0.5400  0.8187 -1.6710
 4762SOL     OW25744   2.153   2.625   7.956 -0.9151 -0.0209 -0.3388
 4762SOL    HW125745   2.236   2.580   7.970 -1.9234 -2.3325 -1.8701
 4762SOL    HW225746   2.183   2.710   7.924  0.8239 -0.2638  0.6800
 4763SOL     OW25747   1.500   1.941  14.141 -0.1397 -0.6034 -0.0970
 4763SOL    HW125748   1.476   1.913  14.229  1.5827  1.2205  0.9444
 4763SOL    HW225749   1.492   2.036  14.153 -0.9390 -0.8130  1.0760
 4764SOL     OW25750   4.005   2.587  13.994 -0.1080 -0.4968 -0.0766
 4764SOL    HW125751   3.948   2.515  13.967 -1.2817 -0.0548  1.2477
 4764SOL    HW225752   4.020   2.631  13.911 -2.0817  0.2783  0.0035
 4765SOL     OW25753   2.327   0.737   3.488  0.1399  0.3121 -0.6656
 4765SOL    HW125754   2.384   0.813   3.485  0.5237 -0.0878 -3.2504
 4765SOL    HW225755   2.276   0.744   3.407  1.2959 -1.9692 -1.5958
 4766SOL     OW25756   1.739   3.648  14.625  0.0134  0.0745  0.0232
 4766SOL    HW125757   1.676   3.577  14.636  0.1913 -0.2464 -1.0345
 4766SOL    HW225758   1.681   3.719  14.653  1.0655  0.8822  0.1357
 4767SOL     OW25759   4.425   4.568  10.258  0.0244 -0.2635  0.7930
 4767SOL    HW125760   4.370   4.610  10.192 -0.4255 -0.1857  1.2254
 4767SOL    HW225761   4.415   4.620  10.337 -1.1118 -1.3035  1.3222
 4768SOL     OW25762   0.099   0.999   8.167 -0.2388  0.0510  0.7078
 4768SOL    HW125763   0.123   0.965   8.080  2.9799  2.0381  0.8307
 4768SOL    HW225764   0.140   0.935   8.224  1.6779  1.3980  0.8290
 4769SOL     OW25765   0.868   2.964   7.684 -0.3435 -1.0034 -0.0409
 4769SOL    HW125766   0.947   3.017   7.692 -1.7678  1.1632 -0.5722
 4769SOL    HW225767   0.803   2.998   7.745 -0.9338 -0.5323 -0.9306
 4770SOL     OW25768   3.924   4.453   2.267  0.1640  0.2804  0.5751
 4770SOL    HW125769   3.893   4.461   2.357 -1.7511  0.3792 -0.1039
 4770SOL    HW225770   3.845   4.465   2.215 -0.0290  0.3338  0.8811
 4771SOL     OW25771   2.606   0.799   5.433  0.4400 -0.0186 -0.0357
 4771SOL    HW125772   2.679   0.749   5.470 -0.1948 -0.0224  1.2343
 4771SOL    HW225773   2.613   0.889   5.464  0.4407  0.6767 -2.0718
 4772SOL     OW25774   1.324   0.353  13.047  0.5909 -0.1390  0.5382
 4772SOL    HW125775   1.308   0.412  12.973 -0.2545 -0.6852  0.2878
 4772SOL    HW225776   1.352   0.418  13.112 -0.3834  2.4754 -1.6317
 4773SOL     OW25777   2.848   0.113   1.158 -0.3638  0.4214 -0.6068
 4773SOL    HW125778   2.906   0.038   1.147 -0.3710  0.1637  1.1352
 4773SOL    HW225779   2.778   0.074   1.210  0.9228  0.8704  1.4543
 4774SOL     OW25780   2.332   2.227  16.708 -0.4066 -0.4300 -0.4936
 4774SOL    HW125781   2.320   2.188  16.621 -0.1852 -2.3179  0.3470
 4774SOL    HW225782   2.250   2.218  16.757  0.1296  1.9414  0.8574
 4775SOL     OW25783   4.616   2.335  10.511  0.1258 -0.7842  0.3725
 4775SOL    HW125784   4.524   2.312  10.529  0.2540  1.0803  3.3373
 4775SOL    HW225785   4.658   2.266  10.563  0.7636 -0.8260 -0.1909
 4776SOL     OW25786   2.377   1.070   6.244 -0.0742  0.5914 -0.3157
 4776SOL    HW125787   2.342   0.981   6.248  2.0578 -0.2437 -0.2870
 4776SOL    HW225788   2.452   1.062   6.302  0.7033 -3.4548 -1.8829
 4777SOL     OW25789   3.048   1.179   7.373  0.3113  0.4231  0.2403
 4777SOL    HW125790   3.108   1.146   7.440 -0.3695  1.5142  1.3915
 4777SOL    HW225791   3.070   1.272   7.368  1.3126  0.0096 -2.8984
 4778SOL     OW25792   2.766   0.330   8.846 -0.2018  0.0440  0.2737
 4778SOL    HW125793   2.824   0.259   8.873  1.0445  0.7417 -0.6218
 4778SOL    HW225794   2.684   0.303   8.887  0.2493 -1.8883 -0.1182
 4779SOL     OW25795   0.730   2.455   6.159 -0.1108  0.0388  0.2362
 4779SOL    HW125796   0.760   2.538   6.122 -2.6919  0.2566 -1.3695
 4779SOL    HW225797   0.636   2.462   6.143  0.1716 -2.4189 -2.5761
 4780SOL     OW25798   3.796   0.674   9.168 -0.0456 -0.0792 -0.8387
 4780SOL    HW125799   3.767   0.651   9.256 -0.5478 -1.1598 -1.2798
 4780SOL    HW225800   3.768   0.763   9.145 -0.5575  0.0660  0.3303
 4781SOL     OW25801   1.886   3.953  16.581  0.2734  0.9696 -0.0601
 4781SOL    HW125802   1.882   4.047  16.598  0.9383  1.2757 -1.6227
 4781SOL    HW225803   1.837   3.953  16.498 -1.4478 -2.5045  0.9653
 4782SOL     OW25804   0.653   3.058   5.100 -0.0710 -0.2901  0.0013
 4782SOL    HW125805   0.732   3.111   5.109 -0.6382  0.4353  0.6347
 4782SOL    HW225806   0.677   2.996   5.169 -0.5419 -0.3502  0.1070
 4783SOL     OW25807   2.254   0.027   1.196 -0.0734  0.0010 -0.4785
 4783SOL    HW125808   2.188   4.687   1.168  0.3838 -0.0017 -1.5536
 4783SOL    HW225809   2.208   0.081   1.260  2.1404 -2.0886  2.8596
 4784SOL     OW25810   2.594   2.795   2.781  0.2699 -0.1186 -0.5001
 4784SOL    HW125811   2.528   2.855   2.745 -0.7863 -1.4529 -0.7884
 4784SOL    HW225812   2.665   2.852   2.810 -0.2029  0.9249 -1.4044
 4785SOL     OW25813   4.149   3.141  16.142  0.5249  0.1490 -0.5327
 4785SOL    HW125814   4.121   3.180  16.225  0.7468 -1.1719  0.1530
 4785SOL    HW225815   4.114   3.211  16.086 -1.2116 -0.2272  0.0908
 4786SOL     OW25816   0.881   2.425  13.980 -0.0225  0.2787 -0.2542
 4786SOL    HW125817   0.837   2.456  14.059  1.6020 -1.0885  1.1882
 4786SOL    HW225818   0.946   2.495  13.986  0.6849 -0.4341  0.4203
 4787SOL     OW25819   1.408   2.771   7.324  0.4686  0.4602 -0.0311
 4787SOL    HW125820   1.357   2.815   7.256  0.8264 -0.8079 -1.1059
 4787SOL    HW225821   1.477   2.836   7.337  1.1571 -0.0676 -1.1014
 4788SOL     OW25822   1.807   2.165  12.885  0.0189 -0.1045  0.0743
 4788SOL    HW125823   1.838   2.094  12.830  2.4839  0.4542  0.7616
 4788SOL    HW225824   1.810   2.237  12.822  0.8600 -1.7902 -1.8006
 4789SOL     OW25825   2.112   0.799   3.075  0.5186 -0.3692  0.0693
 4789SOL    HW125826   2.126   0.707   3.096  2.5960  0.0858  0.6612
 4789SOL    HW225827   2.147   0.811   2.987  1.0212  1.6332  0.5365
 4790SOL     OW25828   3.777   4.314   7.666  0.3745  0.0813  0.5048
 4790SOL    HW125829   3.866   4.296   7.635  0.5045  2.2395 -0.3862
 4790SOL    HW225830   3.748   4.371   7.594  2.1228 -2.1439 -1.9743
 4791SOL     OW25831   2.560   4.620   8.957  0.2801 -0.5650 -0.3575
 4791SOL    HW125832   2.550   4.541   9.010  0.9031  0.0521  0.6709
 4791SOL    HW225833   2.602   4.673   9.024 -1.3070  2.1736 -1.5336
 4792SOL     OW25834   3.849   0.602   1.372  0.2517  0.3417 -0.2559
 4792SOL    HW125835   3.800   0.683   1.386  1.3449  1.0818 -0.7680
 4792SOL    HW225836   3.783   0.533   1.383  0.9636 -0.2891  0.0657
 4793SOL     OW25837   1.659   4.656   8.215  0.2473  0.0739 -0.1590
 4793SOL    HW125838   1.587   4.617   8.265 -0.6245 -0.7695 -2.0502
 4793SOL    HW225839   1.652   4.607   8.133 -1.9664  0.8294 -0.4413
 4794SOL     OW25840   2.183   3.433  12.934  0.3313 -0.1100 -0.2660
 4794SOL    HW125841   2.257   3.424  12.994 -0.7347 -0.7742  0.9548
 4794SOL    HW225842   2.218   3.515  12.897 -0.4707  0.4231  0.1437
 4795SOL     OW25843   2.764   4.065   7.747 -0.2498  0.1434 -0.3556
 4795SOL    HW125844   2.766   4.018   7.831 -1.7385  0.2167 -0.2717
 4795SOL    HW225845   2.786   4.150   7.784  1.4517  0.0729 -1.1877
 4796SOL     OW25846   1.416   3.444  15.227  0.3045  0.3435 -0.1577
 4796SOL    HW125847   1.382   3.428  15.315  2.5675 -0.6625  0.5399
 4796SOL    HW225848   1.394   3.362  15.184  0.0051  0.2405  0.1908
 4797SOL     OW25849   3.728   4.665  16.389  0.1072  0.2857  0.0211
 4797SOL    HW125850   3.789   4.637  16.458  1.6719  0.3293 -1.3430
 4797SOL    HW225851   3.717   4.588  16.333  0.5846  0.9885 -1.0476
 4798SOL     OW25852   3.258   4.223  17.575  0.0617 -0.4093 -0.8440
 4798SOL    HW125853   3.242   4.219  17.669  0.5956 -0.7540 -0.7642
 4798SOL    HW225854   3.184   4.168  17.552 -0.4976  0.1506 -0.3959
 4799SOL     OW25855   3.066   3.579   5.783  0.8135  0.1273 -0.2141
 4799SOL    HW125856   3.032   3.635   5.853 -2.2204 -0.5995 -1.0986
 4799SOL    HW225857   3.016   3.618   5.712 -0.4244 -0.4701  0.3291
 4800SOL     OW25858   3.682   0.157   2.716  0.4607  0.4882  0.2037
 4800SOL    HW125859   3.723   0.199   2.791 -2.8981  3.3707  0.4583
 4800SOL    HW225860   3.756   0.111   2.677  1.2845  1.5786  0.4720
 4801SOL     OW25861   0.553   4.319   8.757 -0.1403 -0.1790 -0.4517
 4801SOL    HW125862   0.470   4.270   8.762  2.0221 -3.6815  1.2640
 4801SOL    HW225863   0.557   4.357   8.845 -4.9214 -1.0189  0.1621
 4802SOL     OW25864   4.196   2.123   2.157 -0.1093  0.3534  0.6150
 4802SOL    HW125865   4.189   2.183   2.231 -1.6979  0.2174  0.5743
 4802SOL    HW225866   4.164   2.184   2.090 -2.7385  0.7161  2.2022
 4803SOL     OW25867   2.311   2.870   5.800  0.2919  0.1136 -0.3480
 4803SOL    HW125868   2.273   2.954   5.773 -1.0241 -0.2182  0.5066
 4803SOL    HW225869   2.369   2.905   5.867 -1.1631  0.3137  0.8074
 4804SOL     OW25870   3.185   4.526   0.580  0.0641  0.1041  0.4480
 4804SOL    HW125871   3.247   4.459   0.608 -0.0283  0.5889  1.8076
 4804SOL    HW225872   3.111   4.493   0.631 -0.3494  0.2320 -0.0635
 4805SOL     OW25873   4.620   0.897   6.254  0.1062 -0.6693  0.4277
 4805SOL    HW125874   4.616   0.814   6.302 -1.5393  0.5583  2.4139
 4805SOL    HW225875   4.680   0.867   6.185  0.7332  0.1629  0.6082
 4806SOL     OW25876   1.046   2.200  16.465  0.4941  0.3149 -0.2599
 4806SOL    HW125877   1.137   2.185  16.439  0.4654  1.3499 -0.9777
 4806SOL    HW225878   1.013   2.112  16.446 -0.6027  0.6207  0.2410
 4807SOL     OW25879   3.700   1.709   3.399 -0.2811 -0.0311 -0.4273
 4807SOL    HW125880   3.635   1.669   3.456  0.6417 -2.1060 -0.8246
 4807SOL    HW225881   3.654   1.744   3.322 -3.5121 -0.6736  1.2262
 4808SOL     OW25882   3.821   2.527   9.408  0.0717 -0.0717  0.3148
 4808SOL    HW125883   3.873   2.606   9.392  1.1988 -0.6970  0.9463
 4808SOL    HW225884   3.845   2.476   9.330  3.0288 -0.8793  1.7881
 4809SOL     OW25885   0.206   1.998   7.826  0.0602  0.2919  0.1184
 4809SOL    HW125886   0.227   2.090   7.843 -1.0052  0.5067  0.2938
 4809SOL    HW225887   0.200   1.965   7.916  0.7059 -3.2405 -1.1280
 4810SOL     OW25888   0.480   3.137   4.880 -0.0276 -0.4706  0.3053
 4810SOL    HW125889   0.500   3.227   4.856 -0.4106  0.0479  1.8980
 4810SOL    HW225890   0.549   3.130   4.946  0.7710 -1.0674 -0.5926
 4811SOL     OW25891   0.775   2.884   0.263  0.3806  0.2280  0.5297
 4811SOL    HW125892   0.830   2.808   0.244  0.3661  0.4984 -0.5734
 4811SOL    HW225893   0.766   2.927   0.178 -1.1966 -0.8185  0.1671
 4812SOL     OW25894   2.432   1.915   6.018  0.6936 -0.5087  0.0875
 4812SOL    HW125895   2.490   1.840   6.028  0.0584 -1.4150 -3.1588
 4812SOL    HW225896   2.405   1.936   6.108  2.2324 -0.9931  0.6597
 4813SOL     OW25897   4.579   3.094   8.669 -0.4325 -0.0947  0.3850
 4813SOL    HW125898   4.566   3.006   8.704 -3.5983 -0.2540 -1.1839
 4813SOL    HW225899   4.549   3.150   8.740  0.8428  0.8045  0.2294
 4814SOL     OW25900   1.529   4.355  17.696 -0.0089  1.0110  0.0363
 4814SOL    HW125901   1.563   4.441  17.670  2.7927  0.2456  1.1099
 4814SOL    HW225902   1.553   4.299  17.622  3.5827 -2.0586  3.5021
 4815SOL     OW25903   0.481   3.044   2.507 -0.6293  0.1410  0.0689
 4815SOL    HW125904   0.387   3.024   2.507 -0.2538 -1.5663 -2.6936
 4815SOL    HW225905   0.497   3.124   2.456 -1.8362 -0.1069 -0.6962
 4816SOL     OW25906   2.421   3.034   4.024  0.5949 -0.4395  0.7253
 4816SOL    HW125907   2.395   3.016   3.933  0.2810  1.4274  0.4468
 4816SOL    HW225908   2.353   3.002   4.082 -2.5558  4.1513 -0.4477
 4817SOL     OW25909   0.242   0.973   0.454 -0.8349  0.0256  0.1385
 4817SOL    HW125910   0.146   0.973   0.457 -0.8882 -3.0044 -1.9192
 4817SOL    HW225911   0.280   1.052   0.416  1.2151 -1.1793 -0.3231
 4818SOL     OW25912   4.114   2.288   9.001 -0.1912 -0.5159 -0.1376
 4818SOL    HW125913   4.032   2.316   9.040  0.8933 -0.1372  1.8291
 4818SOL    HW225914   4.141   2.212   9.052  0.8685  0.1383  0.2729
 4819SOL     OW25915   1.576   0.929   9.585 -0.1157 -0.1403 -0.0969
 4819SOL    HW125916   1.486   0.937   9.617 -1.1495 -0.8863 -2.7730
 4819SOL    HW225917   1.618   0.872   9.650 -0.7531  1.8452  2.0296
 4820SOL     OW25918   1.445   2.834   2.203 -0.9696 -0.6603  0.2932
 4820SOL    HW125919   1.439   2.845   2.108  0.7227  2.3865  0.5171
 4820SOL    HW225920   1.468   2.742   2.216 -1.6887 -1.1037 -1.6018
 4821SOL     OW25921   1.013   1.755   2.646 -0.2373 -0.1312 -0.0934
 4821SOL    HW125922   1.043   1.820   2.582  2.5689 -0.7050  0.6272
 4821SOL    HW225923   1.097   1.743   2.691 -0.6527 -0.6324  0.5386
 4822SOL     OW25924   0.401   0.068   8.260 -0.6070 -0.2720  0.3943
 4822SOL    HW125925   0.320   0.023   8.283 -1.1286  1.0372  1.0886
 4822SOL    HW225926   0.410   0.117   8.341 -0.3151  0.2589  0.0429
 4823SOL     OW25927   1.140   3.813  11.020  0.3080 -0.4159  0.3588
 4823SOL    HW125928   1.153   3.840  11.112 -1.8064  0.2302  0.4733
 4823SOL    HW225929   1.138   3.718  11.029  1.1574 -0.2093  2.8381
 4824SOL     OW25930   1.636   3.498  11.745 -0.3572  0.2883 -0.3794
 4824SOL    HW125931   1.698   3.426  11.729 -0.1178  0.6874 -1.2669
 4824SOL    HW225932   1.591   3.478  11.826  2.1322  1.1324  1.2117
 4825SOL     OW25933   1.385   4.714   9.613  0.5810 -0.3944  0.4178
 4825SOL    HW125934   1.334   4.684   9.689 -0.0539 -1.8230 -0.5643
 4825SOL    HW225935   1.366   4.642   9.553  1.2714 -0.0522 -0.2211
 4826SOL     OW25936   3.001   1.544   5.744 -0.0013 -0.6060 -0.3264
 4826SOL    HW125937   3.079   1.515   5.698  0.0146  2.3679 -2.1947
 4826SOL    HW225938   3.027   1.624   5.790  1.0397 -2.0881  1.6537
 4827SOL     OW25939   1.358   3.327   3.802  0.8811 -0.0941 -0.1675
 4827SOL    HW125940   1.408   3.379   3.865 -0.6217  1.0550  0.0604
 4827SOL    HW225941   1.309   3.391   3.751 -1.7554 -1.2489  0.9591
 4828SOL     OW25942   3.292   2.185   6.448 -0.3713 -0.4965  0.7278
 4828SOL    HW125943   3.354   2.115   6.425 -0.4176 -0.1949 -0.2855
 4828SOL    HW225944   3.353   2.250   6.484 -0.8928  0.7050 -0.5920
 4829SOL     OW25945   0.920   1.054   4.300  0.3398 -0.2253  0.3056
 4829SOL    HW125946   0.843   1.103   4.272 -0.3302 -0.4614  1.7657
 4829SOL    HW225947   0.904   1.027   4.390  0.6835  0.2608  0.5167
 4830SOL     OW25948   2.680   0.347   3.551  0.4759 -0.4591 -0.3232
 4830SOL    HW125949   2.654   0.418   3.492  1.0359  0.9270  1.0957
 4830SOL    HW225950   2.773   0.349   3.529  1.0346  1.9446  2.2760
 4831SOL     OW25951   3.428   1.333   4.305 -0.5890  0.6420  0.4765
 4831SOL    HW125952   3.334   1.319   4.297 -0.4489  0.6399 -1.2688
 4831SOL    HW225953   3.444   1.390   4.380 -3.8618  0.5747  1.1943
 4832SOL     OW25954   3.264   4.505  12.401  0.5930  0.1120  0.3960
 4832SOL    HW125955   3.176   4.510  12.439 -0.2917 -2.6199 -1.2526
 4832SOL    HW225956   3.327   4.489  12.471  1.4663 -3.5137 -1.2266
 4833SOL     OW25957   3.021   0.702   6.685 -0.1078  0.1599  0.7954
 4833SOL    HW125958   3.099   0.663   6.645  1.1902  1.2874  2.2459
 4833SOL    HW225959   2.963   0.627   6.700 -0.0782 -0.2357 -1.0767
 4834SOL     OW25960   1.423   1.968   6.490 -0.3799  0.4250 -0.6524
 4834SOL    HW125961   1.416   2.057   6.526 -0.3197 -0.0750  0.6167
 4834SOL    HW225962   1.342   1.976   6.440 -0.5505  1.5842 -0.1946
 4835SOL     OW25963   0.404   4.150   2.651 -0.1990  0.1929 -0.0850
 4835SOL    HW125964   0.453   4.077   2.689  0.2465  1.2580  1.3726
 4835SOL    HW225965   0.313   4.124   2.662  0.0938 -0.7166  0.2316
 4836SOL     OW25966   0.531   1.610   0.817 -0.0549 -0.0945 -0.1606
 4836SOL    HW125967   0.491   1.603   0.730  0.9672  0.6294 -0.6870
 4836SOL    HW225968   0.607   1.668   0.806 -1.1725  1.3414 -0.2697
 4837SOL     OW25969   0.526   0.784  14.686  0.3453  0.9698 -0.3136
 4837SOL    HW125970   0.452   0.731  14.714  2.3786 -1.6923  0.0707
 4837SOL    HW225971   0.542   0.834  14.767 -0.2706  0.4252  0.1374
 4838SOL     OW25972   4.425   1.047   3.354 -0.2532  0.2537 -0.5247
 4838SOL    HW125973   4.474   1.019   3.432 -2.2244  0.3568  0.7695
 4838SOL    HW225974   4.354   1.099   3.392 -0.3344  0.5860 -1.1447
 4839SOL     OW25975   1.590   4.114   7.821  0.4272  0.1877 -0.1018
 4839SOL    HW125976   1.644   4.037   7.807  0.2097 -0.0044  0.1226
 4839SOL    HW225977   1.625   4.134   7.907  0.1658 -3.8335  0.9178
 4840SOL     OW25978   1.072   4.106  17.574 -0.3504 -0.4946 -0.7530
 4840SOL    HW125979   1.044   4.196  17.594  0.1405 -0.6785  0.7100
 4840SOL    HW225980   1.093   4.077  17.662 -0.9486 -1.7677 -1.0316
 4841SOL     OW25981   0.050   0.889   1.422 -0.0102 -0.1009  0.2138
 4841SOL    HW125982   0.138   0.922   1.406 -0.3094 -0.9980 -3.3367
 4841SOL    HW225983   0.006   0.902   1.338  2.2603  2.1369 -0.6357
 4842SOL     OW25984   1.661   1.476   4.869 -0.3208 -0.0858 -0.1728
 4842SOL    HW125985   1.595   1.490   4.801 -1.8426 -1.1592  1.1032
 4842SOL    HW225986   1.665   1.382   4.882 -0.8427  0.2868  2.6216
 4843SOL     OW25987   3.615   3.872  13.467  0.2170  0.0490  0.4500
 4843SOL    HW125988   3.634   3.962  13.491 -0.3672  0.0744  0.8290
 4843SOL    HW225989   3.546   3.849  13.529 -0.0684  0.7706  0.3894
 4844SOL     OW25990   1.170   2.492   4.231  0.1125  0.3643 -0.3431
 4844SOL    HW125991   1.089   2.517   4.187 -0.8302 -0.5510  0.8899
 4844SOL    HW225992   1.154   2.398   4.227  1.9391  0.0246  0.1838
 4845SOL     OW25993   2.700   1.716   2.998 -0.6634  0.3172 -0.1530
 4845SOL    HW125994   2.725   1.714   3.091  1.5591  2.4608 -0.7087
 4845SOL    HW225995   2.768   1.664   2.955 -1.2146 -0.4440 -0.1006
 4846SOL     OW25996   4.010   2.739   9.352 -0.2753 -0.2724 -0.1413
 4846SOL    HW125997   4.103   2.724   9.368 -0.9919 -4.2131  0.3579
 4846SOL    HW225998   3.998   2.777   9.265  0.4428 -0.7710 -0.4612
 4847SOL     OW25999   1.687   0.378   8.587  0.4856 -0.6232  0.4063
 4847SOL    HW126000   1.661   0.464   8.620  1.9540  0.5751 -1.5545
 4847SOL    HW226001   1.627   0.360   8.515  0.7225 -1.3715  0.3977
 4848SOL     OW26002   3.638   2.082  12.605  0.2102  0.6748  0.1766
 4848SOL    HW126003   3.611   2.166  12.643 -1.7826 -0.2543  0.8265
 4848SOL    HW226004   3.589   2.089  12.523  1.1046  0.3083 -0.3843
 4849SOL     OW26005   1.026   2.167   2.680  0.0623 -0.3978 -0.1494
 4849SOL    HW126006   0.938   2.199   2.696 -0.0173 -1.0992  0.8112
 4849SOL    HW226007   1.079   2.200   2.753  1.2373 -0.8484 -0.7923
 4850SOL     OW26008   2.259   3.201   5.041 -0.4925 -0.5464 -0.6334
 4850SOL    HW126009   2.186   3.253   5.007  0.5138  0.9242 -0.5157
 4850SOL    HW226010   2.300   3.250   5.112 -1.3859  1.4587 -1.4957
 4851SOL     OW26011   3.879   0.750   7.449  0.8265 -0.0014 -0.3159
 4851SOL    HW126012   3.831   0.832   7.467 -2.0225 -1.5340 -0.8845
 4851SOL    HW226013   3.897   0.717   7.536  1.6037  1.3901  0.0578
 4852SOL     OW26014   3.339   3.647   4.011 -0.2909  0.5370 -0.3183
 4852SOL    HW126015   3.346   3.659   4.106 -1.1691 -1.5187  0.0228
 4852SOL    HW226016   3.392   3.570   3.990 -0.4416  0.1148  0.8375
 4853SOL     OW26017   0.822   0.930   8.848  0.4765  0.5296 -0.0293
 4853SOL    HW126018   0.868   0.872   8.786  0.4568  0.2168  0.2481
 4853SOL    HW226019   0.851   1.013   8.811  1.1995 -1.1829 -3.3587
 4854SOL     OW26020   4.167   1.920   4.250  0.1751  0.4549 -0.7068
 4854SOL    HW126021   4.155   1.858   4.178 -0.3884  1.3296 -1.3789
 4854SOL    HW226022   4.195   1.862   4.321  1.4862  1.2751 -0.5472
 4855SOL     OW26023   0.235   2.646   3.592 -0.3614  0.6711  0.2064
 4855SOL    HW126024   0.301   2.594   3.638  0.7344  1.0421 -0.9323
 4855SOL    HW226025   0.266   2.644   3.501  2.1272  1.9067  1.0105
 4856SOL     OW26026   3.260   1.346   5.323 -0.1004  0.2780 -0.1934
 4856SOL    HW126027   3.234   1.262   5.284  1.3462  0.0126 -0.5989
 4856SOL    HW226028   3.282   1.413   5.259 -0.7366  1.6431  1.0128
 4857SOL     OW26029   4.685   1.454   8.934  0.5282  0.1894  0.0674
 4857SOL    HW126030   4.698   1.524   8.998  1.6229 -0.4410  0.5280
 4857SOL    HW226031   4.701   1.486   8.845  1.4992  1.3835  0.6794
 4858SOL     OW26032   1.309   1.867   5.298  0.4267  0.6041  0.4587
 4858SOL    HW126033   1.227   1.917   5.304  0.8688  1.5692 -1.7337
 4858SOL    HW226034   1.305   1.825   5.385 -1.2826 -1.0907 -0.4184
 4859SOL     OW26035   1.739   3.446   4.492  0.5318 -0.1200  0.2785
 4859SOL    HW126036   1.774   3.371   4.540 -3.4072 -2.2809 -0.1904
 4859SOL    HW226037   1.808   3.511   4.503 -1.2439  1.3569  2.6061
 4860SOL     OW26038   2.107   0.474   6.809 -0.1402 -0.7356 -0.4715
 4860SOL    HW126039   2.052   0.403   6.775 -1.9008  0.6390 -0.5059
 4860SOL    HW226040   2.167   0.430   6.870 -2.6327  1.3485  3.4471
 4861SOL     OW26041   2.865   2.413   0.467 -0.2740  0.0822  0.2197
 4861SOL    HW126042   2.882   2.357   0.391 -0.2725 -0.1043  0.3569
 4861SOL    HW226043   2.866   2.344   0.534  1.9991  0.3185  0.4184
 4862SOL     OW26044   0.269   3.918   8.785  0.3560 -0.3382 -0.4757
 4862SOL    HW126045   0.320   3.944   8.862 -0.0810  0.4058 -0.4382
 4862SOL    HW226046   0.186   3.913   8.832  0.7012 -1.0115  0.0664
 4863SOL     OW26047   2.452   2.662   8.937  0.0093  0.3977  1.0328
 4863SOL    HW126048   2.538   2.640   8.973  1.1158  2.5928 -0.2455
 4863SOL    HW226049   2.483   2.719   8.866  1.2501 -1.7513 -0.1596
 4864SOL     OW26050   0.520   0.562   3.231 -0.0893  0.1343  0.0903
 4864SOL    HW126051   0.497   0.609   3.312  0.8419 -0.4184  0.6682
 4864SOL    HW226052   0.447   0.601   3.181 -0.5696  1.1133  1.5435
 4865SOL     OW26053   2.345   0.224   4.577 -0.3023 -0.3678 -0.3542
 4865SOL    HW126054   2.299   0.186   4.503  0.2733 -1.9993  0.1359
 4865SOL    HW226055   2.434   0.192   4.560 -0.2079 -1.3973  2.0371
 4866SOL     OW26056   2.163   3.396  14.066  0.2180  0.4045  0.1086
 4866SOL    HW126057   2.183   3.321  14.122 -4.1006  0.8846  2.2735
 4866SOL    HW226058   2.156   3.466  14.131 -0.4213  0.0234  0.4518
 4867SOL     OW26059   0.819   0.412   1.931 -0.1638  0.5169  0.2829
 4867SOL    HW126060   0.861   0.459   1.859 -0.7133  0.5698 -0.0033
 4867SOL    HW226061   0.866   0.443   2.007 -0.9720  0.5103  0.7880
 4868SOL     OW26062   4.661   1.942   8.407 -0.1033  0.0344 -0.2256
 4868SOL    HW126063   4.640   1.902   8.491 -0.4321 -2.2343 -1.3991
 4868SOL    HW226064   0.008   1.996   8.440 -1.7563  1.9413  0.2308
 4869SOL     OW26065   1.257   2.085   3.973 -0.5731  0.5486  0.0267
 4869SOL    HW126066   1.281   1.994   3.957  0.2754  0.4877  1.5975
 4869SOL    HW226067   1.252   2.070   4.068 -2.6948 -2.1460 -0.5172
 4870SOL     OW26068   0.017   3.190  17.598  0.5498  0.3601 -0.1798
 4870SOL    HW126069   4.707   3.118  17.546 -0.3894 -0.4111  1.5136
 4870SOL    HW226070   0.063   3.145  17.669 -0.0951  0.5663  0.3742
 4871SOL     OW26071   1.318   0.361   8.235 -0.0442 -0.0435 -0.5670
 4871SOL    HW126072   1.336   0.411   8.156 -0.4073 -2.1241 -1.9462
 4871SOL    HW226073   1.274   0.281   8.207 -0.7209  0.5926 -1.2952
 4872SOL     OW26074   3.287   2.699   4.387 -0.1185  0.1418 -0.0776
 4872SOL    HW126075   3.255   2.671   4.473 -0.8953 -0.9535 -0.7072
 4872SOL    HW226076   3.322   2.617   4.351 -0.4733 -0.2140  0.3954
 4873SOL     OW26077   1.806   3.542   2.739  0.4616 -0.1649  0.3555
 4873SOL    HW126078   1.863   3.539   2.662  3.5666  0.1398  2.6415
 4873SOL    HW226079   1.855   3.481   2.794  1.5047  0.8212  0.5180
 4874SOL     OW26080   2.162   3.721   8.417  0.1887 -0.0519  0.1935
 4874SOL    HW126081   2.159   3.803   8.369  0.4285 -1.1617 -1.7326
 4874SOL    HW226082   2.163   3.753   8.507 -2.0761  1.1746 -0.2218
 4875SOL     OW26083   1.507   4.450  14.924  0.1551 -0.1931  0.1064
 4875SOL    HW126084   1.503   4.544  14.905  2.8157 -0.4050 -1.3712
 4875SOL    HW226085   1.542   4.410  14.844 -2.9886  0.0285 -1.3904
 4876SOL     OW26086   3.767   2.077   4.386 -0.1709  0.1492 -0.3669
 4876SOL    HW126087   3.857   2.098   4.361 -0.6234  2.5731  0.0138
 4876SOL    HW226088   3.721   2.140   4.330 -0.1304  0.1102 -0.4439
 4877SOL     OW26089   4.126   4.271   3.297 -0.6176 -0.3581 -0.2151
 4877SOL    HW126090   4.177   4.342   3.259  0.0928 -0.7221  0.0647
 4877SOL    HW226091   4.156   4.288   3.386 -1.2609 -0.2020 -0.0287
 4878SOL     OW26092   1.302   1.944   2.211 -0.8811 -0.2269  0.3403
 4878SOL    HW126093   1.283   1.852   2.228 -1.5082 -0.1705 -0.0650
 4878SOL    HW226094   1.225   1.976   2.164  1.2145  1.3576 -2.0203
 4879SOL     OW26095   2.138   1.917  12.210  0.0086  0.3287 -0.3566
 4879SOL    HW126096   2.157   2.008  12.186  1.3019 -0.6720 -3.0935
 4879SOL    HW226097   2.059   1.912  12.264  0.0570  0.3757 -0.2799
 4880SOL     OW26098   1.044   1.832   3.851  0.2492  0.5349  0.0685
 4880SOL    HW126099   1.092   1.842   3.769  0.9305  0.3537  0.4476
 4880SOL    HW226100   0.957   1.836   3.812 -0.1220 -0.8428  0.7446
 4881SOL     OW26101   4.238   3.213   6.095 -0.6419  0.4972  0.3156
 4881SOL    HW126102   4.209   3.302   6.113 -0.7604  0.7752 -1.2296
 4881SOL    HW226103   4.255   3.233   6.003  1.6435 -0.8265  0.4472
 4882SOL     OW26104   3.475   1.071   2.202  0.2582 -0.5116 -0.0256
 4882SOL    HW126105   3.481   1.044   2.110  1.5953  1.1293 -0.4195
 4882SOL    HW226106   3.467   0.986   2.244 -2.8704  0.4857  1.4002
 4883SOL     OW26107   2.061   4.494   6.053 -0.2545  0.4045 -0.3672
 4883SOL    HW126108   1.984   4.512   6.107 -0.0726 -2.1780  0.7472
 4883SOL    HW226109   2.110   4.428   6.102 -2.6438 -0.4538  0.8556
 4884SOL     OW26110   0.796   1.708   8.146 -0.0160  0.0817  0.2226
 4884SOL    HW126111   0.806   1.757   8.228  2.3511  2.5529 -1.5675
 4884SOL    HW226112   0.854   1.633   8.164  0.6456  0.6625  0.5253
 4885SOL     OW26113   2.376   4.594   9.475  0.2707 -0.0760 -0.0353
 4885SOL    HW126114   2.326   4.513   9.469  2.3126 -1.1718 -1.9739
 4885SOL    HW226115   2.322   4.669   9.452 -0.2284  0.0996  1.7202
 4886SOL     OW26116   1.979   0.461   1.570 -0.0105  0.2048 -0.1908
 4886SOL    HW126117   1.967   0.408   1.491  1.4388  0.5954 -0.6798
 4886SOL    HW226118   1.891   0.480   1.603 -0.5778 -2.1295 -0.3897
 4887SOL     OW26119   1.138   0.417   2.964 -0.4584 -0.1974 -0.1870
 4887SOL    HW126120   1.226   0.427   2.929  0.4327  0.0162  2.1362
 4887SOL    HW226121   1.155   0.365   3.042 -1.0685 -1.2225 -0.7335
 4888SOL     OW26122   0.432   0.644   7.995 -0.1321  0.1745  0.3579
 4888SOL    HW126123   0.474   0.711   8.049  0.2743 -0.4443  0.8138
 4888SOL    HW226124   0.340   0.650   8.020 -1.0218 -2.3621 -2.2940
 4889SOL     OW26125   1.876   2.492   4.487 -0.2581 -0.0003 -0.7003
 4889SOL    HW126126   1.883   2.436   4.564 -2.7148  0.4137 -0.1857
 4889SOL    HW226127   1.956   2.475   4.437  0.3799 -1.2975  0.7788
 4890SOL     OW26128   4.234   0.619   0.696  0.0275  0.1939 -0.2579
 4890SOL    HW126129   4.292   0.556   0.740  0.0615  0.2471 -0.2273
 4890SOL    HW226130   4.151   0.590   0.734  0.8978  1.4181  2.6039
 4891SOL     OW26131   1.110   4.015  11.752  0.3507  0.1084 -0.2157
 4891SOL    HW126132   1.064   3.936  11.780  2.6405 -1.6752 -1.5012
 4891SOL    HW226133   1.131   3.988  11.663 -1.2896  1.5978 -1.0519
 4892SOL     OW26134   1.591   1.040   1.209  0.9638  0.3128 -0.1012
 4892SOL    HW126135   1.571   0.968   1.150 -0.6587  0.5247  0.2137
 4892SOL    HW226136   1.515   1.098   1.204  1.0064  0.5361  1.5883
 4893SOL     OW26137   0.441   3.538  12.886 -0.0206  0.1140 -0.3639
 4893SOL    HW126138   0.352   3.532  12.852  0.4047 -3.3926 -0.8878
 4893SOL    HW226139   0.469   3.629  12.875 -2.2622  0.6182 -1.8478
 4894SOL     OW26140   3.158   4.481   4.190 -0.5990  0.1841  0.7606
 4894SOL    HW126141   3.182   4.492   4.282 -0.7478 -0.0046  0.8213
 4894SOL    HW226142   3.235   4.521   4.149 -0.0086 -1.9030 -0.1384
 4895SOL     OW26143   0.492   3.287   2.395 -0.0098 -0.1685  0.5791
 4895SOL    HW126144   0.494   3.308   2.302  1.2498 -0.1655  0.6061
 4895SOL    HW226145   0.581   3.312   2.419  1.2650 -2.6314 -1.5211
 4896SOL     OW26146   3.609   4.698   9.595  0.0258 -0.0891  0.2353
 4896SOL    HW126147   3.645   4.711   9.683  0.2889 -2.4685  0.4859
 4896SOL    HW226148   3.686   4.708   9.539 -1.7127  0.6872 -1.9725
 4897SOL     OW26149   2.570   0.893  10.328 -0.4516 -0.0213 -0.4577
 4897SOL    HW126150   2.568   0.827  10.396 -1.2255  0.3755 -0.0974
 4897SOL    HW226151   2.631   0.853  10.266  0.0037  2.1975 -1.4724
 4898SOL     OW26152   1.537   4.106   6.273 -0.1412 -0.3165  0.4112
 4898SOL    HW126153   1.534   4.048   6.197  0.7022 -0.3179  0.3819
 4898SOL    HW226154   1.456   4.156   6.260  0.1819  0.0931 -0.0433
 4899SOL     OW26155   0.782   4.547  13.355  0.3488 -1.0095 -0.4415
 4899SOL    HW126156   0.787   4.540  13.260  0.7074 -0.2643 -0.4770
 4899SOL    HW226157   0.871   4.572  13.381  0.3222 -2.1250  0.7359
 4900SOL     OW26158   1.240   1.641   8.602  0.4768 -0.0090 -0.7125
 4900SOL    HW126159   1.159   1.643   8.551  0.0884  0.0167 -0.0988
 4900SOL    HW226160   1.241   1.546   8.610 -0.9671  0.1266  1.1237
 4901SOL     OW26161   2.247   3.969   5.580  0.9457  0.0016  0.4281
 4901SOL    HW126162   2.305   3.917   5.635 -0.2271 -0.1515  1.5245
 4901SOL    HW226163   2.164   3.981   5.627  1.0266 -1.3726  0.9303
 4902SOL     OW26164   3.425   1.668  13.749 -0.2711  0.1935  0.6305
 4902SOL    HW126165   3.368   1.739  13.777 -0.3626 -0.3900  1.9506
 4902SOL    HW226166   3.484   1.707  13.684 -1.8844 -0.6884 -1.3613
 4903SOL     OW26167   0.803   2.013   9.666  0.7835  0.2933  0.4432
 4903SOL    HW126168   0.747   2.062   9.727  0.4959  0.6517 -0.1088
 4903SOL    HW226169   0.874   2.075   9.647  1.4625  0.1284  2.4071
 4904SOL     OW26170   0.607   3.458   8.684 -0.0464 -0.6207 -0.0409
 4904SOL    HW126171   0.560   3.527   8.730 -1.5019 -0.7516 -1.3070
 4904SOL    HW226172   0.661   3.418   8.752  2.3816  0.8985 -1.0847
 4905SOL     OW26173   3.848   1.181   9.394 -0.1122  0.2637  0.3949
 4905SOL    HW126174   3.859   1.155   9.303 -0.0611 -0.4315  0.5987
 4905SOL    HW226175   3.845   1.100   9.446  0.3126 -0.3649 -0.5615
 4906SOL     OW26176   1.060   1.308   7.606  0.6361 -0.2169 -0.1472
 4906SOL    HW126177   1.072   1.390   7.653 -2.1534 -0.1901  0.5240
 4906SOL    HW226178   0.979   1.283   7.650  0.6441 -0.5601 -0.3194
 4907SOL     OW26179   3.418   0.879  14.702  0.5666  0.3320 -0.1077
 4907SOL    HW126180   3.456   0.890  14.615 -0.8933  1.7137 -0.5928
 4907SOL    HW226181   3.383   0.790  14.698 -1.7498  1.1771  1.3737
 4908SOL     OW26182   0.563   1.859  11.371  0.1064 -0.0653  0.6869
 4908SOL    HW126183   0.606   1.805  11.304 -0.7571  0.8965 -0.6520
 4908SOL    HW226184   0.539   1.943  11.331 -2.5346 -2.7329 -3.3316
 4909SOL     OW26185   0.117   2.005   1.065  0.4034 -0.5010 -0.5853
 4909SOL    HW126186   0.075   1.925   1.097  0.4898 -0.0953  0.5231
 4909SOL    HW226187   0.047   2.070   1.058 -0.2078 -1.2618 -1.6049
 4910SOL     OW26188   4.390   3.924   9.900 -0.6079 -0.5006  0.5813
 4910SOL    HW126189   4.438   3.927   9.983  2.7283 -2.3159 -1.2187
 4910SOL    HW226190   4.400   3.830   9.881  0.9164 -0.3615  0.6943
 4911SOL     OW26191   1.792   0.088   4.113  0.5079 -0.0355 -0.5149
 4911SOL    HW126192   1.777   4.718   4.115 -2.7557  0.5254  0.6479
 4911SOL    HW226193   1.736   0.110   4.187 -0.5899  2.8865 -2.1968
 4912SOL     OW26194   2.077   1.545  14.746  0.4987 -0.9644 -0.1336
 4912SOL    HW126195   2.143   1.584  14.690  1.4619 -0.0753  1.6151
 4912SOL    HW226196   2.001   1.602  14.730 -0.5713 -2.7180 -1.2876
 4913SOL     OW26197   0.294   2.449   3.993  0.3529 -0.0855 -0.3860
 4913SOL    HW126198   0.295   2.536   4.033  1.9695  0.4450 -1.5742
 4913SOL    HW226199   0.324   2.482   3.909 -0.8404  3.1179  0.4614
 4914SOL     OW26200   3.352   3.101   1.519  0.0140 -0.3248  0.2553
 4914SOL    HW126201   3.385   3.090   1.429  1.0238 -0.3035  0.6307
 4914SOL    HW226202   3.369   3.189   1.551  3.0294  0.4482 -3.4628
 4915SOL     OW26203   0.406   0.890   4.074 -0.3201  0.2717  0.1664
 4915SOL    HW126204   0.340   0.826   4.047 -0.2579  0.1327  0.3423
 4915SOL    HW226205   0.409   0.945   3.995 -1.8570  0.6599  0.3924
 4916SOL     OW26206   2.570   4.373   9.103 -0.0985 -0.0610  0.8243
 4916SOL    HW126207   2.558   4.411   9.190 -2.1338  0.8054  0.1770
 4916SOL    HW226208   2.493   4.318   9.088 -0.4234  0.8518 -0.9688
 4917SOL     OW26209   2.714   1.255   5.160  0.0720  0.1531 -0.0353
 4917SOL    HW126210   2.687   1.179   5.109 -0.4914 -1.7401  3.1098
 4917SOL    HW226211   2.639   1.268   5.218  1.6144  0.1698  1.9238
 4918SOL     OW26212   2.871   3.675  12.629  0.0204  0.2293 -0.7687
 4918SOL    HW126213   2.908   3.617  12.695  0.4156  0.1682 -1.0428
 4918SOL    HW226214   2.954   3.692  12.583  0.0870  1.8553 -0.0777
 4919SOL     OW26215   0.338   1.204   2.528 -0.5392  0.5736 -0.7593
 4919SOL    HW126216   0.293   1.264   2.587  1.3809 -0.2513  1.5437
 4919SOL    HW226217   0.410   1.173   2.582 -0.9692  0.1320 -0.4396
 4920SOL     OW26218   0.068   2.783   2.555 -0.3734 -0.2255 -0.3862
 4920SOL    HW126219   0.075   2.772   2.649  0.5565 -0.7199 -0.5146
 4920SOL    HW226220   4.700   2.780   2.532 -0.4920 -0.6666  0.1679
 4921SOL     OW26221   1.878   2.330   4.715 -0.0342 -0.4808 -0.2143
 4921SOL    HW126222   1.964   2.343   4.757 -0.8876 -0.6321  1.5739
 4921SOL    HW226223   1.826   2.280   4.778  2.0224  0.3012  2.1307
 4922SOL     OW26224   3.268   2.969   9.121  0.0821  0.3048  0.5569
 4922SOL    HW126225   3.286   3.046   9.068 -3.4014  1.7412  1.4307
 4922SOL    HW226226   3.357   2.951   9.150 -0.6439  0.1810  2.7613
 4923SOL     OW26227   4.379   3.970   9.430 -0.0109 -0.4765 -0.5096
 4923SOL    HW126228   4.407   3.888   9.472  2.3825 -0.1278 -1.4412
 4923SOL    HW226229   4.293   3.948   9.393  1.4852 -3.0952 -2.4352
 4924SOL     OW26230   3.816   1.160   6.682  0.1669 -0.1510  0.2350
 4924SOL    HW126231   3.784   1.070   6.686 -2.6765  0.6628 -3.5030
 4924SOL    HW226232   3.867   1.157   6.762  0.7282  0.0210 -0.1191
 4925SOL     OW26233   1.905   0.043  11.122 -0.1998  0.2463  0.0256
 4925SOL    HW126234   1.946   0.101  11.057  0.6357 -1.8393 -1.2995
 4925SOL    HW226235   1.821   0.085  11.142  0.2648  0.8377  0.7525
 4926SOL     OW26236   3.403   3.114   8.003 -0.0326  0.5288  0.5406
 4926SOL    HW126237   3.325   3.127   7.948 -0.1281 -0.6007  0.4008
 4926SOL    HW226238   3.394   3.185   8.066 -0.0742  1.5830 -0.6632
 4927SOL     OW26239   3.660   0.084   8.887  0.2083  0.7792  0.2131
 4927SOL    HW126240   3.681   0.125   8.803 -0.6208  1.5462  0.3826
 4927SOL    HW226241   3.666   0.164   8.940  0.9545  0.1629  1.0760
 4928SOL     OW26242   3.071   0.949   6.500 -0.2786 -0.0875  0.1337
 4928SOL    HW126243   3.075   0.982   6.411 -0.8114  1.4197  0.6767
 4928SOL    HW226244   3.164   0.930   6.510 -0.0979  0.5524 -0.4225
 4929SOL     OW26245   3.846   4.176   3.284  0.3763 -0.0177 -0.0475
 4929SOL    HW126246   3.916   4.240   3.276  0.3315  0.1076  0.5757
 4929SOL    HW226247   3.873   4.135   3.367 -1.2374 -0.8089  0.0814
 4930SOL     OW26248   1.259   2.532   5.281  0.4126 -0.4355  0.0575
 4930SOL    HW126249   1.272   2.627   5.283  0.9623 -0.4531 -1.9191
 4930SOL    HW226250   1.348   2.512   5.249 -0.1104 -3.3157  0.4421
 4931SOL     OW26251   0.720   3.139   7.843 -0.0259  0.2825  0.3460
 4931SOL    HW126252   0.694   3.192   7.769 -1.8488 -1.7538 -0.4761
 4931SOL    HW226253   0.761   3.200   7.905  0.4809  0.8565 -0.5636
 4932SOL     OW26254   4.070   2.887   4.103 -0.3049 -0.1165  0.6929
 4932SOL    HW126255   4.143   2.825   4.105  0.7901  1.2408  2.4006
 4932SOL    HW226256   4.093   2.954   4.038  3.3489 -0.8759  1.2027
 4933SOL     OW26257   4.445   0.194   2.255  0.2290  0.0087 -0.4358
 4933SOL    HW126258   4.428   0.126   2.320  0.8283 -0.1514 -0.4429
 4933SOL    HW226259   4.540   0.184   2.251 -0.0316 -2.4143 -0.2062
 4934SOL     OW26260   2.799   1.021   6.805 -0.1935 -0.0210  0.0707
 4934SOL    HW126261   2.857   0.950   6.835  1.8371  0.5238 -2.4852
 4934SOL    HW226262   2.718   0.970   6.810  0.4769 -1.2440 -1.4511
 4935SOL     OW26263   4.421   3.735  13.312  0.5199 -0.4831  0.3184
 4935SOL    HW126264   4.477   3.799  13.357 -1.2076 -0.2554  2.1299
 4935SOL    HW226265   4.360   3.718  13.384 -1.3662  1.3483 -0.8214
 4936SOL     OW26266   2.772   3.097  10.761  0.1601 -0.2273  0.3398
 4936SOL    HW126267   2.811   3.068  10.843 -1.2796 -0.2453  1.0130
 4936SOL    HW226268   2.685   3.060  10.773 -0.2839  0.5608 -0.4507
 4937SOL     OW26269   1.930   3.091   9.878  0.3828  0.7257  0.2396
 4937SOL    HW126270   1.903   3.160   9.938 -2.0136 -0.7522  0.8468
 4937SOL    HW226271   1.864   3.025   9.897 -0.0822  1.1814  0.1967
 4938SOL     OW26272   3.801   4.363   9.124  0.4834 -0.5339 -0.1210
 4938SOL    HW126273   3.757   4.372   9.040 -2.1069 -0.6082  1.2584
 4938SOL    HW226274   3.840   4.450   9.134 -0.5897 -0.3538  2.4717
 4939SOL     OW26275   4.564   2.376   8.291  0.6015 -0.0165  0.2305
 4939SOL    HW126276   4.486   2.430   8.294  0.0461 -0.8441  0.5738
 4939SOL    HW226277   4.527   2.297   8.330  3.0183 -1.4680 -0.4035
 4940SOL     OW26278   0.105   1.095   7.720 -0.2473  0.2772 -0.2497
 4940SOL    HW126279   0.070   1.176   7.681  1.5750  1.0790 -0.2326
 4940SOL    HW226280   0.174   1.069   7.659  0.0021  1.7687 -0.6148
 4941SOL     OW26281   2.463   0.747   1.591  0.2768 -0.1584 -0.0107
 4941SOL    HW126282   2.473   0.703   1.675 -0.2415 -0.6159 -0.1809
 4941SOL    HW226283   2.461   0.673   1.530 -0.6207 -1.0193  1.0579
 4942SOL     OW26284   3.821   3.571   8.028 -0.2068  0.6711 -0.2566
 4942SOL    HW126285   3.733   3.539   8.045  0.5424 -0.9617  0.5904
 4942SOL    HW226286   3.846   3.619   8.107 -3.7356  2.0969 -0.0102
 4943SOL     OW26287   4.639   4.506   0.944 -1.0374 -0.1408  0.5074
 4943SOL    HW126288   4.577   4.537   0.877 -0.9059 -0.9373  0.0240
 4943SOL    HW226289   4.658   4.417   0.915 -1.1263  0.8216 -2.5639
 4944SOL     OW26290   2.925   0.891   4.226 -0.4009  0.6473 -0.4656
 4944SOL    HW126291   2.991   0.940   4.177 -0.6499 -0.4823 -1.9550
 4944SOL    HW226292   2.948   0.802   4.198  0.2270  0.8041 -0.4618
 4945SOL     OW26293   1.616   2.631   1.640 -0.6472 -0.0503  1.0027
 4945SOL    HW126294   1.626   2.634   1.735 -0.0334  0.1102  0.9358
 4945SOL    HW226295   1.686   2.686   1.605 -1.0831  0.5647  1.0983
 4946SOL     OW26296   0.380   2.709  17.076  0.6821 -0.1518  0.4720
 4946SOL    HW126297   0.409   2.660  16.999  1.5328  1.2148 -0.0634
 4946SOL    HW226298   0.418   2.655  17.145 -1.0345 -2.1376 -0.1359
 4947SOL     OW26299   1.830   3.637   3.028 -0.8489  0.0426 -0.4839
 4947SOL    HW126300   1.865   3.726   3.022  1.2747 -0.7947 -0.6075
 4947SOL    HW226301   1.798   3.625   2.938  0.8481  0.1350 -1.1232
 4948SOL     OW26302   4.555   3.934  12.178 -0.3887  0.1359  0.4799
 4948SOL    HW126303   4.535   3.995  12.107  0.9751 -1.8069 -1.5781
 4948SOL    HW226304   4.501   3.859  12.156  0.0282  0.3091 -1.1819
 4949SOL     OW26305   3.024   0.351   0.417  0.1604 -0.3326  0.4456
 4949SOL    HW126306   2.969   0.390   0.485  1.2195 -0.3025  1.2943
 4949SOL    HW226307   3.063   0.277   0.464 -1.5537 -1.4890  0.0590
 4950SOL     OW26308   0.618   3.749   7.484  0.4378 -0.3864  0.1817
 4950SOL    HW126309   0.692   3.744   7.423 -0.4897 -0.7870 -0.8976
 4950SOL    HW226310   0.570   3.826   7.455 -1.3175 -1.0135  1.4544
 4951SOL     OW26311   0.005   1.380  14.590 -0.4289  0.0726  0.5265
 4951SOL    HW126312   0.073   1.321  14.559 -1.9517 -2.4972  2.1486
 4951SOL    HW226313   4.674   1.323  14.644 -3.4386  0.4587 -2.1349
 4952SOL     OW26314   1.109   2.573   7.712 -0.5528 -0.0940  0.7388
 4952SOL    HW126315   1.200   2.598   7.695 -1.0045  0.6501 -0.6284
 4952SOL    HW226316   1.124   2.481   7.693 -0.2738 -0.1392  1.1757
 4953SOL     OW26317   1.045   2.031   5.675 -0.1805  0.4903 -0.1813
 4953SOL    HW126318   1.070   2.121   5.651  0.4287 -0.6638 -3.8729
 4953SOL    HW226319   1.086   2.024   5.761  0.6549  3.8895 -0.2632
 4954SOL     OW26320   2.974   3.667   2.699  0.1620  0.0432 -0.4570
 4954SOL    HW126321   2.949   3.758   2.717  0.7427  0.0893  0.1430
 4954SOL    HW226322   2.889   3.623   2.695  0.4413 -0.6229  0.7168
 4955SOL     OW26323   0.082   1.408   7.816 -0.1101  0.0411 -0.0518
 4955SOL    HW126324   0.067   1.395   7.722 -2.0097  1.8757  0.0024
 4955SOL    HW226325   0.169   1.371   7.830  0.1355  0.3417 -0.7580
 4956SOL     OW26326   0.069   0.386   2.811 -0.2310  0.0247 -0.2736
 4956SOL    HW126327   0.015   0.464   2.795 -1.1750 -1.1829 -3.0567
 4956SOL    HW226328   0.132   0.422   2.873  1.1794 -2.8475 -0.0860
 4957SOL     OW26329   3.015   3.702   3.730 -0.6113 -0.3323  0.9002
 4957SOL    HW126330   3.046   3.727   3.818 -1.8426  0.0949  1.2112
 4957SOL    HW226331   2.922   3.701   3.751 -0.9658  1.2374 -0.5745
 4958SOL     OW26332   0.823   3.755   8.241  0.2911 -0.8457 -0.1992
 4958SOL    HW126333   0.818   3.838   8.193 -0.6218 -1.6132 -1.4515
 4958SOL    HW226334   0.834   3.788   8.330 -2.6867  0.6138 -0.3789
 4959SOL     OW26335   2.040   4.432  11.804 -0.4298 -0.1633  0.4405
 4959SOL    HW126336   2.103   4.482  11.857 -0.2506 -1.2875  1.2705
 4959SOL    HW226337   2.049   4.465  11.715 -0.4100 -1.2736  0.0459
 4960SOL     OW26338   1.545   0.046  17.076 -0.5309  0.3249  0.0557
 4960SOL    HW126339   1.491   0.002  17.142 -0.1388  1.5603  1.1846
 4960SOL    HW226340   1.484   0.112  17.045  0.0404  0.1343 -1.4852
 4961SOL     OW26341   3.759   2.707  17.536  0.2202 -0.2966  0.0414
 4961SOL    HW126342   3.814   2.634  17.509  2.5335  0.7292  1.9763
 4961SOL    HW226343   3.804   2.774  17.485 -0.4134 -0.4714 -0.7606
 4962SOL     OW26344   0.275   1.136   3.602 -0.1751  0.1195  0.0686
 4962SOL    HW126345   0.328   1.071   3.648  1.8418  2.0938  0.4959
 4962SOL    HW226346   0.331   1.213   3.600 -1.7504  1.2978  1.1312
 4963SOL     OW26347   0.500   2.271   3.413  0.4462  0.1397 -0.1108
 4963SOL    HW126348   0.421   2.320   3.389  0.0805  0.7427  2.3352
 4963SOL    HW226349   0.565   2.320   3.364  0.5020  0.6266  0.4395
 4964SOL     OW26350   3.131   2.162   1.328 -0.2014  0.0091 -0.1239
 4964SOL    HW126351   3.212   2.209   1.348 -0.9373  0.9753  0.6284
 4964SOL    HW226352   3.108   2.119   1.410 -2.5541  1.8650  0.1671
 4965SOL     OW26353   1.392   0.243   7.856 -0.1904  0.0233 -0.4814
 4965SOL    HW126354   1.457   0.234   7.925  1.4650  1.1386 -1.8744
 4965SOL    HW226355   1.329   0.177   7.885  0.3230 -1.3489 -2.4565
 4966SOL     OW26356   2.853   2.584   3.108 -0.2181  0.3169 -0.3766
 4966SOL    HW126357   2.779   2.644   3.095 -1.3921 -0.8829  0.7371
 4966SOL    HW226358   2.823   2.505   3.153 -2.6718  2.4576  1.7685
 4967SOL     OW26359   0.893   4.145   3.329  0.1686 -0.3146 -0.1428
 4967SOL    HW126360   0.849   4.208   3.272 -0.6630  0.7130  1.6216
 4967SOL    HW226361   0.981   4.178   3.345  1.1516 -1.8705 -2.3597
 4968SOL     OW26362   2.682   4.265   9.934 -0.0852 -0.0347  0.0156
 4968SOL    HW126363   2.691   4.219  10.017  0.7091 -1.9686 -1.1451
 4968SOL    HW226364   2.619   4.331   9.963 -0.1313 -0.0997  0.0607
 4969SOL     OW26365   0.500   3.962   2.312 -0.1954  0.1832 -0.0535
 4969SOL    HW126366   0.517   3.969   2.218  1.7265  1.1680  0.3637
 4969SOL    HW226367   0.418   4.008   2.326 -0.2293  0.4881 -1.2115
 4970SOL     OW26368   1.789   2.321   4.082 -0.3035 -0.0391  0.3526
 4970SOL    HW126369   1.870   2.272   4.092  1.0743  2.9457  3.9503
 4970SOL    HW226370   1.735   2.265   4.027  1.4774 -0.4088 -1.0111
 4971SOL     OW26371   3.556   2.083  11.846  0.8042 -0.3745 -0.2779
 4971SOL    HW126372   3.600   2.157  11.889 -0.5044  0.8170 -0.9844
 4971SOL    HW226373   3.477   2.131  11.824  0.3625 -0.5624  0.9107
 4972SOL     OW26374   4.442   0.542   9.315 -0.0861  1.1911  0.2619
 4972SOL    HW126375   4.427   0.561   9.407  1.3353  1.2869  0.4674
 4972SOL    HW226376   4.404   0.622   9.279 -2.4500  0.4954  1.2444
 4973SOL     OW26377   0.589   2.748  12.209 -0.4218 -0.2556 -0.0006
 4973SOL    HW126378   0.606   2.810  12.137 -2.7105  1.1111  0.6129
 4973SOL    HW226379   0.515   2.697  12.176 -1.6949  1.0882  0.7459
 4974SOL     OW26380   3.849   0.232   3.695 -0.2604 -0.3433 -0.2074
 4974SOL    HW126381   3.920   0.226   3.631  0.3387 -0.9653  0.5142
 4974SOL    HW226382   3.785   0.268   3.633 -1.7137  0.7438  1.9527
 4975SOL     OW26383   4.526   4.361   0.093 -0.2238  0.3941 -0.2646
 4975SOL    HW126384   4.510   4.270   0.117  0.0556  0.3813 -0.1329
 4975SOL    HW226385   4.589   4.341   0.024 -0.0092 -1.2179  0.4153
 4976SOL     OW26386   1.104   0.736   4.931  0.3771 -0.4139 -0.0752
 4976SOL    HW126387   1.129   0.820   4.972  0.6175 -0.4952 -0.0537
 4976SOL    HW226388   1.162   0.737   4.854 -1.4882 -0.2826 -1.4712
 4977SOL     OW26389   1.675   1.299   8.096  0.2153 -0.4857 -0.3758
 4977SOL    HW126390   1.752   1.295   8.153  0.8736 -0.7255 -1.2996
 4977SOL    HW226391   1.640   1.211   8.106 -0.6224  0.0645  1.6745
 4978SOL     OW26392   4.023   3.418  11.951  0.6170 -0.7030 -0.2236
 4978SOL    HW126393   4.042   3.511  11.966 -1.5800 -0.0740 -1.3257
 4978SOL    HW226394   4.055   3.376  12.030  3.0035 -3.5209 -2.7002
 4979SOL     OW26395   4.121   0.028   9.131  0.1412  0.2149  0.0397
 4979SOL    HW126396   4.175   4.709   9.065  0.2058 -0.6484  0.6625
 4979SOL    HW226397   4.168   0.005   9.212  2.1282 -3.2432 -2.1227
 4980SOL     OW26398   4.222   1.039   1.709  0.1957 -0.3366  0.1866
 4980SOL    HW126399   4.254   1.081   1.629 -0.3175  0.5082  0.4238
 4980SOL    HW226400   4.145   0.987   1.685 -0.3682  0.9337 -0.7349
 4981SOL     OW26401   2.703   4.585   9.806  0.1701  0.4707 -0.4254
 4981SOL    HW126402   2.692   4.677   9.831  0.8166 -0.0732  1.8912
 4981SOL    HW226403   2.616   4.549   9.788 -0.3127  1.3708  0.0804
 4982SOL     OW26404   2.067   3.534   0.065 -0.1144 -0.0632  0.5203
 4982SOL    HW126405   2.049   3.440   0.068 -0.2896  0.0462  3.1273
 4982SOL    HW226406   1.980   3.572   0.079  0.0124 -0.1946  1.7198
 4983SOL     OW26407   2.842   4.588   1.400  0.1094 -0.0457  0.2787
 4983SOL    HW126408   2.924   4.563   1.357 -0.5002 -0.9907 -0.3184
 4983SOL    HW226409   2.860   4.593   1.494  0.2134  0.2076  0.2478
 4984SOL     OW26410   1.059   2.937   1.471 -0.5070 -0.2943 -0.1410
 4984SOL    HW126411   1.081   2.862   1.417  0.0913 -1.7070  2.0718
 4984SOL    HW226412   1.101   2.913   1.553  0.6153 -1.0497 -0.9413
 4985SOL     OW26413   3.353   4.506   2.755  0.0361  0.2756  0.0514
 4985SOL    HW126414   3.413   4.580   2.741 -0.9935  0.8075 -1.4534
 4985SOL    HW226415   3.271   4.537   2.717 -0.3758  1.7657  2.1256
 4986SOL     OW26416   0.474   4.375   6.189  0.0038  0.1849 -0.1508
 4986SOL    HW126417   0.465   4.444   6.255 -0.8378 -0.9223  0.8701
 4986SOL    HW226418   0.406   4.391   6.124  0.2434  0.6590 -0.2910
 4987SOL     OW26419   0.769   0.378   5.591  0.5228  0.1416  0.2656
 4987SOL    HW126420   0.791   0.339   5.507 -1.8949 -1.5342  0.4161
 4987SOL    HW226421   0.775   0.471   5.569  0.5827  0.1026  0.1163
 4988SOL     OW26422   1.310   1.576   7.576  0.3450 -0.0999  0.2743
 4988SOL    HW126423   1.345   1.532   7.654  1.0737 -0.9596 -0.5370
 4988SOL    HW226424   1.218   1.564   7.597  0.1455 -2.2655 -1.7695
 4989SOL     OW26425   3.820   0.224   2.954 -0.3563  0.4784  0.0908
 4989SOL    HW126426   3.851   0.244   3.043  1.0195  3.2858 -1.0233
 4989SOL    HW226427   3.772   0.142   2.966 -2.0750  1.7250  1.8047
 4990SOL     OW26428   2.170   3.740   9.366 -0.7108  0.0624 -0.1144
 4990SOL    HW126429   2.116   3.818   9.375 -0.4103  0.5959 -2.8478
 4990SOL    HW226430   2.217   3.760   9.285 -1.4025  1.6650 -0.1136
 4991SOL     OW26431   4.670   4.477   1.641 -0.0563  0.1110 -0.3600
 4991SOL    HW126432   4.586   4.498   1.600 -0.8134 -0.9788  0.6638
 4991SOL    HW226433   0.014   4.512   1.583  0.5706 -1.0324 -0.3214
 4992SOL     OW26434   1.667   0.289   8.020  0.5582 -0.9050 -0.6792
 4992SOL    HW126435   1.656   0.377   8.057 -0.9617 -1.7069  0.7713
 4992SOL    HW226436   1.695   0.228   8.088  1.0960 -0.1074 -0.1800
 4993SOL     OW26437   4.065   2.488   1.403 -0.0783  0.4065  0.6951
 4993SOL    HW126438   3.992   2.549   1.408 -0.5824 -0.0250 -1.6735
 4993SOL    HW226439   4.045   2.459   1.314  2.7460  0.5922  0.0158
 4994SOL     OW26440   4.263   0.141   3.759 -0.1840  0.2220  0.0509
 4994SOL    HW126441   4.315   0.206   3.807  2.3446 -3.1166  1.7944
 4994SOL    HW226442   4.181   0.150   3.806 -0.7283  0.7774 -1.0070
 4995SOL     OW26443   1.127   4.216   7.877 -0.1416  0.0867  0.0105
 4995SOL    HW126444   1.069   4.269   7.932 -1.5261 -0.2984 -1.0761
 4995SOL    HW226445   1.072   4.203   7.800 -0.5868 -3.2404  0.8796
 4996SOL     OW26446   1.261   2.292   1.928 -0.1582  0.4820 -0.3871
 4996SOL    HW126447   1.317   2.322   1.857  0.8093  0.6935  0.4646
 4996SOL    HW226448   1.313   2.309   2.007  2.6040 -2.3740 -1.6341
 4997SOL     OW26449   0.255   3.990  13.879  0.2623  0.2354 -0.0268
 4997SOL    HW126450   0.167   4.027  13.876  0.4089  0.5634 -0.3142
 4997SOL    HW226451   0.294   4.077  13.890  2.0245 -0.6617  0.8201
 4998SOL     OW26452   4.263   2.896   8.750 -0.1028 -0.6692  0.4706
 4998SOL    HW126453   4.173   2.868   8.731 -0.6555  2.4551 -1.5941
 4998SOL    HW226454   4.305   2.870   8.668  0.5564  1.5562  0.0940
 4999SOL     OW26455   3.270   2.747   1.462 -0.2974  0.4186 -0.1245
 4999SOL    HW126456   3.232   2.659   1.454 -0.5663  0.2270  3.0398
 4999SOL    HW226457   3.211   2.782   1.528 -0.2972  1.4772 -0.6949
 5000SOL     OW26458   3.427   2.319   0.135 -0.2689  0.5207 -0.3973
 5000SOL    HW126459   3.520   2.336   0.122  0.1156 -0.3362  1.1762
 5000SOL    HW226460   3.401   2.272   0.055  0.9094 -1.2409  0.2458
 5001SOL     OW26461   0.538   0.938   7.155  0.2972  0.1733  0.0394
 5001SOL    HW126462   0.627   0.945   7.118  0.0700 -1.3191 -0.8152
 5001SOL    HW226463   0.483   0.911   7.081 -0.5549  3.8048 -0.6500
 5002SOL     OW26464   3.585   4.265   7.386 -0.4454 -0.1196  0.4377
 5002SOL    HW126465   3.641   4.189   7.404 -0.1832 -0.0753 -0.2018
 5002SOL    HW226466   3.524   4.224   7.326 -0.0349  1.7240 -1.2260
 5003SOL     OW26467   0.910   0.397   7.860 -0.1497  0.3274  0.0798
 5003SOL    HW126468   0.852   0.373   7.933 -1.8175  3.2532 -0.3008
 5003SOL    HW226469   0.918   0.326   7.796 -1.9457  1.2539 -1.1451
 5004SOL     OW26470   0.727   2.044  14.291  0.1558 -0.5235 -0.5399
 5004SOL    HW126471   0.675   2.119  14.261  1.1201  1.0654  1.7376
 5004SOL    HW226472   0.809   2.055  14.244  1.6307  3.0232  2.8307
 5005SOL     OW26473   2.890   4.026   5.593  0.2261  0.7088 -0.1730
 5005SOL    HW126474   2.827   4.028   5.521  0.5075 -0.0217 -0.4436
 5005SOL    HW226475   2.969   3.984   5.559 -0.9332 -0.1288 -1.8134
 5006SOL     OW26476   3.185   2.864   5.217 -0.0740  0.7484 -0.0838
 5006SOL    HW126477   3.182   2.782   5.267  1.5187  2.6168  3.1009
 5006SOL    HW226478   3.103   2.907   5.242  0.9208  1.1199  2.5201
 5007SOL     OW26479   0.216   1.963  14.450 -0.0849  0.3163 -0.1445
 5007SOL    HW126480   0.167   2.023  14.507 -1.4318 -0.6871 -0.2613
 5007SOL    HW226481   0.308   1.990  14.460  0.0259  0.0410 -0.4476
 5008SOL     OW26482   3.796   4.588  10.061 -0.4531  0.2736  0.1223
 5008SOL    HW126483   3.763   4.509  10.105 -0.5300  2.4141  3.9173
 5008SOL    HW226484   3.709   4.610  10.028 -0.7120 -1.7328 -0.5597
 5009SOL     OW26485   0.303   1.671   2.123  0.1555  0.2836 -0.1302
 5009SOL    HW126486   0.223   1.621   2.109  0.0495  1.2844 -2.9097
 5009SOL    HW226487   0.325   1.695   2.033  1.0909 -1.0414 -0.2518
 5010SOL     OW26488   3.327   1.053   4.064 -0.3064  0.2003 -0.1837
 5010SOL    HW126489   3.294   0.969   4.033  0.2402  0.7322 -2.2650
 5010SOL    HW226490   3.420   1.056   4.040 -0.3514  1.3387 -0.2221
 5011SOL     OW26491   4.390   1.762   8.581 -1.2134  0.5061  0.0835
 5011SOL    HW126492   4.326   1.750   8.511 -1.3841  1.3015  0.0944
 5011SOL    HW226493   4.348   1.829   8.636  0.7647  1.7417  0.0876
 5012SOL     OW26494   2.949   4.667   8.030 -0.2558  0.5620  0.1448
 5012SOL    HW126495   2.986   0.025   8.061  0.8455  0.7666 -1.7075
 5012SOL    HW226496   2.893   4.648   8.105  0.9626  2.7712  1.6073
 5013SOL     OW26497   2.723   1.050   3.943 -0.9604 -0.0867 -0.1205
 5013SOL    HW126498   2.724   0.973   3.887 -0.7448  0.8475 -1.4018
 5013SOL    HW226499   2.653   1.018   4.000 -1.7315  0.7726 -0.5805
 5014SOL     OW26500   4.229   1.092   0.765 -0.1636  0.0242  0.0711
 5014SOL    HW126501   4.165   1.066   0.699 -0.4627 -0.7293  0.6490
 5014SOL    HW226502   4.287   1.018   0.785 -0.6513  0.4482  3.1293
 5015SOL     OW26503   2.917   4.695   4.739 -0.0508  0.0352 -0.0181
 5015SOL    HW126504   2.949   0.002   4.824 -1.3890  1.0151  0.1211
 5015SOL    HW226505   2.977   0.016   4.679  0.4398 -0.2197  0.2852
 5016SOL     OW26506   2.390   3.011  14.483  0.0913 -0.5139 -0.6005
 5016SOL    HW126507   2.423   3.079  14.423  2.7129  1.4187  3.0638
 5016SOL    HW226508   2.315   2.987  14.428 -0.9658 -0.5741  0.8484
 5017SOL     OW26509   1.226   0.627   3.784  0.3265 -0.0009  0.2408
 5017SOL    HW126510   1.188   0.698   3.732 -2.2834  0.7105  3.1380
 5017SOL    HW226511   1.269   0.681   3.850 -2.1972  1.3417  0.7758
 5018SOL     OW26512   2.246   1.293   8.289  0.1116 -0.0118 -0.0770
 5018SOL    HW126513   2.210   1.310   8.376 -0.1234  1.5922 -0.4812
 5018SOL    HW226514   2.341   1.295   8.306 -0.3229 -0.7666  2.4539
 5019SOL     OW26515   1.295   3.467   4.560  0.5875 -0.2460 -0.8076
 5019SOL    HW126516   1.346   3.414   4.621  0.3716  0.3788 -0.0828
 5019SOL    HW226517   1.294   3.418   4.478 -2.9425  0.5859 -1.2782
 5020SOL     OW26518   1.067   2.090   7.884  0.3284 -0.1914 -0.2637
 5020SOL    HW126519   1.004   2.067   7.816  0.5578  1.0140 -0.9011
 5020SOL    HW226520   1.047   2.018   7.944  0.8490  0.3807  0.6014
 5021SOL     OW26521   3.387   3.529   8.412 -0.3957  0.5793  0.2585
 5021SOL    HW126522   3.405   3.486   8.496 -0.6224  0.7058  0.3703
 5021SOL    HW226523   3.293   3.513   8.410 -0.5678  1.6747  0.0011
 5022SOL     OW26524   2.419   4.170  15.580 -0.1059 -0.2516 -0.3954
 5022SOL    HW126525   2.411   4.188  15.487 -1.7850  0.5867 -0.0979
 5022SOL    HW226526   2.473   4.091  15.573 -0.7416 -0.4604 -2.9674
 5023SOL     OW26527   0.264   3.308   2.549  0.1464 -0.0262 -0.2486
 5023SOL    HW126528   0.338   3.283   2.494  1.9580  2.3435  1.0697
 5023SOL    HW226529   0.194   3.246   2.529  0.8586 -0.8558 -0.1612
 5024SOL     OW26530   2.265   0.492   4.814 -0.2814  0.2756 -0.2631
 5024SOL    HW126531   2.315   0.554   4.868 -0.2542 -0.0534  0.0938
 5024SOL    HW226532   2.302   0.501   4.726 -2.3794 -0.1391 -1.1707
 5025SOL     OW26533   4.388   1.544   6.848  0.5828 -0.1045  0.0051
 5025SOL    HW126534   4.301   1.545   6.887 -0.2196 -1.7261 -1.7053
 5025SOL    HW226535   4.434   1.503   6.921 -0.5780 -1.1757  0.1452
 5026SOL     OW26536   0.053   0.845   9.505 -0.2151 -0.0963 -0.3025
 5026SOL    HW126537   4.697   0.853   9.557  0.9457  2.7176  1.0760
 5026SOL    HW226538   0.038   0.900   9.428  0.3650  1.9422  1.0488
 5027SOL     OW26539   0.276   3.159   6.869  0.1004  0.3139 -0.4087
 5027SOL    HW126540   0.189   3.139   6.835 -0.8404  2.4077  0.8294
 5027SOL    HW226541   0.260   3.208   6.949  0.2086 -0.3838  0.0466
 5028SOL     OW26542   3.672   0.124  13.942 -0.2078 -0.0320  0.2476
 5028SOL    HW126543   3.671   0.064  13.867  0.4711 -0.1430  0.3316
 5028SOL    HW226544   3.629   0.193  13.891 -0.9806 -0.3389  0.4798
 5029SOL     OW26545   3.346   3.327   8.195 -0.0235  0.0015  0.7047
 5029SOL    HW126546   3.410   3.394   8.217 -2.2091  1.8199  1.4689
 5029SOL    HW226547   3.276   3.375   8.149  0.4512 -0.8104 -0.8583
 5030SOL     OW26548   1.753   1.830   3.650 -0.8006  0.1382 -0.0463
 5030SOL    HW126549   1.708   1.802   3.570 -1.0121 -0.6732  0.3568
 5030SOL    HW226550   1.690   1.799   3.715 -1.4648 -0.1371 -0.8254
 5031SOL     OW26551   1.913   0.674   5.016  0.9537  0.0007  0.4860
 5031SOL    HW126552   1.983   0.615   5.044  0.7819  0.7188  2.4243
 5031SOL    HW226553   1.918   0.751   5.072 -1.9198  2.2756 -2.3637
 5032SOL     OW26554   1.606   4.309   3.450  0.2239 -0.2597  0.0103
 5032SOL    HW126555   1.612   4.340   3.541 -1.0479  2.0256 -0.6698
 5032SOL    HW226556   1.617   4.395   3.410 -1.5566 -0.2628 -0.4836
 5033SOL     OW26557   0.748   4.022  14.702  0.2401 -0.6830 -0.6143
 5033SOL    HW126558   0.808   3.948  14.699 -2.5742 -3.0612  1.6912
 5033SOL    HW226559   0.758   4.062  14.615 -2.7945  0.7176 -0.3378
 5034SOL     OW26560   2.592   1.146   9.366 -0.0155  0.3826  0.1545
 5034SOL    HW126561   2.632   1.159   9.280  3.2929 -0.7418  1.5405
 5034SOL    HW226562   2.593   1.050   9.368 -1.4432  0.3632  0.3077
 5035SOL     OW26563   0.416   2.974   0.010  0.1314  0.2309  0.6555
 5035SOL    HW126564   0.489   2.988   0.070  2.0256 -1.6624 -1.2079
 5035SOL    HW226565   0.421   2.881  17.686  0.6672  0.3335  0.3526
 5036SOL     OW26566   3.545   2.152  13.622  0.5025 -0.8823 -0.3414
 5036SOL    HW126567   3.574   2.243  13.630  1.3193 -1.1963  0.2354
 5036SOL    HW226568   3.507   2.148  13.534  0.0444  0.2746 -0.1979
 5037SOL     OW26569   1.875   4.312   3.963  0.1174 -0.3556 -0.2799
 5037SOL    HW126570   1.792   4.264   3.961  0.0973 -0.3531  0.6013
 5037SOL    HW226571   1.912   4.281   4.045  0.9909 -2.0396 -1.2996
 5038SOL     OW26572   4.131   3.867  13.112 -0.1033 -0.1988 -0.0106
 5038SOL    HW126573   4.039   3.882  13.091 -0.3558 -1.6261  0.0424
 5038SOL    HW226574   4.167   3.951  13.083 -0.7082 -0.2426 -0.8741
 5039SOL     OW26575   0.805   3.224   4.069  0.2591 -0.3243 -0.5694
 5039SOL    HW126576   0.867   3.283   4.027 -0.0673 -0.5942 -1.4380
 5039SOL    HW226577   0.764   3.285   4.130 -0.0733 -0.4031 -0.7123
 5040SOL     OW26578   0.616   4.589   0.220 -0.5975 -0.0323  0.4452
 5040SOL    HW126579   0.552   4.659   0.207 -0.5491 -0.2293 -0.8204
 5040SOL    HW226580   0.697   4.629   0.188  0.9708 -3.7313 -0.2815
 5041SOL     OW26581   0.729   3.565   0.823  0.1546 -0.0113 -0.4994
 5041SOL    HW126582   0.704   3.527   0.739 -2.9692 -1.5571  1.1626
 5041SOL    HW226583   0.780   3.495   0.863 -1.0962 -1.7482 -1.9282
 5042SOL     OW26584   1.799   4.154   4.673 -0.6237 -0.5744  0.2233
 5042SOL    HW126585   1.886   4.185   4.697 -0.5388 -0.5786 -0.0835
 5042SOL    HW226586   1.804   4.102   4.593  0.8577 -0.8051  0.4782
 5043SOL     OW26587   0.789   3.242   5.409 -0.1794 -0.0353 -0.0865
 5043SOL    HW126588   0.703   3.209   5.384 -1.0122  1.9391  0.1801
 5043SOL    HW226589   0.851   3.220   5.339  1.1931 -0.5474  1.2819
 5044SOL     OW26590   3.458   1.456   4.966  0.0723 -0.5996 -0.1202
 5044SOL    HW126591   3.481   1.406   5.045 -1.8745  2.5309  2.4198
 5044SOL    HW226592   3.381   1.496   5.006 -0.5844 -0.9779 -0.9990
 5045SOL     OW26593   4.402   0.662   1.220  0.2097  1.1819  0.0587
 5045SOL    HW126594   4.372   0.572   1.212  0.2209  1.1454  0.4276
 5045SOL    HW226595   4.459   0.670   1.144 -1.1380 -0.5015 -1.1306
 5046SOL     OW26596   3.463   1.376   3.352  0.6154 -0.0294  0.1136
 5046SOL    HW126597   3.431   1.461   3.380  1.3026 -0.2349  1.5051
 5046SOL    HW226598   3.558   1.390   3.350  0.4181  1.2737 -0.1873
 5047SOL     OW26599   3.237   4.122  13.077 -0.1339  0.0203  0.1291
 5047SOL    HW126600   3.215   4.030  13.063  0.6809  0.0596 -1.3811
 5047SOL    HW226601   3.321   4.106  13.119 -1.3022  0.1033  2.4966
 5048SOL     OW26602   2.257   4.128   0.362 -0.2856  0.8673  0.5505
 5048SOL    HW126603   2.164   4.109   0.348 -0.0476  0.2014 -0.1800
 5048SOL    HW226604   2.289   4.078   0.286 -2.5306  2.0618 -1.1999
 5049SOL     OW26605   1.439   1.106  13.666 -0.3043 -0.1334  0.4988
 5049SOL    HW126606   1.351   1.126  13.632 -0.2583 -2.4459 -0.9994
 5049SOL    HW226607   1.451   1.029  13.610  0.0923  0.9699 -0.9190
 5050SOL     OW26608   4.721   2.959  11.482 -0.2859  0.0705  0.3383
 5050SOL    HW126609   0.025   3.050  11.472 -0.3593 -0.1087 -1.3523
 5050SOL    HW226610   4.676   2.952  11.398  0.2810 -2.1600  0.2178
 5051SOL     OW26611   3.386   3.546   7.494 -0.3544  0.4785 -0.3508
 5051SOL    HW126612   3.312   3.490   7.520 -0.2167  0.4171 -0.0899
 5051SOL    HW226613   3.430   3.489   7.431  0.7028 -0.0607  0.8713
 5052SOL     OW26614   0.322   0.615  14.440  0.4124  0.0544 -0.5674
 5052SOL    HW126615   0.344   0.607  14.533 -0.9045 -0.1073 -0.2742
 5052SOL    HW226616   0.351   0.706  14.429  0.5585 -0.2198 -2.3327
 5053SOL     OW26617   1.110   0.498   0.222  0.2910  0.3736 -0.1299
 5053SOL    HW126618   1.078   0.423   0.171 -0.6453  0.8950 -0.3068
 5053SOL    HW226619   1.066   0.572   0.181 -0.0953 -0.3120 -0.9604
 5054SOL     OW26620   1.710   0.789   1.318  0.2595  0.2071 -0.1065
 5054SOL    HW126621   1.804   0.808   1.323  0.1573  0.3915  1.2351
 5054SOL    HW226622   1.673   0.876   1.337 -0.6458 -0.2114  0.0636
 5055SOL     OW26623   3.426   4.119  13.419 -0.3209 -0.3299 -0.6086
 5055SOL    HW126624   3.366   4.064  13.468  0.3357 -0.3438  0.1719
 5055SOL    HW226625   3.403   4.204  13.457 -0.6122 -0.4289 -0.5719
 5056SOL     OW26626   3.556   2.038   2.960  0.5020  0.5754  1.0925
 5056SOL    HW126627   3.533   2.124   2.926 -1.3504 -1.0725 -1.8640
 5056SOL    HW226628   3.551   1.997   2.874 -0.6498  1.2486  0.8399
 5057SOL     OW26629   2.613   0.034   3.337  0.4195  0.4712 -0.8910
 5057SOL    HW126630   2.530   0.011   3.380  1.4722 -1.0070  0.3434
 5057SOL    HW226631   2.606   0.007   3.246  0.4431 -1.0948 -0.4332
 5058SOL     OW26632   4.428   0.959   3.613  0.1168 -0.1239  0.1337
 5058SOL    HW126633   4.442   1.036   3.669  0.7351  0.3371 -0.6400
 5058SOL    HW226634   4.478   0.897   3.666  2.1116  0.8671 -0.5846
 5059SOL     OW26635   2.927   0.974   2.200 -0.2712 -0.5729  0.7757
 5059SOL    HW126636   2.950   1.059   2.237 -0.3501 -0.2755  0.1402
 5059SOL    HW226637   3.004   0.950   2.148 -0.7364 -0.0141 -0.1682
 5060SOL     OW26638   2.110   4.207   7.299  0.3914  0.6113  0.4301
 5060SOL    HW126639   2.191   4.175   7.339  0.6511  1.2627  0.4209
 5060SOL    HW226640   2.139   4.292   7.266 -0.1494  1.1000  1.2342
 5061SOL     OW26641   3.678   4.101   2.802 -0.4139 -0.1840 -0.7101
 5061SOL    HW126642   3.636   4.145   2.728  1.5101  2.2108 -0.3549
 5061SOL    HW226643   3.756   4.062   2.763  0.6396  0.3442  0.8873
 5062SOL     OW26644   0.078   3.940  13.634  0.5494  0.1295  0.4294
 5062SOL    HW126645   0.037   3.994  13.702 -3.3901  0.8599 -2.5654
 5062SOL    HW226646   0.162   3.985  13.623  0.9536 -0.5154  0.8301
 5063SOL     OW26647   2.650   4.658   3.073  0.0824  0.1610 -0.0427
 5063SOL    HW126648   2.729   4.611   3.103  1.4024  1.8836 -0.8719
 5063SOL    HW226649   2.692   0.008   3.030 -0.2658 -0.1535 -0.9190
 5064SOL     OW26650   4.693   2.128   7.737  0.2055  0.1583  0.6826
 5064SOL    HW126651   4.689   2.180   7.818  0.4162  0.4422  0.5119
 5064SOL    HW226652   0.054   2.088   7.751 -0.3714 -1.0671  0.6540
 5065SOL     OW26653   4.464   0.844   5.540  0.0396 -0.6005 -0.6316
 5065SOL    HW126654   4.495   0.927   5.577 -1.0333 -0.3570 -0.2813
 5065SOL    HW226655   4.412   0.880   5.468  1.1890  2.2144 -0.0775
 5066SOL     OW26656   3.559   3.660   7.702  0.3968 -0.3973  0.6949
 5066SOL    HW126657   3.512   3.629   7.625 -0.4841 -1.4074  1.6431
 5066SOL    HW226658   3.529   3.599   7.769 -0.6523  0.8605  1.3626
 5067SOL     OW26659   0.981   3.384   1.638  0.4568  0.3039  0.1842
 5067SOL    HW126660   0.956   3.321   1.570 -1.2383 -0.1490  1.2118
 5067SOL    HW226661   0.903   3.439   1.644 -0.0591 -0.1450 -2.6321
 5068SOL     OW26662   2.186   4.472   7.205  0.2111  0.1350  0.3134
 5068SOL    HW126663   2.139   4.550   7.234  0.6086  0.7717 -0.7781
 5068SOL    HW226664   2.143   4.471   7.120 -1.4937 -0.7910  1.1826
 5069SOL     OW26665   2.495   2.048   5.184  1.0461  0.1732 -0.2849
 5069SOL    HW126666   2.428   2.030   5.251  1.2995  3.5471  0.8430
 5069SOL    HW226667   2.511   1.957   5.159  1.2151 -0.0064  0.4557
 5070SOL     OW26668   0.719   2.015   8.102  0.1450 -0.5610  0.0988
 5070SOL    HW126669   0.648   1.957   8.075  1.5420 -1.3147 -1.9488
 5070SOL    HW226670   0.700   2.044   8.191  0.5731  2.2507 -0.7125
 5071SOL     OW26671   3.419   4.191   5.731 -0.3370 -0.2700  0.3410
 5071SOL    HW126672   3.402   4.120   5.669  0.7750  0.3013 -0.6250
 5071SOL    HW226673   3.414   4.263   5.669  1.1793  2.3818  3.3498
 5072SOL     OW26674   0.787   4.462   6.335 -0.1206  0.3087 -0.2654
 5072SOL    HW126675   0.724   4.398   6.369  0.6899 -0.1413  0.3994
 5072SOL    HW226676   0.755   4.470   6.245 -0.3396 -0.5446 -0.2609
 5073SOL     OW26677   1.717   4.164  15.974 -0.4049 -0.6027  0.3273
 5073SOL    HW126678   1.773   4.177  16.051  0.4407 -1.9595 -0.0481
 5073SOL    HW226679   1.647   4.225  15.996 -0.7155  0.0998 -2.5567
 5074SOL     OW26680   0.497   4.511   3.504  0.2507  0.5188 -0.0688
 5074SOL    HW126681   0.476   4.418   3.502 -0.7790  0.7183  1.2494
 5074SOL    HW226682   0.485   4.536   3.412  0.0551 -2.0095 -0.7167
 5075SOL     OW26683   3.614   3.027   4.601 -0.8042  0.5274 -0.0343
 5075SOL    HW126684   3.581   2.993   4.683 -1.4922 -1.2200 -1.0484
 5075SOL    HW226685   3.705   3.041   4.627 -0.3038 -2.0840 -0.4410
 5076SOL     OW26686   2.217   0.198   7.394  0.5468  0.1721  0.1768
 5076SOL    HW126687   2.208   0.265   7.325 -0.7601 -0.3997 -0.2099
 5076SOL    HW226688   2.311   0.200   7.410  0.0374  3.1611  2.6719
 5077SOL     OW26689   4.405   1.870   7.657 -0.3178  0.2093  0.5756
 5077SOL    HW126690   4.482   1.819   7.680 -0.1680  0.5465  0.8301
 5077SOL    HW226691   4.387   1.905   7.744 -1.1504 -0.5528  0.7009
 5078SOL     OW26692   3.031   2.025   3.885 -0.6531  1.0820  0.0572
 5078SOL    HW126693   2.962   2.013   3.820 -2.9107  0.1577  2.6346
 5078SOL    HW226694   3.094   2.029   3.813  2.5325 -0.9762  2.7078
 5079SOL     OW26695   1.072   3.085   4.707  0.0452 -0.1019  0.5076
 5079SOL    HW126696   0.977   3.071   4.702  0.0213  0.7636 -1.5386
 5079SOL    HW226697   1.116   3.027   4.645 -1.3477 -2.1771  1.4831
 5080SOL     OW26698   3.724   0.925  17.135 -0.3623 -0.0827  0.0484
 5080SOL    HW126699   3.714   0.879  17.052 -0.1160  0.4980 -0.3086
 5080SOL    HW226700   3.654   0.987  17.111  0.9373  1.3695 -0.0184
 5081SOL     OW26701   1.921   0.060  10.401 -0.0549 -0.3846 -0.1892
 5081SOL    HW126702   1.936   0.009  10.481 -0.5280 -1.1409 -0.5875
 5081SOL    HW226703   2.012   0.069  10.372 -0.3857 -2.0616 -1.7146
 5082SOL     OW26704   0.188   4.093   8.168 -0.4233 -0.1377  0.2885
 5082SOL    HW126705   0.237   4.011   8.175 -0.2866 -0.1711 -1.0205
 5082SOL    HW226706   0.145   4.062   8.088  2.6993  2.1603 -2.2960
 5083SOL     OW26707   4.666   3.147   7.778 -0.1749  0.6600 -0.0643
 5083SOL    HW126708   4.653   3.183   7.865 -0.1792  0.8683 -0.1504
 5083SOL    HW226709   0.001   3.215   7.746 -0.0872  0.7718  0.3420
 5084SOL     OW26710   0.805   2.604   9.990  0.2205  0.2076  0.0056
 5084SOL    HW126711   0.878   2.611  10.051  1.6985 -0.6143 -1.6919
 5084SOL    HW226712   0.831   2.684   9.944  0.4984 -0.0357 -0.2540
 5085SOL     OW26713   0.353   2.256   4.170  0.8043 -0.2922  0.0220
 5085SOL    HW126714   0.275   2.252   4.226 -0.4915  2.3650 -1.5764
 5085SOL    HW226715   0.333   2.314   4.098 -0.9099 -0.9727 -0.0638
 5086SOL     OW26716   4.401   0.873   0.854 -0.0352 -0.6883 -0.3740
 5086SOL    HW126717   4.431   0.881   0.944  1.0603  1.5016 -0.9318
 5086SOL    HW226718   4.484   0.862   0.808  0.4536  0.1278  0.3126
 5087SOL     OW26719   3.560   2.450  17.527 -0.6513 -0.1386  0.2264
 5087SOL    HW126720   3.633   2.452  17.588  1.0381  1.3574 -1.8592
 5087SOL    HW226721   3.530   2.539  17.543 -1.2996 -0.4539  0.7488
 5088SOL     OW26722   1.356   1.300   7.229  0.8007  0.1595 -0.4380
 5088SOL    HW126723   1.377   1.217   7.272 -0.6204 -0.5739 -1.1785
 5088SOL    HW226724   1.296   1.267   7.163  0.3485 -1.2652  0.6930
 5089SOL     OW26725   0.992   1.045   6.760  0.4309 -0.0433 -0.3599
 5089SOL    HW126726   0.989   0.958   6.801  3.0178 -1.3847 -2.9830
 5089SOL    HW226727   0.944   1.101   6.821 -0.8809  0.8775 -2.2658
 5090SOL     OW26728   4.211   0.958   7.375 -0.3023  0.3880  0.8472
 5090SOL    HW126729   4.301   0.982   7.399 -0.2319  0.0717  0.8970
 5090SOL    HW226730   4.210   0.865   7.395  0.1572  0.6933  2.2709
 5091SOL     OW26731   1.999   4.648   2.890 -0.3918 -0.1601 -0.4647
 5091SOL    HW126732   2.046   4.672   2.810  1.9590  1.7388  1.4953
 5091SOL    HW226733   2.020   0.002   2.940 -1.4950 -0.1346 -0.0417
 5092SOL     OW26734   2.746   3.131   1.796  0.3053  0.3608 -0.4024
 5092SOL    HW126735   2.773   3.172   1.714  0.8057 -0.4064 -0.6158
 5092SOL    HW226736   2.799   3.052   1.803  1.0542  0.7663 -1.5771
 5093SOL     OW26737   2.818   4.370   5.907  0.5575 -0.8683  0.1539
 5093SOL    HW126738   2.734   4.372   5.862  0.9695  0.1627 -0.5664
 5093SOL    HW226739   2.834   4.276   5.901 -0.0903 -0.9913  0.4054
 5094SOL     OW26740   2.996   1.410   0.578  0.2937 -0.1713 -0.0869
 5094SOL    HW126741   2.983   1.316   0.593 -1.9190 -0.0056 -1.0092
 5094SOL    HW226742   2.985   1.457   0.661 -1.4232 -2.7404  1.1654
 5095SOL     OW26743   1.862   4.658   9.189  0.5258  0.3570  0.5507
 5095SOL    HW126744   1.919   4.591   9.226 -1.0904 -0.2007  2.0680
 5095SOL    HW226745   1.933   4.722   9.193  1.9273 -1.1166 -0.7168
 5096SOL     OW26746   1.770   2.112   2.438 -0.4523  0.1291 -0.2717
 5096SOL    HW126747   1.715   2.177   2.394 -0.4420  0.7296  0.6064
 5096SOL    HW226748   1.827   2.166   2.491  1.6878  0.2824 -2.7382
 5097SOL     OW26749   1.256   4.215  13.026 -0.2549 -0.2808 -0.2447
 5097SOL    HW126750   1.327   4.280  13.026 -2.5126  2.1697  0.3195
 5097SOL    HW226751   1.194   4.260  13.084  0.1981  0.1069 -0.0560
 5098SOL     OW26752   3.616   3.512  12.993  0.1332  0.1951  0.0853
 5098SOL    HW126753   3.533   3.533  13.036  0.0278  1.8064 -0.8950
 5098SOL    HW226754   3.593   3.420  12.975  2.9064 -0.6174  0.7001
 5099SOL     OW26755   4.481   1.884  11.164 -0.2397 -0.8619 -0.2916
 5099SOL    HW126756   4.545   1.937  11.117  0.9366  0.3320  2.7404
 5099SOL    HW226757   4.411   1.948  11.173  0.4042 -0.4527  1.8090
 5100SOL     OW26758   1.685   0.406   3.325  0.8997 -0.1252 -0.6139
 5100SOL    HW126759   1.759   0.350   3.302  2.3038  1.5101 -0.1015
 5100SOL    HW226760   1.662   0.369   3.410  0.7447  2.6196  0.5472
 5101SOL     OW26761   0.083   0.890   2.052  0.1628 -0.0058 -0.4194
 5101SOL    HW126762   0.089   0.799   2.020 -0.4610  0.2519 -1.2574
 5101SOL    HW226763   0.080   0.938   1.969  0.0255  0.6290 -0.0438
 5102SOL     OW26764   1.358   4.516   5.815  0.2248 -0.0478  0.5341
 5102SOL    HW126765   1.301   4.586   5.783 -0.4434 -0.5028  0.7401
 5102SOL    HW226766   1.341   4.513   5.909  1.2554 -1.7591  0.6622
 5103SOL     OW26767   3.675   0.570   7.441  0.2522 -0.3397  0.0888
 5103SOL    HW126768   3.742   0.638   7.451  0.0238  0.1204 -1.6172
 5103SOL    HW226769   3.621   0.617   7.378 -0.2358  0.8063  1.3410
 5104SOL     OW26770   1.131   2.937   7.754 -0.0550  0.5478  0.2818
 5104SOL    HW126771   1.110   2.877   7.825 -0.6358 -0.8593 -1.0733
 5104SOL    HW226772   1.179   3.007   7.799 -0.3757  1.8194 -1.3007
 5105SOL     OW26773   3.181   1.079   5.519  0.7132  0.2869  0.0210
 5105SOL    HW126774   3.221   1.092   5.433  0.7070 -1.3557 -0.2223
 5105SOL    HW226775   3.248   1.115   5.578 -0.0671  1.8595 -0.0423
 5106SOL     OW26776   3.957   3.300  16.996  0.1912 -0.8017  0.2332
 5106SOL    HW126777   3.931   3.208  16.993  1.2691 -1.1116  0.3387
 5106SOL    HW226778   3.967   3.316  17.090  0.0954 -1.6826  0.3892
 5107SOL     OW26779   3.792   4.168   8.472  0.5914 -0.6053 -0.7759
 5107SOL    HW126780   3.759   4.198   8.557  2.9971  1.0109 -0.4069
 5107SOL    HW226781   3.721   4.175   8.409 -0.4195  1.2066  0.5635
 5108SOL     OW26782   4.623   0.399  10.207 -0.5436  0.3225  0.3097
 5108SOL    HW126783   4.600   0.408  10.114  0.8905  1.2481  0.0410
 5108SOL    HW226784   4.710   0.363  10.196 -0.0322  1.9920 -1.1792
 5109SOL     OW26785   4.654   0.900   3.390  0.1051  0.1243 -0.1775
 5109SOL    HW126786   0.022   0.926   3.396  0.0849 -0.2045  1.5731
 5109SOL    HW226787   4.629   0.939   3.306 -0.6931 -1.0609 -0.4974
 5110SOL     OW26788   2.839   2.689   6.875 -0.4120 -0.4149 -0.0804
 5110SOL    HW126789   2.859   2.701   6.968 -2.9413  2.1464  0.1131
 5110SOL    HW226790   2.748   2.718   6.866  0.6352  2.2859 -2.1669
 5111SOL     OW26791   3.217   1.169   6.030 -0.2853  0.0599 -0.6014
 5111SOL    HW126792   3.232   1.090   5.979 -0.9177  0.5915 -1.6001
 5111SOL    HW226793   3.222   1.232   5.958 -0.6375 -1.6561 -2.1048
 5112SOL     OW26794   3.370   4.485   7.564  0.2356  0.0246 -0.2966
 5112SOL    HW126795   3.428   4.543   7.614 -0.8461  0.8479 -0.0033
 5112SOL    HW226796   3.381   4.397   7.599 -0.6115 -0.1149 -0.3828
 5113SOL     OW26797   4.560   0.846   4.729  0.0554 -0.5101  0.3043
 5113SOL    HW126798   4.491   0.779   4.725 -1.3966  0.9814  0.4888
 5113SOL    HW226799   4.645   0.802   4.736 -0.0200 -0.5102  1.1812
 5114SOL     OW26800   0.174   0.321   7.949  0.6697 -0.3802 -0.0381
 5114SOL    HW126801   0.177   0.231   7.980  0.4634  0.2330  1.7639
 5114SOL    HW226802   0.116   0.358   8.015  1.0821  1.2341 -0.5713
 5115SOL     OW26803   2.405   3.731   1.047 -0.2557 -0.5373  0.3023
 5115SOL    HW126804   2.317   3.759   1.022 -0.4601 -1.1015  0.3860
 5115SOL    HW226805   2.401   3.636   1.037 -1.0413 -0.5741  0.8843
 5116SOL     OW26806   0.743   2.956   0.008  0.2091 -0.2357  0.1327
 5116SOL    HW126807   0.788   3.040   0.011  1.3957 -0.9414  2.1047
 5116SOL    HW226808   0.752   2.920  17.619 -0.9770  1.2754 -0.6050
 5117SOL     OW26809   0.699   3.913  10.112 -0.1740 -0.1289 -0.2987
 5117SOL    HW126810   0.788   3.942  10.130 -0.4090  1.6807 -2.0681
 5117SOL    HW226811   0.643   3.930  10.188  0.5783 -0.1505  0.2565
 5118SOL     OW26812   3.157   3.947   4.809 -0.2811  0.0449  0.1769
 5118SOL    HW126813   3.088   3.894   4.768 -0.2741  0.9932 -1.0543
 5118SOL    HW226814   3.216   3.878   4.838 -0.8605 -0.7771 -0.5675
 5119SOL     OW26815   1.959   4.280  13.072 -0.2925  0.2271 -0.0491
 5119SOL    HW126816   1.942   4.364  13.115  2.3235  0.4833  0.4838
 5119SOL    HW226817   1.873   4.238  13.076 -0.5239  0.9131  2.3765
 5120SOL     OW26818   2.768   0.258   9.709 -0.1498  0.4524 -0.2769
 5120SOL    HW126819   2.856   0.220   9.717 -0.9677 -1.1823  0.8851
 5120SOL    HW226820   2.789   0.344   9.671  0.0599  1.2394  1.6030
 5121SOL     OW26821   0.316   1.924   6.383  0.4929  0.0447  0.5798
 5121SOL    HW126822   0.398   1.935   6.431 -0.4909  0.3143  2.1892
 5121SOL    HW226823   0.281   2.012   6.368  1.3494  0.4496  0.9629
 5122SOL     OW26824   3.178   3.239   2.126 -0.0630  0.3969  0.4907
 5122SOL    HW126825   3.144   3.259   2.213 -0.7985 -0.4435  0.3892
 5122SOL    HW226826   3.131   3.162   2.095  1.5216  0.7549 -2.8131
 5123SOL     OW26827   2.508   4.587   6.738  0.4231  0.8480  0.4297
 5123SOL    HW126828   2.537   4.554   6.823 -1.6393 -0.7408  0.5041
 5123SOL    HW226829   2.451   4.661   6.761  0.2156  0.9409 -0.3880
 5124SOL     OW26830   1.609   1.375  17.332  0.0468  0.3069 -0.5639
 5124SOL    HW126831   1.535   1.324  17.302  0.4901 -0.8917  0.3912
 5124SOL    HW226832   1.683   1.363  17.273 -0.0528  0.6909 -0.7688
 5125SOL     OW26833   2.429   3.591   8.950 -0.2719 -0.0519  0.0417
 5125SOL    HW126834   2.404   3.642   8.873 -2.6236  0.1147  0.9109
 5125SOL    HW226835   2.357   3.610   9.010 -0.5585 -2.6154  0.5222
 5126SOL     OW26836   3.326   1.773   7.611  0.4780  0.0219  0.3949
 5126SOL    HW126837   3.290   1.860   7.628 -0.4184 -0.4974  1.1447
 5126SOL    HW226838   3.415   1.778   7.646  0.5033 -2.3114  0.6909
 5127SOL     OW26839   0.422   0.284   7.818  0.5198 -0.2639 -0.2865
 5127SOL    HW126840   0.346   0.293   7.875  0.7934 -1.7400  0.3122
 5127SOL    HW226841   0.393   0.318   7.733  0.1532  0.4704  0.1353
 5128SOL     OW26842   1.626   1.440   3.181  0.3171  0.7104 -0.8286
 5128SOL    HW126843   1.713   1.427   3.142 -0.1484 -1.7621 -0.9833
 5128SOL    HW226844   1.577   1.419   3.102 -0.5727  1.2132 -0.4088
 5129SOL     OW26845   0.800   0.701   6.426  0.7566 -0.5643 -0.2091
 5129SOL    HW126846   0.724   0.734   6.378 -2.0083 -0.4344  4.2551
 5129SOL    HW226847   0.796   0.609   6.399 -1.7404  0.2859 -2.7370
 5130SOL     OW26848   0.633   4.153   0.196 -0.3969 -0.3233  0.2110
 5130SOL    HW126849   0.702   4.205   0.155 -1.1132 -0.2573 -0.9220
 5130SOL    HW226850   0.562   4.145   0.132  0.6106  1.7133 -1.1500
 5131SOL     OW26851   0.889   2.828  16.816 -0.6458  0.5031  0.3585
 5131SOL    HW126852   0.967   2.823  16.760 -0.4467 -0.3475  0.7172
 5131SOL    HW226853   0.921   2.784  16.894 -1.1715  0.6083  0.6336
 5132SOL     OW26854   2.083   4.560   5.677 -0.3782 -0.0426  0.5384
 5132SOL    HW126855   2.042   4.541   5.761  1.6836 -0.0163  1.5653
 5132SOL    HW226856   2.047   4.645   5.653  0.8434 -0.0281 -1.3057
 5133SOL     OW26857   2.292   2.678  11.671 -0.0534  0.3592 -0.4852
 5133SOL    HW126858   2.385   2.690  11.693  0.2530 -2.2136 -0.4044
 5133SOL    HW226859   2.261   2.646  11.755 -2.2673  2.0612 -0.6551
 5134SOL     OW26860   2.241   3.318   8.775  0.2219 -0.9620  0.5037
 5134SOL    HW126861   2.154   3.297   8.740 -0.2792  3.6255 -1.0799
 5134SOL    HW226862   2.234   3.414   8.783 -0.8956 -1.1536  1.9411
 5135SOL     OW26863   3.623   3.987   8.695  0.2652 -0.5295 -0.1780
 5135SOL    HW126864   3.714   3.990   8.665  0.6565  1.1260  1.1993
 5135SOL    HW226865   3.613   4.081   8.688  2.6742 -0.2276  0.4668
 5136SOL     OW26866   3.501   0.223   5.171 -0.0528 -0.1592 -0.1508
 5136SOL    HW126867   3.590   0.257   5.165  0.8967 -2.4071  0.9993
 5136SOL    HW226868   3.482   0.227   5.265  1.1610 -2.7406  0.2163
 5137SOL     OW26869   2.665   0.158   4.893  0.2013 -0.1138 -0.1525
 5137SOL    HW126870   2.636   0.239   4.851 -2.1614 -1.1784 -0.5833
 5137SOL    HW226871   2.657   0.105   4.813  1.0719 -1.3802  0.5926
 5138SOL     OW26872   2.962   2.212   3.446  0.1149  0.0245 -0.2086
 5138SOL    HW126873   2.958   2.166   3.362  2.5990  1.7724 -1.2561
 5138SOL    HW226874   2.871   2.206   3.477  0.5626 -0.0408  1.1286
 5139SOL     OW26875   0.841   1.647   7.101 -0.7794 -0.6533  0.4461
 5139SOL    HW126876   0.768   1.708   7.092  0.1087 -0.1781 -3.5612
 5139SOL    HW226877   0.865   1.633   7.009 -1.9304  0.5521 -0.0380
 5140SOL     OW26878   2.495   0.285  14.252  0.1179 -0.6069  0.2843
 5140SOL    HW126879   2.534   0.239  14.326  2.5238  0.7274 -0.1398
 5140SOL    HW226880   2.418   0.320  14.296 -0.5522 -0.1380 -1.2530
 5141SOL     OW26881   0.807   3.004  12.695  0.0396 -0.0280 -0.2099
 5141SOL    HW126882   0.806   3.096  12.668  1.9128 -0.5156 -1.9458
 5141SOL    HW226883   0.843   3.008  12.783  0.7397 -2.9925 -0.3469
 5142SOL     OW26884   0.275   4.252   8.817  0.4925 -0.0904  0.1039
 5142SOL    HW126885   0.187   4.217   8.824  0.2173  0.1376 -2.3111
 5142SOL    HW226886   0.266   4.316   8.746  1.8082 -1.3480 -1.2030
 5143SOL     OW26887   2.835   0.915   9.049 -0.2717  0.0455 -0.4631
 5143SOL    HW126888   2.818   0.837   9.101 -0.6787  1.1455  1.0346
 5143SOL    HW226889   2.930   0.919   9.064 -0.4940  1.3625  0.5655
 5144SOL     OW26890   3.068   2.463   2.418  0.1973  0.0763  0.4843
 5144SOL    HW126891   2.985   2.463   2.371 -0.1991  0.9792  1.1731
 5144SOL    HW226892   3.036   2.500   2.501 -1.6975 -1.2090  0.3389
 5145SOL     OW26893   2.187   4.275   6.189 -0.0541 -0.4529  0.6684
 5145SOL    HW126894   2.175   4.187   6.151 -1.3132 -0.0775  0.2157
 5145SOL    HW226895   2.281   4.283   6.173  0.0738 -0.5872  1.3759
 5146SOL     OW26896   2.954   0.744   5.220  0.2413 -0.4558 -0.1779
 5146SOL    HW126897   2.939   0.833   5.252  0.8987 -0.1028 -0.8600
 5146SOL    HW226898   2.914   0.690   5.288 -0.1614  0.2600  0.1589
 5147SOL     OW26899   1.421   3.078   5.846 -0.4158 -0.0950 -0.0689
 5147SOL    HW126900   1.346   3.136   5.843  0.4682  0.8568 -3.3299
 5147SOL    HW226901   1.395   3.010   5.908 -1.2466  0.9260  0.6894
 5148SOL     OW26902   0.735   4.297  16.221  0.0341  0.1787 -0.3203
 5148SOL    HW126903   0.654   4.247  16.231 -0.8438  1.5227 -0.7161
 5148SOL    HW226904   0.782   4.251  16.291  0.2489 -0.0523 -0.6144
 5149SOL     OW26905   2.605   3.134   3.027  0.0766  0.1408  0.1682
 5149SOL    HW126906   2.660   3.086   3.089 -1.3187 -1.7275 -0.0373
 5149SOL    HW226907   2.673   3.139   2.959 -1.3547 -3.1826 -1.5126
 5150SOL     OW26908   4.361   2.956   4.979 -0.1582 -0.2193  0.0777
 5150SOL    HW126909   4.333   3.019   4.912 -0.3668 -0.5750 -0.1701
 5150SOL    HW226910   4.278   2.949   5.027 -0.4998  0.2616 -0.4427
 5151SOL     OW26911   3.896   2.962   9.496  0.2658 -0.1294 -0.1094
 5151SOL    HW126912   3.818   2.927   9.539  0.7738  0.1657  1.0568
 5151SOL    HW226913   3.936   2.882   9.461  0.6938 -0.8167  1.9869
 5152SOL     OW26914   3.968   0.276  17.492  0.4198  0.1507 -0.1686
 5152SOL    HW126915   3.961   0.271  17.397 -1.5816  0.6631 -0.0640
 5152SOL    HW226916   3.911   0.205  17.522  0.1752 -0.1460 -1.3565
 5153SOL     OW26917   1.748   0.222   0.276  0.4240 -0.6571 -0.7089
 5153SOL    HW126918   1.800   0.294   0.243  1.9878 -0.6606  1.7499
 5153SOL    HW226919   1.672   0.264   0.316  1.2357  0.3992 -0.2747
 5154SOL     OW26920   1.705   0.494   5.043  0.4306  0.1528 -0.4794
 5154SOL    HW126921   1.667   0.550   5.111  0.9893 -1.1672  0.9279
 5154SOL    HW226922   1.782   0.548   5.026 -0.2437  1.5122  0.7761
 5155SOL     OW26923   4.255   2.293   8.166  0.1786 -0.0103  0.6025
 5155SOL    HW126924   4.216   2.211   8.197 -1.1679 -0.4928 -2.4433
 5155SOL    HW226925   4.256   2.339   8.251 -1.5786 -2.4336  1.9328
 5156SOL     OW26926   4.393   3.786   7.964  0.1730  0.2643 -0.0316
 5156SOL    HW126927   4.410   3.849   8.034  2.5010 -0.3938 -0.0073
 5156SOL    HW226928   4.357   3.845   7.897  0.1875 -0.7982 -0.9826
 5157SOL     OW26929   1.393   1.102   7.916 -0.0050  0.5000  0.7074
 5157SOL    HW126930   1.478   1.110   7.872  0.4565 -0.4679  1.4459
 5157SOL    HW226931   1.418   1.099   8.008  0.2834  1.7912  0.6814
 5158SOL     OW26932   3.448   1.448   3.098  0.1731  0.8170  0.0209
 5158SOL    HW126933   3.452   1.419   3.189 -0.1070 -2.7030 -1.0814
 5158SOL    HW226934   3.375   1.397   3.064  0.6844  0.6227 -0.7715
 5159SOL     OW26935   4.297   1.162   1.484 -0.1784  0.0511  0.3177
 5159SOL    HW126936   4.344   1.240   1.513  1.4205 -0.5518 -0.6899
 5159SOL    HW226937   4.247   1.201   1.412  0.9146  1.4571  0.3251
 5160SOL     OW26938   0.809   2.120   5.375  0.8132  0.7888 -0.2430
 5160SOL    HW126939   0.744   2.155   5.436  0.2039 -0.1498 -0.3603
 5160SOL    HW226940   0.882   2.178   5.397  1.4799  0.0566 -0.5369
 5161SOL     OW26941   1.428   4.588   5.101  0.5555 -0.1004  0.4202
 5161SOL    HW126942   1.479   4.647   5.155 -0.5736  0.9245  0.3695
 5161SOL    HW226943   1.432   4.641   5.022  2.1678 -1.2774 -0.2871
 5162SOL     OW26944   3.381   3.353  14.658  0.3858 -0.2539 -0.6343
 5162SOL    HW126945   3.443   3.426  14.660  0.8509 -0.6362 -1.4143
 5162SOL    HW226946   3.435   3.279  14.688 -0.5416 -0.0707  1.5383
 5163SOL     OW26947   4.568   4.480  11.212  0.4220  0.1085  0.5052
 5163SOL    HW126948   4.548   4.474  11.305  2.0268 -0.4045  0.8184
 5163SOL    HW226949   4.650   4.531  11.214  0.8673 -0.6584  1.5644
 5164SOL     OW26950   0.087   2.155   3.844  0.0174 -0.5401  0.1063
 5164SOL    HW126951   0.039   2.223   3.797  0.5044 -1.0331 -1.0994
 5164SOL    HW226952   0.056   2.077   3.799 -1.7614  1.1451 -1.6015
 5165SOL     OW26953   2.593   2.623   6.665  0.7120  0.3953  1.1120
 5165SOL    HW126954   2.607   2.682   6.591  1.2638 -0.1795  0.7628
 5165SOL    HW226955   2.669   2.565   6.668 -1.1736 -2.1287 -0.0784
 5166SOL     OW26956   0.024   1.691   1.379 -0.3547  0.2002  0.2533
 5166SOL    HW126957   0.102   1.732   1.418  0.1753 -0.5384 -0.0274
 5166SOL    HW226958   0.048   1.599   1.394  0.8919  0.6412  0.9970
 5167SOL     OW26959   0.227   2.465  16.168  0.1286  0.2329  1.0237
 5167SOL    HW126960   0.160   2.416  16.121  1.2612 -0.1071 -0.2342
 5167SOL    HW226961   0.291   2.394  16.178  0.5815  0.3889 -0.7744
 5168SOL     OW26962   1.946   0.155   3.595  0.8950  1.1408 -0.2020
 5168SOL    HW126963   1.927   0.115   3.510  2.5969 -1.1208  0.4902
 5168SOL    HW226964   1.877   0.133   3.658  1.5704  1.5092  0.6606
 5169SOL     OW26965   0.351   0.862  13.744 -0.0270 -0.3924 -0.1661
 5169SOL    HW126966   0.433   0.862  13.793 -2.4399 -2.3119  3.8543
 5169SOL    HW226967   0.294   0.810  13.801 -1.0803 -0.3300 -1.1667
 5170SOL     OW26968   0.849   2.939   6.825 -0.3125  0.5807 -0.3539
 5170SOL    HW126969   0.805   2.881   6.886 -1.6777  1.6430 -0.3233
 5170SOL    HW226970   0.868   3.007   6.890  0.4002 -0.9576  1.0377
 5171SOL     OW26971   2.630   2.279  10.414 -0.3504  0.5745 -0.1816
 5171SOL    HW126972   2.608   2.316  10.499 -4.0784  2.1642 -1.8387
 5171SOL    HW226973   2.550   2.235  10.385  0.0527  0.1614 -0.6654
 5172SOL     OW26974   3.688   0.303   9.052  0.2501  0.4020  0.2531
 5172SOL    HW126975   3.718   0.372   8.992 -0.6911  0.6388  0.0445
 5172SOL    HW226976   3.629   0.345   9.115  2.1497  1.9035  1.0346
 5173SOL     OW26977   0.584   4.340   7.417  0.3854 -0.1011  0.1364
 5173SOL    HW126978   0.559   4.318   7.506 -0.3863 -0.5087 -0.1817
 5173SOL    HW226979   0.496   4.345   7.381 -0.1330 -0.4941  1.3804
 5174SOL     OW26980   4.621   3.994   4.866  0.0009  0.5653 -0.3995
 5174SOL    HW126981   4.540   3.945   4.851  1.0569 -0.7829 -1.7434
 5174SOL    HW226982   4.582   4.062   4.921  1.7781  0.4583  0.9612
 5175SOL     OW26983   2.579   0.509   0.766 -0.3798  0.3497 -0.3962
 5175SOL    HW126984   2.653   0.568   0.776 -0.8847  1.1793 -1.5388
 5175SOL    HW226985   2.506   0.570   0.778 -0.9639  0.0769 -2.6431
 5176SOL     OW26986   2.706   1.301   3.096  0.3420 -0.4972 -0.1777
 5176SOL    HW126987   2.655   1.371   3.054 -1.0668 -0.8063  0.9904
 5176SOL    HW226988   2.792   1.320   3.060  0.4383  0.7822  0.7171
 5177SOL     OW26989   0.349   4.268   7.269 -0.2119  0.3437  0.0912
 5177SOL    HW126990   0.265   4.314   7.276 -0.7683 -1.0986  3.1306
 5177SOL    HW226991   0.318   4.201   7.208  2.4642 -1.3359  0.5607
 5178SOL     OW26992   4.197   1.779   8.350  0.0196 -0.2691  0.4543
 5178SOL    HW126993   4.180   1.686   8.366  0.9699 -0.8002 -1.6653
 5178SOL    HW226994   4.237   1.770   8.264 -0.2868 -0.0336  0.2871
 5179SOL     OW26995   0.642   4.176   8.366  0.3450  0.3328  1.1339
 5179SOL    HW126996   0.701   4.222   8.425  0.2924  1.7914  0.0491
 5179SOL    HW226997   0.558   4.174   8.413 -0.3839  2.7967 -0.0700
 5180SOL     OW26998   4.366   2.320  12.398  0.0399  0.0192  0.0093
 5180SOL    HW126999   4.343   2.240  12.446  1.5546 -0.2651  0.2769
 5180SOL    HW227000   4.407   2.291  12.316 -0.9522 -1.8415  0.1645
 5181SOL     OW27001   2.735   1.103   1.874  0.3967 -0.2969  0.0740
 5181SOL    HW127002   2.675   1.177   1.885 -0.3344 -0.9675  0.5644
 5181SOL    HW227003   2.815   1.116   1.924 -0.9537 -0.7301  2.3333
 5182SOL     OW27004   0.516   3.104  16.037  0.2490 -0.7537 -0.5661
 5182SOL    HW127005   0.475   3.077  16.119 -0.6149 -0.1381 -0.7931
 5182SOL    HW227006   0.504   3.199  16.047  0.9478 -0.7443  0.1731
 5183SOL     OW27007   1.181   2.796   3.121 -1.1751 -0.2017  0.0742
 5183SOL    HW127008   1.097   2.807   3.166 -0.8847 -0.3363  0.6478
 5183SOL    HW227009   1.207   2.706   3.137 -1.2729 -0.2169  0.1468
 5184SOL     OW27010   2.425   1.782  16.283  0.1628 -0.0866  0.6148
 5184SOL    HW127011   2.381   1.697  16.280 -0.8013  0.4843 -1.5462
 5184SOL    HW227012   2.425   1.786  16.378  1.1404  1.3156  0.5542
 5185SOL     OW27013   1.475   0.359   4.733 -0.5013 -0.0219 -0.2680
 5185SOL    HW127014   1.472   0.280   4.679  0.6065  1.1724 -2.1197
 5185SOL    HW227015   1.400   0.407   4.699  0.8899  1.1574 -1.6638
 5186SOL     OW27016   0.996   2.042   7.355  0.0281  0.3018 -0.4799
 5186SOL    HW127017   1.026   1.992   7.278 -1.0606  0.9030 -1.2957
 5186SOL    HW227018   1.077   2.061   7.402  0.2364 -0.3886 -0.5449
 5187SOL     OW27019   2.283   4.640  15.713 -0.3227  0.2184 -0.1172
 5187SOL    HW127020   2.203   4.613  15.668 -0.4095 -0.0640  0.2036
 5187SOL    HW227021   2.340   4.563  15.713 -0.3130  0.2078  2.6233
 5188SOL     OW27022   1.918   3.958  12.969  0.5686 -0.5097 -0.1120
 5188SOL    HW127023   1.915   3.864  12.988 -0.2238 -0.1920  1.2684
 5188SOL    HW227024   1.824   3.975  12.970  0.8263  1.0485 -1.6153
 5189SOL     OW27025   0.977   2.529   2.870  0.0578  0.4466 -0.3205
 5189SOL    HW127026   1.002   2.621   2.881 -4.0061  1.1028  3.5164
 5189SOL    HW227027   0.946   2.524   2.779  0.0160  0.3917 -0.3033
 5190SOL     OW27028   2.091   4.312   4.414 -0.1696  0.5347  0.0534
 5190SOL    HW127029   2.076   4.258   4.492  1.5670  0.5514  0.3972
 5190SOL    HW227030   2.011   4.364   4.408 -0.6622  0.0774  2.8407
 5191SOL     OW27031   3.802   4.574   4.899  0.6694  0.2455  0.4400
 5191SOL    HW127032   3.792   4.479   4.900  1.9774  0.0938 -1.0639
 5191SOL    HW227033   3.810   4.596   4.991 -0.1910  0.2493  0.5141
 5192SOL     OW27034   4.386   3.866   4.824  0.4146 -0.1676  0.7180
 5192SOL    HW127035   4.324   3.912   4.766 -0.7884  0.3781  2.4480
 5192SOL    HW227036   4.334   3.839   4.900 -0.9543 -1.0843 -0.5335
 5193SOL     OW27037   2.287   0.567   3.065  0.0922 -0.1952  0.5490
 5193SOL    HW127038   2.228   0.550   2.992 -0.7869 -1.8637  1.6528
 5193SOL    HW227039   2.268   0.490   3.119  2.2112 -0.2108  1.2781
 5194SOL     OW27040   3.472   0.658  13.463 -0.0511  0.6633  0.4123
 5194SOL    HW127041   3.504   0.742  13.497  1.4517  0.6900 -1.0483
 5194SOL    HW227042   3.505   0.660  13.373  1.9755  0.1217  1.1376
 5195SOL     OW27043   1.537   1.229   4.347  0.4801 -0.0994  0.0642
 5195SOL    HW127044   1.524   1.303   4.406 -3.0712 -0.1365 -0.6662
 5195SOL    HW227045   1.473   1.240   4.277  0.4387 -1.9516 -0.1958
 5196SOL     OW27046   1.831   1.340   3.030  0.0127  0.1888 -0.7848
 5196SOL    HW127047   1.925   1.351   3.012  0.4327  0.5166  1.6348
 5196SOL    HW227048   1.833   1.288   3.110  1.2659  0.1045 -0.8713
 5197SOL     OW27049   2.903   0.483  12.984  0.1555 -0.0994 -0.1217
 5197SOL    HW127050   2.841   0.528  13.042  0.9065  0.0367  0.5764
 5197SOL    HW227051   2.921   0.551  12.919  2.6609 -0.9569 -0.3371
 5198SOL     OW27052   3.751   1.264   7.651  0.1674 -0.2057 -0.5576
 5198SOL    HW127053   3.780   1.244   7.739  1.4248  1.5852 -0.5559
 5198SOL    HW227054   3.657   1.250   7.659 -0.1476  1.7199 -0.8783
 5199SOL     OW27055   1.297   1.770   3.373  0.7264 -0.0042 -0.2139
 5199SOL    HW127056   1.371   1.710   3.370  2.2040  1.7130  1.2762
 5199SOL    HW227057   1.345   1.850   3.354 -1.1760  1.2344  0.1810
 5200SOL     OW27058   1.284   4.560   6.139 -0.0345  0.2854  0.4607
 5200SOL    HW127059   1.196   4.523   6.136 -0.1319  0.3755  2.9250
 5200SOL    HW227060   1.283   4.592   6.229  0.8817 -2.5850  1.4928
 5201SOL     OW27061   4.437   1.419   4.282  0.4332  0.9098  0.4018
 5201SOL    HW127062   4.459   1.358   4.352  1.3528  1.6844  0.7951
 5201SOL    HW227063   4.414   1.495   4.335  0.4677  0.8192  0.5440
 5202SOL     OW27064   2.071   1.293  14.045 -0.3269 -0.1891 -0.2937
 5202SOL    HW127065   2.018   1.217  14.069 -1.2875  0.4542 -0.3774
 5202SOL    HW227066   2.096   1.320  14.133 -2.8339  1.4480 -0.0684
 5203SOL     OW27067   4.174   2.906   1.517 -0.3772 -0.1161 -0.5633
 5203SOL    HW127068   4.167   2.920   1.611 -1.5073 -2.3537 -0.3148
 5203SOL    HW227069   4.219   2.988   1.496 -0.1455 -0.1670 -0.2490
 5204SOL     OW27070   2.641   2.326   4.808  0.5862 -0.2915 -0.1319
 5204SOL    HW127071   2.563   2.286   4.845 -0.0422  1.0538  0.0029
 5204SOL    HW227072   2.693   2.343   4.886  0.6361 -0.8003 -0.0579
 5205SOL     OW27073   0.597   3.886   1.542 -0.0198 -0.0650  0.1642
 5205SOL    HW127074   0.595   3.923   1.454  1.0293 -1.4397 -0.4339
 5205SOL    HW227075   0.606   3.969   1.589 -0.6314  0.2518 -0.2839
 5206SOL     OW27076   1.155   1.524   7.194  0.6534 -0.0040  0.3501
 5206SOL    HW127077   1.177   1.541   7.103 -1.5572 -1.6519 -0.4861
 5206SOL    HW227078   1.188   1.434   7.199 -0.6805 -0.6104 -1.8777
 5207SOL     OW27079   0.350   1.577  15.714  0.1844 -0.2973 -0.5769
 5207SOL    HW127080   0.283   1.543  15.774 -0.9925  1.8154 -0.6837
 5207SOL    HW227081   0.394   1.494  15.696 -1.2005 -1.2377  0.3307
 5208SOL     OW27082   0.916   1.523   3.875 -0.2718 -0.7220  0.3070
 5208SOL    HW127083   1.011   1.517   3.885  0.3475  1.5920 -4.2492
 5208SOL    HW227084   0.891   1.548   3.963 -0.9073 -1.1585  0.2530
 5209SOL     OW27085   2.755   2.226   5.852  0.3423  0.6365  0.1067
 5209SOL    HW127086   2.702   2.169   5.796  2.1703 -1.0443  0.0919
 5209SOL    HW227087   2.790   2.168   5.920 -2.0006 -0.2808  0.5423
 5210SOL     OW27088   2.962   2.590   4.047  0.5886 -0.0806  0.1305
 5210SOL    HW127089   2.981   2.680   4.073  0.4184  0.2978 -1.0229
 5210SOL    HW227090   3.016   2.582   3.968  0.1872 -0.9962 -0.0529
 5211SOL     OW27091   3.453   2.439   1.673  0.1780  0.6949 -0.1589
 5211SOL    HW127092   3.465   2.534   1.673  3.6192  0.2669  0.3138
 5211SOL    HW227093   3.544   2.420   1.696 -0.6488 -1.7745  1.1914
 5212SOL     OW27094   3.801   0.884   1.089 -0.1902  0.3218 -0.3588
 5212SOL    HW127095   3.827   0.796   1.062  0.2400  0.4891 -0.4903
 5212SOL    HW227096   3.740   0.874   1.162  0.4491  1.2033  0.3021
 5213SOL     OW27097   4.589   4.658   9.539  0.1579 -0.8878 -0.3819
 5213SOL    HW127098   4.531   4.582   9.538 -0.2082 -0.6053 -0.4105
 5213SOL    HW227099   4.669   4.622   9.501  0.9919  0.4002  0.1649
 5214SOL     OW27100   4.180   0.358   6.361  0.7054 -0.0417 -0.7804
 5214SOL    HW127101   4.226   0.279   6.390  1.3703  0.5150 -0.3102
 5214SOL    HW227102   4.144   0.325   6.279 -0.1222 -1.1419  0.0275
 5215SOL     OW27103   2.103   4.497  12.945 -0.3745 -0.2198  0.2405
 5215SOL    HW127104   2.097   4.402  12.954  0.9940 -0.3665 -0.4648
 5215SOL    HW227105   2.163   4.519  13.016 -1.4813  0.9537  0.8075
 5216SOL     OW27106   2.736   3.710  13.719 -0.1067 -0.1095  0.2632
 5216SOL    HW127107   2.728   3.706  13.815  0.0470  0.1976  0.2877
 5216SOL    HW227108   2.793   3.785  13.707  1.5398 -1.6302 -1.4281
 5217SOL     OW27109   2.911   2.649   3.539 -0.0797 -0.0652  0.1479
 5217SOL    HW127110   2.977   2.648   3.471  1.0586 -2.0214  1.2841
 5217SOL    HW227111   2.917   2.740   3.569  0.6203 -0.3064  0.7358
 5218SOL     OW27112   1.723   3.763  11.689 -0.6917 -0.2091 -0.3484
 5218SOL    HW127113   1.725   3.676  11.728  0.3507 -0.1491 -0.2627
 5218SOL    HW227114   1.630   3.770  11.669 -0.5418  0.9833 -0.6427
 5219SOL     OW27115   0.948   0.807  14.120 -0.2330 -0.0438 -0.0754
 5219SOL    HW127116   0.990   0.820  14.205 -0.1094 -0.3386 -0.0933
 5219SOL    HW227117   0.897   0.887  14.104  0.0923  0.7751  2.9560
 5220SOL     OW27118   3.288   3.326   0.535 -0.4289  0.1652  0.8254
 5220SOL    HW127119   3.325   3.279   0.459  0.6987  0.6385  1.0755
 5220SOL    HW227120   3.349   3.398   0.552  0.8428  0.0857 -3.3737
 5221SOL     OW27121   1.435   1.142   6.120  0.3782  0.0386  0.2358
 5221SOL    HW127122   1.442   1.130   6.214  0.1407 -0.0073  0.2478
 5221SOL    HW227123   1.529   1.153   6.105  0.5179 -1.0344  0.3233
 5222SOL     OW27124   0.107   4.315  14.438 -0.5715 -0.3091  0.5319
 5222SOL    HW127125   0.061   4.277  14.362 -0.0680 -0.4938  0.3161
 5222SOL    HW227126   0.063   4.270  14.510 -4.5845  0.6472 -1.3177
 5223SOL     OW27127   3.631   0.091   0.352  0.8043 -0.4490  0.4229
 5223SOL    HW127128   3.544   0.131   0.353  0.5465 -0.9982 -0.0780
 5223SOL    HW227129   3.622   0.035   0.430 -2.2828 -1.4459 -0.6639
 5224SOL     OW27130   2.747   3.826   2.894 -0.0243  0.0114 -0.2050
 5224SOL    HW127131   2.702   3.859   2.816 -1.3002 -0.8142  0.1941
 5224SOL    HW227132   2.835   3.863   2.884  0.9914 -1.6946  2.4847
 5225SOL     OW27133   1.064   3.040   9.575 -0.6048 -0.4187 -0.1555
 5225SOL    HW127134   1.136   3.101   9.560 -1.0938 -0.0272 -0.9143
 5225SOL    HW227135   1.057   3.045   9.670  2.0702  1.2677 -0.0408
 5226SOL     OW27136   4.684   3.777   8.179  0.2293 -0.7903 -0.1921
 5226SOL    HW127137   4.637   3.698   8.207 -1.2464 -0.3812 -1.4811
 5226SOL    HW227138   0.000   3.781   8.265  0.8923 -0.3069 -0.5265
 5227SOL     OW27139   0.679   2.475  12.399  0.3915 -0.0897 -0.0850
 5227SOL    HW127140   0.605   2.458  12.458  0.5462 -0.7295 -0.0815
 5227SOL    HW227141   0.652   2.413  12.332  1.4153 -0.8020  0.1643
 5228SOL     OW27142   0.952   2.620   4.748  0.1607  0.2186  0.1151
 5228SOL    HW127143   0.957   2.700   4.801 -2.0332  0.4239 -0.0109
 5228SOL    HW227144   0.978   2.559   4.817 -0.7057 -0.6841 -0.3678
 5229SOL     OW27145   4.494   1.725   1.725 -0.2009  1.1147 -0.2355
 5229SOL    HW127146   4.506   1.703   1.818 -1.2574  0.8985 -0.1429
 5229SOL    HW227147   4.407   1.764   1.739 -0.2329  0.1925  2.2450
 5230SOL     OW27148   1.562   1.590   7.093  0.1599  0.4068  0.5763
 5230SOL    HW127149   1.526   1.552   7.173  0.7330 -0.7645  0.2728
 5230SOL    HW227150   1.485   1.613   7.041 -0.8492 -1.1780  1.3717
 5231SOL     OW27151   2.701   1.477  16.167  0.1153  0.2871  0.0585
 5231SOL    HW127152   2.670   1.489  16.077 -0.5587 -1.0069  0.1091
 5231SOL    HW227153   2.785   1.522  16.165  0.3066 -0.0830 -0.1975
 5232SOL     OW27154   2.642   1.064   3.580  0.4290  0.0550  0.0352
 5232SOL    HW127155   2.583   1.137   3.559 -0.5891 -1.3403 -1.9449
 5232SOL    HW227156   2.601   1.000   3.522 -1.2894 -1.4162  2.9338
 5233SOL     OW27157   2.191   0.950  16.720 -0.6098  0.6713  0.0737
 5233SOL    HW127158   2.115   0.967  16.776 -0.2271 -0.0992  0.8400
 5233SOL    HW227159   2.263   0.997  16.763  0.1409 -0.6495  0.2864
 5234SOL     OW27160   3.571   4.111   4.561  0.0297 -0.0854  0.1472
 5234SOL    HW127161   3.535   4.087   4.475 -0.9177  0.2011  0.4708
 5234SOL    HW227162   3.491   4.092   4.608  0.1792  2.0693  1.2940
 5235SOL     OW27163   2.675   0.726   7.019 -0.9108  0.3682 -0.0665
 5235SOL    HW127164   2.655   0.784   7.093  1.3199 -0.0339  0.8471
 5235SOL    HW227165   2.765   0.759   7.008 -0.0727 -1.8684  0.1189
 5236SOL     OW27166   0.016   0.288   4.572  0.2368  0.1033  0.5548
 5236SOL    HW127167   0.019   0.223   4.642 -2.1529  0.4130  0.9420
 5236SOL    HW227168   4.671   0.347   4.602 -0.3422 -0.1554 -0.2733
 5237SOL     OW27169   2.448   1.478   5.969  0.5938 -0.1941 -0.4046
 5237SOL    HW127170   2.434   1.385   5.988 -1.1769  0.0339 -0.6156
 5237SOL    HW227171   2.357   1.503   5.957 -0.1222 -1.8505  1.4707
 5238SOL     OW27172   1.937   4.302   8.496 -0.3468  0.2667 -0.4711
 5238SOL    HW127173   1.944   4.313   8.402  0.3241 -1.3752 -0.6298
 5238SOL    HW227174   1.977   4.383   8.525  2.7407 -1.4824  0.1201
 5239SOL     OW27175   4.185   2.589   7.771 -0.1291  0.2970  0.4021
 5239SOL    HW127176   4.129   2.525   7.814  0.7783 -1.4929 -1.0647
 5239SOL    HW227177   4.214   2.548   7.690 -0.0474 -0.7283  0.9459
 5240SOL     OW27178   3.348   4.374  16.122 -0.1655  0.2126  0.2600
 5240SOL    HW127179   3.350   4.278  16.130  0.5618  0.2222  0.1705
 5240SOL    HW227180   3.295   4.382  16.043  0.2646  0.3133 -0.0215
 5241SOL     OW27181   2.949   0.343   3.095  0.2512 -0.2907  0.5896
 5241SOL    HW127182   2.987   0.303   3.016  0.4499  0.5537  0.2551
 5241SOL    HW227183   2.984   0.432   3.090 -2.7847  0.9234  0.7926
 5242SOL     OW27184   1.824   3.844   5.406  0.8243  0.4106  0.1108
 5242SOL    HW127185   1.806   3.782   5.476 -1.6349 -0.3268 -1.1742
 5242SOL    HW227186   1.812   3.923   5.458 -3.0208 -0.3397  0.3706
 5243SOL     OW27187   4.697   0.637  14.557  0.2475  0.2097 -0.1215
 5243SOL    HW127188   4.659   0.670  14.639  0.7462 -0.2567  0.2939
 5243SOL    HW227189   0.014   0.553  14.577  0.1029  0.0956 -0.2898
 5244SOL     OW27190   0.837   1.694  13.576  0.1172  0.2377  0.4777
 5244SOL    HW127191   0.747   1.716  13.601 -0.2911  1.0653 -1.6918
 5244SOL    HW227192   0.819   1.649  13.493  0.6487  2.5672 -0.8944
 5245SOL     OW27193   0.410   3.724  15.414 -0.1900  0.2865  0.1284
 5245SOL    HW127194   0.434   3.747  15.504 -0.8610 -1.3876  0.7476
 5245SOL    HW227195   0.384   3.808  15.378  1.3250  0.6786 -0.0403
 5246SOL     OW27196   2.222   1.503  12.180  0.0054 -0.1321  0.8885
 5246SOL    HW127197   2.126   1.506  12.175  0.1126 -0.3508 -1.3730
 5246SOL    HW227198   2.242   1.559  12.105  1.3263 -2.3343 -0.4107
 5247SOL     OW27199   4.694   4.468   4.119 -0.2118  0.7925  0.3622
 5247SOL    HW127200   4.603   4.481   4.093  0.2502 -0.9756 -2.1807
 5247SOL    HW227201   4.699   4.536   4.186  0.9655 -0.4289  1.5050
 5248SOL     OW27202   2.012   1.350  10.700  0.1783 -0.0601 -0.7970
 5248SOL    HW127203   2.059   1.267  10.698  1.7777  0.8288  0.1372
 5248SOL    HW227204   1.966   1.336  10.783 -1.5472  1.3389 -1.5109
 5249SOL     OW27205   4.018   1.678  15.852 -0.0275  0.1609 -0.0788
 5249SOL    HW127206   3.960   1.673  15.776  1.1960 -0.7345 -0.9329
 5249SOL    HW227207   4.095   1.718  15.811 -0.3712 -0.2584 -1.1320
 5250SOL     OW27208   4.650   3.310   5.268  0.0564  0.0785  0.0995
 5250SOL    HW127209   4.652   3.359   5.186 -1.3389  0.2272  0.1530
 5250SOL    HW227210   4.626   3.229   5.221  0.4207 -0.8402  1.4922
 5251SOL     OW27211   2.394   3.785   6.265 -0.0565  0.1466  0.3763
 5251SOL    HW127212   2.479   3.805   6.225 -0.7958  1.7570 -0.3922
 5251SOL    HW227213   2.335   3.781   6.190 -0.1814 -3.1004  0.6342
 5252SOL     OW27214   3.713   0.842   3.601  0.5884 -0.2786  0.5676
 5252SOL    HW127215   3.747   0.754   3.617  0.7258  0.1316  2.5020
 5252SOL    HW227216   3.792   0.884   3.567 -0.4566 -0.4019 -2.0584
 5253SOL     OW27217   2.813   4.214   8.869 -0.1714 -0.8349  0.2516
 5253SOL    HW127218   2.897   4.213   8.823  0.0435  0.2956  0.6340
 5253SOL    HW227219   2.756   4.256   8.805 -0.7088 -2.6168 -0.4368
 5254SOL     OW27220   1.662   2.517   6.698 -0.1180 -0.6972 -0.0328
 5254SOL    HW127221   1.598   2.446   6.698 -0.5145 -0.3624  2.4528
 5254SOL    HW227222   1.598   2.587   6.714  0.5678 -0.1081  0.1496
 5255SOL     OW27223   3.610   3.550   3.952  0.0859  0.3166  0.0638
 5255SOL    HW127224   3.579   3.554   3.862  0.2485  0.9777  0.0311
 5255SOL    HW227225   3.700   3.520   3.940  0.8075  2.3127  0.4898
 5256SOL     OW27226   1.338   4.390   7.236  0.0665  0.1142  0.1975
 5256SOL    HW127227   1.257   4.377   7.285  0.8576 -0.5434  1.3259
 5256SOL    HW227228   1.400   4.391   7.309  0.5999 -0.1457 -0.2463
 5257SOL     OW27229   0.063   2.933   3.341  0.9674 -0.7104  0.1003
 5257SOL    HW127230   4.708   2.918   3.393 -0.6277  4.1628 -0.9280
 5257SOL    HW227231   0.089   2.852   3.298  0.5165 -0.5291 -0.5002
 5258SOL     OW27232   4.513   3.487   2.342 -0.0203 -0.1022 -0.3351
 5258SOL    HW127233   4.495   3.569   2.388  0.1094 -1.0086  1.3266
 5258SOL    HW227234   4.605   3.504   2.320  0.0569 -0.7515 -0.4984
 5259SOL     OW27235   0.090   2.291   4.095  0.1899 -0.1015  0.2862
 5259SOL    HW127236   0.153   2.352   4.058 -0.0533  1.6073  2.6971
 5259SOL    HW227237   0.081   2.220   4.031 -0.3615  2.0494 -2.0477
 5260SOL     OW27238   2.308   1.209   4.152  0.2442 -0.2869  0.7041
 5260SOL    HW127239   2.301   1.283   4.212  2.5935  2.5997 -2.5142
 5260SOL    HW227240   2.381   1.158   4.186 -1.2871 -3.1488 -0.3021
 5261SOL     OW27241   0.142   0.790   1.016 -0.2581  0.1239  0.7153
 5261SOL    HW127242   0.215   0.764   1.072 -0.7056 -0.3602  1.0678
 5261SOL    HW227243   0.185   0.800   0.931  0.0418 -2.0300  0.6038
 5262SOL     OW27244   1.308   3.022  12.844 -0.0445 -0.1471  0.0979
 5262SOL    HW127245   1.344   3.049  12.928  0.4955 -1.5978  0.3257
 5262SOL    HW227246   1.387   2.995  12.797  0.1883  1.6181 -0.5358
 5263SOL     OW27247   1.832   0.570  14.855 -0.1915  0.3404 -0.0186
 5263SOL    HW127248   1.908   0.526  14.895  0.3452  1.7530  0.5037
 5263SOL    HW227249   1.760   0.543  14.912  2.0060  0.4699  2.8709
 5264SOL     OW27250   3.039   0.236  13.003  0.2574 -0.0922  0.1959
 5264SOL    HW127251   2.947   0.229  13.030 -0.4219  2.4411 -1.5121
 5264SOL    HW227252   3.020   0.324  12.973  1.5771  0.2602  0.4097
 5265SOL     OW27253   3.680   0.164   3.311 -0.8364  0.1580 -0.6491
 5265SOL    HW127254   3.721   0.125   3.234  2.7924  2.6120  0.0675
 5265SOL    HW227255   3.596   0.189   3.273 -0.1915  0.6642 -1.7300
 5266SOL     OW27256   2.877   3.900   5.823 -0.1713 -0.1824  0.0318
 5266SOL    HW127257   2.864   3.954   5.746  0.0366  0.0075  0.1293
 5266SOL    HW227258   2.783   3.891   5.838  0.0192 -0.7938  0.8514
 5267SOL     OW27259   1.938   1.609  11.970  0.7371  0.7291  0.5298
 5267SOL    HW127260   1.929   1.556  12.050  0.6541  0.2992  0.2372
 5267SOL    HW227261   1.941   1.538  11.906 -1.1350  0.2137  1.0054
 5268SOL     OW27262   1.665   1.367   3.546 -0.7317 -0.3114  0.0227
 5268SOL    HW127263   1.744   1.352   3.494 -0.0383 -0.7718  1.1988
 5268SOL    HW227264   1.640   1.275   3.550  3.6941 -1.5710 -1.4807
 5269SOL     OW27265   0.093   3.425   5.787  0.2749  0.7429 -0.1941
 5269SOL    HW127266   0.142   3.421   5.870  0.2128 -2.8778 -0.3283
 5269SOL    HW227267   0.158   3.399   5.722  2.5368  0.5362  2.1541
 5270SOL     OW27268   0.469   1.449   4.398 -0.5366  0.0816  0.1844
 5270SOL    HW127269   0.413   1.500   4.457  0.1431  1.1519 -0.1149
 5270SOL    HW227270   0.413   1.449   4.320 -0.9944 -1.5913  0.5016
 5271SOL     OW27271   3.602   3.743   4.131  0.0916 -0.2879 -0.5372
 5271SOL    HW127272   3.627   3.818   4.077  1.4607 -0.7162 -0.4979
 5271SOL    HW227273   3.597   3.679   4.059 -0.2808  0.4877 -1.2047
 5272SOL     OW27274   0.217   2.199  11.438  0.0756 -0.5337  0.2640
 5272SOL    HW127275   0.217   2.154  11.522  0.4433 -0.1707  0.4571
 5272SOL    HW227276   0.133   2.246  11.443  0.5383  0.1241  1.7431
 5273SOL     OW27277   1.770   0.889   4.831 -0.1086  0.1805 -0.4021
 5273SOL    HW127278   1.804   0.833   4.900 -1.4694  0.2857  0.3457
 5273SOL    HW227279   1.842   0.884   4.767  0.3136 -1.2000  0.1999
 5274SOL     OW27280   3.377   0.406   9.492  0.2170  0.0757  0.1403
 5274SOL    HW127281   3.400   0.445   9.576  0.5620 -0.4690  0.2969
 5274SOL    HW227282   3.451   0.346   9.485  0.0061 -0.2509  0.7260
 5275SOL     OW27283   3.239   2.464   1.166  0.0697  0.1913  0.5348
 5275SOL    HW127284   3.264   2.387   1.113  0.5711  1.1282 -0.5879
 5275SOL    HW227285   3.163   2.432   1.214 -0.1226 -2.0678 -1.2393
 5276SOL     OW27286   4.287   1.913   0.644 -1.2255 -0.4870  0.0230
 5276SOL    HW127287   4.212   1.933   0.701 -0.0886  2.1937  0.5655
 5276SOL    HW227288   4.239   1.908   0.561 -0.6180 -1.0891 -0.2898
 5277SOL     OW27289   0.819   2.874   7.341 -0.0571  0.1469 -0.0824
 5277SOL    HW127290   0.906   2.884   7.301  1.4217 -1.9558  2.6385
 5277SOL    HW227291   0.837   2.811   7.411  0.4682 -0.9432 -1.2045
 5278SOL     OW27292   3.553   1.058  15.868 -0.0041  0.1239  0.0920
 5278SOL    HW127293   3.555   0.982  15.811  1.7438  1.2838 -1.3915
 5278SOL    HW227294   3.615   1.033  15.937  1.2364  1.4955 -0.5394
 5279SOL     OW27295   0.726   2.164   3.863  0.4458  0.3833 -0.1658
 5279SOL    HW127296   0.806   2.216   3.871 -0.5604  1.5162  2.3203
 5279SOL    HW227297   0.676   2.211   3.929 -0.9975 -2.4800  0.7977
 5280SOL     OW27298   1.248   3.730   1.939  0.7394  0.3374 -0.2968
 5280SOL    HW127299   1.291   3.651   1.908 -0.7525 -0.4714 -0.3089
 5280SOL    HW227300   1.304   3.755   2.013  0.2619  0.9786 -0.1552
 5281SOL     OW27301   1.627   0.720   0.847 -0.2145  0.0940 -0.1773
 5281SOL    HW127302   1.635   0.676   0.762  0.5333  0.2593 -0.1946
 5281SOL    HW227303   1.582   0.800   0.821  1.9181  1.5133  0.5018
 5282SOL     OW27304   1.477   4.716   4.832  0.3882 -0.3304 -0.2909
 5282SOL    HW127305   1.568   0.016   4.845  0.2150 -1.0479  2.2982
 5282SOL    HW227306   1.480   4.639   4.775  1.2502 -0.4739 -0.0498
 5283SOL     OW27307   4.044   1.797   9.827  0.0683  0.2979  0.1080
 5283SOL    HW127308   3.986   1.728   9.859  0.0985  0.6939  1.0240
 5283SOL    HW227309   4.074   1.814   9.916 -0.6102  0.5369  0.2874
 5284SOL     OW27310   1.013   1.952   6.622  0.6083  0.2790  0.1760
 5284SOL    HW127311   0.978   1.945   6.534  0.9907  0.0675  0.0404
 5284SOL    HW227312   0.929   1.938   6.666  1.5108  0.5863  2.0057
 5285SOL     OW27313   4.488   0.410   6.217  0.5752 -0.1234  0.2582
 5285SOL    HW127314   4.499   0.451   6.131  2.2894 -0.6054  0.2343
 5285SOL    HW227315   4.404   0.443   6.247  1.1929  1.3190  0.4016
 5286SOL     OW27316   1.276   3.283   8.688  0.2536  0.2188 -0.0407
 5286SOL    HW127317   1.293   3.332   8.768 -0.1743 -2.0401  1.4134
 5286SOL    HW227318   1.322   3.341   8.627  0.1833 -0.6037 -0.8801
 5287SOL     OW27319   1.314   0.455   7.690 -0.5204  0.4073  0.4406
 5287SOL    HW127320   1.305   0.416   7.603  2.3004  1.4122 -0.3052
 5287SOL    HW227321   1.317   0.382   7.751 -2.5719  0.5259  0.6783
 5288SOL     OW27322   4.321   3.365   6.774 -0.0128 -0.5054 -0.9268
 5288SOL    HW127323   4.396   3.410   6.734  0.7623 -2.3337 -1.5024
 5288SOL    HW227324   4.344   3.380   6.866  2.8489 -1.6049 -1.4660
 5289SOL     OW27325   3.407   2.694  17.562 -0.2483 -0.2801  0.0945
 5289SOL    HW127326   3.365   2.777  17.586  1.2099  0.6611 -0.6777
 5289SOL    HW227327   3.396   2.696  17.467 -1.0172  1.4386  0.2109
 5290SOL     OW27328   0.582   3.808   6.368  0.2738  0.1800 -0.6045
 5290SOL    HW127329   0.676   3.820   6.354  0.7322 -0.4684  1.8961
 5290SOL    HW227330   0.559   3.827   6.277  2.0787  1.0173 -0.8906
 5291SOL     OW27331   4.155   1.586   2.452  0.6150 -0.5491 -0.3007
 5291SOL    HW127332   4.145   1.579   2.547 -1.8417 -0.0861 -0.5345
 5291SOL    HW227333   4.249   1.570   2.441  1.0548 -0.1115  2.7698
 5292SOL     OW27334   0.275   1.706   8.163 -0.2641  0.3324  0.0950
 5292SOL    HW127335   0.279   1.619   8.123 -0.4045 -0.3000  1.4651
 5292SOL    HW227336   0.289   1.695   8.257 -1.5841 -1.1332  0.1191
 5293SOL     OW27337   1.631   3.715   4.497  0.2570  0.2400  0.1929
 5293SOL    HW127338   1.639   3.805   4.527  0.0660  0.9162 -1.7249
 5293SOL    HW227339   1.719   3.678   4.505  0.1913 -0.0227 -0.2803
 5294SOL     OW27340   4.716   4.697   5.318  0.7470 -0.4430  0.4655
 5294SOL    HW127341   4.718   0.065   5.342 -0.7536 -0.0358 -0.9767
 5294SOL    HW227342   0.020   4.657   5.399  2.4585  0.4288  0.2956
 5295SOL     OW27343   4.297   3.957   5.363 -0.2393 -0.2829 -0.4934
 5295SOL    HW127344   4.381   3.912   5.376  0.4241  1.4926  1.3404
 5295SOL    HW227345   4.262   3.969   5.451  1.4814  0.7287  0.0493
 5296SOL     OW27346   2.516   4.449   6.456 -0.0059 -0.1361  0.3827
 5296SOL    HW127347   2.605   4.452   6.423 -0.1022  1.5338  0.2701
 5296SOL    HW227348   2.517   4.512   6.528 -2.5337 -2.5695  2.5551
 5297SOL     OW27349   1.094   4.074   3.116  0.2777  0.4056 -0.5349
 5297SOL    HW127350   1.109   4.124   3.196  0.5623 -1.3316  0.5068
 5297SOL    HW227351   1.083   4.142   3.051  1.0504  1.1091  0.0677
 5298SOL     OW27352   2.171   0.992   8.675 -0.4323  0.0090  0.0989
 5298SOL    HW127353   2.149   0.974   8.766 -0.6532  0.9407  0.2299
 5298SOL    HW227354   2.102   0.940   8.635 -0.0851 -1.9395  2.0253
 5299SOL     OW27355   2.384   3.080   8.763 -0.3426  0.4090  0.2224
 5299SOL    HW127356   2.322   3.153   8.753 -1.5269 -1.1617 -3.5625
 5299SOL    HW227357   2.443   3.119   8.828 -0.8060  0.9819  0.2983
 5300SOL     OW27358   2.574   0.423   5.229 -0.1778 -0.3867  0.5531
 5300SOL    HW127359   2.593   0.330   5.217 -2.0797 -0.9980  2.1371
 5300SOL    HW227360   2.566   0.453   5.139  0.2214  0.8247  0.9300
 5301SOL     OW27361   1.133   0.451   6.898  0.0656 -0.5789 -0.5780
 5301SOL    HW127362   1.214   0.485   6.861  0.0468  1.1984  1.0271
 5301SOL    HW227363   1.115   0.362   6.868 -2.4979 -0.4662  0.6202
 5302SOL     OW27364   2.261   1.908   8.660  0.3334 -0.2129  0.7527
 5302SOL    HW127365   2.319   1.967   8.613  2.5048 -2.2062  0.9576
 5302SOL    HW227366   2.319   1.848   8.706 -1.0673  0.3798  3.3060
 5303SOL     OW27367   0.025   1.780   0.423 -0.3049 -0.1217  0.3426
 5303SOL    HW127368   0.004   1.707   0.482  0.3798 -0.6339 -0.0583
 5303SOL    HW227369   0.027   1.738   0.337  0.6047 -2.0285  1.3036
 5304SOL     OW27370   0.185   0.978   3.377 -0.4857 -0.2611 -0.5177
 5304SOL    HW127371   0.224   0.958   3.292 -1.5480  0.5215 -1.1989
 5304SOL    HW227372   0.248   1.033   3.422  1.6076 -2.5657 -0.6477
 5305SOL     OW27373   3.547   2.279   3.647 -0.3016 -0.0692 -0.0661
 5305SOL    HW127374   3.549   2.200   3.701  1.5534 -0.7712 -1.1495
 5305SOL    HW227375   3.628   2.269   3.598 -0.3904 -2.9596  0.4143
 5306SOL     OW27376   3.953   1.442   3.971  0.1615 -0.2539 -0.1660
 5306SOL    HW127377   4.028   1.395   3.936  1.4625  1.0942  0.7511
 5306SOL    HW227378   3.987   1.529   3.949  0.8107 -0.1208  1.3595
 5307SOL     OW27379   3.045   4.037  17.646  0.7924 -0.0486  0.1360
 5307SOL    HW127380   3.031   4.064   0.037  0.7851  1.3884 -0.2941
 5307SOL    HW227381   3.015   3.947  17.654  2.8251 -0.8867 -1.5382
 5308SOL     OW27382   3.962   2.604  10.248 -0.5692  0.1452 -0.0267
 5308SOL    HW127383   4.041   2.553  10.268 -0.1425  0.8546  0.0665
 5308SOL    HW227384   3.905   2.568  10.317  2.9831  0.5873  3.1478
 5309SOL     OW27385   2.177   4.366  10.465  0.2841 -0.1572 -0.4011
 5309SOL    HW127386   2.261   4.353  10.421 -0.0462 -3.0029 -0.1707
 5309SOL    HW227387   2.104   4.339  10.409  0.5055 -1.5487 -0.0137
 5310SOL     OW27388   3.639   3.428   7.300 -0.0969  0.4969  0.8378
 5310SOL    HW127389   3.655   3.512   7.344 -1.1732  2.0279 -1.7331
 5310SOL    HW227390   3.724   3.384   7.311 -1.0088 -0.7550  2.9357
 5311SOL     OW27391   3.044   2.814   4.189  0.5855 -0.1530 -0.0418
 5311SOL    HW127392   2.992   2.829   4.268 -0.8978 -1.4958 -0.7594
 5311SOL    HW227393   3.118   2.875   4.193  1.1694 -0.8926  0.4069
 5312SOL     OW27394   4.546   1.444   7.387 -0.0927  0.2739  0.4216
 5312SOL    HW127395   4.595   1.526   7.382 -1.9798  1.3620 -0.3420
 5312SOL    HW227396   4.537   1.427   7.293  0.4180 -2.8481  0.9287
 5313SOL     OW27397   4.432   0.946  15.240  0.5433 -0.0708  0.3512
 5313SOL    HW127398   4.411   1.039  15.232  0.8829  0.0935  1.4464
 5313SOL    HW227399   4.522   0.942  15.207  0.6923 -0.0004  0.7501
 5314SOL     OW27400   3.098   1.061   6.241  0.3055  0.0548 -0.0775
 5314SOL    HW127401   3.023   1.119   6.250  0.3462 -0.2788  2.3099
 5314SOL    HW227402   3.142   1.094   6.162  0.3892  0.1104 -0.0087
 5315SOL     OW27403   1.661   0.826   9.343  0.1293 -0.4615  0.0974
 5315SOL    HW127404   1.591   0.760   9.350 -0.3012  0.1397  1.5105
 5315SOL    HW227405   1.644   0.888   9.414  1.7591  0.2739 -0.1776
 5316SOL     OW27406   4.019   0.569   5.367  1.0729 -0.3453 -0.0051
 5316SOL    HW127407   3.983   0.573   5.455  0.2162  1.7697 -0.4436
 5316SOL    HW227408   4.002   0.476   5.354  1.4927 -0.5678  1.0757
 5317SOL     OW27409   2.774   3.530   3.567 -0.1059 -0.8838 -0.1753
 5317SOL    HW127410   2.772   3.601   3.630 -0.5751 -2.1588  1.2369
 5317SOL    HW227411   2.840   3.473   3.605  1.1288 -1.1448 -2.6742
 5318SOL     OW27412   0.734   0.737   4.649 -0.6603  0.2928  0.0076
 5318SOL    HW127413   0.693   0.814   4.610 -1.0726 -1.1184 -2.3839
 5318SOL    HW227414   0.825   0.766   4.656  0.3776 -2.2297 -2.9052
 5319SOL     OW27415   1.343   3.256   7.133  0.1679  0.5784 -0.0888
 5319SOL    HW127416   1.253   3.289   7.133  0.4092  1.2352 -1.1346
 5319SOL    HW227417   1.374   3.301   7.054  0.1412  0.3240 -0.2444
 5320SOL     OW27418   2.972   2.612   6.430 -0.0018  0.1081  0.0088
 5320SOL    HW127419   3.025   2.550   6.380 -0.9110 -1.5295  1.0767
 5320SOL    HW227420   2.943   2.678   6.366 -1.9235 -0.4551  0.3201
 5321SOL     OW27421   0.786   2.966   3.453  0.1600  0.1852 -0.3917
 5321SOL    HW127422   0.698   3.002   3.439 -0.5064 -0.6789  1.5817
 5321SOL    HW227423   0.851   3.036   3.441 -0.6021  1.1269  1.0014
 5322SOL     OW27424   4.476   3.520  16.873  0.3546 -0.5009  0.2534
 5322SOL    HW127425   4.435   3.534  16.958  2.2960  0.5252  1.0115
 5322SOL    HW227426   4.425   3.583  16.822  2.0712  0.8256  0.1676
 5323SOL     OW27427   4.403   2.292   6.526  0.3466 -0.1440 -0.3222
 5323SOL    HW127428   4.431   2.229   6.592 -0.2995 -1.9568 -1.8063
 5323SOL    HW227429   4.479   2.346   6.503 -0.4844  1.1685  0.0283
 5324SOL     OW27430   2.818   3.326   8.496  0.3566 -0.0446 -0.4575
 5324SOL    HW127431   2.912   3.306   8.489  0.5917  0.6397  0.7228
 5324SOL    HW227432   2.788   3.354   8.410  4.0824  2.4120 -0.9812
 5325SOL     OW27433   0.091   1.470   5.835 -0.5744  0.0775 -0.1223
 5325SOL    HW127434   0.072   1.496   5.745  1.7394 -2.1791 -1.2523
 5325SOL    HW227435   0.039   1.390   5.836 -0.7319  0.1980  0.8807
 5326SOL     OW27436   3.306   2.221   8.215  0.3756  0.2881  0.1005
 5326SOL    HW127437   3.360   2.230   8.293  1.4913  3.4243 -1.0170
 5326SOL    HW227438   3.363   2.171   8.157 -1.0986  0.1392 -1.2248
 5327SOL     OW27439   2.116   4.535   1.429 -0.3746 -0.2178  0.2613
 5327SOL    HW127440   2.072   4.483   1.496 -0.3337  0.5353  0.8720
 5327SOL    HW227441   2.116   4.480   1.351  2.2127  0.8417 -0.4774
 5328SOL     OW27442   0.692   1.927  11.972  0.3007  0.1592  0.0272
 5328SOL    HW127443   0.751   1.919  11.898  1.8670 -4.2396  1.7466
 5328SOL    HW227444   0.695   2.020  11.996  1.4672 -0.4328  2.2487
 5329SOL     OW27445   3.548   1.479   0.810  0.5946  0.2339 -0.2519
 5329SOL    HW127446   3.525   1.395   0.849  0.4505  0.5781  0.3949
 5329SOL    HW227447   3.463   1.519   0.793  0.1426 -2.6851 -4.8378
 5330SOL     OW27448   4.207   0.948   6.018  0.2464  0.2850  0.2681
 5330SOL    HW127449   4.294   0.984   6.002  0.2282 -0.0383 -0.5654
 5330SOL    HW227450   4.179   0.938   5.927  4.2223  2.2365 -1.1840
 5331SOL     OW27451   4.429   1.586  17.256  0.3895 -0.7455  0.3716
 5331SOL    HW127452   4.377   1.639  17.318 -0.5450 -0.7269 -0.4260
 5331SOL    HW227453   4.372   1.607  17.182  2.7960 -0.5794 -1.4119
 5332SOL     OW27454   0.083   3.441   2.706  0.1925 -0.4836  0.3524
 5332SOL    HW127455   0.048   3.363   2.749 -1.4011  2.4670  4.4571
 5332SOL    HW227456   0.141   3.410   2.637 -0.5300 -0.4036 -0.2812
 5333SOL     OW27457   0.979   0.026   9.746 -0.0736  0.2815 -0.1757
 5333SOL    HW127458   1.061   4.708   9.769 -1.5477 -2.2092  0.4751
 5333SOL    HW227459   0.952   0.052   9.834 -0.1663 -0.8668  0.1326
 5334SOL     OW27460   4.131   2.066   7.847  0.4161 -0.3502  0.1204
 5334SOL    HW127461   4.147   2.016   7.766  2.3963 -0.0050  0.2872
 5334SOL    HW227462   4.220   2.067   7.882 -0.2226  0.3521  1.7215
 5335SOL     OW27463   0.420   1.618   5.293 -0.2691  0.6051  0.0443
 5335SOL    HW127464   0.457   1.703   5.317 -2.3463  1.8334 -1.0728
 5335SOL    HW227465   0.449   1.608   5.202  1.9516  1.3444  0.6785
 5336SOL     OW27466   3.459   2.877   3.023  0.0506 -0.0383  0.4600
 5336SOL    HW127467   3.475   2.907   3.113 -1.0728  2.7240 -0.2561
 5336SOL    HW227468   3.459   2.783   3.043 -0.2715  0.0153  0.7213
 5337SOL     OW27469   0.423   2.860   3.316  0.2021 -0.3686 -0.2315
 5337SOL    HW127470   0.458   2.881   3.229  0.4281 -2.8632 -0.7705
 5337SOL    HW227471   0.400   2.767   3.306  0.4392 -0.4759  0.2200
 5338SOL     OW27472   3.473   0.888  15.667  0.3526  0.5032  0.0987
 5338SOL    HW127473   3.459   0.867  15.574  0.3403  2.8233 -0.4303
 5338SOL    HW227474   3.388   0.897  15.711  1.0743 -2.1073  1.9433
 5339SOL     OW27475   2.920   0.827   6.934  0.2997  0.0923  0.1290
 5339SOL    HW127476   2.975   0.869   7.000 -0.1931 -0.2683  0.7720
 5339SOL    HW227477   2.983   0.800   6.868 -0.2717 -1.8629  0.3957
 5340SOL     OW27478   3.334   2.731   7.299  0.4670  0.3511  0.2862
 5340SOL    HW127479   3.300   2.786   7.229 -0.1824  0.4091  0.6450
 5340SOL    HW227480   3.397   2.793   7.335  1.9914 -0.5084 -0.9046
 5341SOL     OW27481   1.225   2.053   1.482 -0.6559  0.1719 -0.0703
 5341SOL    HW127482   1.165   1.978   1.490  1.5169 -1.5124  0.3215
 5341SOL    HW227483   1.159   2.118   1.455 -1.9887 -1.1106  0.1159
 5342SOL     OW27484   1.756   1.169  11.293  0.6429  0.1741 -0.1373
 5342SOL    HW127485   1.765   1.214  11.209 -2.1608  1.1736  0.0880
 5342SOL    HW227486   1.828   1.107  11.284  1.3168  1.0353 -0.6261
 5343SOL     OW27487   1.890   2.820  12.612 -0.1229 -0.1689  0.0545
 5343SOL    HW127488   1.858   2.736  12.644 -0.2763 -0.3966 -0.6984
 5343SOL    HW227489   1.895   2.869  12.694 -2.3334  1.3053 -0.6816
 5344SOL     OW27490   1.944   0.151  15.157  0.2237 -0.3273  0.4324
 5344SOL    HW127491   1.879   0.221  15.148  0.9608  0.2049 -0.7602
 5344SOL    HW227492   1.964   0.123  15.068 -2.0164 -1.2547  0.2190
 5345SOL     OW27493   2.495   0.969  12.838  0.1731 -0.2412  0.4471
 5345SOL    HW127494   2.535   0.923  12.912  0.1569  1.0254  1.2443
 5345SOL    HW227495   2.414   0.999  12.878  0.4189  0.3937  0.4618
 5346SOL     OW27496   1.568   3.879   6.070 -0.0607 -0.2334  0.1365
 5346SOL    HW127497   1.615   3.881   5.987  0.0831 -2.6245  0.1607
 5346SOL    HW227498   1.576   3.788   6.096  2.0136 -0.1000 -0.0640
 5347SOL     OW27499   1.353   0.542  17.368  0.3773  0.2480  0.1384
 5347SOL    HW127500   1.264   0.576  17.376  0.7845  1.0277  1.3256
 5347SOL    HW227501   1.424   0.606  17.368  0.2157  0.4160 -2.3375
 5348SOL     OW27502   2.669   0.710   7.692 -0.3062  0.1269 -0.0215
 5348SOL    HW127503   2.751   0.668   7.720  0.4323  1.4986 -0.1647
 5348SOL    HW227504   2.652   0.777   7.757 -1.8691  0.6785 -1.0095
 5349SOL     OW27505   1.561   2.161  10.299 -0.0525  0.2604  0.1075
 5349SOL    HW127506   1.559   2.107  10.378 -0.1446 -1.9955 -1.4214
 5349SOL    HW227507   1.601   2.093  10.245 -1.4133 -0.4155 -0.0600
 5350SOL     OW27508   0.197   4.629   0.969 -0.3729 -0.1603 -0.1861
 5350SOL    HW127509   0.139   4.684   0.917 -0.0868 -0.1595 -0.5058
 5350SOL    HW227510   0.284   4.654   0.937 -0.2267  1.2767  1.3548
 5351SOL     OW27511   1.782   0.565   1.738  0.1111  0.5898  0.1580
 5351SOL    HW127512   1.743   0.635   1.790 -0.1342  0.6292 -0.0813
 5351SOL    HW227513   1.748   0.587   1.651 -1.3157 -0.9075  0.3331
 5352SOL     OW27514   3.979   0.463   6.548 -0.2930 -0.2170  0.0092
 5352SOL    HW127515   4.027   0.412   6.613  1.2834  0.3187 -0.7109
 5352SOL    HW227516   4.017   0.436   6.464 -0.5741 -0.0819 -0.1617
 5353SOL     OW27517   1.564   1.776  17.200  0.3694  0.0618 -0.0083
 5353SOL    HW127518   1.652   1.743  17.218 -0.7373 -1.6256  2.4490
 5353SOL    HW227519   1.516   1.692  17.200 -0.9970  0.8473 -1.3199
 5354SOL     OW27520   4.337   1.463   2.065 -0.0387  0.0155  0.2109
 5354SOL    HW127521   4.344   1.501   2.152 -0.7659  0.8607 -0.1045
 5354SOL    HW227522   4.244   1.469   2.044 -0.4174  1.9735  2.4426
 5355SOL     OW27523   0.390   0.594   9.236 -0.2615 -0.6561  0.3348
 5355SOL    HW127524   0.296   0.594   9.222 -0.4738 -3.3129  1.8753
 5355SOL    HW227525   0.403   0.545   9.317 -0.3734  0.5312  1.0714
 5356SOL     OW27526   3.407   2.593   6.717  0.6702 -0.5805 -0.6554
 5356SOL    HW127527   3.311   2.585   6.723  0.6713  0.9429  1.3254
 5356SOL    HW227528   3.423   2.641   6.798  1.5980 -1.0508 -0.5656
 5357SOL     OW27529   3.326   0.825   4.775 -0.3641  0.5882 -0.2081
 5357SOL    HW127530   3.374   0.805   4.856  1.3931 -0.3726 -1.4882
 5357SOL    HW227531   3.276   0.744   4.762 -2.5369  1.4664  2.7755
 5358SOL     OW27532   4.529   0.501   5.981  0.1990 -0.0961 -0.5999
 5358SOL    HW127533   4.606   0.470   5.933  0.2019  1.3474 -1.5290
 5358SOL    HW227534   4.500   0.571   5.923  2.2682  1.2229 -0.0551
 5359SOL     OW27535   1.149   2.094   8.663 -0.0947 -0.6157  0.0241
 5359SOL    HW127536   1.160   2.167   8.724 -1.7273  0.3905 -0.8709
 5359SOL    HW227537   1.054   2.097   8.656  0.2180  0.9444 -3.7411
 5360SOL     OW27538   4.247   0.805  13.272 -0.1761 -0.2155  0.5953
 5360SOL    HW127539   4.251   0.722  13.225  1.8280 -0.5843  1.4442
 5360SOL    HW227540   4.160   0.797  13.312  0.1816  1.1826  1.6612
 5361SOL     OW27541   3.723   3.241  17.586  0.0397 -0.0287 -0.2855
 5361SOL    HW127542   3.650   3.302  17.594 -0.5241 -0.8332  0.8038
 5361SOL    HW227543   3.747   3.233  17.678  1.2223  0.3570 -0.5727
 5362SOL     OW27544   3.985   2.217  17.094  0.3244 -0.3452 -0.1079
 5362SOL    HW127545   3.907   2.203  17.041 -0.6874  0.6383  1.0902
 5362SOL    HW227546   3.983   2.148  17.161 -0.8237  1.2180  1.4723
 5363SOL     OW27547   1.426   2.834   1.930  0.2067 -0.4835  0.3620
 5363SOL    HW127548   1.356   2.813   1.868 -1.0772  0.2301  1.5675
 5363SOL    HW227549   1.491   2.763   1.927  0.7784 -0.1040  4.0647
 5364SOL     OW27550   3.375   3.456   3.041 -0.2854  0.3923  0.4395
 5364SOL    HW127551   3.377   3.395   3.115 -0.6515 -0.1973 -0.0373
 5364SOL    HW227552   3.281   3.472   3.026  0.3475  2.9357 -0.7265
 5365SOL     OW27553   0.441   2.080   6.112  0.0810  0.2639  0.1365
 5365SOL    HW127554   0.418   2.044   6.197  0.3277  1.3317  0.6466
 5365SOL    HW227555   0.357   2.111   6.078  2.0645  3.1149 -2.2099
 5366SOL     OW27556   2.981   2.312   7.232  0.3483 -0.2335 -0.1697
 5366SOL    HW127557   2.896   2.333   7.193  0.2218 -1.1860 -0.4057
 5366SOL    HW227558   3.042   2.335   7.163  1.6834  0.7145  1.3354
 5367SOL     OW27559   1.386   2.582   7.948  0.0674 -0.3302 -0.1669
 5367SOL    HW127560   1.383   2.676   7.963 -1.2321 -0.1458 -1.6761
 5367SOL    HW227561   1.475   2.557   7.975 -0.3609 -1.6777 -0.0178
 5368SOL     OW27562   1.958   1.733   6.385 -0.4512 -0.3413  0.3102
 5368SOL    HW127563   2.004   1.651   6.366  1.4632  0.8056 -0.0574
 5368SOL    HW227564   1.996   1.756   6.471 -1.9553 -1.6751  1.3165
 5369SOL     OW27565   2.674   1.884  13.463  0.2839 -0.2759  0.2655
 5369SOL    HW127566   2.732   1.808  13.467  1.9864  0.9522 -0.9710
 5369SOL    HW227567   2.623   1.892  13.544 -0.2965 -0.4941 -0.0784
 5370SOL     OW27568   2.995   4.094   5.276  0.2143  0.4827  0.0248
 5370SOL    HW127569   2.919   4.152   5.279 -1.2822 -1.6157  2.7032
 5370SOL    HW227570   3.020   4.110   5.185  0.1444 -0.6346 -0.1862
 5371SOL     OW27571   0.526   1.065   6.648  0.0593 -0.0391  0.2557
 5371SOL    HW127572   0.542   1.137   6.709 -2.4800  1.9760 -1.4668
 5371SOL    HW227573   0.616   1.046   6.623  1.0939  2.3562  2.1381
 5372SOL     OW27574   1.530   2.308   4.688 -0.1685 -0.0606 -0.2348
 5372SOL    HW127575   1.436   2.300   4.674 -0.1399  1.7535 -1.4623
 5372SOL    HW227576   1.540   2.399   4.660 -1.7112  0.0176 -0.5109
 5373SOL     OW27577   3.696   1.918   6.850  0.3528  0.1053 -0.2813
 5373SOL    HW127578   3.677   2.010   6.868 -1.0666 -0.0860 -0.7794
 5373SOL    HW227579   3.699   1.936   6.756 -0.3534  2.1022  0.0674
 5374SOL     OW27580   2.216   3.461   7.069 -0.1444  0.2895  0.3426
 5374SOL    HW127581   2.260   3.544   7.050 -0.8567  0.3965 -0.8373
 5374SOL    HW227582   2.139   3.498   7.112 -1.4812 -1.6775 -0.3857
 5375SOL     OW27583   3.987   1.251   4.987 -0.4892  0.0578 -0.1406
 5375SOL    HW127584   3.961   1.265   4.896 -0.8752  0.5962  0.0531
 5375SOL    HW227585   3.972   1.157   4.995  1.2166 -0.0578  1.5613
 5376SOL     OW27586   2.251   2.356   3.448  0.1536 -0.9132  0.1367
 5376SOL    HW127587   2.178   2.361   3.510  0.2370  1.3909  0.0617
 5376SOL    HW227588   2.229   2.424   3.383 -1.7589 -0.6344  1.0812
 5377SOL     OW27589   4.010   0.950   6.258 -0.6184 -0.0777  0.4005
 5377SOL    HW127590   4.049   1.020   6.310 -0.7832  0.5517 -0.3213
 5377SOL    HW227591   4.044   0.947   6.169  0.6804  1.6590  0.8256
 5378SOL     OW27592   2.017   3.981  13.616 -0.0918  0.0720 -0.3628
 5378SOL    HW127593   2.111   3.972  13.602 -0.4106 -1.0016 -1.7921
 5378SOL    HW227594   2.006   3.954  13.707  2.6525  0.9602  0.2258
 5379SOL     OW27595   3.485   2.853   5.305  0.0167  0.3634 -0.0190
 5379SOL    HW127596   3.568   2.876   5.264 -0.0115  0.6877  0.1098
 5379SOL    HW227597   3.492   2.758   5.295 -2.4307  0.4108 -2.4227
 5380SOL     OW27598   0.954   4.231  16.042 -0.3300  0.0731  0.4117
 5380SOL    HW127599   0.907   4.237  15.959  1.4837 -0.4570 -0.6713
 5380SOL    HW227600   0.888   4.266  16.102 -0.8761 -0.9436  0.4088
 5381SOL     OW27601   1.075   3.494   2.802  0.4112  0.4687  0.4213
 5381SOL    HW127602   1.055   3.587   2.811  0.0928  0.6657 -2.2454
 5381SOL    HW227603   1.161   3.497   2.842  0.9746 -1.9570 -0.5688
 5382SOL     OW27604   0.532   1.903   3.093  0.0577 -0.4782  0.0880
 5382SOL    HW127605   0.570   1.815   3.089 -1.5071 -1.2289  1.5830
 5382SOL    HW227606   0.521   1.915   3.187 -1.0258 -0.4881 -0.0377
 5383SOL     OW27607   3.751   0.674   2.671 -0.2563 -0.2482  0.1338
 5383SOL    HW127608   3.802   0.693   2.750  0.2998  0.2130 -0.3326
 5383SOL    HW227609   3.786   0.585   2.660  0.2808 -0.2537  1.8131
 5384SOL     OW27610   1.304   2.108   3.477  0.1022 -0.2483 -0.0919
 5384SOL    HW127611   1.343   2.068   3.399  0.4967  0.1981 -0.1239
 5384SOL    HW227612   1.221   2.140   3.441  1.2309  2.0757 -0.5864
 5385SOL     OW27613   1.329   2.047   8.116 -0.4796 -0.0910  0.1512
 5385SOL    HW127614   1.235   2.034   8.121 -0.1101 -2.0124  2.1547
 5385SOL    HW227615   1.337   2.140   8.132 -0.4975  0.5484 -3.4828
 5386SOL     OW27616   0.144   0.265   3.977  0.2680  0.3444 -0.6430
 5386SOL    HW127617   0.160   0.207   3.903  0.5403  0.2322 -0.4955
 5386SOL    HW227618   0.084   0.331   3.941 -0.8290 -0.0403  0.5354
 5387SOL     OW27619   3.695   2.586   2.962 -0.8600 -0.3900 -0.1730
 5387SOL    HW127620   3.749   2.582   2.883  0.2216  0.5274  0.5250
 5387SOL    HW227621   3.607   2.588   2.927 -1.2615 -1.9017  0.7412
 5388SOL     OW27622   4.558   3.957  13.333 -0.0681 -0.0837 -0.2648
 5388SOL    HW127623   4.541   4.020  13.263  1.4609  3.2390  2.3606
 5388SOL    HW227624   4.579   4.013  13.408  0.8610 -1.2062  0.3215
 5389SOL     OW27625   2.267   3.486   5.633 -0.3667  0.8138 -0.3087
 5389SOL    HW127626   2.243   3.439   5.553 -0.0431  1.6744 -0.9098
 5389SOL    HW227627   2.208   3.452   5.700 -0.4607 -0.9182 -1.2634
 5390SOL     OW27628   1.028   4.143   4.391 -0.3974  0.1587 -0.1757
 5390SOL    HW127629   0.934   4.132   4.382 -0.3804  0.4945 -0.7011
 5390SOL    HW227630   1.032   4.214   4.456  1.3550 -0.8172  0.8062
 5391SOL     OW27631   2.453   2.065   8.478 -0.0102 -0.0430  0.4167
 5391SOL    HW127632   2.546   2.077   8.458  0.9440 -0.6371  4.5330
 5391SOL    HW227633   2.422   2.056   8.388  2.2750  4.1991 -0.7905
 5392SOL     OW27634   1.606   2.996   6.811 -0.0825 -0.6022 -0.1125
 5392SOL    HW127635   1.655   2.972   6.890 -0.4081 -0.1639  0.2208
 5392SOL    HW227636   1.583   2.906   6.787  0.5862 -0.9259  0.4304
 5393SOL     OW27637   0.928   3.627   3.597 -0.6217  0.4743  0.0262
 5393SOL    HW127638   0.850   3.610   3.649  0.2548  0.0900  1.2206
 5393SOL    HW227639   0.888   3.669   3.521 -0.6982  2.1197  0.9609
 5394SOL     OW27640   0.817   4.119   9.171  0.1257 -0.3680 -0.4372
 5394SOL    HW127641   0.882   4.187   9.150 -1.5332  1.5597  0.6427
 5394SOL    HW227642   0.744   4.171   9.205  0.5073 -0.9830  1.3350
 5395SOL     OW27643   3.879   4.286  16.446 -0.2925 -0.2970  0.4791
 5395SOL    HW127644   3.795   4.318  16.479 -0.7712 -1.1431  0.0720
 5395SOL    HW227645   3.938   4.297  16.520 -0.5777 -0.3518  0.7136
 5396SOL     OW27646   2.063   2.292   6.809 -0.1116 -0.0050  0.1850
 5396SOL    HW127647   2.109   2.361   6.762  0.1459 -0.3461 -0.0636
 5396SOL    HW227648   2.136   2.251   6.853  1.1359  1.8503 -0.1586
 5397SOL     OW27649   1.425   0.313   8.765  0.2020 -0.6484 -0.3560
 5397SOL    HW127650   1.412   0.271   8.850 -1.5406 -0.5784 -0.5892
 5397SOL    HW227651   1.499   0.264   8.728  1.7385 -0.0143  1.8666
 5398SOL     OW27652   1.154   1.736   5.647 -0.3340 -0.0407  0.5502
 5398SOL    HW127653   1.103   1.816   5.636  0.0808 -0.0033 -1.1029
 5398SOL    HW227654   1.242   1.757   5.615 -0.5806 -0.8794 -0.6927
 5399SOL     OW27655   3.726   1.639   0.969 -0.4291 -0.0002  0.2235
 5399SOL    HW127656   3.670   1.582   0.916 -0.2076  1.1356 -1.2210
 5399SOL    HW227657   3.796   1.582   1.001  0.1185 -0.4948 -1.9058
 5400SOL     OW27658   0.215   3.808  11.824 -0.2155  0.3531 -0.3819
 5400SOL    HW127659   0.151   3.839  11.887 -0.8802 -1.0701 -0.3677
 5400SOL    HW227660   0.199   3.865  11.749  2.4173 -1.1499 -2.0903
 5401SOL     OW27661   0.082   0.906   5.709  0.4832  0.2190 -0.3159
 5401SOL    HW127662   0.152   0.841   5.718  1.1259  1.2416  2.1300
 5401SOL    HW227663   0.063   0.909   5.615  1.2707 -0.6554 -0.5054
 5402SOL     OW27664   1.565   4.662   6.829 -0.0493 -0.1690  1.0103
 5402SOL    HW127665   1.530   4.573   6.837  0.5540 -0.4147  0.9339
 5402SOL    HW227666   1.613   4.662   6.912  1.3017 -0.5559  0.2377
 5403SOL     OW27667   3.597   2.351   0.696 -0.2197  0.0563 -0.0754
 5403SOL    HW127668   3.620   2.421   0.636  0.3265 -1.4836 -1.6652
 5403SOL    HW227669   3.523   2.387   0.745 -1.2157 -2.2590  0.1164
 5404SOL     OW27670   0.693   2.331   5.835 -0.0860  0.2541 -0.5375
 5404SOL    HW127671   0.687   2.321   5.740  1.2123 -0.3351 -0.5460
 5404SOL    HW227672   0.713   2.424   5.837  1.2955 -0.0515 -0.1562
 5405SOL     OW27673   2.637   4.330   7.585  0.5761 -0.0632 -0.7147
 5405SOL    HW127674   2.680   4.280   7.654 -0.8105  1.0771  0.9883
 5405SOL    HW227675   2.647   4.278   7.506 -3.0475 -0.5451 -0.8644
 5406SOL     OW27676   4.203   3.360   2.931  0.2126 -0.7827 -0.1422
 5406SOL    HW127677   4.208   3.288   2.869 -1.4050 -0.5818 -0.5190
 5406SOL    HW227678   4.282   3.409   2.908 -0.1936  0.4993  1.1464
 5407SOL     OW27679   3.611   4.322   9.340  0.5284  0.4776  0.1543
 5407SOL    HW127680   3.680   4.289   9.398  0.2245 -1.6693 -0.6968
 5407SOL    HW227681   3.656   4.305   9.257  2.3516  0.5391  1.1236
 5408SOL     OW27682   2.019   3.353  15.148  0.1988 -0.0849 -0.2964
 5408SOL    HW127683   2.102   3.333  15.104  0.3264  1.9867 -1.0072
 5408SOL    HW227684   1.967   3.289  15.099 -2.1939  2.0733 -0.5684
 5409SOL     OW27685   4.370   1.019   2.184 -0.2928  0.0885 -0.7582
 5409SOL    HW127686   4.353   1.059   2.099 -1.1347  1.8365  0.2399
 5409SOL    HW227687   4.423   0.946   2.152  0.3181 -0.9977  2.6920
 5410SOL     OW27688   1.805   2.471   2.735 -0.8194 -0.4902 -0.0491
 5410SOL    HW127689   1.850   2.399   2.689  0.0570  0.1655 -0.2091
 5410SOL    HW227690   1.759   2.430   2.808 -0.0072 -0.4274  0.4884
 5411SOL     OW27691   0.380   2.519  16.565  0.5193 -0.5551 -0.5842
 5411SOL    HW127692   0.355   2.601  16.524 -2.8402 -2.1094 -1.5895
 5411SOL    HW227693   0.327   2.463  16.509 -0.6594  1.1950 -1.1962
 5412SOL     OW27694   1.882   2.819  16.996  0.6751  0.1939  0.0790
 5412SOL    HW127695   1.803   2.819  16.942  0.5984  0.5103  0.1927
 5412SOL    HW227696   1.853   2.854  17.080  0.8479  0.0949  0.1821
 5413SOL     OW27697   1.988   3.007   4.534 -0.1816 -0.0079  0.0583
 5413SOL    HW127698   2.076   2.969   4.539  0.1924  0.7817 -0.5108
 5413SOL    HW227699   1.944   2.941   4.480  0.4567 -1.2286  1.0368
 5414SOL     OW27700   4.362   1.543   7.562 -0.3733 -0.4887  0.0351
 5414SOL    HW127701   4.295   1.601   7.525 -0.8353 -0.8536  0.3054
 5414SOL    HW227702   4.422   1.530   7.489 -1.4117 -0.8752 -0.7434
 5415SOL     OW27703   1.337   0.253  10.388 -0.4216 -0.0024 -0.1749
 5415SOL    HW127704   1.356   0.192  10.317 -0.1146 -1.0094  0.7673
 5415SOL    HW227705   1.344   0.334  10.338 -1.3310  1.2415  1.7140
 5416SOL     OW27706   3.608   3.725   7.107  0.9461  0.2984 -0.0366
 5416SOL    HW127707   3.656   3.700   7.185  0.0647 -4.3173 -1.0161
 5416SOL    HW227708   3.525   3.737   7.153 -0.0263 -2.0331 -1.2026
 5417SOL     OW27709   0.775   3.280   2.452  0.5003 -0.1516 -0.0454
 5417SOL    HW127710   0.830   3.345   2.497  0.8815  1.9530 -3.5493
 5417SOL    HW227711   0.737   3.236   2.528  2.4438  0.1078  1.0935
 5418SOL     OW27712   3.885   0.064   9.507  0.2112  0.0319  0.0730
 5418SOL    HW127713   3.874   4.706   9.555 -0.6956  0.5619  0.7672
 5418SOL    HW227714   3.866   0.030   9.420  1.3443 -1.0342  0.2317
 5419SOL     OW27715   1.852   4.700   5.862  0.1763 -0.2061 -0.0378
 5419SOL    HW127716   1.771   4.648   5.861  0.9767 -1.4137 -1.9064
 5419SOL    HW227717   1.885   4.681   5.950  0.4362 -1.3082 -0.3727
 5420SOL     OW27718   2.029   1.035   8.395  0.0645  0.5038  0.2989
 5420SOL    HW127719   1.945   1.010   8.356  0.5029 -1.0624  0.3699
 5420SOL    HW227720   2.003   1.108   8.450 -1.7890  0.5002 -0.5731
 5421SOL     OW27721   1.110   0.665   3.512  0.6754 -0.5710  0.2671
 5421SOL    HW127722   1.170   0.722   3.464 -1.7408  3.3829  1.9756
 5421SOL    HW227723   1.149   0.583   3.480 -0.6611 -0.5225 -1.5237
 5422SOL     OW27724   2.046   2.883   9.580  0.0699 -0.4569 -0.9081
 5422SOL    HW127725   2.078   2.838   9.658  2.7865 -1.6840 -2.7448
 5422SOL    HW227726   2.122   2.877   9.523  0.4009 -1.3643 -0.3743
 5423SOL     OW27727   2.281   1.627  14.598 -0.0213 -0.0570 -0.4351
 5423SOL    HW127728   2.298   1.719  14.582 -1.7827  0.2467 -0.5762
 5423SOL    HW227729   2.366   1.605  14.636 -0.5003  0.1201  0.7517
 5424SOL     OW27730   2.127   0.361   8.701  0.5450 -0.4839 -0.5262
 5424SOL    HW127731   2.055   0.415   8.734  1.4833 -0.4779  1.4800
 5424SOL    HW227732   2.154   0.302   8.771  0.2280 -1.7220 -1.4454
 5425SOL     OW27733   1.390   3.282   6.474 -0.5209  0.5277  0.2017
 5425SOL    HW127734   1.411   3.264   6.565 -0.2307  1.2868  0.2889
 5425SOL    HW227735   1.455   3.350   6.455 -0.1653 -0.2905 -1.5062
 5426SOL     OW27736   1.935   3.622   4.504 -0.3286 -0.1611 -0.3417
 5426SOL    HW127737   1.969   3.711   4.496 -0.0817 -0.3971 -1.8736
 5426SOL    HW227738   1.951   3.601   4.596 -0.4970  0.6746 -0.1229
 5427SOL     OW27739   0.365   1.230   0.400  0.2011  0.0419 -0.1307
 5427SOL    HW127740   0.422   1.244   0.325 -0.1157 -1.4059 -0.6553
 5427SOL    HW227741   0.299   1.294   0.372 -1.1426 -2.7490 -3.4046
 5428SOL     OW27742   3.870   3.773   2.435 -0.6582  0.4176  0.7368
 5428SOL    HW127743   3.935   3.794   2.368 -1.8777 -1.9474 -1.1663
 5428SOL    HW227744   3.902   3.830   2.505 -1.0929  0.2703  1.0608
 5429SOL     OW27745   0.861   1.731   5.509 -0.1484 -0.0810  0.2424
 5429SOL    HW127746   0.857   1.733   5.413  0.9299  0.7125  0.2057
 5429SOL    HW227747   0.769   1.717   5.530 -0.1432  1.7354  1.5118
 5430SOL     OW27748   3.109   4.625   2.391 -0.6907 -0.4131 -0.4766
 5430SOL    HW127749   3.174   4.555   2.384  0.7302  0.6980  1.3347
 5430SOL    HW227750   3.112   4.664   2.304  0.4462 -1.0678 -0.7250
 5431SOL     OW27751   3.679   0.034   6.767 -0.0233 -0.0042  0.0288
 5431SOL    HW127752   3.660   0.128   6.774 -0.8767 -0.1039 -0.9665
 5431SOL    HW227753   3.764   0.042   6.722  0.0824 -0.6509  0.1101
 5432SOL     OW27754   3.685   2.552  12.663  1.0493 -0.2095  0.1983
 5432SOL    HW127755   3.729   2.477  12.622 -0.3147 -0.7073 -0.3607
 5432SOL    HW227756   3.608   2.549  12.605  0.1609 -3.2877  1.5363
 5433SOL     OW27757   1.634   2.642  16.161  0.1407 -0.4396  0.0231
 5433SOL    HW127758   1.718   2.687  16.171 -0.1142 -0.1659  0.9532
 5433SOL    HW227759   1.617   2.652  16.068  0.1243 -1.3046 -0.0671
 5434SOL     OW27760   3.652   0.170   7.287 -0.0954  0.2500 -0.3283
 5434SOL    HW127761   3.714   0.237   7.260 -0.0393 -0.4724 -1.9619
 5434SOL    HW227762   3.650   0.113   7.211 -0.6240 -2.0078  1.3661
 5435SOL     OW27763   1.895   0.160   1.785  0.1231  0.1039 -0.4805
 5435SOL    HW127764   1.882   0.145   1.879 -1.8980 -1.0057 -0.9354
 5435SOL    HW227765   1.983   0.132   1.761  1.1351  1.7531  1.1998
 5436SOL     OW27766   2.023   2.029   3.246  0.0147  0.8271  0.4103
 5436SOL    HW127767   2.015   1.937   3.272 -0.4384  0.3891 -1.3263
 5436SOL    HW227768   2.108   2.035   3.203 -1.1171  0.8092 -1.7946
 5437SOL     OW27769   3.768   2.272   7.415 -0.9197  0.9542 -0.1543
 5437SOL    HW127770   3.690   2.293   7.362 -2.7334 -0.7686  1.8632
 5437SOL    HW227771   3.721   2.229   7.486  1.7457 -0.3570  0.8183
 5438SOL     OW27772   3.327   2.650   9.320  0.2057  0.1131 -0.0577
 5438SOL    HW127773   3.412   2.662   9.362  0.4979 -0.0658 -0.5897
 5438SOL    HW227774   3.278   2.723   9.357  1.6486  1.6748 -1.1880
 5439SOL     OW27775   3.139   2.541   3.098  0.1904 -0.0620 -0.2744
 5439SOL    HW127776   3.043   2.545   3.096  0.1029 -1.1960  1.7208
 5439SOL    HW227777   3.141   2.486   3.176  3.0861 -0.8377 -0.9142
 5440SOL     OW27778   2.295   2.658   8.647  0.4142  0.3903 -0.7479
 5440SOL    HW127779   2.335   2.745   8.646  3.4394 -0.9982  0.3229
 5440SOL    HW227780   2.363   2.593   8.666 -0.1281 -0.0330 -0.2787
 5441SOL     OW27781   2.716   0.724   4.717 -0.0227  0.0951  0.5413
 5441SOL    HW127782   2.797   0.674   4.707  0.2801  0.0257  3.3233
 5441SOL    HW227783   2.687   0.697   4.804 -0.9053 -1.2847 -0.1718
 5442SOL     OW27784   3.023   2.982   6.990  0.0368 -0.5651 -0.3039
 5442SOL    HW127785   2.931   2.991   6.963  0.0427  0.8526  0.1713
 5442SOL    HW227786   3.056   3.069   6.968 -1.0694 -0.1963 -0.5252
 5443SOL     OW27787   0.881   3.533   8.523  0.5019  0.2343 -0.2822
 5443SOL    HW127788   0.895   3.561   8.614 -0.1892  0.0861 -0.1281
 5443SOL    HW227789   0.862   3.440   8.525  0.2533  0.3161  1.1583
 5444SOL     OW27790   0.506   0.552   7.570 -0.0113 -0.2662  0.0132
 5444SOL    HW127791   0.444   0.555   7.497 -0.8905 -1.0384  0.7278
 5444SOL    HW227792   0.463   0.483   7.620 -0.2561 -0.5590 -0.5972
 5445SOL     OW27793   3.566   2.579  15.753  0.8638 -0.2803 -0.3756
 5445SOL    HW127794   3.616   2.524  15.812 -2.9529 -2.6845  0.6488
 5445SOL    HW227795   3.544   2.516  15.683 -1.1904  2.3399 -2.0959
 5446SOL     OW27796   4.360   3.124   8.500 -0.2324  0.0830  0.1724
 5446SOL    HW127797   4.400   3.129   8.413  0.1654 -1.0101  0.2917
 5446SOL    HW227798   4.442   3.133   8.548  0.3004 -1.7609 -0.3705
 5447SOL     OW27799   1.044   1.743  10.432  0.5742  0.1083 -0.0766
 5447SOL    HW127800   1.099   1.819  10.415 -0.3695  0.9620  0.7423
 5447SOL    HW227801   0.960   1.764  10.392 -0.2536 -0.2062  1.5230
 5448SOL     OW27802   0.591   0.159   3.306 -0.7551 -0.7849  0.1176
 5448SOL    HW127803   0.649   0.091   3.272 -2.3282 -0.8027 -2.5099
 5448SOL    HW227804   0.515   0.131   3.255 -0.5364  1.0506 -1.2444
 5449SOL     OW27805   4.202   0.790   4.198  0.1793  0.0077 -1.0781
 5449SOL    HW127806   4.175   0.874   4.160  1.0640  1.4739  1.5386
 5449SOL    HW227807   4.270   0.758   4.138 -0.5727 -1.8647 -0.9033
 5450SOL     OW27808   0.175   2.212   8.171  0.3262 -0.0240  0.0929
 5450SOL    HW127809   0.089   2.241   8.141 -0.9611 -2.9135  0.9852
 5450SOL    HW227810   0.179   2.121   8.142  0.4522 -0.4457  1.4136
 5451SOL     OW27811   3.895   0.999   1.938  0.0742 -0.4709 -0.1565
 5451SOL    HW127812   3.858   0.934   1.999  2.2828 -2.0904 -0.5378
 5451SOL    HW227813   3.939   0.941   1.876  0.6807  1.8820 -1.9095
 5452SOL     OW27814   2.710   3.593   7.029 -0.0812 -0.0007  0.4521
 5452SOL    HW127815   2.734   3.628   6.944  1.6871  0.6355  1.2119
 5452SOL    HW227816   2.720   3.499   7.013 -0.1783  0.1266 -0.3558
 5453SOL     OW27817   3.862   2.624   5.242 -0.0568  0.1474 -0.4510
 5453SOL    HW127818   3.828   2.713   5.238  1.1657  0.5482 -2.2843
 5453SOL    HW227819   3.947   2.630   5.198  1.2434 -1.3458  1.8846
 5454SOL     OW27820   3.935   4.579   3.853  0.8096  0.6208 -0.2114
 5454SOL    HW127821   3.873   4.634   3.901 -1.6040 -0.9046 -1.5972
 5454SOL    HW227822   3.931   4.595   3.759 -0.1746  1.0695 -0.0904
 5455SOL     OW27823   0.668   3.504   9.146  0.2595 -0.0774 -0.1897
 5455SOL    HW127824   0.627   3.430   9.190 -0.7276 -0.8594 -2.4359
 5455SOL    HW227825   0.762   3.487   9.155  0.5171  1.8619  0.7245
 5456SOL     OW27826   2.250   2.567   5.833  0.3210  0.2773 -0.4367
 5456SOL    HW127827   2.251   2.522   5.918 -1.2608 -0.9820 -1.0730
 5456SOL    HW227828   2.299   2.648   5.843  1.2122 -0.0130 -2.5592
 5457SOL     OW27829   3.920   3.371   7.806  0.1015  0.0745 -0.0660
 5457SOL    HW127830   3.911   3.431   7.880  0.4536 -2.1489  1.7768
 5457SOL    HW227831   3.975   3.308   7.853  0.8109  1.3996  0.8786
 5458SOL     OW27832   0.024   4.428   3.192 -0.5597 -1.0529 -0.2552
 5458SOL    HW127833   0.051   4.479   3.116  0.6026 -0.6887  0.3892
 5458SOL    HW227834   4.671   4.388   3.154 -3.1126  2.8882  0.7409
 5459SOL     OW27835   3.233   2.132   3.125  0.1424 -0.2384 -0.4566
 5459SOL    HW127836   3.288   2.206   3.152 -0.7874  1.0212 -1.9971
 5459SOL    HW227837   3.273   2.063   3.177 -0.5892  0.0476  0.4901
 5460SOL     OW27838   4.674   2.081   6.072  0.4231 -0.0439 -0.0252
 5460SOL    HW127839   4.684   2.056   6.163  1.0616 -0.3188 -0.1753
 5460SOL    HW227840   4.579   2.073   6.057  0.4476 -1.5279  0.5513
 5461SOL     OW27841   1.128   1.934   8.360  0.2152 -0.6472 -1.0931
 5461SOL    HW127842   1.219   1.928   8.387  0.7377 -1.8039 -3.2108
 5461SOL    HW227843   1.124   2.030   8.357  2.2554 -0.5118  0.9100
 5462SOL     OW27844   0.568   0.302   8.768 -0.5648 -0.3203  0.1102
 5462SOL    HW127845   0.472   0.301   8.759 -0.5835  0.3622  0.2084
 5462SOL    HW227846   0.585   0.340   8.855  0.1580 -0.1443 -0.1063
 5463SOL     OW27847   3.863   2.453   7.726  0.3007 -0.6347 -1.0946
 5463SOL    HW127848   3.944   2.407   7.747  1.0501  0.9043 -0.6202
 5463SOL    HW227849   3.859   2.520   7.793  1.5382 -1.5654 -0.0931
 5464SOL     OW27850   0.736   3.709   6.037  0.2317 -0.5177 -0.4583
 5464SOL    HW127851   0.792   3.664   5.973  1.6716  0.4780  0.0841
 5464SOL    HW227852   0.793   3.775   6.078 -0.9822  0.1951  0.0749
 5465SOL     OW27853   2.677   1.585   8.703 -0.2273  0.5090 -0.1531
 5465SOL    HW127854   2.698   1.621   8.617 -1.6110  1.7207  0.0076
 5465SOL    HW227855   2.621   1.511   8.678  1.1500 -1.1139  1.6378
 5466SOL     OW27856   0.496   3.725   5.368 -0.3883  0.0820 -0.3936
 5466SOL    HW127857   0.498   3.633   5.396  2.0527 -0.6771 -3.1188
 5466SOL    HW227858   0.433   3.763   5.429  0.5965  1.6113 -0.3358
 5467SOL     OW27859   0.736   2.933  10.684  0.3919 -0.1404  0.3156
 5467SOL    HW127860   0.773   2.986  10.613 -0.3405 -1.3938 -1.0097
 5467SOL    HW227861   0.805   2.928  10.750  2.1233 -1.5428 -1.5865
 5468SOL     OW27862   4.576   3.547   4.068  0.1943 -0.5160 -0.0250
 5468SOL    HW127863   4.483   3.524   4.065 -0.1101  0.5850  1.0989
 5468SOL    HW227864   4.583   3.599   4.148  1.6118  0.6555 -0.9158
 5469SOL     OW27865   1.377   1.192   8.747  0.0955  0.0300  0.4240
 5469SOL    HW127866   1.435   1.268   8.752 -0.3945  0.4100  0.3454
 5469SOL    HW227867   1.346   1.192   8.838  3.3591 -0.4268  1.5168
 5470SOL     OW27868   0.572   3.235   6.890  0.0373 -0.2313 -0.1791
 5470SOL    HW127869   0.600   3.197   6.974  0.6978  0.1046 -0.2470
 5470SOL    HW227870   0.480   3.217   6.905 -0.2889  2.6855  1.3244
 5471SOL     OW27871   2.505   1.630  11.552  0.1045  0.3087 -0.1005
 5471SOL    HW127872   2.447   1.582  11.493 -1.3261  0.5940  1.0753
 5471SOL    HW227873   2.486   1.576  11.629  1.1406  0.7235  0.4514
 5472SOL     OW27874   2.700   0.148   7.244  0.2650 -0.5353  0.1349
 5472SOL    HW127875   2.790   0.179   7.240  0.1215 -0.1927 -0.3752
 5472SOL    HW227876   2.682   0.152   7.338 -0.0669  0.1427  0.0384
 5473SOL     OW27877   0.948   0.373   2.779 -0.9352  0.0147  0.1617
 5473SOL    HW127878   0.994   0.339   2.702 -3.6116 -1.2290 -0.9011
 5473SOL    HW227879   1.024   0.374   2.837  0.8019 -3.2289 -2.0449
 5474SOL     OW27880   2.473   3.609   2.740 -0.3468  0.7615 -0.0613
 5474SOL    HW127881   2.471   3.615   2.644 -0.8159 -1.1642 -0.1719
 5474SOL    HW227882   2.531   3.684   2.749 -2.5015  2.6199 -1.8150
 5475SOL     OW27883   1.126   2.357  12.953  0.4011  0.0182 -0.6129
 5475SOL    HW127884   1.174   2.356  13.036  0.1842 -1.3826 -0.5051
 5475SOL    HW227885   1.058   2.291  12.969  0.2159 -0.1454 -2.1416
 5476SOL     OW27886   1.754   1.779   4.637 -0.5958 -0.2478  0.2752
 5476SOL    HW127887   1.789   1.856   4.683  0.4160 -0.8498  0.5091
 5476SOL    HW227888   1.758   1.803   4.544 -0.2723  0.4412  0.4648
 5477SOL     OW27889   2.355   2.036  13.360 -0.2688  0.2743  0.1679
 5477SOL    HW127890   2.320   2.087  13.287  1.6563  2.3800  0.6843
 5477SOL    HW227891   2.382   1.958  13.312 -1.6012 -0.8915  1.3174
 5478SOL     OW27892   2.150   3.604   9.040 -0.1625 -0.6980  0.4841
 5478SOL    HW127893   2.131   3.697   9.057  0.3854 -0.1283 -2.0723
 5478SOL    HW227894   2.059   3.574   9.030  0.4357 -1.0043 -3.8865
 5479SOL     OW27895   3.550   3.486  11.407 -0.2780  0.2124  0.3040
 5479SOL    HW127896   3.563   3.458  11.498 -0.2051  1.1294  0.5771
 5479SOL    HW227897   3.621   3.549  11.397 -1.5671  1.3264 -1.7731
 5480SOL     OW27898   4.643   2.405   4.280 -0.2592 -0.0822  0.1173
 5480SOL    HW127899   4.692   2.385   4.201 -2.9205 -2.1450 -0.9922
 5480SOL    HW227900   4.609   2.317   4.297 -2.2498  0.5670 -0.4413
 5481SOL     OW27901   3.312   4.387   3.582 -0.1928 -0.1592  0.0438
 5481SOL    HW127902   3.277   4.298   3.576  3.7014 -1.7815  1.1886
 5481SOL    HW227903   3.302   4.402   3.676 -1.8333  0.1877 -0.1854
 5482SOL     OW27904   3.896   0.060   2.593 -0.6589 -0.4929  0.1679
 5482SOL    HW127905   3.961   4.713   2.592 -3.5304 -3.0461 -2.0931
 5482SOL    HW227906   3.914   0.112   2.515  0.1002  0.0852  0.7259
 5483SOL     OW27907   2.244   2.534   7.422  0.4326  0.4622 -0.2402
 5483SOL    HW127908   2.217   2.499   7.338 -0.0063 -2.8351  1.2969
 5483SOL    HW227909   2.162   2.524   7.469  0.3304 -1.1967 -0.7821
 5484SOL     OW27910   3.328   2.238   4.384 -0.3401 -0.2523 -0.1175
 5484SOL    HW127911   3.325   2.215   4.291  1.4626 -3.4273  0.5671
 5484SOL    HW227912   3.360   2.327   4.375 -1.3668  0.2100  0.9408
 5485SOL     OW27913   0.367   2.520   9.263 -0.6519  0.1758 -0.0938
 5485SOL    HW127914   0.296   2.461   9.289  0.8187 -2.1388 -1.2819
 5485SOL    HW227915   0.417   2.453   9.216  1.4612  1.3542  0.5033
 5486SOL     OW27916   0.828   0.365  15.199 -0.2928 -0.2634  0.0904
 5486SOL    HW127917   0.838   0.347  15.105 -0.6352  1.4292 -0.2720
 5486SOL    HW227918   0.877   0.287  15.225 -1.0293 -1.0278 -0.8121
 5487SOL     OW27919   1.925   0.736   2.535  0.0722 -0.3735 -0.1275
 5487SOL    HW127920   2.003   0.785   2.509 -0.0643  1.1436  2.3188
 5487SOL    HW227921   1.860   0.783   2.481 -0.3271  0.1684  0.8164
 5488SOL     OW27922   2.375   1.676   8.729  0.1324  0.0492 -0.3218
 5488SOL    HW127923   2.457   1.655   8.774  0.9015  1.2852 -1.1346
 5488SOL    HW227924   2.372   1.622   8.649 -0.1677 -0.3761 -0.0221
 5489SOL     OW27925   1.395   3.272   3.531  0.3911  0.0409 -0.0840
 5489SOL    HW127926   1.464   3.338   3.518  1.3372 -1.1746 -1.1761
 5489SOL    HW227927   1.379   3.274   3.625 -0.1019  2.1281 -0.2009
 5490SOL     OW27928   3.635   2.552  17.275 -0.5403  0.4822  0.2484
 5490SOL    HW127929   3.678   2.522  17.355  1.3690 -0.1436 -1.0288
 5490SOL    HW227930   3.605   2.470  17.235  2.6959 -0.0250 -1.0878
 5491SOL     OW27931   1.856   1.660   6.099 -0.2459 -0.0587 -0.5838
 5491SOL    HW127932   1.814   1.717   6.164 -0.1680  1.0049 -1.4516
 5491SOL    HW227933   1.926   1.621   6.152  0.9645 -0.1638 -2.2562
 5492SOL     OW27934   4.706   0.773   6.026  0.8660 -0.2063  0.5535
 5492SOL    HW127935   4.641   0.747   5.960 -1.0054  0.5085  2.1390
 5492SOL    HW227936   0.059   0.719   6.010  1.2711  0.1414  1.3376
 5493SOL     OW27937   0.042   2.273   6.467 -0.2630  0.3137  0.6826
 5493SOL    HW127938   0.035   2.197   6.525 -1.3753 -0.3630 -0.3220
 5493SOL    HW227939   4.674   2.299   6.459  0.0826  1.3096  0.0345
 5494SOL     OW27940   4.101   1.045   2.258 -0.1254  0.5648  0.6090
 5494SOL    HW127941   4.180   1.013   2.215 -1.2429 -0.3382 -0.7927
 5494SOL    HW227942   4.042   0.974   2.231 -1.0592  1.5885 -0.0287
 5495SOL     OW27943   1.879   1.801   0.665  0.0878 -0.3006 -0.0560
 5495SOL    HW127944   1.836   1.875   0.621 -0.1490 -0.4942 -0.1518
 5495SOL    HW227945   1.967   1.838   0.674  0.6694 -1.7724  0.3055
 5496SOL     OW27946   4.079   3.098   6.263  0.2984 -0.0019 -0.2536
 5496SOL    HW127947   4.149   3.128   6.205  1.8615  0.3722  1.8286
 5496SOL    HW227948   4.004   3.115   6.206 -0.8264 -1.6253  0.7455
 5497SOL     OW27949   3.046   1.230   2.639 -0.0459 -0.2384  0.2950
 5497SOL    HW127950   3.046   1.282   2.719  0.5945 -0.6120  0.5339
 5497SOL    HW227951   2.955   1.199   2.641  0.1703 -0.8492  0.3653
 5498SOL     OW27952   3.263   1.675   3.893  0.4201 -0.3706 -0.0865
 5498SOL    HW127953   3.266   1.717   3.979 -0.1867 -0.1141 -0.1943
 5498SOL    HW227954   3.172   1.646   3.897  1.0476 -2.5801 -1.6172
 5499SOL     OW27955   3.214   4.047   6.306  0.3017 -0.0774 -0.3403
 5499SOL    HW127956   3.296   4.070   6.263 -0.3461 -0.3502 -1.7539
 5499SOL    HW227957   3.192   3.969   6.254 -4.3462  0.1410  1.2693
 5500SOL     OW27958   2.283   0.092  16.866  0.4426 -0.9583 -0.1045
 5500SOL    HW127959   2.353   0.155  16.885  2.6276 -3.8860  1.5510
 5500SOL    HW227960   2.329   0.008  16.863 -0.6889 -1.6340  1.8033
 5501SOL     OW27961   0.236   1.730   9.309 -0.2865  0.4726  0.1781
 5501SOL    HW127962   0.211   1.802   9.251 -0.6585 -1.3676 -1.9099
 5501SOL    HW227963   0.225   1.771   9.395  2.8312  1.3992  0.1389
 5502SOL     OW27964   0.879   2.816   0.554 -0.5616 -0.8258 -0.4133
 5502SOL    HW127965   0.973   2.801   0.559 -0.7521 -2.2098 -1.0257
 5502SOL    HW227966   0.855   2.759   0.482 -0.2292 -2.3919  0.7160
 5503SOL     OW27967   4.706   1.142   5.404 -0.5913  0.0392  0.7039
 5503SOL    HW127968   4.611   1.143   5.391 -0.5149  1.6373  0.1678
 5503SOL    HW227969   4.721   1.048   5.397  0.7306  0.3205 -0.0956
 5504SOL     OW27970   2.321   0.351   3.494 -0.3907 -0.1937 -0.3509
 5504SOL    HW127971   2.327   0.410   3.569 -0.8321 -1.8926  1.0179
 5504SOL    HW227972   2.395   0.371   3.436  1.8909  1.0045  3.0058
 5505SOL     OW27973   3.552   1.896   4.278  0.3110 -0.2686  0.3548
 5505SOL    HW127974   3.612   1.944   4.335  0.2747  2.5447 -2.0363
 5505SOL    HW227975   3.572   1.807   4.307 -0.4210 -0.5813 -0.1038
 5506SOL     OW27976   3.562   4.391  11.875  0.6998 -0.6471  0.1061
 5506SOL    HW127977   3.569   4.301  11.845  0.2809 -0.5844 -0.1873
 5506SOL    HW227978   3.605   4.396  11.960  1.4106  0.6794 -0.3249
 5507SOL     OW27979   4.413   4.342   7.624 -0.0430 -0.3348  0.4288
 5507SOL    HW127980   4.399   4.423   7.674 -0.3887  0.5951 -1.1915
 5507SOL    HW227981   4.375   4.369   7.541  0.6082 -2.6734 -0.6129
 5508SOL     OW27982   3.287   2.526  15.878  0.0413 -0.4675  0.3498
 5508SOL    HW127983   3.260   2.602  15.827 -1.6729 -1.2234  0.1468
 5508SOL    HW227984   3.379   2.548  15.864 -0.8777  2.7120 -0.5450
 5509SOL     OW27985   3.668   2.400   0.081 -0.4726 -1.0461 -0.2690
 5509SOL    HW127986   3.723   2.334   0.124 -0.0012 -0.9050 -0.6491
 5509SOL    HW227987   3.713   2.482   0.099 -0.9241 -0.9327  0.3229
 5510SOL     OW27988   3.189   4.566   7.352  0.8196 -0.0835  0.0042
 5510SOL    HW127989   3.116   4.550   7.411  0.7504 -0.6906 -0.2453
 5510SOL    HW227990   3.260   4.530   7.405 -1.0675 -2.0951  1.1626
 5511SOL     OW27991   1.601   1.433  16.180 -0.3492 -0.1351  0.6296
 5511SOL    HW127992   1.599   1.337  16.180  2.3750 -0.1709  0.0909
 5511SOL    HW227993   1.527   1.453  16.122  1.2822  0.2082 -1.3177
 5512SOL     OW27994   3.036   3.058   9.251  0.2327 -0.1081  0.7238
 5512SOL    HW127995   3.112   3.002   9.237  0.2943  0.0627  0.3671
 5512SOL    HW227996   3.037   3.114   9.174  0.8219  1.5664  1.9484
 5513SOL     OW27997   3.618   1.295   0.571 -0.0870 -0.4993 -0.2218
 5513SOL    HW127998   3.599   1.318   0.663  0.2230 -1.8902  0.1903
 5513SOL    HW227999   3.692   1.234   0.575 -0.8248 -1.3158  1.0623
 5514SOL     OW28000   1.599   3.165   7.774 -0.1800 -0.2463 -0.2757
 5514SOL    HW128001   1.690   3.136   7.767 -0.7904 -2.4767  1.0325
 5514SOL    HW228002   1.565   3.136   7.690 -1.7204 -1.2163  0.6797
 5515SOL     OW28003   0.903   4.477   4.891  0.1262  0.5499  0.0076
 5515SOL    HW128004   0.946   4.392   4.889  0.9417  1.0360 -2.3736
 5515SOL    HW228005   0.954   4.520   4.822  3.7747 -3.1654  0.4006
 5516SOL     OW28006   4.712   2.551   3.505  0.0803 -0.0465  0.1824
 5516SOL    HW128007   0.074   2.576   3.539  0.1098 -0.8445  0.6933
 5516SOL    HW228008   4.659   2.630   3.514  2.0673  0.9837  3.0747
 5517SOL     OW28009   1.448   1.232  10.096 -0.1752  0.3276  0.2615
 5517SOL    HW128010   1.498   1.151  10.104 -2.1613 -0.9671 -0.3626
 5517SOL    HW228011   1.496   1.283  10.162 -1.3313 -0.5217  1.7689
 5518SOL     OW28012   1.076   0.880  14.350  0.1139 -0.5486  0.4029
 5518SOL    HW128013   1.153   0.936  14.357 -1.8961  2.0991  1.2330
 5518SOL    HW228014   1.110   0.821  14.417 -0.6671 -0.9112  0.4835
 5519SOL     OW28015   2.911   0.990   4.488  0.3603  0.5753 -0.5064
 5519SOL    HW128016   2.942   0.905   4.519  1.0829  1.2592  0.6263
 5519SOL    HW228017   2.903   0.963   4.396 -2.0672 -0.7973  0.1088
 5520SOL     OW28018   1.819   4.632   7.689 -0.2574 -0.1530  0.1647
 5520SOL    HW128019   1.737   4.679   7.702 -0.1508  0.2527 -0.7127
 5520SOL    HW228020   1.878   4.697   7.651  0.2272 -0.4863  0.3336
 5521SOL     OW28021   1.410   2.664   6.271 -0.2034 -0.0095 -0.5068
 5521SOL    HW128022   1.498   2.628   6.267 -0.6719 -1.1294 -0.7478
 5521SOL    HW228023   1.376   2.617   6.195 -0.9915 -1.0378  0.4800
 5522SOL     OW28024   4.047   1.018   4.095  0.6134  0.6453  0.1859
 5522SOL    HW128025   4.113   1.084   4.073  1.4404 -0.3337 -0.2552
 5522SOL    HW228026   3.980   1.078   4.130  0.2993  0.3621  0.0734
 5523SOL     OW28027   4.667   0.234   5.419  0.7557  0.2103 -0.0369
 5523SOL    HW128028   4.687   0.327   5.431  2.9730 -0.2469 -0.3363
 5523SOL    HW228029   4.663   0.212   5.512  0.9037 -0.5266 -0.2119
 5524SOL     OW28030   1.017   0.644  11.521 -0.0303  0.5668  0.3514
 5524SOL    HW128031   1.010   0.607  11.609 -1.9480  1.7729  0.7190
 5524SOL    HW228032   1.108   0.670  11.512 -0.3783  2.4054  2.1328
 5525SOL     OW28033   4.595   3.873   5.797  0.7913 -0.0007  0.1894
 5525SOL    HW128034   4.562   3.788   5.769 -0.4404  0.5528 -0.0103
 5525SOL    HW228035   4.573   3.876   5.890  0.1024  0.5119  0.0033
 5526SOL     OW28036   0.483   2.442   6.081  0.3609  0.0279  0.7196
 5526SOL    HW128037   0.443   2.386   6.014  0.6260  1.2836 -0.4859
 5526SOL    HW228038   0.470   2.528   6.042 -2.0498 -1.7751 -2.4505
 5527SOL     OW28039   4.597   4.024   8.739  0.4816  0.2088 -0.2824
 5527SOL    HW128040   4.524   4.081   8.763  1.0846  0.8183  0.0823
 5527SOL    HW228041   4.639   4.024   8.825 -0.6371 -1.0245  0.2605
 5528SOL     OW28042   1.274   3.095   7.421  0.6072 -0.6979  0.0912
 5528SOL    HW128043   1.362   3.061   7.405  1.3818  2.5534 -2.5491
 5528SOL    HW228044   1.239   3.011   7.450  2.6608 -1.0671  1.5116
 5529SOL     OW28045   0.670   1.321  12.432 -0.0113 -0.2717 -0.2368
 5529SOL    HW128046   0.756   1.342  12.470 -0.2437 -1.3762  0.8768
 5529SOL    HW228047   0.668   1.395  12.371 -0.5758  1.0449  1.3764
 5530SOL     OW28048   3.209   2.919   3.533  0.3063  0.1735 -0.1564
 5530SOL    HW128049   3.225   2.910   3.626 -0.1231  0.3888 -0.0581
 5530SOL    HW228050   3.208   2.828   3.505  2.5717  0.4441 -1.1046
 5531SOL     OW28051   3.048   0.522   0.012  0.0718 -0.3161  0.1011
 5531SOL    HW128052   3.131   0.567  17.693 -1.6308  2.6637 -0.2465
 5531SOL    HW228053   3.016   0.513  17.622  1.7332 -2.1421 -0.3190
 5532SOL     OW28054   3.570   3.538  14.595 -0.2519  0.4627  0.1005
 5532SOL    HW128055   3.606   3.627  14.603 -1.3005  1.0096 -1.1965
 5532SOL    HW228056   3.655   3.497  14.576 -1.1050 -1.1629 -0.1260
 5533SOL     OW28057   1.489   4.613  15.294 -0.4543  0.1858  0.0052
 5533SOL    HW128058   1.581   4.636  15.297 -0.3613 -0.2467  0.4275
 5533SOL    HW228059   1.461   4.633  15.205  2.9731  1.2556 -0.8300
 5534SOL     OW28060   2.545   0.782  14.918 -0.5668 -0.1705  0.2699
 5534SOL    HW128061   2.509   0.746  14.837 -0.5009  2.8816 -1.1435
 5534SOL    HW228062   2.639   0.772  14.906 -0.3831  1.2298  0.5021
 5535SOL     OW28063   3.627   4.314   5.566 -0.6261  0.1539  0.1591
 5535SOL    HW128064   3.599   4.344   5.479 -0.3885  1.2240  0.4499
 5535SOL    HW228065   3.617   4.219   5.557  0.6050  0.0938 -0.6587
 5536SOL     OW28066   4.472   1.771   1.455  0.8615  0.4813  0.0872
 5536SOL    HW128067   4.563   1.762   1.426  0.7274 -0.0560 -0.1595
 5536SOL    HW228068   4.480   1.744   1.546  0.0801  0.4946  0.1635
 5537SOL     OW28069   3.594   4.500   2.456  0.1672  0.2941 -0.3000
 5537SOL    HW128070   3.614   4.563   2.388  1.7635  1.0975  0.8962
 5537SOL    HW228071   3.506   4.473   2.432 -0.1896  2.4509 -1.3303
 5538SOL     OW28072   4.621   3.170   3.771 -0.1545 -0.5953  0.3713
 5538SOL    HW128073   4.698   3.183   3.715 -1.7399 -3.6654 -2.4855
 5538SOL    HW228074   4.651   3.101   3.831  0.7566 -0.1274  0.4546
 5539SOL     OW28075   2.903   2.437   7.703  0.3306 -0.3985 -0.0439
 5539SOL    HW128076   2.971   2.496   7.669 -1.0075  0.8300 -0.5824
 5539SOL    HW228077   2.928   2.374   7.636  0.1172 -0.2427 -0.2688
 5540SOL     OW28078   2.864   3.623   3.091 -0.2489  0.2948  0.9966
 5540SOL    HW128079   2.778   3.624   3.049 -0.3134  1.8262  1.1514
 5540SOL    HW228080   2.860   3.566   3.168  0.4323 -2.0475 -0.7076
 5541SOL     OW28081   1.349   4.140   5.135 -0.4095 -0.0783 -0.0087
 5541SOL    HW128082   1.366   4.178   5.049  0.3100 -1.7343 -0.6110
 5541SOL    HW228083   1.273   4.191   5.161 -0.0824  2.0204 -3.1691
 5542SOL     OW28084   1.273   1.521   3.143  0.2357  0.3782  0.1590
 5542SOL    HW128085   1.337   1.518   3.215  0.7835  5.0633 -0.0883
 5542SOL    HW228086   1.332   1.573   3.088 -0.1335  0.9326  0.2900
 5543SOL     OW28087   2.079   0.406   1.794  0.3845  0.4050 -0.3006
 5543SOL    HW128088   2.055   0.420   1.702 -1.4093  1.2773  0.2988
 5543SOL    HW228089   1.989   0.400   1.825  0.3040 -0.0125 -0.6202
 5544SOL     OW28090   0.171   2.148   6.925  0.2986  0.5094  0.3744
 5544SOL    HW128091   0.236   2.082   6.902  0.1972 -0.5157  3.0150
 5544SOL    HW228092   0.157   2.126   7.017 -0.5459 -0.9662 -0.1091
 5545SOL     OW28093   2.334   0.191  11.005  0.1854 -0.2502 -0.1631
 5545SOL    HW128094   2.355   0.108  10.963 -2.0050 -0.1568 -1.4363
 5545SOL    HW228095   2.388   0.185  11.083 -1.8621  1.0221  1.3675
 5546SOL     OW28096   2.639   1.740   1.882  0.0786  0.2204 -0.1807
 5546SOL    HW128097   2.671   1.758   1.793  1.5754  2.1242  0.7480
 5546SOL    HW228098   2.715   1.761   1.937  1.4976  0.0116 -2.0525
 5547SOL     OW28099   0.022   0.527   8.455  0.4693 -0.6096  0.4868
 5547SOL    HW128100   0.021   0.618   8.425  1.1194 -2.5051 -5.1705
 5547SOL    HW228101   0.022   0.535   8.551 -0.1000  1.0799  0.3410
 5548SOL     OW28102   1.787   3.364   1.585  0.4411  0.1209  0.4746
 5548SOL    HW128103   1.817   3.393   1.671  1.3815  0.3040  0.0843
 5548SOL    HW228104   1.706   3.410   1.564  1.4204  1.4172 -0.4302
 5549SOL     OW28105   4.619   1.612   7.799 -0.4547 -0.1765 -0.0229
 5549SOL    HW128106   4.675   1.539   7.826 -0.1157 -1.0762 -3.1100
 5549SOL    HW228107   4.676   1.658   7.738  0.2641  0.2691  0.9971
 5550SOL     OW28108   4.107   1.879   3.962 -0.2803  0.1483  0.3219
 5550SOL    HW128109   4.032   1.939   3.963 -0.0176  0.5035 -0.6968
 5550SOL    HW228110   4.080   1.817   3.894 -2.7219 -0.2615  1.6532
 5551SOL     OW28111   0.254   1.557   3.262  0.3607  0.2199  0.3118
 5551SOL    HW128112   0.290   1.468   3.263 -0.7863 -0.2184  2.5526
 5551SOL    HW228113   0.260   1.577   3.169 -0.6469  1.0639  0.4344
 5552SOL     OW28114   2.004   1.696  12.404  0.5043 -0.4035 -0.2333
 5552SOL    HW128115   2.039   1.774  12.362  0.5341  0.3521  1.2069
 5552SOL    HW228116   1.961   1.723  12.485  2.4746  0.5518  0.4870
 5553SOL     OW28117   3.336   4.257   1.075 -0.1644  0.5935 -0.0911
 5553SOL    HW128118   3.314   4.267   0.983 -2.8347 -0.1332  0.4609
 5553SOL    HW228119   3.262   4.200   1.098 -1.3507  1.7552 -1.0431
 5554SOL     OW28120   0.426   3.831   5.127 -0.7553  0.3486  0.1647
 5554SOL    HW128121   0.454   3.777   5.200 -0.2261 -0.4382 -0.6163
 5554SOL    HW228122   0.391   3.898   5.185 -1.0331  1.2979 -1.0877
 5555SOL     OW28123   3.150   4.661   2.659 -0.1081  0.5452  0.2684
 5555SOL    HW128124   3.111   4.638   2.575 -0.3547  0.7364  0.3318
 5555SOL    HW228125   3.173   0.029   2.652  1.6115  0.1849  0.8775
 5556SOL     OW28126   1.980   1.375   5.186  0.2118 -0.1483 -0.1223
 5556SOL    HW128127   1.949   1.386   5.276  0.6132 -1.5784  0.2041
 5556SOL    HW228128   1.921   1.431   5.136  1.5674  2.0402  0.7213
 5557SOL     OW28129   2.920   3.117  10.226 -0.2476 -0.6078  0.6395
 5557SOL    HW128130   2.833   3.081  10.208 -0.0285  0.1718 -1.9634
 5557SOL    HW228131   2.978   3.042  10.215  1.1199  0.5930 -0.2977
 5558SOL     OW28132   0.302   0.024   8.812 -0.1027  0.6469 -0.0553
 5558SOL    HW128133   0.295   0.113   8.778 -0.1309  0.1088 -1.4572
 5558SOL    HW228134   0.334   4.713   8.729  0.8711 -2.1742  1.5090
 5559SOL     OW28135   4.186   2.216   2.567  0.0015 -0.5533  0.2701
 5559SOL    HW128136   4.111   2.159   2.555 -1.3503  1.0040  1.2773
 5559SOL    HW228137   4.132   2.293   2.586 -1.6054 -1.8779  0.9425
 5560SOL     OW28138   4.382   2.428   5.411 -0.2396 -0.2525  0.6567
 5560SOL    HW128139   4.301   2.440   5.461 -0.2697  1.8801  0.1193
 5560SOL    HW228140   4.368   2.338   5.381  2.7453 -0.1902 -0.9722
 5561SOL     OW28141   3.283   3.319   4.897 -0.1644  0.1289 -0.2815
 5561SOL    HW128142   3.324   3.353   4.817  1.2275  1.8226  1.1704
 5561SOL    HW228143   3.221   3.248   4.879 -0.8753  1.3730 -2.7865
 5562SOL     OW28144   1.649   0.650   0.578 -0.2712  0.3799 -0.3100
 5562SOL    HW128145   1.679   0.712   0.512 -0.0072  1.0589  0.4510
 5562SOL    HW228146   1.562   0.626   0.547  1.5162 -2.3502 -3.1222
 5563SOL     OW28147   3.873   1.543   6.916 -0.0449  0.5046  0.3671
 5563SOL    HW128148   3.883   1.567   7.008  1.5774  1.7017 -0.1145
 5563SOL    HW228149   3.787   1.502   6.923 -0.2039  0.3008 -2.6580
 5564SOL     OW28150   4.602   3.620   2.743  0.3922 -0.0354 -0.7908
 5564SOL    HW128151   4.666   3.691   2.744 -1.2095  1.3973  0.2030
 5564SOL    HW228152   4.667   3.550   2.747  1.7100  1.1026 -2.8350
 5565SOL     OW28153   2.450   0.356  16.349 -0.2102  0.0563  0.5289
 5565SOL    HW128154   2.407   0.375  16.266  1.6629  0.8956 -0.2531
 5565SOL    HW228155   2.537   0.390  16.329 -1.4102  1.2876 -2.5817
 5566SOL     OW28156   3.834   1.568  17.464 -0.3925  0.2966 -0.1015
 5566SOL    HW128157   3.762   1.577  17.526  0.4242 -1.3178  1.1070
 5566SOL    HW228158   3.903   1.525  17.515 -2.1702 -3.8050 -1.1397
 5567SOL     OW28159   2.354   1.926   2.668  0.0757  0.0019  0.0577
 5567SOL    HW128160   2.418   1.900   2.734 -0.5951 -1.6499  0.0589
 5567SOL    HW228161   2.418   1.954   2.602 -0.2621  0.0813 -0.2336
 5568SOL     OW28162   3.187   2.986   2.349 -0.3227 -0.6689  0.0002
 5568SOL    HW128163   3.211   2.966   2.439  0.7328 -0.1647 -0.1750
 5568SOL    HW228164   3.228   3.072   2.343  0.2603 -0.8232  1.8719
 5569SOL     OW28165   0.113   3.179   8.185  0.7997  0.1563 -0.8573
 5569SOL    HW128166   0.108   3.274   8.195  1.6690  0.2694 -1.5041
 5569SOL    HW228167   0.194   3.154   8.229  0.7311  2.3689  0.4761
 5570SOL     OW28168   0.491   3.176   3.607 -0.4917  0.0683 -0.1830
 5570SOL    HW128169   0.492   3.217   3.521 -0.3256 -0.4499 -0.4309
 5570SOL    HW228170   0.442   3.097   3.584  0.0296 -0.3244  0.0475
 5571SOL     OW28171   1.411   2.983  13.468 -0.8011  0.7198 -0.0453
 5571SOL    HW128172   1.439   3.074  13.470  3.2898 -0.5380  0.5557
 5571SOL    HW228173   1.319   2.999  13.491 -1.0503  0.6289 -0.9862
 5572SOL     OW28174   1.662   3.768   4.801 -0.1282  0.6718 -0.1096
 5572SOL    HW128175   1.756   3.782   4.809 -0.3565  3.1856 -1.9462
 5572SOL    HW228176   1.632   3.859   4.803 -1.6874  0.1220  1.8337
 5573SOL     OW28177   1.506   3.338  14.366 -0.2383  0.0330 -0.2803
 5573SOL    HW128178   1.457   3.299  14.294  0.7380  0.6762 -1.3098
 5573SOL    HW228179   1.572   3.383  14.313  0.0506  0.6742  0.6277
 5574SOL     OW28180   1.568   1.119   0.492 -0.4532 -0.1123 -0.0709
 5574SOL    HW128181   1.656   1.110   0.456 -0.8823 -0.0287 -1.1370
 5574SOL    HW228182   1.585   1.200   0.540  1.5613 -0.0945 -0.8389
 5575SOL     OW28183   4.186   0.741   5.550 -0.4056  0.0360 -0.5748
 5575SOL    HW128184   4.275   0.745   5.583 -0.4529 -3.1653 -0.0777
 5575SOL    HW228185   4.181   0.686   5.472  0.5784  1.3362 -1.5508
 5576SOL     OW28186   4.457   2.105  10.515 -0.1719  0.1122  0.3676
 5576SOL    HW128187   4.499   2.050  10.449 -0.0768  1.7399 -0.9198
 5576SOL    HW228188   4.526   2.117  10.580 -0.2603  1.7026  0.1514
 5577SOL     OW28189   1.465   4.712   8.784 -0.0629  0.7031  0.4814
 5577SOL    HW128190   1.525   4.704   8.858  1.5674  1.4810 -0.7694
 5577SOL    HW228191   1.377   4.702   8.819 -0.3334 -0.7249 -0.6081
 5578SOL     OW28192   4.429   3.761   5.164 -0.2125  0.0132  0.6098
 5578SOL    HW128193   4.352   3.763   5.108  0.0940 -1.1534  0.1502
 5578SOL    HW228194   4.451   3.854   5.155 -0.1803 -0.1075 -0.5445
 5579SOL     OW28195   1.713   2.858   2.712  0.3939  0.5716  0.2429
 5579SOL    HW128196   1.653   2.807   2.767  1.9620 -2.1299 -0.6218
 5579SOL    HW228197   1.739   2.929   2.771 -1.0523  0.5136  0.9495
 5580SOL     OW28198   0.790   1.649   3.624 -0.8031  0.3881 -0.1793
 5580SOL    HW128199   0.708   1.602   3.608  0.7009 -2.3751  0.1263
 5580SOL    HW228200   0.837   1.587   3.679  1.2353  0.1172 -2.2519
 5581SOL     OW28201   3.303   1.117   8.549  0.3651  0.2312 -0.4298
 5581SOL    HW128202   3.325   1.131   8.641  1.2545  0.6284 -0.7010
 5581SOL    HW228203   3.390   1.103   8.512  0.3353  0.1578 -0.4718
 5582SOL     OW28204   1.629   1.367  14.237  0.1851  0.1131 -0.1192
 5582SOL    HW128205   1.696   1.367  14.169 -0.4059  0.0079 -0.7094
 5582SOL    HW228206   1.557   1.323  14.191 -1.1419  3.3283 -1.1674
 5583SOL     OW28207   4.313   4.172   2.925 -0.5859 -0.4226 -0.8336
 5583SOL    HW128208   4.333   4.105   2.859 -1.9568 -2.9911  1.3366
 5583SOL    HW228209   4.321   4.122   3.006 -2.2012 -1.3547 -1.2452
 5584SOL     OW28210   3.609   4.269   8.701 -0.3365  0.4794  0.6682
 5584SOL    HW128211   3.557   4.334   8.653 -1.5561  0.3432  1.7866
 5584SOL    HW228212   3.686   4.325   8.710 -0.4303  0.8163 -0.6254
 5585SOL     OW28213   4.290   1.944   6.635  0.7560 -0.2562  0.2235
 5585SOL    HW128214   4.287   1.849   6.624 -2.8788 -0.1727  0.6760
 5585SOL    HW228215   4.207   1.957   6.680 -0.4855 -0.3536 -2.0413
 5586SOL     OW28216   3.698   1.019  12.988 -0.3612 -0.5824  0.0804
 5586SOL    HW128217   3.730   0.929  12.984  0.9086 -0.0807 -1.0009
 5586SOL    HW228218   3.632   1.022  13.058  0.9794  0.2802  1.2988
 5587SOL     OW28219   2.678   1.535   3.560 -0.2367  0.3266 -0.3610
 5587SOL    HW128220   2.619   1.467   3.594 -1.6698  0.5656 -2.3400
 5587SOL    HW228221   2.756   1.483   3.541  0.8342  1.3234  1.3959
 5588SOL     OW28222   2.172   1.577   4.540 -0.4158  0.0653 -0.7516
 5588SOL    HW128223   2.088   1.609   4.507 -0.4750  1.9184  1.1610
 5588SOL    HW228224   2.242   1.628   4.500  0.6266 -0.6385  0.1743
 5589SOL     OW28225   2.856   1.693  14.208  0.7862  0.5322 -0.4006
 5589SOL    HW128226   2.860   1.765  14.271  2.5045 -0.8556  1.0822
 5589SOL    HW228227   2.771   1.654  14.225  1.1260 -0.9897 -2.0721
 5590SOL     OW28228   4.567   4.352  17.006 -0.2057  0.1388  0.0190
 5590SOL    HW128229   4.659   4.326  17.000 -0.2691 -0.0216 -0.2620
 5590SOL    HW228230   4.549   4.381  16.916  1.6135  1.2711  0.0240
 5591SOL     OW28231   1.011   2.890   5.950  0.3268 -0.1677  0.2737
 5591SOL    HW128232   0.946   2.833   5.991 -1.0379  0.2881 -1.2543
 5591SOL    HW228233   1.000   2.972   5.999 -0.6871 -0.9269  1.2956
 5592SOL     OW28234   1.831   4.109  15.087  0.6011  0.1364  0.1215
 5592SOL    HW128235   1.903   4.129  15.027 -0.2691 -0.6059 -1.1599
 5592SOL    HW228236   1.839   4.014  15.086 -0.2247  0.0394  2.1446
 5593SOL     OW28237   3.008   1.572   4.835 -0.5738 -0.4307 -0.5731
 5593SOL    HW128238   2.997   1.663   4.861  0.2227  0.1950 -2.4090
 5593SOL    HW228239   2.946   1.523   4.890 -0.4822 -0.1775 -0.2453
 5594SOL     OW28240   3.491   1.590   3.538  0.2621  0.3261 -0.0097
 5594SOL    HW128241   3.416   1.554   3.585  0.0702  1.2085  0.3451
 5594SOL    HW228242   3.542   1.596   3.619 -0.3837 -1.8612  0.5655
 5595SOL     OW28243   3.194   2.585   7.115 -0.0038  0.5625  0.1157
 5595SOL    HW128244   3.229   2.604   7.202 -1.3719  0.0236  0.7819
 5595SOL    HW228245   3.102   2.595   7.140  0.5011  2.8727  1.0306
 5596SOL     OW28246   0.942   0.555   2.148 -0.1985 -0.4218  0.1578
 5596SOL    HW128247   1.023   0.599   2.125  0.1043 -1.5460 -0.8814
 5596SOL    HW228248   0.910   0.614   2.216  0.4042 -0.6465  0.6343
 5597SOL     OW28249   0.460   3.826   1.191 -0.2240  0.2276 -0.3439
 5597SOL    HW128250   0.509   3.901   1.224  1.1281 -1.0718  0.6232
 5597SOL    HW228251   0.521   3.811   1.118  0.0994  3.1874 -0.6576
 5598SOL     OW28252   3.376   0.196   7.340 -0.6350  0.0579  0.6059
 5598SOL    HW128253   3.469   0.177   7.329 -0.9942 -2.8732  2.7159
 5598SOL    HW228254   3.330   0.174   7.259 -0.9088 -0.6803  0.9676
 5599SOL     OW28255   2.838   3.413   9.345 -0.3424 -0.5339 -0.5075
 5599SOL    HW128256   2.764   3.402   9.285 -0.3711  2.9533 -1.0990
 5599SOL    HW228257   2.872   3.498   9.318 -0.5740 -0.4312 -0.4774
 5600SOL     OW28258   1.482   4.246   5.763 -0.1069  0.4023 -0.5150
 5600SOL    HW128259   1.430   4.219   5.839  0.0706  2.3971  0.3170
 5600SOL    HW228260   1.457   4.338   5.766  1.7154  0.9225 -1.0452
 5601SOL     OW28261   3.020   3.742   6.004 -0.0205  0.6000  0.1957
 5601SOL    HW128262   3.087   3.765   6.069 -0.5949  3.6530 -0.2763
 5601SOL    HW228263   2.985   3.827   5.975 -0.2644  0.0387 -1.1725
 5602SOL     OW28264   0.709   0.297  12.984 -0.8003  0.5089 -0.3317
 5602SOL    HW128265   0.732   0.262  12.898 -1.3575  0.4624 -0.4597
 5602SOL    HW228266   0.740   0.227  13.042 -0.9198 -0.0493 -0.9433
 5603SOL     OW28267   4.295   0.874   4.970 -0.5452  0.1862 -0.5439
 5603SOL    HW128268   4.303   0.779   4.957 -1.7295  0.2667 -1.7679
 5603SOL    HW228269   4.232   0.904   4.905 -0.0773  0.5648 -0.8259
 5604SOL     OW28270   2.886   0.337   5.365  0.1400  0.3671  0.2133
 5604SOL    HW128271   2.948   0.379   5.423 -0.1686  1.2142 -0.0684
 5604SOL    HW228272   2.805   0.379   5.395 -0.0343  0.0180  0.2284
 5605SOL     OW28273   3.396   4.264   6.377 -0.1530 -0.6909 -0.1916
 5605SOL    HW128274   3.488   4.288   6.388 -0.5169  1.7796 -2.5610
 5605SOL    HW228275   3.360   4.334   6.431 -0.3540  0.2939 -1.6078
 5606SOL     OW28276   3.574   0.400   0.819  0.1044  0.4721 -0.2065
 5606SOL    HW128277   3.623   0.399   0.901 -0.3248 -2.0220  0.0029
 5606SOL    HW228278   3.641   0.399   0.750  0.1501  1.4900 -0.1835
 5607SOL     OW28279   1.949   0.284   6.210  0.0022  0.4467  0.0579
 5607SOL    HW128280   1.868   0.239   6.234 -0.9612  1.1727 -1.8216
 5607SOL    HW228281   1.950   0.267   6.116  3.8687 -1.5595  0.4622
 5608SOL     OW28282   0.568   2.340   8.629  0.2844 -0.4727  0.0016
 5608SOL    HW128283   0.560   2.351   8.534 -2.0352 -0.7024  0.1716
 5608SOL    HW228284   0.587   2.429   8.657 -2.9594 -0.8927  3.6024
 5609SOL     OW28285   0.951   1.384   6.868 -0.0344  0.1285  0.1735
 5609SOL    HW128286   1.001   1.378   6.786  0.4749  4.6111  0.1701
 5609SOL    HW228287   0.894   1.459   6.854  0.1248  0.0856 -0.7343
 5610SOL     OW28288   4.438   2.450   2.226 -0.2711  0.5458 -0.0358
 5610SOL    HW128289   4.364   2.509   2.215  0.7070  1.8941  0.5609
 5610SOL    HW228290   4.390   2.368   2.234  0.0349  0.4637  0.9381
 5611SOL     OW28291   1.119   1.150   0.112  0.3606 -0.5857 -0.8285
 5611SOL    HW128292   1.060   1.076   0.123 -0.3496 -0.0176 -0.8312
 5611SOL    HW228293   1.078   1.190   0.036 -0.7271 -1.7068 -0.8323
 5612SOL     OW28294   3.193   1.423   5.581 -0.0790  0.2929 -0.5095
 5612SOL    HW128295   3.188   1.376   5.498 -1.9691 -0.3703 -0.0082
 5612SOL    HW228296   3.270   1.481   5.578 -0.6358  0.9695 -1.5463
 5613SOL     OW28297   0.355   0.383   8.181 -0.1522 -0.1370 -0.5408
 5613SOL    HW128298   0.289   0.341   8.235 -0.3774  0.6869 -0.1767
 5613SOL    HW228299   0.292   0.452   8.164  1.7545  1.4920 -1.0530
 5614SOL     OW28300   2.114   0.589   2.756  0.2527 -0.4296  0.0381
 5614SOL    HW128301   2.126   0.683   2.745  1.3438 -0.9932 -3.5975
 5614SOL    HW228302   2.151   0.558   2.673 -1.9728 -3.6225  0.2367
 5615SOL     OW28303   3.422   0.026   6.890  0.1012 -0.0007 -0.3052
 5615SOL    HW128304   3.465   4.664   6.888 -1.2975 -0.7141  0.2463
 5615SOL    HW228305   3.492   0.089   6.907 -0.5557  0.3500  1.0845
 5616SOL     OW28306   3.288   3.332   6.158  0.3467  0.0548  0.3773
 5616SOL    HW128307   3.218   3.396   6.147  0.5634  0.5112  1.6513
 5616SOL    HW228308   3.251   3.298   6.239 -0.7776  1.1788  0.3286
 5617SOL     OW28309   1.879   0.861  12.964  0.8724 -0.1655 -0.1058
 5617SOL    HW128310   1.839   0.809  12.894 -1.9561 -0.9677  2.0938
 5617SOL    HW228311   1.874   0.797  13.035 -1.3513 -0.7422 -0.7909
 5618SOL     OW28312   0.468   4.501  10.407 -0.4469 -0.4800 -0.0326
 5618SOL    HW128313   0.417   4.497  10.327 -1.4628 -0.6887  0.6244
 5618SOL    HW228314   0.394   4.537  10.456 -1.0994  0.3622 -1.6394
 5619SOL     OW28315   1.896   2.282   7.680 -0.3007  0.4881  0.1313
 5619SOL    HW128316   1.834   2.218   7.714 -1.2133  1.0596 -0.4538
 5619SOL    HW228317   1.909   2.248   7.591 -1.9450 -3.4835  1.4282
 5620SOL     OW28318   2.575   1.854   2.788 -0.0552 -0.1925 -0.3719
 5620SOL    HW128319   2.576   1.942   2.826 -0.8569  0.5401 -2.0541
 5620SOL    HW228320   2.604   1.804   2.865  1.2643  1.5014  0.2361
 5621SOL     OW28321   0.825   4.293   0.065 -0.1157  0.6355  0.2810
 5621SOL    HW128322   0.882   4.302   0.141  1.8390 -1.9252 -0.9139
 5621SOL    HW228323   0.886   4.280  17.693 -0.5614  0.3021 -0.0418
 5622SOL     OW28324   2.334   4.578   2.025  0.4174  0.0561 -0.3181
 5622SOL    HW128325   2.404   4.606   2.084 -0.5550 -1.7024  1.6717
 5622SOL    HW228326   2.303   4.668   2.022  0.0960  0.0004  1.3203
 5623SOL     OW28327   0.072   3.773   4.753 -0.0292 -0.1317 -0.0666
 5623SOL    HW128328   0.038   3.844   4.806 -0.0703  0.6041 -1.0915
 5623SOL    HW228329   4.722   3.715   4.736 -0.3960  0.0667  0.8642
 5624SOL     OW28330   1.790   2.449   7.250  0.4635 -0.2012  0.2378
 5624SOL    HW128331   1.772   2.379   7.187 -2.3154  0.2159  0.5608
 5624SOL    HW228332   1.739   2.422   7.326  1.0901 -2.1405 -0.0230
 5625SOL     OW28333   0.643   2.020   4.318  0.9158 -0.5908  0.2536
 5625SOL    HW128334   0.716   2.010   4.257  0.0667 -0.5242 -0.7836
 5625SOL    HW228335   0.610   1.931   4.324 -0.5141 -0.0968 -0.2700
 5626SOL     OW28336   2.653   3.371  12.507  0.2556 -0.7375  0.1392
 5626SOL    HW128337   2.647   3.417  12.591  1.8227 -1.7381  0.7980
 5626SOL    HW228338   2.656   3.451  12.455 -2.0317 -1.1040 -0.5719
 5627SOL     OW28339   0.596   1.685   0.357 -0.0357 -0.3160 -0.4014
 5627SOL    HW128340   0.596   1.781   0.357  1.3075 -0.3156 -0.3724
 5627SOL    HW228341   0.587   1.655   0.267 -2.3963  0.8381 -0.5523
 5628SOL     OW28342   2.345   3.499   3.266 -0.6786  0.6064  0.7199
 5628SOL    HW128343   2.414   3.562   3.286  0.6462 -0.5504 -0.2657
 5628SOL    HW228344   2.335   3.512   3.172 -1.0997 -0.5224  0.6040
 5629SOL     OW28345   2.779   4.313   3.499  0.3605 -0.4432  0.4557
 5629SOL    HW128346   2.767   4.281   3.409 -0.0467  0.0073  0.3498
 5629SOL    HW228347   2.687   4.333   3.516  0.6336  1.6586 -0.5969
 5630SOL     OW28348   2.684   0.183   7.500 -0.3934 -0.1812 -0.2925
 5630SOL    HW128349   2.634   0.200   7.580 -1.7935 -0.4145 -1.1128
 5630SOL    HW228350   2.706   0.275   7.485  1.5100 -0.6676 -0.4657
 5631SOL     OW28351   0.678   0.758  11.235  0.0595  0.3477  0.1387
 5631SOL    HW128352   0.653   0.668  11.256  0.0253  0.2640 -0.2529
 5631SOL    HW228353   0.772   0.744  11.227 -0.4361 -1.5322 -2.4291
 5632SOL     OW28354   4.190   0.412  16.816  0.1552 -0.3383 -0.1065
 5632SOL    HW128355   4.230   0.492  16.781  1.1424 -0.2870  1.1167
 5632SOL    HW228356   4.204   0.348  16.746 -0.4094  0.9060 -1.3603
 5633SOL     OW28357   0.804   0.726   5.795 -0.0585  1.1942 -0.0643
 5633SOL    HW128358   0.841   0.637   5.803 -1.3750  0.7346  0.8864
 5633SOL    HW228359   0.734   0.724   5.860 -1.3786 -0.2139 -1.5458
 5634SOL     OW28360   4.437   1.213  14.603  0.2439 -0.3521  0.2596
 5634SOL    HW128361   4.373   1.158  14.558  0.1993  0.5940 -0.8126
 5634SOL    HW228362   4.510   1.157  14.575 -0.2901 -1.3534  0.8398
 5635SOL     OW28363   1.728   4.016   2.698  0.0586 -0.2572  0.0756
 5635SOL    HW128364   1.673   3.966   2.638  0.0054  0.0169 -0.1038
 5635SOL    HW228365   1.817   3.980   2.698  0.3317  0.4677 -3.5501
 5636SOL     OW28366   4.682   4.064   7.128  0.1360 -0.3625  0.3440
 5636SOL    HW128367   4.637   4.083   7.046  0.9883 -2.5468 -0.6486
 5636SOL    HW228368   0.046   4.096   7.108 -1.2119  1.1241 -3.3019
 5637SOL     OW28369   3.429   0.819   7.581 -0.0302  0.2727 -0.0252
 5637SOL    HW128370   3.481   0.870   7.643 -1.4669  2.1958 -0.3939
 5637SOL    HW228371   3.410   0.873   7.505 -1.6438  1.5847  1.2875
 5638SOL     OW28372   3.181   3.312   1.784  0.7578 -0.5900 -0.2229
 5638SOL    HW128373   3.115   3.243   1.778 -1.5605  1.7763 -1.5703
 5638SOL    HW228374   3.211   3.319   1.693  1.0504  1.8573  0.0769
 5639SOL     OW28375   3.925   2.268   2.246 -0.0003 -0.1877  0.2964
 5639SOL    HW128376   3.949   2.250   2.156  1.3504 -3.0896  1.2406
 5639SOL    HW228377   3.929   2.182   2.288  0.7014  0.4616  1.5596
 5640SOL     OW28378   2.521   1.547   7.981 -0.0633  0.3946 -0.0401
 5640SOL    HW128379   2.611   1.575   7.966  0.8274 -0.6104  3.2785
 5640SOL    HW228380   2.524   1.548   8.077  2.3253 -2.5016 -0.0952
 5641SOL     OW28381   1.577   0.165  14.675  0.1303  0.4715 -0.4588
 5641SOL    HW128382   1.636   0.219  14.727 -1.4605  2.8977 -1.1862
 5641SOL    HW228383   1.602   0.186  14.585 -1.9331  2.0048 -0.6706
 5642SOL     OW28384   1.779   0.287   1.117 -0.1476 -0.5983  0.6804
 5642SOL    HW128385   1.875   0.278   1.110 -0.3893 -0.4437 -2.7188
 5642SOL    HW228386   1.758   0.266   1.026 -1.8419  0.5853  0.7999
 5643SOL     OW28387   1.040   2.658   6.473  0.0655  0.1165 -0.0260
 5643SOL    HW128388   0.948   2.662   6.499 -0.1745  2.2911 -1.1884
 5643SOL    HW228389   1.029   2.580   6.419 -2.1817  1.2936 -1.2801
 5644SOL     OW28390   1.709   0.648   0.161  0.1544  0.9398 -0.1545
 5644SOL    HW128391   1.707   0.717   0.227  0.8617  0.7573  0.0493
 5644SOL    HW228392   1.627   0.655   0.111 -0.0598 -0.7476 -0.0400
 5645SOL     OW28393   3.668   3.323   9.259  0.5926  0.4908 -0.1703
 5645SOL    HW128394   3.701   3.410   9.237  1.2760 -0.2609 -2.1547
 5645SOL    HW228395   3.573   3.339   9.263  0.3012 -1.9901  2.2049
 5646SOL     OW28396   1.868   2.013   4.789  0.3615  0.4929 -0.2152
 5646SOL    HW128397   1.878   1.978   4.877  2.2354 -0.6109 -0.8599
 5646SOL    HW228398   1.795   2.070   4.812  0.7945  0.9711 -0.0415
 5647SOL     OW28399   1.428   0.041   8.503 -0.2086  1.3206  0.4314
 5647SOL    HW128400   1.454   0.003   8.587  0.4998  1.4748  0.2832
 5647SOL    HW228401   1.347   0.002   8.469 -0.0081  0.5561  0.8319
 5648SOL     OW28402   1.471   1.417   2.683 -0.4622  0.2824 -0.0898
 5648SOL    HW128403   1.452   1.393   2.592 -1.2568 -0.7442  0.3533
 5648SOL    HW228404   1.557   1.460   2.678 -0.0284 -0.7994 -1.9402
 5649SOL     OW28405   1.061   3.566   4.661  0.0331 -0.1185 -0.0284
 5649SOL    HW128406   1.141   3.517   4.641 -0.1082 -0.0640 -0.7473
 5649SOL    HW228407   0.995   3.523   4.607 -0.0473  1.2889 -1.0624
 5650SOL     OW28408   3.804   3.705  12.998  0.0519  0.0801 -0.8311
 5650SOL    HW128409   3.758   3.623  12.980 -0.3205 -0.4116  2.5021
 5650SOL    HW228410   3.826   3.696  13.090 -0.8858 -3.0404 -0.9179
 5651SOL     OW28411   3.683   1.364  13.142  0.3969 -0.5719 -0.5683
 5651SOL    HW128412   3.750   1.423  13.108 -1.0107 -0.2015 -2.7106
 5651SOL    HW228413   3.650   1.326  13.061  0.0009  1.1766 -1.2132
 5652SOL     OW28414   0.950   3.245   2.814 -0.2204  0.6870  0.2446
 5652SOL    HW128415   1.010   3.183   2.773 -1.0064 -0.6318  1.0826
 5652SOL    HW228416   1.001   3.326   2.811  0.8877  0.0413  1.4587
 5653SOL     OW28417   1.144   1.283   7.030 -0.1530  0.2751 -0.2593
 5653SOL    HW128418   1.088   1.276   7.108 -1.4854 -0.7910 -1.3175
 5653SOL    HW228419   1.092   1.331   6.966 -0.9608 -0.2582 -0.0062
 5654SOL     OW28420   2.025   0.137   2.696 -0.8716  0.1042  0.1209
 5654SOL    HW128421   1.941   0.181   2.708 -0.7877 -0.5813  3.1700
 5654SOL    HW228422   2.033   0.146   2.601  2.1574  0.2442  0.3807
 5655SOL     OW28423   4.559   4.502   6.337  0.4784 -0.0576 -0.3340
 5655SOL    HW128424   4.544   4.596   6.344  1.6954  0.1754 -1.0114
 5655SOL    HW228425   4.639   4.505   6.390 -1.4309 -0.9888  2.6482
 5656SOL     OW28426   0.427   2.371  11.189 -0.0244  0.3532 -0.0707
 5656SOL    HW128427   0.502   2.430  11.187 -1.5606  2.1901 -2.9765
 5656SOL    HW228428   0.366   2.445  11.189  0.2750  0.5884 -3.1785
 5657SOL     OW28429   1.337   1.731  15.444  0.2466 -0.0713  0.1774
 5657SOL    HW128430   1.298   1.804  15.395  1.1636 -0.9248 -1.8010
 5657SOL    HW228431   1.275   1.727  15.517 -0.3541 -1.2781 -0.3932
 5658SOL     OW28432   3.915   4.207   5.954 -1.1434  0.2789 -0.5255
 5658SOL    HW128433   3.824   4.183   5.936 -0.7150 -1.0664 -0.9162
 5658SOL    HW228434   3.912   4.277   5.889  3.0727 -0.0280 -1.0592
 5659SOL     OW28435   2.687   1.304  12.938  0.3195 -0.0590  0.0670
 5659SOL    HW128436   2.726   1.267  13.017 -2.0090 -1.2670  0.6342
 5659SOL    HW228437   2.627   1.371  12.970 -1.8998 -2.6724  1.3519
 5660SOL     OW28438   4.572   3.737  10.450  0.4654  0.1266  0.2817
 5660SOL    HW128439   4.617   3.819  10.429  1.0357 -0.2700 -0.0676
 5660SOL    HW228440   4.519   3.760  10.526  1.2026 -2.9352  1.7396
 5661SOL     OW28441   3.408   3.928   7.506  1.0287 -0.1188 -0.0518
 5661SOL    HW128442   3.417   3.907   7.599 -0.7938 -1.4136 -0.1813
 5661SOL    HW228443   3.495   3.957   7.479  0.5829  2.2419  0.9831
 5662SOL     OW28444   4.406   1.332  16.411  0.8624 -0.3609 -0.8000
 5662SOL    HW128445   4.315   1.362  16.407  0.5460 -1.3051 -0.5346
 5662SOL    HW228446   4.436   1.362  16.497 -1.6165 -2.0195  0.6369
 5663SOL     OW28447   3.916   0.169  16.710  0.1483 -0.2891 -0.7163
 5663SOL    HW128448   3.999   0.123  16.697 -1.7050 -2.8407 -3.4297
 5663SOL    HW228449   3.854   0.099  16.693 -1.1977  0.0961  2.5833
 5664SOL     OW28450   2.931   1.533   8.683 -0.3242 -0.1263 -0.2928
 5664SOL    HW128451   2.842   1.562   8.704 -0.2969  1.5560 -2.4789
 5664SOL    HW228452   2.964   1.617   8.650  0.3616 -1.5431 -3.1801
 5665SOL     OW28453   3.984   1.815   2.549  0.6364  0.2230 -0.1242
 5665SOL    HW128454   4.020   1.733   2.514 -1.3193 -0.0646 -1.4378
 5665SOL    HW228455   3.903   1.807   2.499 -1.1939 -0.8878  3.0815
 5666SOL     OW28456   2.559   4.715  10.113  0.5310 -0.1837  0.8222
 5666SOL    HW128457   2.554   4.621  10.096  4.3843 -0.4581  1.2814
 5666SOL    HW228458   2.552   0.036  10.029 -0.3324 -0.7438  0.5914
 5667SOL     OW28459   0.256   4.642   2.198 -0.3881 -0.2893  0.2667
 5667SOL    HW128460   0.220   4.563   2.238 -0.0141 -0.7111 -0.2240
 5667SOL    HW228461   0.326   4.668   2.258 -2.0798 -0.1949  2.1997
 5668SOL     OW28462   3.639   1.269   6.182 -0.2037 -0.0614  0.0281
 5668SOL    HW128463   3.729   1.250   6.153  0.1263  0.9599  0.3830
 5668SOL    HW228464   3.651   1.231   6.269 -0.5181  0.6308  0.3681
 5669SOL     OW28465   4.293   3.036  16.411 -0.0489 -0.1965  0.1938
 5669SOL    HW128466   4.228   2.975  16.446 -1.1325  1.3609  0.9480
 5669SOL    HW228467   4.233   3.105  16.383  0.4989 -0.1155 -0.7728
 5670SOL     OW28468   0.156   3.931   1.709  0.5235  0.0753  0.0157
 5670SOL    HW128469   0.099   3.919   1.634  0.6466 -2.8855  0.3994
 5670SOL    HW228470   0.099   3.985   1.763 -1.3344  0.0093 -1.8991
 5671SOL     OW28471   3.423   0.879  17.093 -0.3078  0.5573  0.3565
 5671SOL    HW128472   3.408   0.935  17.169  0.1214  0.6833  0.3525
 5671SOL    HW228473   3.352   0.816  17.101 -0.9821  1.2408 -0.2568
 5672SOL     OW28474   2.312   0.322  15.105  0.3238 -0.2279  0.0085
 5672SOL    HW128475   2.319   0.309  15.010  3.3987  0.4656  0.1375
 5672SOL    HW228476   2.380   0.387  15.124  0.5454 -0.2672 -0.6535
 5673SOL     OW28477   4.326   3.111   7.573  0.1154 -0.2371  1.0236
 5673SOL    HW128478   4.296   3.201   7.561  2.9730  0.8263  1.7448
 5673SOL    HW228479   4.244   3.064   7.556  0.6236 -0.9242  0.4651
 5674SOL     OW28480   2.499   4.614   5.336  0.5942 -0.2911 -0.2550
 5674SOL    HW128481   2.428   4.624   5.398 -0.9933  1.5575 -2.3460
 5674SOL    HW228482   2.506   4.708   5.319  0.1840 -0.4383 -1.2715
 5675SOL     OW28483   0.368   2.224  16.161  0.4401 -0.2407 -0.0445
 5675SOL    HW128484   0.449   2.196  16.204 -0.3826 -1.4760  0.6885
 5675SOL    HW228485   0.325   2.140  16.150  0.3867 -0.3303  0.8787
 5676SOL     OW28486   3.417   1.193   8.820  0.0253 -0.3822  0.1798
 5676SOL    HW128487   3.505   1.219   8.792 -0.3817 -0.8868 -1.5766
 5676SOL    HW228488   3.389   1.277   8.856  0.3289 -0.4481  0.5727
 5677SOL     OW28489   2.149   0.483   0.058 -0.0037  0.1809 -0.7984
 5677SOL    HW128490   2.180   0.434  17.681  0.1566  0.0795 -0.6674
 5677SOL    HW228491   2.220   0.500   0.119 -1.5678 -2.6098  1.8278
 5678SOL     OW28492   1.740   4.685  15.248  0.3790 -0.1492 -0.6838
 5678SOL    HW128493   1.794   4.609  15.270  0.4461  0.0627 -0.1127
 5678SOL    HW228494   1.802   0.015  15.198 -0.1507  1.2973  0.2370
 5679SOL     OW28495   0.180   3.216   6.330 -0.3653 -0.5986  0.5552
 5679SOL    HW128496   0.193   3.284   6.396  0.0163  0.1113 -0.2494
 5679SOL    HW228497   0.208   3.140   6.381  1.4985 -0.8724 -0.8740
 5680SOL     OW28498   2.529   1.125   3.198  0.0478  0.2926  0.2255
 5680SOL    HW128499   2.603   1.183   3.180  1.8572 -1.7362  1.0198
 5680SOL    HW228500   2.448   1.173   3.186  1.1583  2.0169 -0.3739
 5681SOL     OW28501   0.534   3.034  13.544  0.4758  0.2976  0.4253
 5681SOL    HW128502   0.503   2.962  13.600  1.4998  0.1136  0.7602
 5681SOL    HW228503   0.616   2.991  13.522  0.5387 -0.0275  1.2788
 5682SOL     OW28504   3.780   4.093   6.580 -0.0273 -0.0760  0.1699
 5682SOL    HW128505   3.858   4.139   6.548  0.5392 -0.0499  1.5839
 5682SOL    HW228506   3.755   4.154   6.649 -0.6432 -1.9319  1.6017
 5683SOL     OW28507   3.420   1.925   2.548 -0.2306 -0.3465  0.5965
 5683SOL    HW128508   3.438   1.841   2.589 -2.2397 -0.9430  0.2657
 5683SOL    HW228509   3.325   1.914   2.555 -0.3558 -0.8548 -1.8771
 5684SOL     OW28510   4.178   3.978  17.540 -0.2718  0.4971 -0.4014
 5684SOL    HW128511   4.138   4.019  17.463 -1.5048 -1.0155 -0.5679
 5684SOL    HW228512   4.167   4.046  17.607  0.9837 -0.5944  0.9314
 5685SOL     OW28513   1.398   2.761  17.171  0.6669  0.2874  0.3677
 5685SOL    HW128514   1.462   2.721  17.230  0.1181  1.4412  1.7737
 5685SOL    HW228515   1.320   2.752  17.227  0.8024 -1.6017  0.2473
 5686SOL     OW28516   4.698   3.962  16.290  0.5722 -0.3964  0.0029
 5686SOL    HW128517   0.015   4.022  16.227 -0.4124  0.7262  0.4315
 5686SOL    HW228518   4.611   3.941  16.255  0.1504  1.1581  0.1271
 5687SOL     OW28519   0.717   3.242   4.337 -0.3186  0.6420 -0.1283
 5687SOL    HW128520   0.665   3.193   4.401  0.6106  0.0219  0.1566
 5687SOL    HW228521   0.779   3.175   4.310 -2.7067 -0.9574 -1.6164
 5688SOL     OW28522   4.033   4.624   3.328 -1.0014  0.2187 -0.1929
 5688SOL    HW128523   3.982   4.570   3.267 -1.5120  0.2996  0.1603
 5688SOL    HW228524   4.063   4.686   3.262 -2.0378  0.4584 -0.4385
 5689SOL     OW28525   0.272   4.333   0.834 -0.7965 -0.0445  1.0488
 5689SOL    HW128526   0.312   4.403   0.885 -1.9265  0.2860  1.4868
 5689SOL    HW228527   0.244   4.374   0.752  0.3705 -0.2359  0.5567
 5690SOL     OW28528   1.160   0.339  16.483  0.1034  0.4765  0.2348
 5690SOL    HW128529   1.246   0.365  16.449 -0.0613  0.5943 -0.0934
 5690SOL    HW228530   1.162   0.244  16.481  0.3808  0.5022 -0.8128
 5691SOL     OW28531   1.060   0.271  11.442 -0.0268  0.4544  0.0172
 5691SOL    HW128532   1.136   0.325  11.421  0.5065 -0.0681  0.5994
 5691SOL    HW228533   1.051   0.279  11.537 -1.2207 -1.8283  0.1183
 5692SOL     OW28534   0.982   4.031  12.030  0.1308 -0.4473  0.9869
 5692SOL    HW128535   1.030   3.974  12.090 -1.3878 -0.9224  1.7479
 5692SOL    HW228536   0.904   4.047  12.083  0.4996  2.4111  0.6318
 5693SOL     OW28537   3.748   2.528   4.224  0.2025 -0.9648  0.4638
 5693SOL    HW128538   3.724   2.611   4.183  0.2704 -1.1800 -0.0084
 5693SOL    HW228539   3.841   2.531   4.247  1.3797  0.7448 -4.6697
 5694SOL     OW28540   0.541   4.335  13.190  0.3362 -0.3411 -0.2206
 5694SOL    HW128541   0.560   4.412  13.135  1.4689 -0.3151  0.2109
 5694SOL    HW228542   0.623   4.286  13.193  0.8202  0.4925  0.1823
 5695SOL     OW28543   3.875   2.762   2.291  0.0382  0.1457 -0.4864
 5695SOL    HW128544   3.828   2.808   2.360  2.1276  2.6202 -0.6896
 5695SOL    HW228545   3.928   2.702   2.344 -0.3233 -0.9789 -1.3818
 5696SOL     OW28546   2.343   1.829  12.397  0.0775 -0.2942  0.4537
 5696SOL    HW128547   2.277   1.802  12.333  1.1605 -3.8725  0.8581
 5696SOL    HW228548   2.373   1.902  12.343  2.3137 -0.1650  1.8551
 5697SOL     OW28549   1.577   1.509   6.084 -0.2308  0.1072 -0.4384
 5697SOL    HW128550   1.594   1.476   6.172 -1.1722 -0.7608 -0.5758
 5697SOL    HW228551   1.635   1.585   6.084  2.0894 -1.6425 -1.2946
 5698SOL     OW28552   1.353   2.167  17.659 -0.7631 -0.6222  0.1654
 5698SOL    HW128553   1.327   2.097   0.019  0.2144  0.6768  2.1142
 5698SOL    HW228554   1.438   2.189  17.696 -1.1598  1.8057 -0.3625
 5699SOL     OW28555   1.369   2.383   7.738  0.1281  0.3001  0.1674
 5699SOL    HW128556   1.376   2.429   7.822  1.7893 -1.3572  0.9330
 5699SOL    HW228557   1.441   2.320   7.745  0.9549  1.0692 -1.4765
 5700SOL     OW28558   0.598   0.748   3.700  0.2436  0.0741  0.1136
 5700SOL    HW128559   0.627   0.776   3.787 -1.4808 -0.2455  0.7818
 5700SOL    HW228560   0.615   0.654   3.704 -0.1824 -0.0749 -1.7696
 5701SOL     OW28561   4.397   1.434   7.954 -0.2367 -0.0170  0.1446
 5701SOL    HW128562   4.428   1.405   7.868  2.4402  0.5091  0.9204
 5701SOL    HW228563   4.337   1.502   7.921  1.1829  1.5431  0.7748
 5702SOL     OW28564   4.411   3.947   9.162 -0.2639 -0.1069  0.0383
 5702SOL    HW128565   4.473   3.893   9.113  0.4139 -0.6433  1.4911
 5702SOL    HW228566   4.427   3.933   9.255  1.6005 -1.4953 -0.5021
 5703SOL     OW28567   4.187   4.488   2.233 -0.4887 -0.0925 -0.2417
 5703SOL    HW128568   4.092   4.484   2.243 -0.4485  0.4079  0.2984
 5703SOL    HW228569   4.206   4.443   2.316  2.9425 -0.3895 -1.1886
 5704SOL     OW28570   2.162   1.180   3.164  0.1917  0.4090 -0.2850
 5704SOL    HW128571   2.136   1.203   3.253  0.2947  0.7149 -0.3359
 5704SOL    HW228572   2.094   1.214   3.106  0.3521  0.2437 -0.5749
 5705SOL     OW28573   0.175   1.736  13.929 -0.4270  0.1221  0.6045
 5705SOL    HW128574   0.207   1.816  13.970  0.4128 -0.4721  1.1058
 5705SOL    HW228575   0.080   1.743  13.927 -0.5574 -1.7717 -0.1644
 5706SOL     OW28576   2.523   4.372   2.936 -0.6177  0.2728  0.0452
 5706SOL    HW128577   2.599   4.426   2.961  0.2471 -1.2890  0.8088
 5706SOL    HW228578   2.498   4.326   3.016  1.1786 -1.7105 -0.5400
 5707SOL     OW28579   2.976   4.106   8.584  0.1259 -0.0358  0.7658
 5707SOL    HW128580   2.900   4.152   8.547  0.0001  0.4422  1.6162
 5707SOL    HW228581   3.000   4.168   8.654  0.3316 -1.2643  1.7705
 5708SOL     OW28582   3.854   4.252  11.142  0.1077 -0.0442 -0.6219
 5708SOL    HW128583   3.851   4.347  11.131  2.7697  0.2775  1.2152
 5708SOL    HW228584   3.893   4.222  11.059  1.4911 -0.1228  0.0488
 5709SOL     OW28585   1.585   3.486  17.069  0.4780 -0.3724 -0.4964
 5709SOL    HW128586   1.532   3.413  17.101  0.1086 -0.0749 -0.4366
 5709SOL    HW228587   1.625   3.435  16.998 -2.5385 -1.1851 -1.6066
 5710SOL     OW28588   3.024   1.703   2.548 -0.0635 -0.2916  0.1003
 5710SOL    HW128589   3.096   1.667   2.497 -1.5219  0.5613 -2.5875
 5710SOL    HW228590   2.963   1.734   2.481  2.3549  1.8347 -1.1280
 5711SOL     OW28591   3.852   4.133   5.265 -0.1571  0.3322  0.3446
 5711SOL    HW128592   3.870   4.076   5.339 -1.2899  1.0615  1.1723
 5711SOL    HW228593   3.939   4.135   5.224 -0.4866  2.0923 -0.2557
 5712SOL     OW28594   3.443   4.030  12.512  0.2220  0.0006  0.2234
 5712SOL    HW128595   3.415   3.958  12.456  1.1553 -0.4141  0.2894
 5712SOL    HW228596   3.367   4.034  12.570  0.0507  0.9411 -0.0661
 5713SOL     OW28597   2.661   3.812  10.826  0.2426  1.1139  0.3260
 5713SOL    HW128598   2.623   3.796  10.913  3.4001 -0.8419  1.3793
 5713SOL    HW228599   2.637   3.905  10.820  1.1165  1.2654 -0.9294
 5714SOL     OW28600   4.004   2.162   4.260 -0.0955 -0.1788  0.1230
 5714SOL    HW128601   4.027   2.218   4.186 -0.2210  1.1312  1.0943
 5714SOL    HW228602   4.075   2.098   4.268  0.9255  0.7726 -1.3159
 5715SOL     OW28603   1.461   3.255  17.121  0.3464  0.0290 -0.4991
 5715SOL    HW128604   1.374   3.236  17.154  0.3347 -1.5543 -1.4597
 5715SOL    HW228605   1.496   3.166  17.129 -1.1541 -0.4449  0.8675
 5716SOL     OW28606   3.233   4.327  11.676 -0.5053 -0.4023 -0.0869
 5716SOL    HW128607   3.269   4.264  11.614 -0.1379 -0.5662  0.2888
 5716SOL    HW228608   3.143   4.297  11.686 -0.2500 -1.2376 -0.3195
 5717SOL     OW28609   2.620   3.638   7.512 -0.3143 -0.4394  0.0155
 5717SOL    HW128610   2.604   3.704   7.579 -0.6349 -0.8176  0.3115
 5717SOL    HW228611   2.636   3.684   7.429 -3.7182  1.4023  0.3918
 5718SOL     OW28612   3.020   3.984   4.440  0.0246 -0.1551  0.2679
 5718SOL    HW128613   2.948   4.038   4.473 -0.3476 -0.1960 -0.4768
 5718SOL    HW228614   3.086   4.008   4.505 -0.8973  1.1795  0.7214
 5719SOL     OW28615   0.782   4.471  14.832 -0.6933 -0.2303 -0.0328
 5719SOL    HW128616   0.738   4.552  14.859  1.8359  0.7917  0.9708
 5719SOL    HW228617   0.725   4.425  14.771 -2.4889 -0.5239  1.8735
 5720SOL     OW28618   4.627   0.532   4.588 -0.2674  0.0552  0.3234
 5720SOL    HW128619   4.640   0.544   4.682  0.9328 -2.3814  0.4641
 5720SOL    HW228620   4.540   0.572   4.589  0.0457  0.7424 -0.4148
 5721SOL     OW28621   3.566   2.882  15.719 -0.3759 -0.3839 -0.5300
 5721SOL    HW128622   3.634   2.874  15.786 -1.7513  2.9983  1.3135
 5721SOL    HW228623   3.535   2.792  15.716  0.3450 -0.6347 -0.4467
 5722SOL     OW28624   4.551   0.769   3.052  0.3447 -0.3702 -0.0696
 5722SOL    HW128625   4.577   0.718   3.128  0.7018 -0.0949 -0.0081
 5722SOL    HW228626   4.504   0.702   3.003  0.1493 -0.0975 -0.2577
 5723SOL     OW28627   1.449   1.209   3.902  0.3036 -0.0367  0.3358
 5723SOL    HW128628   1.544   1.211   3.913  0.2608 -0.9355  0.8964
 5723SOL    HW228629   1.439   1.121   3.866  0.3366 -0.2382  0.8106
 5724SOL     OW28630   2.415   1.855  13.120 -0.2382 -0.7956 -0.5349
 5724SOL    HW128631   2.420   1.805  13.038 -0.4601  0.4150 -1.2892
 5724SOL    HW228632   2.331   1.823  13.153 -0.9654  0.7779 -0.8489
 5725SOL     OW28633   2.226   1.911   5.823 -0.0466  0.1852  0.1891
 5725SOL    HW128634   2.261   1.940   5.739 -0.3218  1.8624  0.6542
 5725SOL    HW228635   2.300   1.889   5.880  0.4586  2.3329  0.3668
 5726SOL     OW28636   1.642   2.053  16.134 -0.1160 -1.1284 -0.3961
 5726SOL    HW128637   1.653   1.967  16.092  2.0904 -0.5821 -0.9498
 5726SOL    HW228638   1.548   2.050  16.151  0.2063 -0.4676  1.5668
 5727SOL     OW28639   0.127   1.875   7.197  0.0878  0.1042 -0.0054
 5727SOL    HW128640   0.068   1.950   7.189  0.8126  0.9027  2.0159
 5727SOL    HW228641   0.149   1.860   7.106  2.0373  1.0489  0.3081
 5728SOL     OW28642   4.404   2.021   9.024  0.3568  0.3043 -0.5311
 5728SOL    HW128643   4.421   1.928   9.008 -1.2363 -0.1582  0.4865
 5728SOL    HW228644   4.328   2.007   9.080  2.1946 -1.8966  1.4008
 5729SOL     OW28645   3.904   1.749   1.295  0.1565  0.5028 -0.2341
 5729SOL    HW128646   3.999   1.753   1.307 -0.1521 -1.5246  2.8415
 5729SOL    HW228647   3.870   1.723   1.381 -0.1631  1.9853  0.0829
 5730SOL     OW28648   1.399   0.507   1.434 -0.3599 -0.1017 -0.1708
 5730SOL    HW128649   1.446   0.481   1.354 -0.3503  0.2584 -0.2787
 5730SOL    HW228650   1.417   0.430   1.489  0.8909 -0.5357 -1.1924
 5731SOL     OW28651   1.802   4.126  10.221  0.2392 -0.4015  0.1324
 5731SOL    HW128652   1.754   4.157  10.144  1.0876 -0.1890 -0.3090
 5731SOL    HW228653   1.817   4.033  10.203  1.3318  0.2985 -2.5554
 5732SOL     OW28654   0.521   0.707   6.208 -0.3173 -0.0347  0.0346
 5732SOL    HW128655   0.524   0.780   6.270  1.1969  0.4728 -0.6114
 5732SOL    HW228656   0.501   0.638   6.271  2.5181 -3.1634 -2.4981
 5733SOL     OW28657   2.791   1.600   8.429 -0.0589  0.1096 -0.4003
 5733SOL    HW128658   2.839   1.671   8.387 -0.4939  0.6225 -0.0202
 5733SOL    HW228659   2.851   1.528   8.409  0.6894  0.5811  0.1183
 5734SOL     OW28660   1.349   4.155   8.384  0.2617 -0.1531  0.2311
 5734SOL    HW128661   1.299   4.085   8.424  1.4029 -1.2072 -0.1898
 5734SOL    HW228662   1.394   4.109   8.313 -1.2989 -0.3629 -0.6193
 5735SOL     OW28663   1.552   0.334  12.102  0.1867  0.0625 -0.2262
 5735SOL    HW128664   1.617   0.267  12.122 -0.1723 -0.6669 -1.5297
 5735SOL    HW228665   1.511   0.341  12.189 -0.6653 -1.6087 -0.4926
 5736SOL     OW28666   2.584   3.143  15.267 -0.3739  0.1317  0.4694
 5736SOL    HW128667   2.512   3.137  15.204 -0.8829 -0.2661  1.0961
 5736SOL    HW228668   2.660   3.129  15.210  1.2789 -0.4494  2.8268
 5737SOL     OW28669   3.375   1.186   3.750 -0.4368  0.3289  0.3894
 5737SOL    HW128670   3.457   1.150   3.785 -0.5488 -1.1952 -0.9117
 5737SOL    HW228671   3.379   1.281   3.758  1.3814  0.2391  0.6393
 5738SOL     OW28672   1.787   1.082   4.439  0.1757 -0.1976  0.1657
 5738SOL    HW128673   1.819   1.110   4.353  3.6054 -0.6859  1.2988
 5738SOL    HW228674   1.826   0.995   4.444 -1.7455 -1.1046 -0.3713
 5739SOL     OW28675   3.656   3.798   1.043 -0.1595  1.1607 -0.1146
 5739SOL    HW128676   3.577   3.806   0.989 -1.3214 -0.0330  1.4516
 5739SOL    HW228677   3.637   3.727   1.104  0.7785 -0.4651 -1.7210
 5740SOL     OW28678   2.695   2.624   9.082  0.5086  0.2824 -0.2011
 5740SOL    HW128679   2.774   2.654   9.037  0.7680 -3.2111 -2.0322
 5740SOL    HW228680   2.739   2.545   9.111 -0.1475  1.2584  3.4420
 5741SOL     OW28681   2.612   0.962   2.629 -0.0445 -0.2587  0.2310
 5741SOL    HW128682   2.622   0.966   2.724 -0.0137  1.1670  0.1652
 5741SOL    HW228683   2.675   1.031   2.606 -0.4225 -0.4399 -1.3478
 5742SOL     OW28684   3.033   0.298   3.882  0.8859  0.0377  0.2100
 5742SOL    HW128685   3.114   0.309   3.832  0.7858 -1.2405 -0.2355
 5742SOL    HW228686   3.026   0.202   3.874  0.4580  0.1133 -0.3302
 5743SOL     OW28687   4.493   2.631   0.686  0.1469 -0.1316  0.2681
 5743SOL    HW128688   4.463   2.696   0.623 -2.0957  0.6503  2.1499
 5743SOL    HW228689   4.515   2.688   0.759  0.5228 -0.8401  0.7142
 5744SOL     OW28690   2.560   2.791   4.841  0.1649  0.2256  0.5599
 5744SOL    HW128691   2.514   2.816   4.921  1.2639 -0.4395  1.4011
 5744SOL    HW228692   2.653   2.799   4.863  0.1693  1.0170  0.2731
 5745SOL     OW28693   1.123   0.598  10.870  0.0420 -0.5025  0.1238
 5745SOL    HW128694   1.166   0.633  10.792 -0.4770  0.4831  0.2843
 5745SOL    HW228695   1.044   0.651  10.875 -0.0725 -0.7982  1.4837
 5746SOL     OW28696   4.550   1.044   4.551  0.6426 -0.3104  0.3924
 5746SOL    HW128697   4.553   0.973   4.487  0.6826  0.3369 -0.3186
 5746SOL    HW228698   4.535   0.996   4.633 -1.2079 -1.1508 -0.4294
 5747SOL     OW28699   3.362   3.971   4.001 -1.0262 -0.5183  0.3429
 5747SOL    HW128700   3.450   3.989   3.969 -0.6830 -0.6121  1.2407
 5747SOL    HW228701   3.355   3.877   3.980  1.4572 -0.4308 -0.7638
 5748SOL     OW28702   3.566   2.661   9.492  0.1299  0.4421  0.4442
 5748SOL    HW128703   3.641   2.610   9.462  0.2586  1.4686 -0.9278
 5748SOL    HW228704   3.548   2.621   9.577 -1.1111 -1.6448 -0.7929
 5749SOL     OW28705   1.924   2.273   3.721  0.1933 -0.2449  0.1963
 5749SOL    HW128706   1.898   2.251   3.631  0.1703  1.3296 -0.1800
 5749SOL    HW228707   1.872   2.205   3.765  0.1718 -1.8929 -2.3532
 5750SOL     OW28708   1.974   1.186  17.556 -0.0829  0.3473  0.1654
 5750SOL    HW128709   2.000   1.189  17.464  0.2862 -3.7054  0.1648
 5750SOL    HW228710   1.881   1.173  17.539 -0.3311  2.3269 -0.0432
 5751SOL     OW28711   1.707   0.764   2.123  0.3929  0.7451 -0.2786
 5751SOL    HW128712   1.641   0.695   2.117  0.6711  0.4733 -0.2376
 5751SOL    HW228713   1.666   0.831   2.068 -2.5616  1.2223  2.5536
 5752SOL     OW28714   2.757   3.548   0.914 -0.2714  0.3545 -0.2698
 5752SOL    HW128715   2.829   3.506   0.961 -0.6676  1.1096  1.0227
 5752SOL    HW228716   2.763   3.490   0.838  2.0270 -0.3503  0.4479
 5753SOL     OW28717   0.802   3.520   5.275 -0.5057  0.2145 -0.2805
 5753SOL    HW128718   0.753   3.440   5.295  1.0664 -0.8729 -0.8064
 5753SOL    HW228719   0.765   3.555   5.194 -1.8423  0.4417  0.4332
 5754SOL     OW28720   1.741   4.286   5.857 -0.5906 -0.6361  0.0629
 5754SOL    HW128721   1.736   4.379   5.834  2.1099 -0.2783  1.0326
 5754SOL    HW228722   1.658   4.254   5.821 -0.6900 -0.4135  0.0895
 5755SOL     OW28723   0.813   1.039   5.060 -0.1339 -0.7732  0.1140
 5755SOL    HW128724   0.804   1.132   5.041 -0.3078 -0.4789  1.6520
 5755SOL    HW228725   0.723   1.012   5.042 -0.1031 -1.0720  0.3985
 5756SOL     OW28726   0.404   2.783   8.627 -0.3669  0.0023  0.1760
 5756SOL    HW128727   0.479   2.842   8.634  0.1699 -0.5249 -1.2422
 5756SOL    HW228728   0.374   2.804   8.539  1.7282  2.1704 -0.0290
 5757SOL     OW28729   4.653   2.808   8.019 -0.3133 -0.0084 -0.3137
 5757SOL    HW128730   4.706   2.827   7.942  0.5102  0.4683  0.3689
 5757SOL    HW228731   4.623   2.720   7.998  1.6473 -0.4342 -1.2875
 5758SOL     OW28732   2.462   0.479   8.917  0.1703  0.1429  0.2590
 5758SOL    HW128733   2.374   0.516   8.912 -0.1099 -0.5400  0.0702
 5758SOL    HW228734   2.503   0.559   8.949  1.5101 -1.2867  2.1153
 5759SOL     OW28735   4.355   0.096   9.258 -0.5641 -0.0196  0.1344
 5759SOL    HW128736   4.443   0.076   9.226 -0.2654  1.4320  0.0234
 5759SOL    HW228737   4.335   0.174   9.207 -0.9161  1.1730  2.0890
 5760SOL     OW28738   2.775   2.234   2.497 -0.1196  0.2700 -0.0734
 5760SOL    HW128739   2.690   2.210   2.536 -1.4671  2.0926 -1.8748
 5760SOL    HW228740   2.761   2.323   2.463 -0.1575 -0.8464 -2.9314
 5761SOL     OW28741   2.374   0.505   4.544  0.1476  0.0007  0.2680
 5761SOL    HW128742   2.431   0.528   4.471 -1.5672 -3.3316 -2.1563
 5761SOL    HW228743   2.352   0.413   4.524  1.5089  0.0429 -1.4009
 5762SOL     OW28744   2.393   3.888  14.249  0.0316  0.1545 -0.5171
 5762SOL    HW128745   2.386   3.970  14.200 -0.2065  1.6293  2.0138
 5762SOL    HW228746   2.316   3.902  14.303  0.8195 -0.0668  0.6520
 5763SOL     OW28747   3.790   1.448   9.464  0.8211  0.3660  0.1718
 5763SOL    HW128748   3.844   1.447   9.385  1.0346 -1.0590  0.3356
 5763SOL    HW228749   3.796   1.354   9.475  4.0923  0.5674 -0.0393
 5764SOL     OW28750   3.529   3.825  10.642  0.4881  0.2151 -0.4778
 5764SOL    HW128751   3.517   3.776  10.724 -0.9886  0.7554 -0.3775
 5764SOL    HW228752   3.563   3.758  10.582 -2.9519 -1.8856 -0.0480
 5765SOL     OW28753   0.384   2.155  10.414  0.4453 -0.6047  0.5111
 5765SOL    HW128754   0.409   2.067  10.386  3.3422 -0.2271  1.9626
 5765SOL    HW228755   0.303   2.144  10.464 -1.7658 -1.1492 -3.2050
 5766SOL     OW28756   0.634   2.294  15.958  0.4650  0.4043  0.2347
 5766SOL    HW128757   0.628   2.378  16.003  2.8774  0.6373  0.1276
 5766SOL    HW228758   0.614   2.232  16.029 -0.3433  0.3530 -0.0408
 5767SOL     OW28759   2.201   2.361  14.897  0.1363  0.0120  0.3027
 5767SOL    HW128760   2.177   2.315  14.817 -1.6468  2.0568 -0.3351
 5767SOL    HW228761   2.114   2.386  14.927  0.0421  0.3689 -0.2586
 5768SOL     OW28762   4.206   3.260   5.321  0.2261 -0.0648 -0.0659
 5768SOL    HW128763   4.240   3.261   5.232  0.8204 -0.4492  0.1518
 5768SOL    HW228764   4.121   3.218   5.316 -0.6324  1.5422  0.8164
 5769SOL     OW28765   2.498   3.336   6.728 -0.1714  0.0385  0.5878
 5769SOL    HW128766   2.428   3.276   6.702  0.9285 -0.8267 -0.3424
 5769SOL    HW228767   2.441   3.412   6.739  1.4032  1.3907 -0.6262
 5770SOL     OW28768   2.239   0.444  16.880  0.2165 -0.0349  0.0069
 5770SOL    HW128769   2.250   0.539  16.888 -1.8039  0.2286 -0.3950
 5770SOL    HW228770   2.311   0.421  16.821 -0.8587  0.0230 -1.3210
 5771SOL     OW28771   1.779   0.128  12.242 -0.3065 -0.3034  0.0139
 5771SOL    HW128772   1.744   0.056  12.189  0.0005 -0.5769  0.1817
 5771SOL    HW228773   1.783   0.096  12.333 -0.5568 -1.3458 -0.3394
 5772SOL     OW28774   4.379   2.767   6.895  0.6361 -0.5383  0.3723
 5772SOL    HW128775   4.463   2.812   6.907  0.8113  0.3120 -4.0439
 5772SOL    HW228776   4.388   2.705   6.823 -0.6066 -0.7829  0.4243
 5773SOL     OW28777   4.712   1.232   2.409  0.3226 -0.8238  0.3072
 5773SOL    HW128778   4.621   1.214   2.386 -0.1659 -0.4912  1.9233
 5773SOL    HW228779   0.009   1.160   2.469 -0.4346 -0.6943  0.7301
 5774SOL     OW28780   1.034   0.429   4.644 -0.3999 -0.5734  0.1924
 5774SOL    HW128781   1.027   0.335   4.656 -1.1154 -0.5030  0.2946
 5774SOL    HW228782   0.969   0.462   4.705 -0.7127 -0.9244  0.0505
 5775SOL     OW28783   0.647   0.448   2.644  0.1318  0.1306  0.0779
 5775SOL    HW128784   0.713   0.498   2.692  1.0072  1.4387 -2.4966
 5775SOL    HW228785   0.628   0.507   2.572 -1.3698 -1.8502 -1.1353
 5776SOL     OW28786   1.454   4.390   1.030  0.2934  0.2775 -0.6156
 5776SOL    HW128787   1.470   4.405   1.123 -0.4214  1.9513 -0.7627
 5776SOL    HW228788   1.495   4.307   1.006 -0.3125 -0.1071 -0.3174
 5777SOL     OW28789   3.106   1.193   4.547  0.0692  0.0928  0.1941
 5777SOL    HW128790   3.067   1.106   4.557  1.4108 -0.9270 -3.5107
 5777SOL    HW228791   3.152   1.172   4.465  1.0830  0.3949  0.6858
 5778SOL     OW28792   1.492   1.826   8.082 -0.8207  0.2286 -0.0900
 5778SOL    HW128793   1.576   1.871   8.096  0.7127 -2.2031 -1.4305
 5778SOL    HW228794   1.424   1.893   8.086  0.8942  1.9484  0.2331
 5779SOL     OW28795   0.621   1.865   6.001  0.3037 -0.4821  0.6056
 5779SOL    HW128796   0.696   1.869   5.942 -1.7184  0.2604 -1.8793
 5779SOL    HW228797   0.570   1.941   5.972  0.0454 -1.5598 -1.7586
 5780SOL     OW28798   2.756   2.877  10.423 -0.1444 -0.0436  0.2775
 5780SOL    HW128799   2.664   2.904  10.429 -0.5692 -1.0399 -2.1064
 5780SOL    HW228800   2.749   2.812  10.353 -1.3149 -1.0078  1.2741
 5781SOL     OW28801   3.628   3.831   2.550 -0.0550  0.5316 -0.3216
 5781SOL    HW128802   3.589   3.748   2.576  1.8124 -0.2810 -0.0973
 5781SOL    HW228803   3.708   3.804   2.505  1.7805  3.0732  1.4001
 5782SOL     OW28804   1.703   4.644   2.938  0.1243  0.6688  0.9160
 5782SOL    HW128805   1.619   4.672   2.974 -0.1390 -0.0438  0.8383
 5782SOL    HW228806   1.753   0.001   2.928  0.4565  0.4691  0.9558
 5783SOL     OW28807   1.288   4.305   3.083 -0.0581 -0.6097  0.5085
 5783SOL    HW128808   1.378   4.331   3.065  0.4929 -1.2116  2.4035
 5783SOL    HW228809   1.295   4.244   3.157 -1.0390 -0.4881  0.7121
 5784SOL     OW28810   1.906   3.801   4.928 -0.0883  0.0110  0.7136
 5784SOL    HW128811   1.986   3.801   4.980  1.3870  0.0569 -1.5261
 5784SOL    HW228812   1.853   3.846   4.994 -0.2569  1.3870 -0.3442
 5785SOL     OW28813   4.520   0.406   8.756 -0.2177 -0.6269 -0.8284
 5785SOL    HW128814   4.588   0.459   8.715  0.9473 -1.0135  0.5785
 5785SOL    HW228815   4.533   0.421   8.850  0.7221 -0.9867 -0.9019
 5786SOL     OW28816   0.248   3.889   0.212 -0.2162  0.3977 -0.1071
 5786SOL    HW128817   0.306   3.917   0.141  0.6310  1.9641  1.2141
 5786SOL    HW228818   0.166   3.893   0.162 -0.2692  0.0303 -0.0472
 5787SOL     OW28819   4.054   2.588   4.258 -0.4677  0.2811 -0.0029
 5787SOL    HW128820   4.142   2.619   4.281 -0.7460  1.2404 -0.2144
 5787SOL    HW228821   4.007   2.642   4.321 -1.1128 -0.3480  0.0483
 5788SOL     OW28822   3.590   0.528   6.303  0.3120  0.5906  0.1943
 5788SOL    HW128823   3.640   0.607   6.283 -3.0535  2.1789 -1.9536
 5788SOL    HW228824   3.503   0.551   6.271 -0.4212 -0.9135  1.0747
 5789SOL     OW28825   3.364   2.807   2.093  0.0479  0.3908 -0.1977
 5789SOL    HW128826   3.279   2.816   2.136  1.0168  2.3554  1.2936
 5789SOL    HW228827   3.331   2.795   2.004 -0.8176 -1.7559  0.3981
 5790SOL     OW28828   3.924   4.620   3.586 -0.1216 -0.4852  0.3219
 5790SOL    HW128829   3.867   4.552   3.549  0.3315 -1.2863  1.1007
 5790SOL    HW228830   3.977   4.629   3.506 -2.6187 -1.9312 -1.4929
 5791SOL     OW28831   1.657   0.290   1.731  0.2113 -0.2930 -0.0133
 5791SOL    HW128832   1.738   0.246   1.756  0.4923  1.4086  2.0584
 5791SOL    HW228833   1.682   0.383   1.725  1.8857 -0.7429  0.1235
 5792SOL     OW28834   3.937   3.298   2.031 -0.1909 -0.0555 -0.0623
 5792SOL    HW128835   3.893   3.376   2.066 -1.5765 -0.0117 -1.9492
 5792SOL    HW228836   4.010   3.290   2.093  0.9081  0.9173 -1.2384
 5793SOL     OW28837   2.922   1.574   7.533  0.1538 -0.3453  0.1193
 5793SOL    HW128838   2.828   1.592   7.528  0.4035  0.9141  0.0600
 5793SOL    HW228839   2.941   1.513   7.461 -0.2912 -1.3207  0.8191
 5794SOL     OW28840   0.054   2.108   3.319  0.0712  0.3119  0.5105
 5794SOL    HW128841   0.071   2.014   3.314  2.0296  0.8741 -3.0355
 5794SOL    HW228842   0.088   2.125   3.231 -0.4842  0.5497  0.3444
 5795SOL     OW28843   1.884   4.378   5.085  0.0427  0.5042  0.0166
 5795SOL    HW128844   1.948   4.384   5.015  0.5765  1.8654  0.6214
 5795SOL    HW228845   1.920   4.313   5.146 -0.7482 -0.6948 -0.7931
 5796SOL     OW28846   1.559   4.548  14.673 -0.5799 -0.4073 -0.1380
 5796SOL    HW128847   1.481   4.554  14.617 -2.1076 -2.7936  1.7475
 5796SOL    HW228848   1.579   4.636  14.702 -0.3933 -0.2287 -0.7933
 5797SOL     OW28849   1.770   3.943  15.372  0.2610  0.2415  0.1026
 5797SOL    HW128850   1.688   3.929  15.420  0.0196  0.4180 -0.2609
 5797SOL    HW228851   1.791   4.034  15.390 -2.6133  0.8400  0.4240
 5798SOL     OW28852   2.068   1.545   3.210  0.2610  0.2318 -0.1205
 5798SOL    HW128853   2.138   1.502   3.259  0.0870 -1.4408 -1.3393
 5798SOL    HW228854   2.096   1.525   3.121 -0.7102  0.2226 -0.4244
 5799SOL     OW28855   2.739   0.011  15.062  0.0057  0.2493  0.3372
 5799SOL    HW128856   2.679   0.086  15.058 -1.3404 -0.7383  1.8811
 5799SOL    HW228857   2.783   0.020  14.978  0.1039  1.5588  0.5272
 5800SOL     OW28858   2.266   0.900  17.620  0.0446  0.1920  0.5288
 5800SOL    HW128859   2.274   0.995  17.620 -0.6691  0.2494  0.9381
 5800SOL    HW228860   2.236   0.869   0.006 -0.5366 -0.1179  0.2151
 5801SOL     OW28861   3.399   0.509   5.411 -0.4686 -0.6737  0.9341
 5801SOL    HW128862   3.481   0.553   5.433  0.1057 -0.2829 -1.9596
 5801SOL    HW228863   3.421   0.426   5.452  2.4827 -0.3138  0.0805
 5802SOL     OW28864   1.496   0.422   3.137 -0.0284  0.5850 -0.3579
 5802SOL    HW128865   1.553   0.422   3.214 -0.0388 -2.1673 -0.3464
 5802SOL    HW228866   1.459   0.336   3.153  3.8141 -1.2166 -1.1384
 5803SOL     OW28867   4.009   2.946   1.742  0.2416 -0.7395 -0.1362
 5803SOL    HW128868   4.043   2.963   1.830  0.7253  0.6438 -0.6001
 5803SOL    HW228869   3.941   3.012   1.737 -0.0052 -0.7178  3.5782
 5804SOL     OW28870   3.576   3.830   9.220 -0.3339  0.4886 -0.2397
 5804SOL    HW128871   3.561   3.908   9.272  1.7623 -0.0135  1.1250
 5804SOL    HW228872   3.580   3.856   9.128  0.1285  3.5648  0.6804
 5805SOL     OW28873   2.457   4.375  16.514  0.0355  0.2193 -0.2582
 5805SOL    HW128874   2.368   4.377  16.476 -0.8104  0.4328  1.7435
 5805SOL    HW228875   2.468   4.470  16.525  1.2850  0.1275 -0.7484
 5806SOL     OW28876   4.381   1.693  12.877 -0.1760  0.5314 -0.3903
 5806SOL    HW128877   4.316   1.679  12.808  1.4309 -1.0923 -1.5661
 5806SOL    HW228878   4.461   1.714  12.829  0.3379 -0.6058 -0.0340
 5807SOL     OW28879   0.330   0.296   6.974  0.3336  0.0363  0.6432
 5807SOL    HW128880   0.319   0.328   7.064  1.3949  0.4098  0.6385
 5807SOL    HW228881   0.386   0.361   6.933  0.4430  0.0114  0.7538
 5808SOL     OW28882   2.070   1.928  16.634 -0.4286  0.4347  0.5146
 5808SOL    HW128883   2.038   1.869  16.702  1.3040 -0.8584  0.2048
 5808SOL    HW228884   2.143   1.873  16.606 -0.4202  1.6104 -1.7750
 5809SOL     OW28885   0.258   0.200  12.604  0.2130  0.1490  0.0466
 5809SOL    HW128886   0.326   0.256  12.566  0.9527 -0.2183  0.8370
 5809SOL    HW228887   0.309   0.121  12.624  0.7719  0.8097  1.2172
 5810SOL     OW28888   1.110   4.414  15.903 -0.0944 -0.1942 -0.4938
 5810SOL    HW128889   1.092   4.456  15.987 -2.6245  1.3250 -1.8025
 5810SOL    HW228890   1.082   4.324  15.919  0.4156 -0.3408 -0.4035
 5811SOL     OW28891   3.127   3.438   7.496  0.2035 -0.2364 -0.3709
 5811SOL    HW128892   3.081   3.500   7.552  1.0329 -0.1295  0.1883
 5811SOL    HW228893   3.073   3.426   7.418 -1.0008 -0.5032  0.5014
 5812SOL     OW28894   2.679   1.217   6.099 -0.4632  0.0903  0.0217
 5812SOL    HW128895   2.648   1.134   6.136 -0.5465 -0.4084 -1.1603
 5812SOL    HW228896   2.613   1.269   6.144 -0.5424  0.7155 -0.8204
 5813SOL     OW28897   3.585   1.294  12.895 -0.1644  0.1511 -0.0889
 5813SOL    HW128898   3.502   1.284  12.848  0.5901  2.6081 -1.9808
 5813SOL    HW228899   3.630   1.217  12.861 -2.0193 -0.7803 -0.4151
 5814SOL     OW28900   1.924   4.093   8.222 -0.0821  0.1582  0.2414
 5814SOL    HW128901   1.863   4.117   8.152 -0.5160  0.8306  0.8481
 5814SOL    HW228902   1.871   4.051   8.289 -1.0474  1.6121  0.4020
 5815SOL     OW28903   4.660   0.640   5.319 -0.1667  0.2580 -0.3553
 5815SOL    HW128904   4.566   0.656   5.312 -0.3179 -0.8615 -1.0428
 5815SOL    HW228905   4.690   0.655   5.229 -0.1998 -0.5022 -0.4966
 5816SOL     OW28906   2.786   4.667  10.884 -0.8388  0.1162 -0.0386
 5816SOL    HW128907   2.811   4.624  10.803  2.2793  0.9773  0.4566
 5816SOL    HW228908   2.734   0.011  10.842 -0.9867  0.2096  0.2949
 5817SOL     OW28909   1.860   3.066   7.801 -0.2777 -0.0277  0.3440
 5817SOL    HW128910   1.840   2.972   7.796 -1.1197  0.2751 -2.0778
 5817SOL    HW228911   1.955   3.077   7.797 -0.5674  2.2405 -0.1182
 5818SOL     OW28912   4.684   3.946  12.637 -0.4222  0.2763 -0.2354
 5818SOL    HW128913   4.683   4.012  12.706  0.5273  0.0984 -0.0439
 5818SOL    HW228914   0.035   3.897  12.671  1.1581  2.7894 -0.0776
 5819SOL     OW28915   2.844   1.944   5.073  0.1943  0.8556  0.2808
 5819SOL    HW128916   2.779   1.934   5.004 -0.7563  1.1833  1.1174
 5819SOL    HW228917   2.876   1.854   5.076  0.0867  0.8226  0.5363
 5820SOL     OW28918   1.147   4.572   5.416  0.1185 -0.2539 -0.3781
 5820SOL    HW128919   1.126   4.533   5.331 -0.8100  0.2452 -0.3810
 5820SOL    HW228920   1.236   4.540   5.429  0.1158 -1.3171 -2.8978
 5821SOL     OW28921   2.439   0.768   9.632 -0.1734  0.0210  0.5595
 5821SOL    HW128922   2.346   0.763   9.612  0.3700 -1.3943 -1.5479
 5821SOL    HW228923   2.441   0.841   9.694 -0.8411  1.7597 -1.4507
 5822SOL     OW28924   4.329   1.483   5.672 -0.0385 -0.7553 -0.0290
 5822SOL    HW128925   4.415   1.485   5.631  0.9693  2.0491  2.2722
 5822SOL    HW228926   4.298   1.571   5.649  0.9159 -0.2196  0.7402
 5823SOL     OW28927   2.719   3.000   6.857 -0.0258  0.0195 -0.1418
 5823SOL    HW128928   2.669   2.921   6.878  0.1344  0.4471  1.8961
 5823SOL    HW228929   2.652   3.055   6.898  0.4128 -0.6833  1.5158
 5824SOL     OW28930   2.260   1.607  13.771  0.1094  0.2117 -0.2029
 5824SOL    HW128931   2.279   1.542  13.839  0.1783  0.1058 -0.3225
 5824SOL    HW228932   2.294   1.561  13.694  0.8937  2.2171 -1.0442
 5825SOL     OW28933   2.541   0.545  17.217  0.0875  0.1148 -0.5510
 5825SOL    HW128934   2.578   0.532  17.304 -3.3798  0.3496  0.9317
 5825SOL    HW228935   2.457   0.501  17.204 -1.5848  3.2206 -0.2981
 5826SOL     OW28936   4.605   2.939   3.540  0.5701  0.0962  0.6880
 5826SOL    HW128937   4.523   2.892   3.529  0.5192  0.3201  0.1116
 5826SOL    HW228938   4.637   2.878   3.607 -0.0239 -0.0157  0.8718
 5827SOL     OW28939   3.904   0.969   4.971  0.3661 -0.2295  0.3468
 5827SOL    HW128940   3.938   0.895   4.921  0.5692 -1.6266  2.5261
 5827SOL    HW228941   3.815   0.969   4.936  1.0450  1.8870 -1.4531
 5828SOL     OW28942   2.219   1.711   6.158 -0.0030  0.7518  0.6267
 5828SOL    HW128943   2.192   1.665   6.078 -1.6212 -0.9503  2.1350
 5828SOL    HW228944   2.262   1.636   6.200  0.6315 -0.4510 -2.1373
 5829SOL     OW28945   2.876   3.473   4.395  0.5187 -0.0102 -0.0242
 5829SOL    HW128946   2.849   3.473   4.303 -0.5479 -1.4827  0.2946
 5829SOL    HW228947   2.912   3.559   4.414  1.1766 -0.3735  0.3861
 5830SOL     OW28948   0.163   3.283  11.250  0.4867 -0.2985 -0.1376
 5830SOL    HW128949   0.255   3.274  11.275  0.6644 -1.6010 -1.2905
 5830SOL    HW228950   0.163   3.352  11.183  0.7688  1.8578  2.1027
 5831SOL     OW28951   0.024   2.359   6.174  0.4214  0.2774 -0.2601
 5831SOL    HW128952   0.018   2.374   6.269 -1.6367  1.1070 -0.5209
 5831SOL    HW228953   4.710   2.272   6.161 -0.0653  0.0532  2.6300
 5832SOL     OW28954   0.747   0.770   3.447 -0.1843 -0.0288  0.3417
 5832SOL    HW128955   0.800   0.690   3.445 -0.6867 -0.3596  0.2655
 5832SOL    HW228956   0.692   0.759   3.525  0.2553 -0.9217  0.5329
 5833SOL     OW28957   3.552   1.783   7.733  0.5452 -0.8556 -0.0936
 5833SOL    HW128958   3.625   1.723   7.751  0.2146 -0.3034  3.0715
 5833SOL    HW228959   3.494   1.745   7.798  0.1085  0.8378  0.4940
 5834SOL     OW28960   1.947   3.043   2.635 -0.9393  0.1468  0.2824
 5834SOL    HW128961   1.977   3.034   2.545  2.4913 -0.8232  1.5285
 5834SOL    HW228962   1.951   2.951   2.660 -0.7391 -0.0917 -0.6329
 5835SOL     OW28963   0.110   1.553  13.517  0.1181 -0.1133 -0.4653
 5835SOL    HW128964   0.152   1.625  13.564 -0.0676 -0.3467  0.0594
 5835SOL    HW228965   0.014   1.553  13.523  0.2048 -0.9859  0.8664
 5836SOL     OW28966   4.262   3.518   8.336 -0.1473 -0.0261  0.0943
 5836SOL    HW128967   4.203   3.448   8.363 -0.6618 -0.2100 -1.5046
 5836SOL    HW228968   4.302   3.536   8.421 -0.7062  1.4896  0.0379
 5837SOL     OW28969   0.354   1.093  12.215  0.3638 -0.1782 -0.2850
 5837SOL    HW128970   0.421   1.078  12.282  0.7870 -0.8023 -0.8485
 5837SOL    HW228971   0.373   1.024  12.151  2.6573  0.0802  0.0844
 5838SOL     OW28972   2.617   3.468   9.119  0.7239  0.5424 -0.3365
 5838SOL    HW128973   2.544   3.478   9.180 -0.8143 -0.7048 -1.9836
 5838SOL    HW228974   2.585   3.506   9.038  1.1841  1.6158 -0.0143
 5839SOL     OW28975   1.929   0.618  11.956 -0.0993  0.1099 -0.5252
 5839SOL    HW128976   2.003   0.560  11.937  0.8412  1.0273  0.3317
 5839SOL    HW228977   1.952   0.698  11.909 -0.8639 -0.2590 -1.5112
 5840SOL     OW28978   0.754   2.526   1.463 -0.5107 -0.2677  0.4506
 5840SOL    HW128979   0.768   2.431   1.472 -0.1290 -0.4485 -2.1743
 5840SOL    HW228980   0.829   2.552   1.409 -1.1555  0.3114 -0.1600
 5841SOL     OW28981   3.410   4.709  11.400  0.3678 -0.0682 -0.1368
 5841SOL    HW128982   3.323   0.019  11.378  1.2656  2.8657  0.8328
 5841SOL    HW228983   3.460   0.065  11.383 -1.2724  0.9263 -0.2810
 5842SOL     OW28984   1.112   2.945   9.321 -0.2240 -0.4950 -0.3641
 5842SOL    HW128985   1.197   2.903   9.330  0.2227  0.3388 -0.7511
 5842SOL    HW228986   1.079   2.954   9.411 -1.4126  2.9258 -1.1600
 5843SOL     OW28987   3.348   0.583   5.153 -0.1914 -0.6293 -0.2304
 5843SOL    HW128988   3.290   0.507   5.149  0.9416 -1.5198  0.1990
 5843SOL    HW228989   3.370   0.581   5.246  0.8304 -0.3815 -0.4670
 5844SOL     OW28990   3.118   1.626  16.918 -0.1675  0.2250 -0.2414
 5844SOL    HW128991   3.166   1.548  16.890  2.7587  1.9377  0.0417
 5844SOL    HW228992   3.068   1.639  16.838 -1.7264 -1.8677  0.3807
 5845SOL     OW28993   4.493   4.199  10.550  0.2390  0.4148 -0.2811
 5845SOL    HW128994   4.405   4.233  10.566 -0.3363  0.1363 -2.8170
 5845SOL    HW228995   4.479   4.149  10.469  0.4573 -0.3397  0.1470
 5846SOL     OW28996   3.112   3.480   8.455  0.2445  0.1589  0.4099
 5846SOL    HW128997   3.123   3.567   8.493  0.3890 -0.1799  1.1403
 5846SOL    HW228998   3.039   3.501   8.398  0.6727  1.1223  0.2137
 5847SOL     OW28999   1.729   1.492   4.329  0.2343  0.4511  0.2196
 5847SOL    HW129000   1.768   1.485   4.417  0.3526 -3.0860 -0.1192
 5847SOL    HW229001   1.638   1.499   4.358  0.4880 -1.2589  1.4423
 5848SOL     OW29002   3.345   3.040  15.270  0.2619  0.5287  0.0981
 5848SOL    HW129003   3.320   3.123  15.309  3.6249  0.8672  1.5734
 5848SOL    HW229004   3.265   3.015  15.224  0.4165 -1.2607  0.7714
 5849SOL     OW29005   1.956   4.407   6.724  0.0169 -0.6783 -0.0010
 5849SOL    HW129006   1.992   4.339   6.666 -0.6622 -0.0419 -1.1848
 5849SOL    HW229007   1.930   4.476   6.663  0.5049 -0.0169  0.5294
 5850SOL     OW29008   2.322   3.987   9.635 -0.3336 -0.2617  0.0581
 5850SOL    HW129009   2.369   4.068   9.654 -0.3934 -0.2589  0.1922
 5850SOL    HW229010   2.402   3.935   9.642 -0.2834  0.1437  2.3108
 5851SOL     OW29011   0.953   4.566   1.924  0.2227  0.2300  0.2386
 5851SOL    HW129012   0.908   4.650   1.929  0.2912  0.3210 -0.6207
 5851SOL    HW229013   0.909   4.519   1.995 -2.0247  0.2201 -1.1617
 5852SOL     OW29014   1.892   4.135   6.612 -0.7874 -0.2432 -0.2325
 5852SOL    HW129015   1.842   4.137   6.531  2.4559 -0.9203 -2.2456
 5852SOL    HW229016   1.945   4.055   6.604  1.5159  1.1853  0.7559
 5853SOL     OW29017   2.614   3.396   7.393  0.4300 -0.1991  0.0679
 5853SOL    HW129018   2.602   3.457   7.466 -3.6193  0.7550 -1.3987
 5853SOL    HW229019   2.606   3.448   7.314 -0.2805  0.0639  0.3195
 5854SOL     OW29020   0.580   4.636   5.037  0.5345  0.2939 -0.1181
 5854SOL    HW129021   0.607   4.568   4.976  1.7007 -1.5028  2.4344
 5854SOL    HW229022   0.665   4.677   5.053  1.1931 -0.9665 -0.4464
 5855SOL     OW29023   0.130   0.933  14.764  0.3073 -0.5127 -0.5950
 5855SOL    HW129024   0.172   0.875  14.827 -2.4818  0.4986  2.1629
 5855SOL    HW229025   0.188   1.007  14.744  1.6174 -1.5665 -0.7141
 5856SOL     OW29026   2.766   3.873   8.270  0.1967  0.3027 -0.4877
 5856SOL    HW129027   2.725   3.789   8.290 -2.3763  1.6421 -0.0919
 5856SOL    HW229028   2.721   3.927   8.334  1.9995  0.6238  0.5119
 5857SOL     OW29029   4.201   4.099   6.221  0.0862 -0.2532 -0.1439
 5857SOL    HW129030   4.285   4.116   6.263 -0.0279 -0.6318  0.2345
 5857SOL    HW229031   4.177   4.186   6.187 -0.7935 -0.7041 -0.6897
 5858SOL     OW29032   2.411   1.969   2.101 -0.3115 -0.1617  0.1941
 5858SOL    HW129033   2.372   1.971   2.189  0.8303  1.6658  0.6498
 5858SOL    HW229034   2.332   1.965   2.048 -1.0981 -0.7106  1.3951
 5859SOL     OW29035   0.773   4.720  14.962 -0.0250 -0.0075 -0.2369
 5859SOL    HW129036   0.709   0.067  14.956  1.5093  1.4564  0.8704
 5859SOL    HW229037   0.749   4.675  15.043 -0.1985  0.2489 -0.1446
 5860SOL     OW29038   0.300   2.794   4.726 -0.2168 -0.2565  0.4299
 5860SOL    HW129039   0.220   2.751   4.755  0.4995 -2.7734 -1.3305
 5860SOL    HW229040   0.309   2.855   4.800  1.8371  0.5208 -0.4340
 5861SOL     OW29041   1.425   1.695   5.796  0.0993 -0.1142  0.2628
 5861SOL    HW129042   1.405   1.663   5.708  1.6554  0.9973 -0.5047
 5861SOL    HW229043   1.433   1.605   5.828  3.1924  0.5392  1.3546
 5862SOL     OW29044   1.381   4.504   4.293 -0.8167  0.0635 -0.2244
 5862SOL    HW129045   1.338   4.540   4.216  2.4552  0.5419 -1.8361
 5862SOL    HW229046   1.347   4.415   4.299 -0.0493 -0.2021  0.1995
 5863SOL     OW29047   1.993   3.623   5.307  0.2357 -0.3113  0.3457
 5863SOL    HW129048   1.942   3.696   5.342 -2.2317 -1.5444 -0.6757
 5863SOL    HW229049   2.076   3.668   5.295  0.2733 -0.2476  0.8302
 5864SOL     OW29050   1.743   4.303   2.041  0.3417 -0.2968  0.2248
 5864SOL    HW129051   1.699   4.300   2.126  2.2465  3.4753  1.3729
 5864SOL    HW229052   1.796   4.224   2.042  3.3065  1.6708 -0.3646
 5865SOL     OW29053   1.691   4.576  16.970  0.2455  0.0523  0.0909
 5865SOL    HW129054   1.689   4.664  17.007 -3.3910  0.1836 -0.3784
 5865SOL    HW229055   1.597   4.558  16.959  0.4271  0.3530 -2.0189
 5866SOL     OW29056   0.250   0.513   5.781  0.4029  0.1633  0.5295
 5866SOL    HW129057   0.277   0.554   5.863 -0.6403  0.4526  0.7299
 5866SOL    HW229058   0.268   0.584   5.718 -0.3869 -1.0622 -1.0852
 5867SOL     OW29059   4.698   4.630   8.704 -0.0363  0.6171  0.4286
 5867SOL    HW129060   0.019   4.714   8.695  1.1284  0.0267  0.7963
 5867SOL    HW229061   4.617   4.662   8.744 -1.3929 -0.4731 -1.4351
 5868SOL     OW29062   4.503   1.311   8.159  0.1612 -0.3941 -0.3983
 5868SOL    HW129063   4.425   1.270   8.196 -1.0702  2.5942  0.2789
 5868SOL    HW229064   4.467   1.346   8.078 -1.0829  1.4227  0.9464
 5869SOL     OW29065   1.008   0.578   5.392 -0.2959  0.2936 -0.1559
 5869SOL    HW129066   1.045   0.618   5.313 -1.5111  0.5239 -0.6155
 5869SOL    HW229067   1.044   0.492   5.372  0.9100  0.9180 -0.6911
 5870SOL     OW29068   1.727   2.357   5.699  0.2300  0.5269  0.6002
 5870SOL    HW129069   1.774   2.434   5.730  0.8182  0.1623  0.6155
 5870SOL    HW229070   1.797   2.295   5.680  0.4466  1.0217 -0.2229
 5871SOL     OW29071   1.635   2.242   0.750 -0.5138 -0.0884 -0.0353
 5871SOL    HW129072   1.568   2.279   0.694  0.6299  1.7611 -0.1833
 5871SOL    HW229073   1.698   2.313   0.764 -0.6326 -0.2204  1.2055
 5872SOL     OW29074   1.022   3.845   3.929 -0.5984 -0.1729 -0.2471
 5872SOL    HW129075   0.999   3.860   4.021 -0.9879 -0.4150 -0.3075
 5872SOL    HW229076   1.021   3.750   3.924  0.8013 -0.3623  2.8501
 5873SOL     OW29077   2.699   1.212  16.277  0.4341  0.1240 -0.1176
 5873SOL    HW129078   2.771   1.211  16.340  2.3791  1.4913 -2.2801
 5873SOL    HW229079   2.701   1.299  16.236  1.4941  0.0951 -0.1192
 5874SOL     OW29080   2.614   2.599  11.460 -0.2131  0.1932  0.1260
 5874SOL    HW129081   2.709   2.587  11.453 -0.0893  0.3489  1.6225
 5874SOL    HW229082   2.603   2.605  11.555 -2.6992  0.9931 -0.2264
 5875SOL     OW29083   3.237   0.831   1.661  0.7486 -0.2173  0.2202
 5875SOL    HW129084   3.199   0.903   1.712  1.1300  0.0676  0.1011
 5875SOL    HW229085   3.232   0.765   1.730 -1.1694 -1.2342 -0.8679
 5876SOL     OW29086   0.805   0.542  12.838 -0.2107 -0.3601 -0.3398
 5876SOL    HW129087   0.825   0.473  12.901 -0.8394  0.7356  1.0755
 5876SOL    HW229088   0.883   0.538  12.782 -0.4740  0.6374 -0.7753
 5877SOL     OW29089   4.550   4.353   5.663 -0.4907 -0.2952 -0.1402
 5877SOL    HW129090   4.521   4.285   5.724 -0.3972  0.2881  0.5538
 5877SOL    HW229091   4.584   4.290   5.599  0.1512  0.1224 -0.2136
 5878SOL     OW29092   4.623   3.419   5.538  0.4623  0.8197  0.1302
 5878SOL    HW129093   4.681   3.495   5.540 -0.8798  1.8087  1.8176
 5878SOL    HW229094   4.628   3.377   5.452 -2.2883  1.7193 -0.4955
 5879SOL     OW29095   4.307   4.444  16.398 -0.3699  0.3316 -0.0058
 5879SOL    HW129096   4.338   4.501  16.329 -3.5028 -0.3441 -1.9740
 5879SOL    HW229097   4.362   4.367  16.387 -0.4781 -0.0511  2.0557
 5880SOL     OW29098   0.497   0.828   2.885 -0.4844 -0.1550 -0.0489
 5880SOL    HW129099   0.428   0.882   2.923 -0.2652 -0.1206  0.2949
 5880SOL    HW229100   0.489   0.853   2.792 -0.0575 -1.4424 -0.4361
 5881SOL     OW29101   1.005   3.876   9.689  0.8536  0.1173 -0.3210
 5881SOL    HW129102   0.997   3.859   9.783 -2.5181  1.2746 -0.4013
 5881SOL    HW229103   1.047   3.794   9.663  0.4211  0.0139 -0.6839
 5882SOL     OW29104   1.354   1.256   8.342 -0.3121 -0.0055 -0.2913
 5882SOL    HW129105   1.340   1.300   8.258  0.7785  0.5875 -0.1587
 5882SOL    HW229106   1.422   1.314   8.377 -1.1302  0.1827  0.9820
 5883SOL     OW29107   1.378   3.904  13.001 -0.2932 -0.3623  0.1482
 5883SOL    HW129108   1.298   3.923  12.952  1.6172  0.3478 -2.6569
 5883SOL    HW229109   1.404   3.828  12.950  1.3141  0.2731  0.0222
 5884SOL     OW29110   3.239   4.675   5.016  0.3529  0.3753 -0.3329
 5884SOL    HW129111   3.209   4.590   5.048  1.1434 -0.1307 -0.9524
 5884SOL    HW229112   3.167   4.723   5.057 -0.4402 -0.5193 -0.6701
 5885SOL     OW29113   1.119   4.316   3.843 -0.0268 -0.1012  0.1061
 5885SOL    HW129114   1.174   4.287   3.916  0.2126 -1.1146 -0.4735
 5885SOL    HW229115   1.037   4.272   3.863 -0.7167  0.2669 -1.9186
 5886SOL     OW29116   0.414   1.766   9.097  0.2356 -0.3634 -0.1511
 5886SOL    HW129117   0.365   1.717   9.031 -0.5303  0.0253  0.1374
 5886SOL    HW229118   0.369   1.744   9.178  1.2130 -0.3994  0.3766
 5887SOL     OW29119   1.722   0.146   7.375 -0.4973 -0.3577 -0.0179
 5887SOL    HW129120   1.674   0.166   7.294 -1.4487 -0.4735  0.5204
 5887SOL    HW229121   1.659   0.093   7.423 -0.8320 -2.0568 -2.3610
 5888SOL     OW29122   1.487   2.241  10.936  0.0001  0.1902  0.0241
 5888SOL    HW129123   1.424   2.290  10.882 -1.7256 -2.0636 -0.0164
 5888SOL    HW229124   1.527   2.314  10.984  1.9290 -0.7157 -0.2105
 5889SOL     OW29125   0.536   4.390   2.186 -0.1322 -0.1679 -0.8271
 5889SOL    HW129126   0.535   4.464   2.126  2.3918 -0.3249 -1.0726
 5889SOL    HW229127   0.481   4.324   2.145 -1.6875 -0.6354  1.9948
 5890SOL     OW29128   4.187   4.540   5.788 -0.3554  0.0808 -0.0436
 5890SOL    HW129129   4.226   4.536   5.701 -1.1724  0.3110 -0.4153
 5890SOL    HW229130   4.101   4.575   5.767  0.6028 -0.0945 -4.2852
 5891SOL     OW29131   0.507   4.069   1.322  0.6655  0.1084  0.1265
 5891SOL    HW129132   0.414   4.058   1.304  0.5285  1.1346  0.1912
 5891SOL    HW229133   0.521   4.164   1.330 -0.3094  0.2610  0.0458
 5892SOL     OW29134   0.732   0.553  11.453  0.2153 -0.2979 -0.4670
 5892SOL    HW129135   0.815   0.590  11.484 -1.0083  0.4271  1.9272
 5892SOL    HW229136   0.674   0.619  11.491 -1.0328 -0.5259 -2.0163
 5893SOL     OW29137   1.367   3.522   2.885  0.2911  0.2771 -0.0749
 5893SOL    HW129138   1.372   3.616   2.868 -1.2882  0.3123 -0.3447
 5893SOL    HW229139   1.402   3.482   2.806 -1.7946  1.3998 -1.5604
 5894SOL     OW29140   4.001   3.830   4.472  0.4022 -0.3896  0.1943
 5894SOL    HW129141   4.005   3.823   4.376 -1.4498  1.5984 -0.0436
 5894SOL    HW229142   3.915   3.872   4.472  2.4724  3.9185 -0.7742
 5895SOL     OW29143   3.426   0.484   8.886 -0.1459 -0.1370  0.4646
 5895SOL    HW129144   3.396   0.560   8.937 -0.7757  1.3253 -2.1152
 5895SOL    HW229145   3.518   0.497   8.907  0.1362  0.7518 -1.3269
 5896SOL     OW29146   2.601   1.895  14.147 -0.0046 -0.1235 -0.0626
 5896SOL    HW129147   2.668   1.874  14.083 -0.0333 -1.1725  0.2618
 5896SOL    HW229148   2.614   1.829  14.214 -0.5592 -1.1048 -0.9246
 5897SOL     OW29149   2.040   1.363   4.307 -0.2312 -0.5593 -0.0805
 5897SOL    HW129150   2.120   1.396   4.348 -1.6019  2.4422  0.2167
 5897SOL    HW229151   1.990   1.326   4.380 -1.2725  0.6121 -0.2087
 5898SOL     OW29152   0.536   0.480   8.343  0.1726 -0.0365 -0.5100
 5898SOL    HW129153   0.479   0.435   8.281 -0.6703  1.7125 -1.0038
 5898SOL    HW229154   0.518   0.415   8.410 -1.8798 -1.3914 -2.3778
 5899SOL     OW29155   4.695   0.144  12.671  0.3369 -0.0446 -0.5617
 5899SOL    HW129156   0.050   0.193  12.649  0.9722 -0.1505  1.4765
 5899SOL    HW229157   4.724   0.062  12.632  1.2453 -0.4568  0.9462
 5900SOL     OW29158   4.398   4.548   4.035  0.4661  0.3370  0.7292
 5900SOL    HW129159   4.325   4.578   3.980  1.2861  1.0450  0.0428
 5900SOL    HW229160   4.393   4.455   4.012  1.4657  0.2626  0.8270
 5901SOL     OW29161   3.896   2.004  15.533  0.6284  0.2064  0.5156
 5901SOL    HW129162   3.958   2.049  15.476  0.7064 -1.8637 -1.0234
 5901SOL    HW229163   3.812   2.002  15.487  2.3492 -3.1160 -2.5130
 5902SOL     OW29164   0.561   1.810   1.745  0.1375  0.0913 -0.2100
 5902SOL    HW129165   0.597   1.822   1.657 -1.0707 -0.4049 -0.7699
 5902SOL    HW229166   0.605   1.874   1.801  0.3734  0.4679 -0.8182
 5903SOL     OW29167   4.235   0.292  10.406  0.8935  0.0581 -0.1254
 5903SOL    HW129168   4.144   0.289  10.377 -0.0048 -0.0425  2.6648
 5903SOL    HW229169   4.223   0.330  10.493 -0.9609 -3.1622  1.0537
 5904SOL     OW29170   0.996   0.709   7.569 -0.2063 -0.0185 -0.4790
 5904SOL    HW129171   0.966   0.695   7.658 -0.0520  0.7095 -0.3168
 5904SOL    HW229172   0.908   0.701   7.532 -0.8590  1.4210  0.7782
 5905SOL     OW29173   3.409   0.906   6.600 -0.1899  0.4897  0.1629
 5905SOL    HW129174   3.406   0.991   6.557  1.5157 -0.2087 -1.3368
 5905SOL    HW229175   3.420   0.850   6.523 -0.2391  1.4858 -0.5601
 5906SOL     OW29176   2.468   3.744   2.265 -0.2653 -0.2356  0.5238
 5906SOL    HW129177   2.556   3.782   2.254 -0.3508 -0.3734 -0.6673
 5906SOL    HW229178   2.485   3.655   2.235 -1.1722 -0.3068  0.2270
 5907SOL     OW29179   0.702   0.920   2.142  0.1974 -0.6985 -0.4755
 5907SOL    HW129180   0.736   0.993   2.090  1.0510 -0.1316  0.8730
 5907SOL    HW229181   0.611   0.929   2.115  0.1348  1.4010  0.3895
 5908SOL     OW29182   3.211   4.567  10.530 -0.3882 -0.0692  0.0073
 5908SOL    HW129183   3.127   4.563  10.485  0.2369 -0.9822 -1.1138
 5908SOL    HW229184   3.264   4.522  10.464 -0.6844 -2.7741  1.6027
 5909SOL     OW29185   4.460   4.229  11.141 -0.0656 -0.1654  0.0581
 5909SOL    HW129186   4.505   4.168  11.200  1.1014 -1.7522 -2.4702
 5909SOL    HW229187   4.489   4.313  11.176  2.7786 -0.1605 -2.3155
 5910SOL     OW29188   4.265   3.388  13.544  0.3584 -0.1487 -0.2867
 5910SOL    HW129189   4.249   3.476  13.576 -1.6595 -0.4124 -0.6077
 5910SOL    HW229190   4.360   3.381  13.534  0.4454 -0.5122  0.8582
 5911SOL     OW29191   1.362   3.894   7.074  0.3290  0.8384  0.3516
 5911SOL    HW129192   1.296   3.955   7.041  1.3582  0.9663 -1.4673
 5911SOL    HW229193   1.441   3.932   7.037  0.6833 -2.1351 -1.9516
 5912SOL     OW29194   4.428   0.433  16.592 -0.7418 -0.0645 -0.6826
 5912SOL    HW129195   4.451   0.486  16.516 -0.8150 -0.7282 -1.1665
 5912SOL    HW229196   4.391   0.510  16.636 -1.7796 -0.4323 -0.9117
 5913SOL     OW29197   3.501   2.305   7.626  0.3813 -0.4264 -0.1446
 5913SOL    HW129198   3.458   2.290   7.710 -0.3602  0.6515 -0.3246
 5913SOL    HW229199   3.471   2.389   7.591 -1.0509 -0.6959  0.3987
 5914SOL     OW29200   2.440   2.058   6.990  0.1632  0.1364 -0.1349
 5914SOL    HW129201   2.450   2.130   7.052 -0.0507 -1.2433  1.4757
 5914SOL    HW229202   2.509   1.998   7.016  0.7998  0.2326 -1.5776
 5915SOL     OW29203   3.605   1.903   0.510  0.1023  0.6904  0.5592
 5915SOL    HW129204   3.535   1.955   0.471  0.4154 -1.6624 -3.1329
 5915SOL    HW229205   3.548   1.860   0.573 -0.5784  0.4962 -0.1981
 5916SOL     OW29206   3.908   2.874   0.839 -0.4403 -0.6673 -0.1917
 5916SOL    HW129207   3.865   2.935   0.898  0.6116  1.0959 -1.2446
 5916SOL    HW229208   3.845   2.802   0.839 -0.4778 -0.6346 -0.2063
 5917SOL     OW29209   3.838   2.093  13.362 -0.6647  0.3128  0.2508
 5917SOL    HW129210   3.805   2.046  13.285  1.5222 -0.5717 -0.1403
 5917SOL    HW229211   3.767   2.082  13.425 -2.8394  0.6163 -2.1112
 5918SOL     OW29212   2.313   3.757  15.687  0.2513  0.4969 -0.8039
 5918SOL    HW129213   2.366   3.827  15.648  0.9845 -0.0795 -0.8467
 5918SOL    HW229214   2.245   3.749  15.620 -1.6823 -0.8489  1.2884
 5919SOL     OW29215   3.657   0.040  13.436  0.1477  0.1052 -0.6105
 5919SOL    HW129216   3.640   0.130  13.409  1.1065  0.4142 -0.1749
 5919SOL    HW229217   3.617   4.719  13.361 -0.6205  3.1411 -2.0814
 5920SOL     OW29218   1.774   1.495  13.701 -0.0081 -0.4547  0.0125
 5920SOL    HW129219   1.729   1.412  13.689 -0.2558  0.1146 -3.0931
 5920SOL    HW229220   1.774   1.522  13.609 -0.5744  1.9545  0.7274
 5921SOL     OW29221   1.151   2.536   2.621  0.1046 -0.2350  0.0437
 5921SOL    HW129222   1.160   2.613   2.565  0.1652  1.0278  1.7845
 5921SOL    HW229223   1.077   2.488   2.585 -1.8729  1.4990  1.7726
 5922SOL     OW29224   1.330   4.714  17.256 -0.1301  0.1890  0.3404
 5922SOL    HW129225   1.244   0.023  17.230  0.2620  2.2998  1.7209
 5922SOL    HW229226   1.305   4.622  17.257  2.8582 -0.6160 -0.0964
 5923SOL     OW29227   3.547   3.554   3.631 -0.0951  0.2944 -0.1107
 5923SOL    HW129228   3.640   3.558   3.606 -0.2422  3.2792 -0.1251
 5923SOL    HW229229   3.502   3.539   3.549  1.4327 -0.4253 -0.8323
 5924SOL     OW29230   0.500   2.801   7.708  0.1398  0.2158  1.0647
 5924SOL    HW129231   0.545   2.832   7.787  0.0061 -0.3197  1.3505
 5924SOL    HW229232   0.425   2.754   7.744  0.4583 -1.0722  0.0013
 5925SOL     OW29233   1.960   2.440   8.907 -0.0061  0.2158  0.0820
 5925SOL    HW129234   1.997   2.502   8.843 -0.4272 -0.4059 -0.7662
 5925SOL    HW229235   1.899   2.389   8.854 -0.2107  1.5943 -1.0219
 5926SOL     OW29236   2.046   2.487  12.060 -0.3535  0.2810 -0.3210
 5926SOL    HW129237   2.007   2.406  12.027 -0.0640  0.3711 -0.8985
 5926SOL    HW229238   1.971   2.529  12.102 -1.3163 -3.3344  1.5734
 5927SOL     OW29239   0.040   3.755   8.447 -0.4884  0.2010  0.2567
 5927SOL    HW129240   0.131   3.782   8.459  0.2012 -1.6054 -0.9182
 5927SOL    HW229241   0.031   3.664   8.474 -2.8108  0.3597  0.0522
 5928SOL     OW29242   2.643   3.063   9.330  0.4076  0.1546  0.0638
 5928SOL    HW129243   2.606   3.095   9.247  0.6686  1.4415  0.4356
 5928SOL    HW229244   2.623   3.139   9.385  0.0641 -1.4301  2.1329
 5929SOL     OW29245   1.370   4.556   9.025  0.1422  0.1939 -0.2748
 5929SOL    HW129246   1.296   4.615   9.010  0.9070  1.6585  1.6884
 5929SOL    HW229247   1.322   4.474   9.015  0.4314 -0.2138  1.6748
 5930SOL     OW29248   0.577   0.874   9.367 -0.1946 -0.3416  0.6075
 5930SOL    HW129249   0.526   0.874   9.286  0.3753 -2.2538  0.2583
 5930SOL    HW229250   0.505   0.849   9.424  0.3765 -0.9192  1.0719
 5931SOL     OW29251   2.205   2.435   7.173  0.0307 -1.0599  0.5775
 5931SOL    HW129252   2.186   2.498   7.103 -0.0744 -2.1941 -0.4118
 5931SOL    HW229253   2.179   2.352   7.133  1.2123 -0.9760 -0.3783
 5932SOL     OW29254   0.249   3.839   7.022 -0.0884  0.4480 -0.3157
 5932SOL    HW129255   0.326   3.844   6.967 -1.2463 -2.8439 -2.2241
 5932SOL    HW229256   0.183   3.812   6.958 -1.1648  1.1734  0.4663
 5933SOL     OW29257   1.270   4.516   9.452  0.3086 -0.3330  0.0965
 5933SOL    HW129258   1.272   4.422   9.430  1.9407  0.2389 -2.1868
 5933SOL    HW229259   1.178   4.537   9.435  0.3863 -0.7775 -0.9061
 5934SOL     OW29260   3.662   2.802   3.414  0.4675 -0.0357 -0.7415
 5934SOL    HW129261   3.637   2.710   3.422  0.6069  0.0020  0.0859
 5934SOL    HW229262   3.744   2.785   3.367  1.7648  0.9267  1.1875
 5935SOL     OW29263   3.304   3.371  11.045  0.1893 -0.5971 -0.0893
 5935SOL    HW129264   3.321   3.296  11.102 -0.5968 -1.1406 -0.5701
 5935SOL    HW229265   3.213   3.356  11.019  0.3594 -0.6007 -0.6893
 5936SOL     OW29266   1.195   0.859  11.157 -0.0143 -0.1698  0.3958
 5936SOL    HW129267   1.266   0.809  11.117 -0.1179  0.9050 -1.1462
 5936SOL    HW229268   1.182   0.929  11.093 -1.9981  0.2612  1.2776
 5937SOL     OW29269   0.042   4.161  13.813  0.7130 -0.6344 -0.4127
 5937SOL    HW129270   0.008   4.227  13.874  1.9269  1.8529 -2.4357
 5937SOL    HW229271   0.048   4.220  13.738  1.8034  1.4675  1.3223
 5938SOL     OW29272   4.462   4.433  12.808  0.4357  0.0080  0.4165
 5938SOL    HW129273   4.469   4.441  12.713  1.2923  1.8633  0.6179
 5938SOL    HW229274   4.552   4.446  12.838  0.7469 -1.0393 -0.0795
 5939SOL     OW29275   3.145   0.001   6.130 -0.0862  0.1651  0.4487
 5939SOL    HW129276   3.187   4.678   6.201 -0.7203 -0.2338  0.5623
 5939SOL    HW229277   3.088   4.656   6.097  0.3060 -0.7298  1.6416
 5940SOL     OW29278   0.595   4.311   2.897  0.3697  0.4355  0.1515
 5940SOL    HW129279   0.674   4.272   2.860  0.5553  1.0922 -0.1493
 5940SOL    HW229280   0.559   4.365   2.827  0.8986  0.7980  0.1576
 5941SOL     OW29281   0.262   2.249  17.553 -0.2579  0.2370 -0.5403
 5941SOL    HW129282   0.190   2.300  17.515 -0.7907 -0.4888 -0.4972
 5941SOL    HW229283   0.249   2.252  17.647 -0.8184 -0.0921 -0.6093
 5942SOL     OW29284   0.121   1.535  11.379 -0.2128 -0.0532  0.1055
 5942SOL    HW129285   0.210   1.511  11.357 -0.1834 -0.5556  0.7697
 5942SOL    HW229286   0.132   1.630  11.382 -0.0923 -0.0161 -1.5207
 5943SOL     OW29287   1.889   0.282  17.676 -1.0815 -0.3906  0.2194
 5943SOL    HW129288   1.893   0.294   0.071  0.9282 -0.1038  0.0914
 5943SOL    HW229289   1.914   0.366  17.637  1.2777 -1.7914 -1.2662
 5944SOL     OW29290   4.606   1.482   0.546  0.4455  0.2488 -0.7779
 5944SOL    HW129291   4.675   1.537   0.585  0.4891 -1.8926  2.1905
 5944SOL    HW229292   4.529   1.537   0.558 -1.0718 -1.9030 -0.6755
 5945SOL     OW29293   0.799   1.920   2.811  0.4291 -0.4380  0.5285
 5945SOL    HW129294   0.859   1.882   2.747  0.6619 -0.0492  0.5191
 5945SOL    HW229295   0.738   1.974   2.761 -0.5720 -2.1109 -0.0733
 5946SOL     OW29296   1.951   0.525   8.827 -0.3754 -0.3208  0.0022
 5946SOL    HW129297   1.919   0.597   8.882 -1.7488  0.5174 -1.9052
 5946SOL    HW229298   1.895   0.452   8.852  2.0963 -1.8685  0.9935
 5947SOL     OW29299   1.318   4.219   2.203  0.2179  0.7495 -0.3626
 5947SOL    HW129300   1.403   4.237   2.242 -1.1620  2.4776  1.8691
 5947SOL    HW229301   1.335   4.253   2.115 -0.1543 -1.0402 -1.1190
 5948SOL     OW29302   1.344   2.111   7.754  0.6568  0.3139  0.1719
 5948SOL    HW129303   1.412   2.145   7.812  0.3631  0.0478  0.6729
 5948SOL    HW229304   1.269   2.104   7.812  0.9915 -2.7983  0.2283
 5949SOL     OW29305   1.527   0.519  11.705 -0.1927 -0.5007  0.5072
 5949SOL    HW129306   1.607   0.472  11.683 -0.3271  0.0365 -1.1666
 5949SOL    HW229307   1.524   0.596  11.647  2.0886 -1.7968 -1.3593
 5950SOL     OW29308   1.869   0.829   2.799  0.1592 -0.3268  0.3238
 5950SOL    HW129309   1.868   0.786   2.714 -0.2894 -0.5625  0.4474
 5950SOL    HW229310   1.840   0.763   2.861  1.7117 -1.4025 -0.1067
 5951SOL     OW29311   1.315   4.208   5.975  0.2229  0.0771 -0.1110
 5951SOL    HW129312   1.304   4.188   6.068 -0.9100  0.3424 -0.1900
 5951SOL    HW229313   1.225   4.220   5.945 -0.2052  0.1207  1.2059
 5952SOL     OW29314   2.255   2.869   9.399 -0.3384 -0.3130 -0.0936
 5952SOL    HW129315   2.301   2.785   9.396 -0.8322 -0.6406  1.2731
 5952SOL    HW229316   2.233   2.876   9.306 -1.3682 -2.5707 -0.0133
 5953SOL     OW29317   1.403   0.452   4.142  0.3636  0.0367  0.0025
 5953SOL    HW129318   1.441   0.538   4.124  1.1875 -0.5511 -1.0575
 5953SOL    HW229319   1.312   0.476   4.160  1.2205  2.4382  1.1527
 5954SOL     OW29320   0.243   2.999   4.105 -0.1203 -0.1434 -0.5185
 5954SOL    HW129321   0.314   2.997   4.040  1.3426 -2.4097  1.1909
 5954SOL    HW229322   0.226   3.093   4.108 -1.5541 -0.1875 -5.6662
 5955SOL     OW29323   4.069   1.594  13.034  0.0751  0.5062  0.0373
 5955SOL    HW129324   4.148   1.648  13.029 -0.0173  0.6150 -0.2370
 5955SOL    HW229325   4.114   1.510  13.028 -0.0932  0.3653  0.7265
 5956SOL     OW29326   0.766   1.699   1.365  0.2581 -0.2980 -0.1088
 5956SOL    HW129327   0.679   1.693   1.326  0.5692 -3.1423 -0.3951
 5956SOL    HW229328   0.804   1.641   1.299 -2.2075 -0.7961 -1.0907
 5957SOL     OW29329   4.297   0.890   2.601  0.6910  0.3148  0.2958
 5957SOL    HW129330   4.275   0.927   2.686  0.1849  0.5276  0.0720
 5957SOL    HW229331   4.362   0.954   2.572  1.1280  1.5771  4.0554
 5958SOL     OW29332   4.169   3.861   8.548  0.2501  0.2348 -0.4642
 5958SOL    HW129333   4.245   3.803   8.546 -0.1361 -0.3376  1.5024
 5958SOL    HW229334   4.202   3.936   8.498  0.1348  0.6292  0.0568
 5959SOL     OW29335   3.089   0.954   9.015 -0.1106  0.3787  0.6625
 5959SOL    HW129336   3.128   1.019   9.073  0.5761 -0.8313  1.5643
 5959SOL    HW229337   3.077   1.002   8.934  0.9200  1.1241  0.9520
 5960SOL     OW29338   0.303   2.944   4.979  0.2798 -0.0579  0.3902
 5960SOL    HW129339   0.261   2.997   5.046  1.1609  2.5326 -1.1036
 5960SOL    HW229340   0.362   3.012   4.947 -0.4748 -0.6188 -2.1608
 5961SOL     OW29341   4.079   0.452   1.503  0.3934 -0.0988 -0.1430
 5961SOL    HW129342   4.156   0.468   1.558  0.1182  6.0582 -1.5225
 5961SOL    HW229343   4.019   0.506   1.555 -0.6099 -1.6142  0.2471
 5962SOL     OW29344   2.561   0.630   9.439  0.0066  0.9415 -0.4270
 5962SOL    HW129345   2.561   0.696   9.369  1.9083 -0.6711 -1.9775
 5962SOL    HW229346   2.509   0.673   9.506 -1.5533 -1.0260 -0.3844
 5963SOL     OW29347   0.855   3.886   6.351  0.1669  0.2532 -0.6406
 5963SOL    HW129348   0.847   3.961   6.411  0.3312  0.7900 -1.2843
 5963SOL    HW229349   0.942   3.898   6.312  1.1422 -2.1200  0.8495
 5964SOL     OW29350   3.317   4.345   6.129 -0.7891 -0.5711 -0.0749
 5964SOL    HW129351   3.352   4.312   6.212  0.5720  2.5961  0.5847
 5964SOL    HW229352   3.302   4.263   6.082 -0.3847 -1.0819  0.6943
 5965SOL     OW29353   0.775   1.476  10.318  0.5550 -0.3828  0.0466
 5965SOL    HW129354   0.870   1.492  10.317  0.5017  0.0683  2.0112
 5965SOL    HW229355   0.749   1.460  10.408  0.5960 -0.4735  0.0421
 5966SOL     OW29356   3.612   2.918  17.597  0.8257 -0.0903  0.0138
 5966SOL    HW129357   3.640   2.835  17.558  2.1702  0.8232 -0.9898
 5966SOL    HW229358   3.558   2.878  17.664  0.6603  0.2680  0.0937
 5967SOL     OW29359   1.399   3.513   1.820  0.4925 -1.0200  0.3336
 5967SOL    HW129360   1.418   3.424   1.792 -0.2511 -0.7880 -0.8971
 5967SOL    HW229361   1.488   3.547   1.826  0.1770 -0.3696  1.2715
 5968SOL     OW29362   3.745   1.586   0.604 -0.2862  0.4605  0.5802
 5968SOL    HW129363   3.697   1.543   0.675 -1.7452  0.1974 -0.5737
 5968SOL    HW229364   3.673   1.621   0.552 -0.8370 -0.9744  0.3702
 5969SOL     OW29365   0.044   3.582   2.331  0.5841 -0.1437 -0.1443
 5969SOL    HW129366   0.096   3.524   2.275  0.8559  1.0408 -1.1041
 5969SOL    HW229367   0.119   3.606   2.385  0.7621  3.5320 -2.0836
 5970SOL     OW29368   3.406   1.400  14.193 -0.6602 -0.3110 -0.9080
 5970SOL    HW129369   3.456   1.400  14.274 -1.0486  0.3919 -0.6710
 5970SOL    HW229370   3.383   1.309  14.175  0.0298 -0.0309 -3.3492
 5971SOL     OW29371   2.822   4.225   0.228  0.6196 -0.6027 -0.3531
 5971SOL    HW129372   2.816   4.261   0.317 -0.0389 -0.8127 -0.3090
 5971SOL    HW229373   2.901   4.171   0.229  0.1358 -1.3003  0.5428
 5972SOL     OW29374   2.762   1.551  11.290 -0.2716  0.1723  0.2598
 5972SOL    HW129375   2.765   1.563  11.195 -1.0433 -0.8590  0.1123
 5972SOL    HW229376   2.693   1.613  11.312  0.5717  1.0732  0.3798
 5973SOL     OW29377   2.093   4.276  14.127 -0.8880 -0.1578 -0.6349
 5973SOL    HW129378   2.006   4.311  14.145 -0.3252 -0.8066  3.4374
 5973SOL    HW229379   2.128   4.289  14.215 -3.0176 -0.6253  0.2980
 5974SOL     OW29380   3.943   4.130   7.435 -0.0206 -0.8337  0.0428
 5974SOL    HW129381   3.997   4.198   7.473  0.7986 -1.9465  0.8615
 5974SOL    HW229382   3.946   4.153   7.342  0.8164  1.0288  0.5409
 5975SOL     OW29383   0.465   2.987   7.315 -0.2303  0.3583  0.3085
 5975SOL    HW129384   0.504   2.996   7.402  1.3960  0.7551 -0.4619
 5975SOL    HW229385   0.405   2.913   7.319  0.4871 -0.2493 -0.1273
 5976SOL     OW29386   4.243   1.482   0.132 -0.2157  0.1072 -0.5808
 5976SOL    HW129387   4.184   1.478   0.208  0.6822  2.2752  0.2438
 5976SOL    HW229388   4.199   1.524   0.058  0.5127 -0.2597 -1.2235
 5977SOL     OW29389   2.635   1.331  11.392  0.2362 -0.4039 -0.8874
 5977SOL    HW129390   2.677   1.404  11.347  3.1426 -1.8490 -0.4948
 5977SOL    HW229391   2.695   1.315  11.465  1.8742  3.0827 -1.4778
 5978SOL     OW29392   0.381   0.224   8.514  0.0450 -0.2634 -0.2826
 5978SOL    HW129393   0.379   0.274   8.595 -1.0537  1.8012 -1.5744
 5978SOL    HW229394   0.304   0.270   8.481 -0.7613 -0.6925  1.0141
 5979SOL     OW29395   3.369   2.043   4.563  0.0159 -0.2536  0.2067
 5979SOL    HW129396   3.277   2.024   4.543 -0.2472  1.8508 -0.6261
 5979SOL    HW229397   3.369   2.115   4.499  0.4639  0.8518  1.4378
 5980SOL     OW29398   3.572   2.369   2.092  0.2826  0.2156 -0.0539
 5980SOL    HW129399   3.650   2.423   2.102 -0.2802  1.3879 -1.9851
 5980SOL    HW229400   3.504   2.423   2.132  0.1691  0.8639 -1.1271
 5981SOL     OW29401   0.384   0.307  11.232 -0.3872 -0.0927 -1.0744
 5981SOL    HW129402   0.409   0.285  11.142  2.1145  1.5875 -0.8045
 5981SOL    HW229403   0.302   0.262  11.251 -0.3485  0.3636  0.1553
 5982SOL     OW29404   4.078   2.835   3.815 -0.1861 -0.4759 -0.1331
 5982SOL    HW129405   4.023   2.911   3.798 -1.5569 -0.7845  3.0746
 5982SOL    HW229406   4.011   2.767   3.824 -0.4149 -0.4229 -1.3857
 5983SOL     OW29407   1.107   0.586   5.146  0.4140 -0.4988 -0.3676
 5983SOL    HW129408   1.138   0.501   5.116  0.9712 -0.5765  0.4027
 5983SOL    HW229409   1.112   0.639   5.067  0.6831 -0.6892 -0.4764
 5984SOL     OW29410   4.302   2.472   8.697  0.4648 -0.0760 -0.3630
 5984SOL    HW129411   4.225   2.508   8.741  1.5495 -0.4098  1.8076
 5984SOL    HW229412   4.323   2.401   8.758 -0.5155  1.1553  1.4175
 5985SOL     OW29413   2.602   2.788  17.486  0.2644 -0.3899 -0.8244
 5985SOL    HW129414   2.551   2.766  17.408 -2.2275 -1.9163  1.2172
 5985SOL    HW229415   2.679   2.737  17.462  0.4408 -1.1295  1.3838
 5986SOL     OW29416   1.432   2.872  15.877 -0.6865 -0.1387 -0.7623
 5986SOL    HW129417   1.489   2.802  15.844  2.3611  1.9932  0.0575
 5986SOL    HW229418   1.358   2.855  15.818  1.9306  0.3055 -4.1039
 5987SOL     OW29419   0.704   4.067   2.467  0.1432  0.3759 -0.1772
 5987SOL    HW129420   0.654   4.080   2.548  1.3330  1.9644  0.3192
 5987SOL    HW229421   0.640   4.023   2.411  1.1940  1.5206 -2.2674
 5988SOL     OW29422   4.031   4.459   7.315  0.5812  0.2851  0.5995
 5988SOL    HW129423   4.111   4.416   7.345  0.8778  0.9450  0.7659
 5988SOL    HW229424   4.070   4.522   7.254 -0.7763  1.7443  1.2409
 5989SOL     OW29425   0.424   4.610  13.256  0.2255  0.3028 -0.5391
 5989SOL    HW129426   0.480   4.618  13.178 -2.2184 -0.9910 -2.4350
 5989SOL    HW229427   0.431   4.515  13.266 -1.1378  0.3196  0.5455
 5990SOL     OW29428   2.112   2.740  12.239  0.3761  0.3870  0.3307
 5990SOL    HW129429   2.159   2.805  12.187 -4.0576  2.5330 -0.9629
 5990SOL    HW229430   2.024   2.775  12.226 -0.8618 -1.9789  2.3413
 5991SOL     OW29431   3.920   0.054   6.666 -0.1345  0.5285 -0.1594
 5991SOL    HW129432   3.930   4.689   6.699  1.2507  0.6162 -0.3618
 5991SOL    HW229433   3.995   0.062   6.607 -0.7080  2.2132 -0.6812
 5992SOL     OW29434   4.228   4.237   5.562  0.1686  0.6507 -0.1247
 5992SOL    HW129435   4.288   4.192   5.622  0.0335 -0.0705 -0.5321
 5992SOL    HW229436   4.259   4.328   5.562  0.1935  0.6398 -1.7718
 5993SOL     OW29437   0.920   0.186   4.684 -0.3886  0.1791  0.3753
 5993SOL    HW129438   0.931   0.095   4.709 -0.9508  0.1659  0.5805
 5993SOL    HW229439   0.831   0.185   4.649  0.8165 -0.5757 -2.7091
 5994SOL     OW29440   2.869   0.324  16.014  0.4159 -0.3813 -0.3626
 5994SOL    HW129441   2.935   0.316  16.083 -0.9565  1.0508  1.1218
 5994SOL    HW229442   2.908   0.292  15.933 -0.0712 -1.7831 -0.0460
 5995SOL     OW29443   4.418   2.861   6.594  0.0051  0.2269  0.5287
 5995SOL    HW129444   4.442   2.936   6.648 -1.7772  0.1445  1.4003
 5995SOL    HW229445   4.367   2.899   6.522  0.3211 -0.9459 -0.3094
 5996SOL     OW29446   3.414   2.100   8.817  0.2891 -0.8243  0.4371
 5996SOL    HW129447   3.391   2.076   8.906 -0.0252  0.5580  0.7186
 5996SOL    HW229448   3.441   2.188   8.844  1.7937 -1.0694 -0.2267
 5997SOL     OW29449   0.553   1.480   1.075 -0.0082 -0.6115 -0.1774
 5997SOL    HW129450   0.458   1.471   1.068 -0.3107  1.0912  1.9074
 5997SOL    HW229451   0.574   1.489   0.982 -1.8577  0.7573 -0.4567
 5998SOL     OW29452   3.316   1.692   0.798 -0.5331 -0.2840  0.5831
 5998SOL    HW129453   3.260   1.688   0.876 -0.0179  0.7963  1.0013
 5998SOL    HW229454   3.255   1.722   0.731 -0.9520 -1.7986  0.2746
 5999SOL     OW29455   4.608   0.604   2.750 -0.2376  0.9697 -0.0750
 5999SOL    HW129456   4.530   0.585   2.698  0.3044  0.9123 -0.8672
 5999SOL    HW229457   4.619   0.698   2.740 -2.1818  1.0973 -0.9839
 6000SOL     OW29458   1.494   2.882  16.410  0.3944 -1.1873  0.2777
 6000SOL    HW129459   1.464   2.876  16.319 -0.2327 -0.9355  0.4662
 6000SOL    HW229460   1.424   2.938  16.443  0.4707 -1.7471  1.3880
 6001SOL     OW29461   2.667   0.470  16.230 -0.2211 -0.2722  0.6737
 6001SOL    HW129462   2.660   0.426  16.145 -0.5144  2.8806 -0.9345
 6001SOL    HW229463   2.652   0.559  16.198  0.5654 -0.9938 -1.7013
 6002SOL     OW29464   1.239   1.403  11.765 -0.2357 -0.0478  0.3282
 6002SOL    HW129465   1.304   1.473  11.776  0.5796 -1.0071  1.5582
 6002SOL    HW229466   1.254   1.334  11.829 -1.1633 -0.8065 -0.2869
 6003SOL     OW29467   1.337   2.543   6.499  0.2323  0.5266 -0.9535
 6003SOL    HW129468   1.292   2.495   6.430  0.8300  1.0781 -1.7269
 6003SOL    HW229469   1.345   2.629   6.458 -3.3292  1.1946 -0.2097
 6004SOL     OW29470   2.767   1.618   7.942  0.7475  0.6592  0.5906
 6004SOL    HW129471   2.770   1.712   7.961  0.1358  1.1311 -1.7264
 6004SOL    HW229472   2.856   1.593   7.966 -0.1920 -3.2350 -0.1126
 6005SOL     OW29473   4.693   3.433   6.873  0.5873 -0.5346 -0.2232
 6005SOL    HW129474   0.037   3.400   6.932 -0.2121 -1.1934  0.3338
 6005SOL    HW229475   4.621   3.378   6.905 -0.5427  0.1910 -1.5399
 6006SOL     OW29476   4.364   2.631   5.200  0.0668  0.2696  0.1118
 6006SOL    HW129477   4.380   2.580   5.279  0.8817 -1.1602 -0.9576
 6006SOL    HW229478   4.328   2.714   5.230 -0.6481  0.4030 -1.0996
 6007SOL     OW29479   2.157   1.848   5.024  0.3371  0.1461 -0.1312
 6007SOL    HW129480   2.115   1.764   5.039  0.8884 -0.5890 -2.6483
 6007SOL    HW229481   2.077   1.889   4.993  1.1328  0.7221 -1.4566
 6008SOL     OW29482   2.349   4.402   4.465  0.1359 -0.4036 -0.1402
 6008SOL    HW129483   2.294   4.473   4.432 -2.5263 -2.5925 -0.3962
 6008SOL    HW229484   2.310   4.322   4.433 -0.8460  0.2599 -0.5851
 6009SOL     OW29485   1.524   4.117   5.325 -0.2849 -0.2328 -0.1927
 6009SOL    HW129486   1.577   4.194   5.303 -2.2303  1.5634  1.3929
 6009SOL    HW229487   1.467   4.119   5.248  0.3010  0.9363 -0.6018
 6010SOL     OW29488   1.392   3.545   5.400  0.1526  0.1591 -0.5950
 6010SOL    HW129489   1.365   3.527   5.311  0.3207  1.4146 -0.9042
 6010SOL    HW229490   1.339   3.622   5.423  2.4625  1.6882 -0.3269
 6011SOL     OW29491   3.857   0.925  13.480 -0.0140  0.1925  0.4466
 6011SOL    HW129492   3.917   0.938  13.553 -0.5296  1.3596  0.6498
 6011SOL    HW229493   3.803   0.857  13.521 -0.5445  0.6802  0.5388
 6012SOL     OW29494   2.719   1.130  13.169 -0.1493 -0.0234 -0.1092
 6012SOL    HW129495   2.629   1.137  13.201 -0.4965 -0.5004 -0.9625
 6012SOL    HW229496   2.750   1.054  13.219  1.1018  1.1515  0.8652
 6013SOL     OW29497   2.947   0.988   5.357 -0.0747  0.0246  0.3315
 6013SOL    HW129498   3.033   1.013   5.391 -0.2614  0.7364  0.2687
 6013SOL    HW229499   2.922   1.067   5.309  1.5539  0.4268  0.1398
 6014SOL     OW29500   1.887   3.046   5.729  0.4573 -0.4177 -0.5752
 6014SOL    HW129501   1.836   2.983   5.679 -0.1284 -0.5465  0.1858
 6014SOL    HW229502   1.818   3.093   5.775  0.7579  0.2984 -0.8544
 6015SOL     OW29503   3.764   4.720   0.587 -0.1658 -0.6044  0.3399
 6015SOL    HW129504   3.784   0.079   0.630  1.3935  0.2974 -2.1079
 6015SOL    HW229505   3.807   4.657   0.645 -0.0989 -1.7780 -1.0030
 6016SOL     OW29506   1.062   1.711   8.975 -0.4278 -0.2759 -0.0218
 6016SOL    HW129507   1.132   1.647   8.989  2.1807  2.4206 -0.6407
 6016SOL    HW229508   1.085   1.755   8.893  1.0322 -0.5686  0.2252
 6017SOL     OW29509   2.022   2.828   5.087  0.3299  0.1554  0.1473
 6017SOL    HW129510   2.015   2.845   4.993 -0.9054 -2.7495 -0.2565
 6017SOL    HW229511   1.966   2.889   5.135 -1.5795 -0.2065 -1.6270
 6018SOL     OW29512   0.193   1.738  11.047  0.4204 -0.4837  0.1373
 6018SOL    HW129513   0.195   1.828  11.078 -1.3869 -0.6181  0.6493
 6018SOL    HW229514   0.102   1.711  11.061  0.6847 -0.7501  1.3128
 6019SOL     OW29515   2.113   1.464   7.146 -0.1837  0.3416  0.4257
 6019SOL    HW129516   2.109   1.472   7.242  4.3433  1.2274  0.5144
 6019SOL    HW229517   2.046   1.396   7.136  0.7246 -0.3767 -0.6748
 6020SOL     OW29518   4.467   2.692   1.725 -0.3056  0.2148 -0.6636
 6020SOL    HW129519   4.382   2.729   1.747 -0.1500 -0.5315  1.1765
 6020SOL    HW229520   4.469   2.631   1.799 -0.2051 -0.3791 -1.1559
 6021SOL     OW29521   1.753   2.000  10.200  0.5094  0.6375  0.2406
 6021SOL    HW129522   1.806   2.076  10.175  4.0458 -1.6826  0.7304
 6021SOL    HW229523   1.813   1.963  10.264  1.4152  2.7135  0.5805
 6022SOL     OW29524   1.794   0.455   5.948  0.1196 -0.4068  0.4897
 6022SOL    HW129525   1.711   0.426   5.988  0.0423 -1.2213 -0.2608
 6022SOL    HW229526   1.844   0.374   5.943 -0.0531 -0.4811 -0.0455
 6023SOL     OW29527   4.200   1.025   8.081  0.0308 -0.5884  0.3642
 6023SOL    HW129528   4.227   1.033   7.990 -0.9846  1.4613  0.2593
 6023SOL    HW229529   4.185   0.930   8.088 -0.6796 -0.4790  0.3082
 6024SOL     OW29530   4.252   4.606   9.398 -0.2115 -0.4209  0.1854
 6024SOL    HW129531   4.296   4.691   9.398  0.7059 -0.8994  0.5462
 6024SOL    HW229532   4.317   4.539   9.382 -0.7999 -0.6094 -1.4408
 6025SOL     OW29533   4.210   3.953   7.114  0.5946  0.2430  0.3103
 6025SOL    HW129534   4.189   4.043   7.142  2.7987  0.5055  1.0678
 6025SOL    HW229535   4.291   3.942   7.163  2.1955  1.4255 -2.0374
 6026SOL     OW29536   1.210   4.631   9.820 -0.1019 -0.1141  0.0140
 6026SOL    HW129537   1.214   4.618   9.915 -0.9521 -0.0614  0.0578
 6026SOL    HW229538   1.218   4.542   9.787  0.0676 -0.5904  1.3721
 6027SOL     OW29539   0.588   3.763   3.195  0.4134  0.3628  0.9393
 6027SOL    HW129540   0.544   3.688   3.235 -1.4187  0.5355 -0.7331
 6027SOL    HW229541   0.666   3.722   3.159  0.6648 -0.2732  2.1961
 6028SOL     OW29542   3.511   1.217   5.950  1.0974  0.3339 -0.5368
 6028SOL    HW129543   3.549   1.253   6.030 -1.6598  1.5468  0.2080
 6028SOL    HW229544   3.446   1.287   5.943 -0.1278 -0.7870 -0.4400
 6029SOL     OW29545   0.302   3.666  10.313  0.2870 -0.1856 -0.0875
 6029SOL    HW129546   0.272   3.756  10.321  2.6537  0.6405 -0.5166
 6029SOL    HW229547   0.216   3.630  10.335  0.1283  0.4616  0.3259
 6030SOL     OW29548   4.581   0.033   1.479  0.0871  0.5256 -0.0140
 6030SOL    HW129549   4.585   0.017   1.385 -1.0134  1.0063 -0.1483
 6030SOL    HW229550   4.654   0.091   1.500 -1.6660  1.7974  2.6422
 6031SOL     OW29551   0.531   2.818   4.488 -0.2891  0.5345 -0.1946
 6031SOL    HW129552   0.499   2.775   4.567  0.6669  0.8189  0.3491
 6031SOL    HW229553   0.610   2.766   4.470  0.4338  1.4012  0.4450
 6032SOL     OW29554   2.983   2.754  14.021 -0.0406 -0.1899 -0.3775
 6032SOL    HW129555   2.910   2.694  14.039  0.6329 -0.6262  0.8520
 6032SOL    HW229556   2.943   2.838  14.044 -1.9537 -1.3186  0.4211
 6033SOL     OW29557   4.502   2.691   8.616  0.0383 -0.3668 -0.0188
 6033SOL    HW129558   4.496   2.757   8.685  0.6442 -1.4510  1.0588
 6033SOL    HW229559   4.493   2.614   8.672  1.4249 -1.1134 -0.8315
 6034SOL     OW29560   0.653   3.853   7.095  0.1955  0.0126  0.4789
 6034SOL    HW129561   0.659   3.760   7.116 -0.2674  0.0651  0.8444
 6034SOL    HW229562   0.578   3.873   7.151  0.6960  1.6254  0.5765
 6035SOL     OW29563   3.677   0.974   5.989 -0.0609 -0.0537 -0.5701
 6035SOL    HW129564   3.612   0.939   6.050 -0.7296 -0.4068 -1.4727
 6035SOL    HW229565   3.642   1.054   5.950 -0.9395  0.2995  0.9387
 6036SOL     OW29566   0.398   0.712  11.071  0.2930  0.5119 -0.4040
 6036SOL    HW129567   0.393   0.665  11.154  0.0006  2.8221  0.8684
 6036SOL    HW229568   0.308   0.738  11.048 -0.2783 -0.5844  0.6086
 6037SOL     OW29569   2.151   2.948  14.363 -0.3118 -0.5295 -0.4605
 6037SOL    HW129570   2.104   2.919  14.285  1.3827 -3.0980 -0.5268
 6037SOL    HW229571   2.080   2.942  14.428  0.2716  0.8912  0.2997
 6038SOL     OW29572   2.493   0.865   6.041  0.0803 -0.2676 -0.3691
 6038SOL    HW129573   2.403   0.876   6.070  0.4956 -0.0233  0.8412
 6038SOL    HW229574   2.481   0.855   5.947 -1.1669 -0.7506 -0.1588
 6039SOL     OW29575   3.837   1.140   4.223  0.0547  0.2798  0.1502
 6039SOL    HW129576   3.768   1.155   4.158  1.0240 -0.5204 -1.0774
 6039SOL    HW229577   3.806   1.190   4.298 -1.6628  1.1528 -1.1406
 6040SOL     OW29578   0.424   4.451   9.423  0.6585  0.0083 -0.4615
 6040SOL    HW129579   0.450   4.473   9.512 -0.5563  0.0553 -0.1170
 6040SOL    HW229580   0.377   4.533   9.406 -1.0076 -1.1285 -1.3755
 6041SOL     OW29581   0.191   4.535   4.296 -0.1464  0.1800 -0.4809
 6041SOL    HW129582   0.188   4.627   4.324  0.4102  0.8909 -2.7387
 6041SOL    HW229583   0.224   4.540   4.206  0.4134  1.2654 -0.2145
 6042SOL     OW29584   0.540   1.095  12.397 -0.0345  0.1720 -0.3442
 6042SOL    HW129585   0.535   1.077  12.491  0.2010  3.2033  0.2514
 6042SOL    HW229586   0.574   1.184  12.387 -1.5219  0.7811 -0.1275
 6043SOL     OW29587   1.368   3.444   7.802 -0.0450 -0.9908  0.7237
 6043SOL    HW129588   1.390   3.352   7.787  1.5819 -0.9145  2.5521
 6043SOL    HW229589   1.297   3.468   7.743  0.1888 -0.5092  0.6338
 6044SOL     OW29590   0.565   1.474  14.550  0.7000 -0.4802  0.2117
 6044SOL    HW129591   0.481   1.454  14.590 -1.0541  0.7527 -2.8279
 6044SOL    HW229592   0.545   1.549  14.493  2.4953  0.4577  0.8170
 6045SOL     OW29593   0.320   0.709  14.968 -0.0680  0.0244 -0.3544
 6045SOL    HW129594   0.264   0.745  15.036  0.6340  0.3968  0.0296
 6045SOL    HW229595   0.382   0.669  15.029 -1.4517 -0.2103  0.8955
 6046SOL     OW29596   1.512   2.353   5.889 -0.3969 -0.3695 -0.0889
 6046SOL    HW129597   1.486   2.295   5.818  2.1316 -0.5435 -0.8836
 6046SOL    HW229598   1.594   2.387   5.854  0.3856 -2.1157  0.0520
 6047SOL     OW29599   1.294   3.054   2.032 -0.2690 -0.4869 -0.2170
 6047SOL    HW129600   1.349   3.128   2.055  0.0312 -1.0808  0.9362
 6047SOL    HW229601   1.347   3.005   1.968  0.2854  0.2845 -0.3462
 6048SOL     OW29602   3.385   0.099  12.425 -0.1141 -0.6542  0.3028
 6048SOL    HW129603   3.393   0.193  12.409 -0.5390 -0.5487  0.6816
 6048SOL    HW229604   3.357   0.109  12.516  0.1205  0.4927  0.2507
 6049SOL     OW29605   1.063   3.732   4.889  0.1594  0.7752  0.1283
 6049SOL    HW129606   1.070   3.702   4.798  0.6009  1.0778  0.0624
 6049SOL    HW229607   1.130   3.801   4.888  1.5614 -0.5368  2.1860
 6050SOL     OW29608   0.225   1.284   6.982 -0.0976  0.2865 -0.1023
 6050SOL    HW129609   0.252   1.192   6.984  0.8158  0.5281 -1.3476
 6050SOL    HW229610   0.146   1.277   7.036  0.2150  1.1314  0.4582
 6051SOL     OW29611   2.708   1.046  10.863 -0.0847  0.0523 -0.3067
 6051SOL    HW129612   2.752   1.103  10.926 -0.7670  1.0276 -0.7085
 6051SOL    HW229613   2.633   1.095  10.830  0.9713 -0.3277 -3.2437
 6052SOL     OW29614   1.154   2.906   8.171 -0.3197 -0.1863  0.1427
 6052SOL    HW129615   1.074   2.860   8.148 -1.1717  0.8286  1.0504
 6052SOL    HW229616   1.175   2.874   8.259  1.4358  0.6290  0.0285
 6053SOL     OW29617   3.539   3.102   1.944 -0.3451  0.1578 -0.2061
 6053SOL    HW129618   3.538   3.046   1.867  1.7188  0.7352 -0.6508
 6053SOL    HW229619   3.632   3.127   1.940 -0.6692  1.2821 -0.5973
 6054SOL     OW29620   3.651   4.527   7.396 -0.1990  0.4787 -0.0405
 6054SOL    HW129621   3.596   4.566   7.464 -0.7261 -0.4063  0.0386
 6054SOL    HW229622   3.620   4.437   7.402 -1.4861  0.9336  0.2244
 6055SOL     OW29623   2.039   0.050   6.673  0.1782  0.6950  0.1192
 6055SOL    HW129624   1.953   0.012   6.692  1.3228 -1.2243  1.4380
 6055SOL    HW229625   2.016   0.137   6.639  1.7907  1.1015  0.0560
 6056SOL     OW29626   1.342   1.236   9.838  0.8424  0.3190 -0.1339
 6056SOL    HW129627   1.437   1.247   9.848  1.1153 -2.0585 -0.1000
 6056SOL    HW229628   1.320   1.246   9.931 -0.4989  0.3719 -0.4627
 6057SOL     OW29629   1.968   4.365  10.296 -0.4047  0.1005 -0.4540
 6057SOL    HW129630   1.913   4.292  10.266  0.5866 -1.7345  2.1899
 6057SOL    HW229631   1.924   4.399  10.374 -0.1644 -1.9886  0.6058
 6058SOL     OW29632   1.744   1.533   2.847  0.4132 -0.2081 -0.0875
 6058SOL    HW129633   1.777   1.473   2.914 -0.5792 -0.2633  0.3542
 6058SOL    HW229634   1.800   1.609   2.858 -0.4225  0.3884  0.0190
 6059SOL     OW29635   2.430   3.988   8.952 -0.2879  0.1658 -0.0433
 6059SOL    HW129636   2.459   3.923   8.889 -3.4120 -1.4097  0.1483
 6059SOL    HW229637   2.449   3.934   9.029  1.9936  1.2604  0.1720
 6060SOL     OW29638   0.999   0.956   8.431 -0.0412 -0.2143  0.3596
 6060SOL    HW129639   0.957   1.035   8.467  1.2008  1.0037 -0.8686
 6060SOL    HW229640   1.073   0.992   8.383  0.9675 -2.3758  0.3343
 6061SOL     OW29641   3.176   0.780   6.268  0.1190  0.0265 -0.1861
 6061SOL    HW129642   3.114   0.715   6.233 -0.3246  0.4509 -0.1908
 6061SOL    HW229643   3.122   0.857   6.250  0.4341 -0.4177 -2.9233
 6062SOL     OW29644   0.748   3.330  13.473  0.1249  0.0098 -0.3271
 6062SOL    HW129645   0.825   3.387  13.478  0.7005 -0.6297 -1.6768
 6062SOL    HW229646   0.703   3.374  13.401 -1.7500 -1.1519  0.1554
 6063SOL     OW29647   0.239   3.997  16.964  0.4817 -0.2413  0.1099
 6063SOL    HW129648   0.244   3.994  16.869 -0.2884  0.0961  0.0535
 6063SOL    HW229649   0.169   3.934  16.982  0.9689 -0.9776 -0.6028
 6064SOL     OW29650   3.183   1.040   2.510 -0.2087 -0.0751 -0.0522
 6064SOL    HW129651   3.257   1.087   2.549 -0.4446 -2.1749  2.9375
 6064SOL    HW229652   3.122   1.112   2.527  0.3353  0.5553 -0.7796
 6065SOL     OW29653   3.731   4.464  12.401 -0.5984  0.4002  0.1884
 6065SOL    HW129654   3.686   4.534  12.354 -0.6777  0.8600  0.9522
 6065SOL    HW229655   3.777   4.510  12.471  0.4084 -0.8197  0.3373
 6066SOL     OW29656   0.793   0.387   8.621 -0.2078 -0.3751 -0.4740
 6066SOL    HW129657   0.707   0.381   8.664 -0.7829  1.8728 -1.2981
 6066SOL    HW229658   0.815   0.294   8.623  0.6871 -0.1342  0.5291
 6067SOL     OW29659   2.442   0.885  15.786  0.0771 -0.1039  0.4662
 6067SOL    HW129660   2.517   0.899  15.729 -0.9563  1.3006 -0.5382
 6067SOL    HW229661   2.456   0.957  15.848  0.6222  1.4317 -1.4345
 6068SOL     OW29662   0.781   1.856   4.728  0.5332  0.4074 -0.1504
 6068SOL    HW129663   0.700   1.812   4.701  1.7777 -1.8951 -0.1122
 6068SOL    HW229664   0.781   1.937   4.678  2.1109 -0.6685 -1.8950
 6069SOL     OW29665   3.512   3.293  13.174  0.1612  0.3736  0.7465
 6069SOL    HW129666   3.539   3.205  13.203 -2.3947 -0.8886 -0.6912
 6069SOL    HW229667   3.429   3.309  13.220  0.4316 -0.9057  1.6927
 6070SOL     OW29668   1.946   1.089   2.832 -0.5605 -0.4310  0.2064
 6070SOL    HW129669   1.898   1.007   2.842  0.3811 -0.8422  1.3755
 6070SOL    HW229670   1.908   1.122   2.913  1.2746 -1.9879  1.6904
 6071SOL     OW29671   0.729   0.598  15.536 -0.2643  0.0341 -0.1185
 6071SOL    HW129672   0.814   0.560  15.557 -0.1589  0.2406 -0.1772
 6071SOL    HW229673   0.750   0.688  15.562  0.9998  0.4015 -2.4041
 6072SOL     OW29674   0.358   1.698   6.041  0.0977  0.0416  0.2283
 6072SOL    HW129675   0.419   1.767   6.064 -1.1768  0.8520  1.1609
 6072SOL    HW229676   0.338   1.658   6.126  0.6539 -1.4550 -0.3353
 6073SOL     OW29677   4.722   1.869   2.158 -0.4994 -0.1393 -0.0933
 6073SOL    HW129678   0.031   1.947   2.114  0.6859 -1.2327 -1.1241
 6073SOL    HW229679   0.044   1.869   2.242  1.3807  0.6131 -1.1344
 6074SOL     OW29680   0.194   1.629   4.864  0.4656 -0.6237 -0.5042
 6074SOL    HW129681   0.236   1.543   4.869  3.5373  0.9593  0.7367
 6074SOL    HW229682   0.130   1.626   4.936 -0.8877 -0.4623 -1.6857
 6075SOL     OW29683   3.809   3.067   1.934  0.8709  0.5114 -0.4800
 6075SOL    HW129684   3.841   2.990   1.980  2.6841  0.6913 -1.4591
 6075SOL    HW229685   3.854   3.138   1.980  1.3443  0.4890 -0.9061
 6076SOL     OW29686   0.971   4.332  13.060  0.0346  0.0864  0.2916
 6076SOL    HW129687   0.925   4.276  13.122 -0.8414  0.9803  0.4496
 6076SOL    HW229688   0.924   4.413  13.039  0.2380 -0.2763 -1.6293
 6077SOL     OW29689   1.589   2.413   5.472 -0.1396  0.2329  0.4881
 6077SOL    HW129690   1.628   2.501   5.477 -0.0486  0.2534 -0.7196
 6077SOL    HW229691   1.622   2.391   5.560 -2.0477  0.8917  1.3775
 6078SOL     OW29692   4.100   3.643  12.797 -0.2100 -0.4883 -0.0211
 6078SOL    HW129693   4.027   3.637  12.858 -0.8502 -1.4420 -0.8827
 6078SOL    HW229694   4.157   3.584  12.846  0.5360 -0.9247 -1.4381
 6079SOL     OW29695   0.948   2.550   5.333 -0.6902 -0.1754  0.0902
 6079SOL    HW129696   0.957   2.497   5.413  0.0524 -0.2110 -0.0150
 6079SOL    HW229697   1.037   2.583   5.317 -0.5540 -0.3448  0.4783
 6080SOL     OW29698   1.671   2.173   4.862 -0.3536  0.0523 -0.0281
 6080SOL    HW129699   1.616   2.221   4.800  0.7057 -0.2441 -1.1852
 6080SOL    HW229700   1.612   2.138   4.928 -0.5772  0.3596 -0.0658
 6081SOL     OW29701   3.680   2.651   1.826  0.2808  0.3271  0.0564
 6081SOL    HW129702   3.677   2.557   1.844 -2.5517  0.5341  0.6450
 6081SOL    HW229703   3.618   2.694   1.884  1.9235 -0.4488  2.3771
 6082SOL     OW29704   3.969   0.275  17.214 -0.3221  0.5543 -0.0764
 6082SOL    HW129705   4.015   0.217  17.153 -0.0677  0.6572  0.0157
 6082SOL    HW229706   3.923   0.337  17.158  0.4733  1.6715  0.5167
 6083SOL     OW29707   3.226   0.810   2.647  0.5323 -0.3046  0.4484
 6083SOL    HW129708   3.212   0.884   2.588  1.8034 -0.1784  0.3006
 6083SOL    HW229709   3.316   0.821   2.678  0.4483  1.0561  0.1963
 6084SOL     OW29710   0.271   3.531  13.747  0.4760 -0.3138 -0.2671
 6084SOL    HW129711   0.249   3.603  13.688 -0.5907  0.7449  1.4282
 6084SOL    HW229712   0.313   3.465  13.691 -0.4234 -1.1844  0.0867
 6085SOL     OW29713   0.629   0.557   2.318 -0.3103 -0.2675  0.2780
 6085SOL    HW129714   0.690   0.626   2.343  1.7575 -0.4026 -4.3650
 6085SOL    HW229715   0.683   0.478   2.309  1.1012  0.0775  5.5361
 6086SOL     OW29716   0.778   2.703   1.654 -0.1605 -0.0179  0.5148
 6086SOL    HW129717   0.738   2.638   1.597  2.5078 -1.1402 -0.0799
 6086SOL    HW229718   0.820   2.760   1.589 -0.5553 -1.2908 -0.8465
 6087SOL     OW29719   2.571   0.605   3.427  0.2335  0.0428  0.2796
 6087SOL    HW129720   2.490   0.644   3.460 -0.1873 -0.8792  0.3464
 6087SOL    HW229721   2.633   0.656   3.479 -0.6309  2.5422 -1.1508
 6088SOL     OW29722   1.380   2.653  15.437  0.0184 -0.0253 -0.6524
 6088SOL    HW129723   1.357   2.599  15.512 -0.9624  1.5624  0.2050
 6088SOL    HW229724   1.305   2.663  15.379 -0.2746  0.4496 -0.1955
 6089SOL     OW29725   1.077   2.046   0.699  0.4082  0.0396 -0.0206
 6089SOL    HW129726   1.029   2.010   0.625 -0.7793 -0.2129  0.8655
 6089SOL    HW229727   1.010   2.044   0.767  0.2278  1.2828 -0.1757
 6090SOL     OW29728   1.332   4.478   6.436  0.2912 -0.2786  0.7437
 6090SOL    HW129729   1.419   4.475   6.476  0.6050  0.7285  0.1212
 6090SOL    HW229730   1.301   4.561   6.473  0.4326  0.1283 -0.0519
 6091SOL     OW29731   0.324   0.379   5.192 -0.2445 -0.1544  0.1792
 6091SOL    HW129732   0.401   0.346   5.238  0.4465  0.5873 -0.4636
 6091SOL    HW229733   0.271   0.409   5.266  1.2595  0.5115  0.9768
 6092SOL     OW29734   1.322   3.568   7.135 -0.4131 -0.3593  0.4452
 6092SOL    HW129735   1.364   3.532   7.213  1.4622  1.4319  0.2492
 6092SOL    HW229736   1.395   3.625   7.114 -0.6264  0.4385  1.8671
 6093SOL     OW29737   0.967   3.144   6.097 -0.1393  0.3867 -0.5699
 6093SOL    HW129738   1.061   3.138   6.110 -0.3102 -1.4214 -0.1678
 6093SOL    HW229739   0.937   3.123   6.186  0.3625 -1.4983 -0.8487
 6094SOL     OW29740   2.172   1.151   2.475  0.2912  0.0588  0.2458
 6094SOL    HW129741   2.234   1.078   2.474 -0.1843 -0.3280 -0.8780
 6094SOL    HW229742   2.145   1.147   2.383  0.6866 -0.4633  0.1556
 6095SOL     OW29743   3.417   0.751   3.835 -0.1505  0.4518 -0.2858
 6095SOL    HW129744   3.479   0.790   3.896  0.2389 -0.8610  0.1637
 6095SOL    HW229745   3.467   0.679   3.797 -0.7816 -0.2300  0.1550
 6096SOL     OW29746   0.704   2.161   6.053  0.6129 -0.0622 -0.0080
 6096SOL    HW129747   0.613   2.152   6.083  1.3416  1.9149  2.8936
 6096SOL    HW229748   0.691   2.224   5.982  0.0066  2.2599  2.1665
 6097SOL     OW29749   0.299   3.133   7.142 -0.0350  1.3428 -0.5279
 6097SOL    HW129750   0.377   3.086   7.174  1.1950  2.5125 -1.7772
 6097SOL    HW229751   0.291   3.191   7.218 -0.2455  1.5439 -0.7030
 6098SOL     OW29752   0.616   4.531   5.424  0.2651 -0.1639  0.0975
 6098SOL    HW129753   0.685   4.580   5.379 -1.1234  0.7701 -1.0254
 6098SOL    HW229754   0.679   4.488   5.482 -1.0211 -2.4774 -0.2411
 6099SOL     OW29755   2.470   2.838   9.825  0.3434  0.0281 -0.4263
 6099SOL    HW129756   2.478   2.744   9.842  1.1578  0.2690  0.5140
 6099SOL    HW229757   2.443   2.848   9.734  0.2843  0.3872 -0.3695
 6100SOL     OW29758   4.039   4.252   9.433  0.0956  0.5953  0.8530
 6100SOL    HW129759   3.970   4.293   9.485 -1.5238  0.2591 -1.0252
 6100SOL    HW229760   4.108   4.241   9.499 -1.6995  0.4772  2.7016
 6101SOL     OW29761   2.097   0.618   0.333  0.1169  0.9225  0.2221
 6101SOL    HW129762   2.017   0.570   0.314 -0.3670  1.9242 -0.2702
 6101SOL    HW229763   2.107   0.575   0.417 -0.2259 -0.9621 -0.7010
 6102SOL     OW29764   3.576   1.697   6.965 -0.5161 -0.0283  0.2060
 6102SOL    HW129765   3.610   1.765   6.908 -2.9878  1.5235  0.5701
 6102SOL    HW229766   3.532   1.643   6.900  2.1191  1.3390 -2.6961
 6103SOL     OW29767   4.445   2.729   4.650  0.1487  0.4642 -0.6789
 6103SOL    HW129768   4.490   2.740   4.734  0.4191 -0.1156 -0.7469
 6103SOL    HW229769   4.356   2.747   4.679  1.2216  2.2250  1.5384
 6104SOL     OW29770   0.584   0.397   8.034 -0.2449 -0.0068  0.1154
 6104SOL    HW129771   0.567   0.375   7.942 -0.6493  0.6978  0.0210
 6104SOL    HW229772   0.496   0.382   8.067 -0.8578  0.5116 -1.2877
 6105SOL     OW29773   3.138   1.200   7.787  0.2217  0.5746  0.0422
 6105SOL    HW129774   3.065   1.201   7.849  0.6049  0.1627  0.4962
 6105SOL    HW229775   3.115   1.287   7.754  1.8023  0.3591 -1.6286
 6106SOL     OW29776   1.911   1.098   6.946 -0.2099 -0.6903 -0.0519
 6106SOL    HW129777   1.825   1.115   6.984  0.3211  0.5195  0.5895
 6106SOL    HW229778   1.964   1.178   6.942 -1.2748  0.0997  2.2157
 6107SOL     OW29779   1.653   4.242   2.509  0.2928  0.2394 -0.1060
 6107SOL    HW129780   1.734   4.193   2.496 -0.3135 -0.2580 -1.9948
 6107SOL    HW229781   1.662   4.251   2.604  0.1870  1.4337 -0.2106
 6108SOL     OW29782   3.665   2.373  14.480  0.0397 -0.1482  0.5548
 6108SOL    HW129783   3.705   2.349  14.397 -0.7859 -0.6448  0.3060
 6108SOL    HW229784   3.684   2.297  14.535 -1.9333 -0.2536  1.0960
 6109SOL     OW29785   4.516   1.520   4.931 -0.1251 -0.5428  0.4678
 6109SOL    HW129786   4.494   1.561   4.848 -0.8836 -1.3441  0.2738
 6109SOL    HW229787   4.499   1.596   4.986 -1.2719 -1.3317  1.2152
 6110SOL     OW29788   3.897   4.358   6.412 -0.2363  0.2272  0.2879
 6110SOL    HW129789   3.935   4.342   6.498  3.5312 -0.0077 -1.4107
 6110SOL    HW229790   3.954   4.410   6.355  0.6440 -1.5858 -0.5293
 6111SOL     OW29791   0.152   3.211   0.956 -0.0321 -0.3804  0.1063
 6111SOL    HW129792   0.132   3.134   1.009 -0.3890  1.2861  2.4109
 6111SOL    HW229793   0.151   3.284   1.019 -1.2268 -1.0050  0.8105
 6112SOL     OW29794   3.444   1.311  10.021  0.0681  0.5557 -0.7506
 6112SOL    HW129795   3.510   1.287  10.087  0.0050  0.9284 -0.5503
 6112SOL    HW229796   3.372   1.322  10.084 -0.4086 -0.8643 -1.0513
 6113SOL     OW29797   0.497   4.663   8.589 -0.0170  0.2425 -0.3127
 6113SOL    HW129798   0.473   4.591   8.531 -3.1721  0.6846  0.4261
 6113SOL    HW229799   0.484   0.015   8.533  1.6162  0.2507 -0.6616
 6114SOL     OW29800   2.441   4.573   0.004  0.3304 -0.1512 -0.2867
 6114SOL    HW129801   2.356   4.604  17.674 -1.1491 -2.2888  1.6784
 6114SOL    HW229802   2.486   4.573  17.619 -0.6748  0.8836 -0.8144
 6115SOL     OW29803   1.502   2.187   3.118  0.5951 -0.0472 -0.1782
 6115SOL    HW129804   1.427   2.174   3.060 -0.4296  1.5990  0.7265
 6115SOL    HW229805   1.543   2.101   3.113 -1.4639 -1.0991  0.8956
 6116SOL     OW29806   1.588   1.616  12.037  0.0623 -0.0126 -0.9021
 6116SOL    HW129807   1.589   1.537  12.092 -2.4590  1.3358  1.1063
 6116SOL    HW229808   1.522   1.671  12.078  1.3577  0.7025  0.2444
 6117SOL     OW29809   4.279   2.524  17.127  0.2236  0.2863  0.0158
 6117SOL    HW129810   4.186   2.523  17.147  0.1698  0.8971 -0.1994
 6117SOL    HW229811   4.286   2.609  17.083  0.6587  0.1133 -0.2577
 6118SOL     OW29812   0.370   1.321   8.980  0.0409 -0.0228 -0.0227
 6118SOL    HW129813   0.344   1.360   8.896 -3.0546 -0.1682  0.8451
 6118SOL    HW229814   0.286   1.289   9.014  1.4163 -2.1514  1.3886
 6119SOL     OW29815   4.072   2.735   2.981  0.0125 -0.5494  0.2341
 6119SOL    HW129816   4.067   2.648   2.941 -0.6999 -0.7344  0.7121
 6119SOL    HW229817   4.165   2.730   3.004  0.2221 -0.0233 -0.5053
 6120SOL     OW29818   1.299   3.132  15.933  0.1347  0.0733 -0.2195
 6120SOL    HW129819   1.362   3.110  15.864  1.9763  0.2350  1.3911
 6120SOL    HW229820   1.299   3.052  15.986 -1.6000 -0.0845 -0.4525
 6121SOL     OW29821   0.842   3.486   4.497  0.0776 -0.1599 -0.2316
 6121SOL    HW129822   0.803   3.405   4.464  2.2417  0.0709 -3.3162
 6121SOL    HW229823   0.759   3.533   4.506  1.2483  1.8752  0.0490
 6122SOL     OW29824   3.283   0.435  11.009 -0.1145  0.5498 -0.3582
 6122SOL    HW129825   3.225   0.408  11.080  0.8444 -0.4824  0.0353
 6122SOL    HW229826   3.362   0.387  11.034  1.1093  1.9271 -1.5416
 6123SOL     OW29827   4.052   2.839   5.383  0.6654 -0.2994  0.9194
 6123SOL    HW129828   3.980   2.878   5.433 -0.9750 -0.0061 -1.6518
 6123SOL    HW229829   4.012   2.860   5.298  1.9405 -1.1662  0.1011
 6124SOL     OW29830   1.682   3.501   9.398  0.8128  0.3186  0.3526
 6124SOL    HW129831   1.755   3.483   9.457 -0.0327 -1.6702  0.8117
 6124SOL    HW229832   1.694   3.426   9.340 -0.4405 -0.5124  1.1689
 6125SOL     OW29833   3.259   2.215   4.076 -0.2191  0.1547  0.0463
 6125SOL    HW129834   3.307   2.132   4.077 -1.1639 -0.3902 -0.4981
 6125SOL    HW229835   3.194   2.190   4.011 -0.6051 -3.6600  1.8848
 6126SOL     OW29836   2.365   1.652   4.381 -0.1353  0.2604 -0.4289
 6126SOL    HW129837   2.406   1.659   4.296  0.4172  1.3489 -0.0631
 6126SOL    HW229838   2.374   1.738   4.421  1.3911 -0.8499  1.6112
 6127SOL     OW29839   2.542   4.305   3.198  0.2762 -0.0595 -0.3122
 6127SOL    HW129840   2.465   4.271   3.244  0.6201  2.1631  1.8842
 6127SOL    HW229841   2.585   4.364   3.259 -0.0934 -0.1590  0.0491
 6128SOL     OW29842   2.813   4.068   4.678 -0.2661 -0.1456  0.0495
 6128SOL    HW129843   2.720   4.084   4.660 -0.2668 -0.0379  0.1499
 6128SOL    HW229844   2.821   4.041   4.769 -0.5137 -0.4239 -0.0109
 6129SOL     OW29845   3.336   2.328  11.068 -0.1622  0.6349 -0.4287
 6129SOL    HW129846   3.404   2.392  11.049  0.3019 -0.3477 -2.0559
 6129SOL    HW229847   3.383   2.267  11.124 -1.4491 -2.1347 -2.3690
 6130SOL     OW29848   4.657   3.674   7.913 -0.3942  0.5340  0.2112
 6130SOL    HW129849   4.572   3.717   7.918 -0.2211  1.0864 -1.6127
 6130SOL    HW229850   4.699   3.691   7.997  2.4120  1.3783 -1.3852
 6131SOL     OW29851   3.852   0.212   0.711 -0.7338 -0.2120 -0.1369
 6131SOL    HW129852   3.946   0.226   0.699 -0.5496 -1.8833 -0.6025
 6131SOL    HW229853   3.851   0.184   0.802 -3.0181 -1.5515 -0.5535
 6132SOL     OW29854   1.482   2.828   5.984  0.6879  0.3575  0.3673
 6132SOL    HW129855   1.414   2.762   5.974  1.4979 -0.4877  0.4395
 6132SOL    HW229856   1.529   2.802   6.063 -0.4132 -2.4335  0.0816
 6133SOL     OW29857   4.691   2.815   1.790 -0.4127 -0.4275  0.2979
 6133SOL    HW129858   0.012   2.812   1.705 -0.5955  1.0069  0.1504
 6133SOL    HW229859   4.601   2.789   1.771  0.3369 -1.5114 -1.8444
 6134SOL     OW29860   2.557   1.553   8.275  0.6216  0.5142 -0.1585
 6134SOL    HW129861   2.622   1.591   8.334 -0.0080 -0.5310  1.2099
 6134SOL    HW229862   2.578   1.460   8.280 -1.5116  0.1166  1.5236
 6135SOL     OW29863   3.499   2.828   0.443 -0.5245 -0.0779 -0.0214
 6135SOL    HW129864   3.498   2.736   0.417  0.8084 -0.0785 -0.0681
 6135SOL    HW229865   3.412   2.840   0.482 -0.1826  0.1106  0.6852
 6136SOL     OW29866   2.161   2.463  16.454  0.5346  0.5487  0.0728
 6136SOL    HW129867   2.086   2.493  16.402  0.3414  0.0700  0.0777
 6136SOL    HW229868   2.220   2.463  16.379  0.8499 -1.4043  0.3272
 6137SOL     OW29869   2.578   2.505   4.330 -0.0431  0.0541  0.0945
 6137SOL    HW129870   2.552   2.463   4.412  0.0525  1.0367  0.6322
 6137SOL    HW229871   2.672   2.519   4.340  0.0429 -1.2121  1.1379
 6138SOL     OW29872   3.971   1.274  15.350  0.3653 -0.4093 -0.6147
 6138SOL    HW129873   3.937   1.197  15.304 -0.5202 -1.1156  1.2396
 6138SOL    HW229874   3.956   1.242  15.439  1.0242  0.0184 -0.3489
 6139SOL     OW29875   3.380   4.053   4.735 -0.2348  0.0458 -0.2683
 6139SOL    HW129876   3.398   3.979   4.792 -1.3811  1.6245  2.1209
 6139SOL    HW229877   3.285   4.051   4.739 -0.2028 -0.5712  0.0670
 6140SOL     OW29878   0.502   3.614   5.700 -0.4292 -0.2284  0.0988
 6140SOL    HW129879   0.451   3.566   5.636  0.4469 -1.5544  0.3861
 6140SOL    HW229880   0.574   3.552   5.718 -0.1617 -0.6106 -2.3233
 6141SOL     OW29881   0.156   4.601   1.527  0.2622 -0.5087  0.3377
 6141SOL    HW129882   0.230   4.574   1.582 -0.2843  0.8998  1.7936
 6141SOL    HW229883   0.152   4.696   1.543 -0.4218 -0.6827  1.2024
 6142SOL     OW29884   4.032   3.789   9.102 -0.0796 -0.0864 -0.0442
 6142SOL    HW129885   4.105   3.822   9.050 -1.1230 -1.1188 -2.1619
 6142SOL    HW229886   4.056   3.697   9.111  0.3871  0.0368 -0.0600
 6143SOL     OW29887   3.970   0.684  12.204  0.7953 -0.2631  0.1306
 6143SOL    HW129888   4.059   0.659  12.178 -0.1460 -1.9790 -1.3886
 6143SOL    HW229889   3.974   0.730  12.288 -3.4956 -0.1288  0.2819
 6144SOL     OW29890   1.834   0.528   7.397  0.1637 -0.3357 -0.6274
 6144SOL    HW129891   1.911   0.477   7.372 -0.1099 -1.0005 -0.0740
 6144SOL    HW229892   1.823   0.485   7.481 -1.1224  1.9000  0.3579
 6145SOL     OW29893   4.497   2.121   4.334 -0.2901  0.2059  0.2694
 6145SOL    HW129894   4.513   2.026   4.329  0.2451  0.2929  0.3273
 6145SOL    HW229895   4.481   2.120   4.429 -0.1354  2.6923  0.3194
 6146SOL     OW29896   4.329   4.204   0.606 -0.2079 -0.7528 -0.4440
 6146SOL    HW129897   4.249   4.250   0.580 -0.9858 -1.8544 -0.0107
 6146SOL    HW229898   4.395   4.257   0.561 -0.5532  0.1290  0.1020
 6147SOL     OW29899   0.743   0.804   5.216 -0.7560 -0.3272 -0.1613
 6147SOL    HW129900   0.731   0.862   5.292 -0.3336  2.2188 -2.0424
 6147SOL    HW229901   0.800   0.854   5.157  0.3185 -0.3122  0.8897
 6148SOL     OW29902   2.365   2.093   0.649  0.0884  0.4292 -0.4131
 6148SOL    HW129903   2.419   2.023   0.686 -2.8536 -1.0108  1.1605
 6148SOL    HW229904   2.291   2.049   0.608 -0.3360  1.5012 -0.7963
 6149SOL     OW29905   0.531   2.013   3.367 -0.3178 -0.2838 -0.4809
 6149SOL    HW129906   0.465   1.956   3.405  0.2366  0.7549  1.9984
 6149SOL    HW229907   0.508   2.105   3.380  1.1410 -0.3080  2.2553
 6150SOL     OW29908   3.854   0.345   9.552 -0.5914 -0.4686 -0.8022
 6150SOL    HW129909   3.861   0.256   9.515 -0.5978 -0.5545 -0.5953
 6150SOL    HW229910   3.817   0.324   9.638  1.1793  0.5835  0.2064
 6151SOL     OW29911   1.072   4.313   5.888  0.4273  0.3086 -0.6099
 6151SOL    HW129912   1.057   4.400   5.851  0.0558 -0.2698 -1.7988
 6151SOL    HW229913   0.987   4.269   5.880  1.0903 -0.5711 -2.6498
 6152SOL     OW29914   0.354   3.700   3.494  0.2724 -0.5941 -0.2671
 6152SOL    HW129915   0.392   3.643   3.427  1.4881 -1.1474  0.9054
 6152SOL    HW229916   0.273   3.651   3.509  0.0791 -0.4329 -0.7936
 6153SOL     OW29917   2.606   3.920  11.565 -0.6235  0.8322  0.4697
 6153SOL    HW129918   2.543   3.883  11.627 -0.1597 -0.8111 -0.0433
 6153SOL    HW229919   2.650   3.986  11.617 -0.8106  1.2035  0.1581
 6154SOL     OW29920   0.279   0.268  13.472  0.1903 -0.0845  0.5503
 6154SOL    HW129921   0.320   0.216  13.541  0.1345  0.3869  0.9342
 6154SOL    HW229922   0.236   0.341  13.516 -0.3228 -0.0333 -0.0347
 6155SOL     OW29923   0.959   3.810   5.802 -0.7721 -0.2012  0.4137
 6155SOL    HW129924   1.021   3.844   5.737 -2.6499 -1.3453 -1.9755
 6155SOL    HW229925   0.873   3.837   5.769 -0.6464 -3.1245 -2.1878
 6156SOL     OW29926   3.665   2.516   5.569  0.2444  0.5309 -0.5501
 6156SOL    HW129927   3.684   2.482   5.482  2.6948  0.5686 -0.0395
 6156SOL    HW229928   3.604   2.452   5.605  0.5728  1.3454  1.5179
 6157SOL     OW29929   2.208   4.286   6.887 -0.2664 -0.2860 -0.2393
 6157SOL    HW129930   2.254   4.314   6.809  1.9400 -0.1208  1.1337
 6157SOL    HW229931   2.183   4.374   6.918 -3.3577 -2.0766  2.3452
 6158SOL     OW29932   1.177   4.628  10.080 -0.5009  0.0280  0.3797
 6158SOL    HW129933   1.101   4.653  10.131 -1.1211  2.9659 -1.9557
 6158SOL    HW229934   1.245   4.681  10.122 -0.4505 -0.8544  1.4062
 6159SOL     OW29935   2.960   4.195  11.552  0.1012  0.2021 -0.2348
 6159SOL    HW129936   2.895   4.160  11.612  2.0047  1.2367  2.4590
 6159SOL    HW229937   3.031   4.132  11.565  0.3964  0.4718 -0.5206
 6160SOL     OW29938   0.747   4.021   8.171 -0.0860  0.2894  1.0576
 6160SOL    HW129939   0.706   4.065   8.245 -0.3452 -1.3213  1.8739
 6160SOL    HW229940   0.680   4.048   8.109  3.1898  1.6778 -1.8643
 6161SOL     OW29941   0.288   1.723  13.659  0.4741  0.1842 -0.2928
 6161SOL    HW129942   0.261   1.711  13.750 -0.1821 -0.2707 -0.5491
 6161SOL    HW229943   0.379   1.695  13.660  0.2676 -0.4565  1.3520
 6162SOL     OW29944   3.712   0.404   3.459  0.1869  0.1158 -0.1396
 6162SOL    HW129945   3.721   0.328   3.401  0.8638  0.1359 -0.0691
 6162SOL    HW229946   3.710   0.476   3.395  0.5747  0.7899  0.6047
 6163SOL     OW29947   0.340   1.062   2.870  0.0576 -0.0336 -0.6315
 6163SOL    HW129948   0.409   1.114   2.829 -0.4133  1.1868  0.1235
 6163SOL    HW229949   0.282   1.134   2.894  0.3711  0.0630 -0.1484
 6164SOL     OW29950   2.802   0.309  16.612  0.1775  0.8416  0.2878
 6164SOL    HW129951   2.840   0.299  16.699  3.2610  2.7907 -0.8196
 6164SOL    HW229952   2.712   0.280  16.629  0.4964 -0.6018 -0.5284
 6165SOL     OW29953   1.681   4.145   3.211  0.0503 -0.0747  0.0753
 6165SOL    HW129954   1.618   4.203   3.254 -0.5412 -1.4139  1.0026
 6165SOL    HW229955   1.650   4.135   3.121 -1.9322 -0.7234  0.8297
 6166SOL     OW29956   0.933   0.534   4.401  0.4286 -0.0315 -0.0785
 6166SOL    HW129957   0.962   0.512   4.490 -4.2823  0.9562  1.6842
 6166SOL    HW229958   0.842   0.506   4.403  0.3658  0.0577 -1.6247
 6167SOL     OW29959   2.225   0.323   3.189  0.0235 -0.1787  0.4477
 6167SOL    HW129960   2.172   0.344   3.266  0.8240 -0.0909  0.9721
 6167SOL    HW229961   2.314   0.321   3.223  0.2435  1.9948 -0.0098
 6168SOL     OW29962   3.112   3.602  10.857  0.2593  0.2243  0.1376
 6168SOL    HW129963   3.121   3.613  10.952  0.2912  1.4450 -0.0124
 6168SOL    HW229964   3.173   3.667  10.822 -0.0399 -1.4120 -3.3689
 6169SOL     OW29965   0.097   3.600   1.765 -0.1511 -0.3508  0.3853
 6169SOL    HW129966   0.177   3.614   1.714 -0.6748  1.7002  0.1414
 6169SOL    HW229967   0.065   3.688   1.780  0.0165 -0.4040  1.0836
 6170SOL     OW29968   1.370   2.865   2.670 -0.2901 -0.1033  0.7866
 6170SOL    HW129969   1.372   2.886   2.576 -2.3995 -1.1611  0.5011
 6170SOL    HW229970   1.307   2.930   2.700 -0.9108  0.6717 -2.1850
 6171SOL     OW29971   2.672   2.105  12.136  0.5448  0.0344 -0.1579
 6171SOL    HW129972   2.745   2.094  12.075 -0.5511  0.9853 -1.6217
 6171SOL    HW229973   2.696   2.038  12.200 -0.9171 -0.7069 -0.3769
 6172SOL     OW29974   1.431   1.774   4.467  0.2027  0.5848  0.3174
 6172SOL    HW129975   1.469   1.712   4.530  1.3179 -0.4937 -1.4443
 6172SOL    HW229976   1.442   1.853   4.520  0.6172  1.1583 -0.6339
 6173SOL     OW29977   2.730   0.775   8.610  0.3525  0.1026 -0.2853
 6173SOL    HW129978   2.767   0.860   8.635 -0.0859  0.2755 -0.2271
 6173SOL    HW229979   2.745   0.728   8.692  1.3315 -0.6165 -0.8778
 6174SOL     OW29980   1.529   0.217   9.303  0.0345  0.4609  0.0048
 6174SOL    HW129981   1.556   0.249   9.389 -0.7191 -0.0059  0.4117
 6174SOL    HW229982   1.454   0.167   9.335  0.8574 -1.1050 -0.4978
 6175SOL     OW29983   1.040   0.898   5.296  0.5259  0.2150  0.8002
 6175SOL    HW129984   1.034   0.924   5.204 -2.3876 -2.8319  0.1124
 6175SOL    HW229985   1.125   0.855   5.300 -0.0362 -0.8912  1.0085
 6176SOL     OW29986   2.537   2.632   2.253  0.5277 -0.0365 -0.1256
 6176SOL    HW129987   2.507   2.578   2.180  2.2197 -1.7588  0.4552
 6176SOL    HW229988   2.614   2.674   2.214  1.0314 -0.8902 -0.0616
 6177SOL     OW29989   2.763   0.177  17.135 -0.3834 -0.1115 -0.3353
 6177SOL    HW129990   2.829   0.112  17.160 -2.1013 -0.8514  2.1907
 6177SOL    HW229991   2.816   0.245  17.092  0.7466 -0.6361  0.2148
 6178SOL     OW29992   3.300   0.068   6.620  0.2535 -0.1388 -0.5907
 6178SOL    HW129993   3.392   0.040   6.623  0.1285 -0.4359  0.7791
 6178SOL    HW229994   3.283   0.062   6.714  0.8233  1.4119 -0.3869
 6179SOL     OW29995   4.308   2.413   8.429 -0.6977  0.1226 -0.4928
 6179SOL    HW129996   4.304   2.452   8.516 -1.5921 -1.6621  0.2654
 6179SOL    HW229997   4.301   2.319   8.449  2.9536 -0.2027 -0.6839
 6180SOL     OW29998   1.809   2.602  12.811  0.1241  0.5638  0.2288
 6180SOL    HW129999   1.759   2.529  12.848  1.3365 -0.4988 -0.2408
 6180SOL    HW230000   1.853   2.633  12.890  1.5913 -0.8017 -0.0402
 6181SOL     OW30001   1.527   4.424   9.619 -0.0265 -0.4167 -0.3977
 6181SOL    HW130002   1.586   4.480   9.570  0.4753  1.3844  2.2762
 6181SOL    HW230003   1.444   4.438   9.573  0.8584  0.4672 -1.7050
 6182SOL     OW30004   4.314   2.129   4.107  0.8177 -0.6125  0.1448
 6182SOL    HW130005   4.383   2.122   4.173  0.1290  0.3345  0.9760
 6182SOL    HW230006   4.262   2.050   4.119 -0.1926  0.4565  2.7695
 6183SOL     OW30007   1.044   4.392  12.791 -0.1216  0.6473 -0.2872
 6183SOL    HW130008   1.034   4.363  12.881 -2.5295  1.8889 -0.1586
 6183SOL    HW230009   1.140   4.396  12.783  0.1869 -1.7646  2.5949
 6184SOL     OW30010   3.205   0.375   1.923 -0.5200  0.3304 -0.2500
 6184SOL    HW130011   3.297   0.356   1.941 -0.6352  0.2805  0.2700
 6184SOL    HW230012   3.179   0.301   1.868 -1.1896 -0.6118  1.3601
 6185SOL     OW30013   0.685   3.260  11.141  0.5331  0.1079  0.4597
 6185SOL    HW130014   0.712   3.188  11.083 -1.7225 -1.5666  1.4782
 6185SOL    HW230015   0.675   3.215  11.225 -0.3815 -0.5249  0.0204
 6186SOL     OW30016   0.907   2.049  10.274  0.1319  0.1097 -0.5243
 6186SOL    HW130017   0.857   2.055  10.356  0.9754 -1.9166  0.1291
 6186SOL    HW230018   0.995   2.037  10.309 -0.1496 -0.2129  0.0761
 6187SOL     OW30019   2.621   3.477  13.447  0.0589  0.2438  0.9201
 6187SOL    HW130020   2.592   3.565  13.469 -2.1550 -0.1091 -0.5304
 6187SOL    HW230021   2.589   3.421  13.518 -1.4860  0.6098  0.5021
 6188SOL     OW30022   2.313   1.110  15.157 -0.1786  0.5133 -0.3998
 6188SOL    HW130023   2.321   1.132  15.065 -0.0335 -1.3903 -0.8401
 6188SOL    HW230024   2.405   1.093  15.178  0.4099  0.9541 -2.6364
 6189SOL     OW30025   2.611   4.406  11.944  0.1784 -0.1905 -0.3905
 6189SOL    HW130026   2.651   4.467  11.881  2.6294 -0.5498  0.8164
 6189SOL    HW230027   2.601   4.328  11.889 -0.8979 -1.1719  1.2151
 6190SOL     OW30028   0.176   0.774   3.927 -0.1126 -0.3284  0.0583
 6190SOL    HW130029   0.116   0.718   3.976 -1.1240  0.4092 -0.3424
 6190SOL    HW230030   0.117   0.804   3.858 -0.2723 -4.0460 -1.4761
 6191SOL     OW30031   4.063   1.316   8.079  0.5495 -0.2303  0.4570
 6191SOL    HW130032   4.141   1.261   8.083  1.0075  0.3912 -0.0354
 6191SOL    HW230033   4.027   1.296   8.166  0.8349 -1.2039  0.3561
 6192SOL     OW30034   0.724   1.746   2.411  0.2440  0.2405  0.7263
 6192SOL    HW130035   0.679   1.771   2.330 -0.5459  1.5244  1.5510
 6192SOL    HW230036   0.762   1.830   2.438  0.9926 -0.5628  2.1713
 6193SOL     OW30037   0.553   0.857  13.926  0.2717 -0.7500  0.4405
 6193SOL    HW130038   0.517   0.799  13.993 -0.2001  0.5158  1.2950
 6193SOL    HW230039   0.624   0.797  13.906 -0.0886 -1.5107  1.4518
 6194SOL     OW30040   0.525   3.597   6.129 -0.0215  0.1200 -0.2007
 6194SOL    HW130041   0.560   3.518   6.171  0.4065 -0.4164 -1.5871
 6194SOL    HW230042   0.607   3.639   6.102  0.3797  0.4152  1.4315
 6195SOL     OW30043   3.095   4.110  13.606 -0.1151  0.1369  0.1886
 6195SOL    HW130044   3.067   4.202  13.607  1.4562  0.6293 -1.5001
 6195SOL    HW230045   3.016   4.073  13.647  1.0548 -1.3859  1.0642
 6196SOL     OW30046   0.596   2.282   4.076 -0.5191 -0.5399 -0.0002
 6196SOL    HW130047   0.507   2.274   4.112 -0.0150  0.8838  1.5407
 6196SOL    HW230048   0.645   2.268   4.157  1.3644 -1.1418 -1.2438
 6197SOL     OW30049   4.134   4.548  15.313  0.4643 -0.1900  0.2121
 6197SOL    HW130050   4.116   4.468  15.364  1.0875  1.6046  3.2670
 6197SOL    HW230051   4.187   4.508  15.244 -0.5052  1.3704 -1.4115
 6198SOL     OW30052   0.362   0.939   3.140 -0.2358  0.0512  0.5319
 6198SOL    HW130053   0.452   0.910   3.126 -0.8030 -1.2871 -0.3984
 6198SOL    HW230054   0.365   1.020   3.088 -1.1195  0.7294  1.5384
 6199SOL     OW30055   0.999   2.464   2.265  0.4136  0.0598 -0.2088
 6199SOL    HW130056   0.997   2.472   2.360  1.0660 -2.1249 -0.0013
 6199SOL    HW230057   0.969   2.552   2.243  1.4258  0.6490  0.7944
 6200SOL     OW30058   0.665   3.702  17.469 -0.6076 -0.3524  0.0592
 6200SOL    HW130059   0.600   3.726  17.402 -0.5289 -2.5610 -0.7948
 6200SOL    HW230060   0.601   3.658  17.526 -0.0714 -2.8725 -1.2921
 6201SOL     OW30061   3.197   1.316   4.033 -0.5500 -0.1550 -0.1919
 6201SOL    HW130062   3.197   1.375   4.108  0.2738 -1.5198  0.8883
 6201SOL    HW230063   3.286   1.282   4.036 -0.6169 -0.4776 -2.0567
 6202SOL     OW30064   2.872   1.390   3.415 -0.6720  0.2679 -0.2318
 6202SOL    HW130065   2.827   1.445   3.351  0.5562  1.3073 -0.1905
 6202SOL    HW230066   2.864   1.300   3.383 -3.0009  0.2335  0.4392
 6203SOL     OW30067   2.120   2.576   9.593 -0.1185  0.3208 -0.1013
 6203SOL    HW130068   2.189   2.609   9.536  0.4139  0.5819  0.6881
 6203SOL    HW230069   2.117   2.645   9.660  0.2013  0.0281  0.2181
 6204SOL     OW30070   1.418   0.123   4.569  0.3882  0.0213  0.3029
 6204SOL    HW130071   1.452   0.083   4.650  0.8640  0.2257  0.2034
 6204SOL    HW230072   1.361   0.053   4.536 -1.7698  1.7043  0.4416
 6205SOL     OW30073   4.653   4.648   4.671 -0.1615 -0.4909  0.3100
 6205SOL    HW130074   0.023   4.662   4.683 -0.2905  0.7448 -0.1166
 6205SOL    HW230075   4.616   4.723   4.716  1.8864  0.9214 -0.3596
 6206SOL     OW30076   1.360   4.519   2.047 -0.4724  0.1561  0.4937
 6206SOL    HW130077   1.438   4.487   2.093 -0.2558 -0.0539 -0.0131
 6206SOL    HW230078   1.399   4.525   1.960  2.0760  1.2767  1.7267
 6207SOL     OW30079   0.977   1.409  11.736 -0.4140 -0.7082  0.7088
 6207SOL    HW130080   0.983   1.498  11.703 -1.1353 -1.2328 -0.8670
 6207SOL    HW230081   1.069   1.395  11.755 -0.7955 -2.2951  1.3890
 6208SOL     OW30082   4.458   2.264   2.614  0.8097  0.2454 -0.2074
 6208SOL    HW130083   4.383   2.273   2.556  2.2543  0.2740 -2.0601
 6208SOL    HW230084   4.467   2.169   2.623  0.3585  0.1143 -1.1879
 6209SOL     OW30085   1.623   3.447   6.484  0.7368  0.2251 -0.6215
 6209SOL    HW130086   1.642   3.533   6.448 -2.7214  1.2141 -0.0256
 6209SOL    HW230087   1.628   3.473   6.576 -1.9865  0.5923 -0.5910
 6210SOL     OW30088   3.678   1.855   4.022  0.2284  0.1804  0.7581
 6210SOL    HW130089   3.743   1.925   4.021 -0.9489  1.2574  0.2430
 6210SOL    HW230090   3.643   1.866   4.111 -1.4410  2.7197 -0.2139
 6211SOL     OW30091   1.903   2.998   3.253 -0.3853  0.2925  0.1587
 6211SOL    HW130092   1.867   3.075   3.209 -1.7542 -0.7529 -0.5345
 6211SOL    HW230093   1.833   2.934   3.242  0.6867 -0.2051 -3.8171
 6212SOL     OW30094   3.445   0.974   8.952  0.5327 -0.2784 -0.9727
 6212SOL    HW130095   3.409   1.051   8.907  1.4174  1.0519  0.6008
 6212SOL    HW230096   3.382   0.907   8.927  2.0335 -1.8111 -0.6907
 6213SOL     OW30097   2.755   4.666  11.171 -0.6050 -0.0852 -0.2205
 6213SOL    HW130098   2.784   4.656  11.081  0.2118 -1.0552  0.1488
 6213SOL    HW230099   2.839   4.653  11.215 -0.4558 -0.8215 -0.7191
 6214SOL     OW30100   3.417   0.040   2.122 -0.1687  0.1470 -0.1682
 6214SOL    HW130101   3.415   0.135   2.114 -1.8993  0.0283 -1.0594
 6214SOL    HW230102   3.324   0.019   2.115  0.0355 -0.9531  0.4086
 6215SOL     OW30103   3.953   3.178   9.690 -0.5918 -0.3174  0.2191
 6215SOL    HW130104   3.927   3.100   9.641  1.7207 -1.1969  0.3888
 6215SOL    HW230105   3.927   3.243   9.625  1.4829  0.9580  0.6697
 6216SOL     OW30106   0.952   2.337  13.341  0.3659 -0.6243  0.0917
 6216SOL    HW130107   0.897   2.267  13.305  1.3343 -1.3701  0.0729
 6216SOL    HW230108   1.037   2.314  13.304 -0.0983 -1.2125 -0.6182
 6217SOL     OW30109   2.857   1.857   3.365 -0.4522 -0.0315 -0.1274
 6217SOL    HW130110   2.889   1.829   3.451  2.4541  3.5149 -0.0749
 6217SOL    HW230111   2.933   1.822   3.319 -1.4909 -0.5405 -1.4352
 6218SOL     OW30112   2.496   2.042   2.407  0.1501  0.3337  0.4319
 6218SOL    HW130113   2.473   2.126   2.367  0.1534  1.0780  2.0078
 6218SOL    HW230114   2.416   1.995   2.382 -2.3381  3.9593  1.4991
 6219SOL     OW30115   2.576   4.175  16.361  0.0396  0.1233  0.2851
 6219SOL    HW130116   2.540   4.217  16.282 -0.3415  0.8561  0.8541
 6219SOL    HW230117   2.545   4.242  16.422  0.5008  0.3540  0.2605
 6220SOL     OW30118   0.969   0.655   7.831 -0.1170 -0.0653  0.2304
 6220SOL    HW130119   1.012   0.682   7.912 -0.6904 -0.7615  0.7647
 6220SOL    HW230120   0.911   0.581   7.848  2.4589 -2.0466  0.4032
 6221SOL     OW30121   2.777   1.457   4.985  0.1066  0.6521 -0.3076
 6221SOL    HW130122   2.752   1.393   5.052  3.7127  0.5859  0.9864
 6221SOL    HW230123   2.756   1.409   4.904  0.5819  1.4686 -0.9157
 6222SOL     OW30124   2.125   2.045   2.636  0.4928 -0.7525  0.0318
 6222SOL    HW130125   2.202   1.989   2.648  1.2247  0.6267  1.7533
 6222SOL    HW230126   2.108   2.038   2.542 -0.1281 -0.2674  0.1099
 6223SOL     OW30127   4.226   2.987   9.007 -0.1997  0.4853 -0.2558
 6223SOL    HW130128   4.248   2.957   8.919 -0.8843 -0.1172 -0.2191
 6223SOL    HW230129   4.156   2.928   9.036 -2.5400  3.5611  0.3724
 6224SOL     OW30130   0.047   3.608   9.084 -0.3378  0.2702  0.2945
 6224SOL    HW130131   0.048   3.624   9.178  0.1054  0.7900  0.2007
 6224SOL    HW230132   0.133   3.636   9.054 -0.4702 -0.2827 -0.6073
 6225SOL     OW30133   2.356   4.683   3.089 -0.3319 -0.5543 -0.3893
 6225SOL    HW130134   2.337   4.685   2.995  0.8887  2.3904 -0.5559
 6225SOL    HW230135   2.451   4.671   3.088 -0.0739  1.6007 -1.1349
 6226SOL     OW30136   4.568   0.140   3.612  0.4060 -0.2565  0.0680
 6226SOL    HW130137   4.650   0.129   3.563  1.2173  0.6497  1.2486
 6226SOL    HW230138   4.592   0.110   3.699  2.2824 -1.5092 -0.8832
 6227SOL     OW30139   2.614   0.997   8.379  0.8382 -0.0957  0.4461
 6227SOL    HW130140   2.593   0.954   8.462 -1.4095  0.7841  0.3259
 6227SOL    HW230141   2.549   0.950   8.326  2.4635 -0.6809 -1.0293
 6228SOL     OW30142   0.542   1.041   2.625  0.8618  0.0353  0.0065
 6228SOL    HW130143   0.614   1.002   2.675  0.2193 -1.6222 -0.3644
 6228SOL    HW230144   0.594   1.046   2.545 -0.4424  0.0791 -0.8271
 6229SOL     OW30145   0.452   3.458   8.965 -0.8073 -0.2018  0.0391
 6229SOL    HW130146   0.540   3.452   9.003  0.3246 -0.2692 -2.5903
 6229SOL    HW230147   0.408   3.386   9.010 -3.8993  1.0147 -1.1065
 6230SOL     OW30148   1.462   3.444   4.952 -0.3586  0.4467  0.3266
 6230SOL    HW130149   1.491   3.482   4.869 -0.2295 -0.7151 -0.1610
 6230SOL    HW230150   1.507   3.506   5.009 -3.2791  1.3559  1.6213
 6231SOL     OW30151   2.582   3.209   6.962 -0.1966  0.2631 -0.0958
 6231SOL    HW130152   2.664   3.254   6.983 -1.0484  1.6006  0.3538
 6231SOL    HW230153   2.579   3.232   6.869  0.3496 -0.6241 -0.3267
 6232SOL     OW30154   0.172   0.624  10.229 -0.2336  0.0697  0.7242
 6232SOL    HW130155   0.238   0.687  10.258  1.6074 -0.1618 -2.9494
 6232SOL    HW230156   0.205   0.545  10.271  0.1379  0.2360  0.7403
 6233SOL     OW30157   0.652   1.856   0.891 -0.7430  0.0789 -0.1136
 6233SOL    HW130158   0.736   1.861   0.937 -0.9160 -0.0721  0.2155
 6233SOL    HW230159   0.669   1.917   0.819  2.2221  0.2118  0.7040
 6234SOL     OW30160   3.306   1.734   7.144 -0.4495 -0.3601  0.4927
 6234SOL    HW130161   3.360   1.727   7.223  1.2171 -1.8458 -0.7756
 6234SOL    HW230162   3.367   1.764   7.077  0.0879 -0.4444  0.9422
 6235SOL     OW30163   2.532   2.474  11.728 -0.4296  0.3383  0.1138
 6235SOL    HW130164   2.568   2.395  11.768 -2.6009  0.3520  2.0570
 6235SOL    HW230165   2.552   2.543  11.791  2.3621 -0.5154  0.1698
 6236SOL     OW30166   1.665   1.385  12.161 -0.1379 -0.3736  0.5224
 6236SOL    HW130167   1.678   1.313  12.099 -2.0195 -0.8834  0.7394
 6236SOL    HW230168   1.750   1.427  12.178 -0.2349  0.0291  0.0101
 6237SOL     OW30169   2.270   1.008  12.996 -0.5816  0.1207  0.1737
 6237SOL    HW130170   2.193   1.063  13.011  0.8030  2.0019  0.3994
 6237SOL    HW230171   2.281   0.956  13.075  1.1496  2.7872  1.6672
 6238SOL     OW30172   2.398   1.460   9.498 -0.2642 -0.1605 -0.4035
 6238SOL    HW130173   2.453   1.517   9.552 -0.8805  1.6253 -1.6887
 6238SOL    HW230174   2.417   1.372   9.531 -0.4900 -0.0707 -0.0291
 6239SOL     OW30175   3.381   3.628   9.221 -0.6618  0.3225 -0.1532
 6239SOL    HW130176   3.424   3.710   9.245 -0.8126 -0.2739  2.1284
 6239SOL    HW230177   3.310   3.631   9.286  1.8036 -0.9327  2.5871
 6240SOL     OW30178   2.869   1.314   8.373  0.0583 -0.4843 -0.1026
 6240SOL    HW130179   2.858   1.288   8.465 -1.5311 -0.1519 -0.2044
 6240SOL    HW230180   2.958   1.352   8.376  0.2879 -1.1050  1.0361
 6241SOL     OW30181   0.023   3.233   4.327 -0.1271  0.2959  0.8158
 6241SOL    HW130182   0.086   3.304   4.343  1.9755 -1.0171 -1.6135
 6241SOL    HW230183   0.013   3.198   4.416 -1.1129 -2.5738 -0.4504
 6242SOL     OW30184   2.541   4.232  17.565  0.6496 -0.2283  0.2058
 6242SOL    HW130185   2.529   4.155  17.508 -0.3133 -0.9755  1.4212
 6242SOL    HW230186   2.483   4.296  17.526 -1.1983 -1.6429  0.6366
 6243SOL     OW30187   1.591   4.703   5.581  0.1508  0.0406  0.5306
 6243SOL    HW130188   1.579   0.070   5.554 -0.8210 -0.8288 -1.9860
 6243SOL    HW230189   1.682   4.684   5.560 -0.4269  0.6875 -2.6407
 6244SOL     OW30190   4.433   1.187   2.384  0.0986 -0.6595 -0.3177
 6244SOL    HW130191   4.399   1.117   2.330  0.0281 -1.6727  1.0250
 6244SOL    HW230192   4.363   1.253   2.387 -0.4770 -1.2737 -0.4312
 6245SOL     OW30193   2.404   3.740   8.263 -0.0370 -0.0553 -0.0567
 6245SOL    HW130194   2.394   3.677   8.192  3.6371 -0.5754 -0.1527
 6245SOL    HW230195   2.319   3.742   8.306 -0.2699 -0.5759 -0.5077
 6246SOL     OW30196   0.228   0.802   6.247  0.2113  0.0933 -0.3335
 6246SOL    HW130197   0.316   0.818   6.280  0.8244 -4.0008  0.0391
 6246SOL    HW230198   0.191   0.761   6.325  0.8985  2.0551  1.0208
 6247SOL     OW30199   4.233   1.784   1.724  0.0913  0.0198 -0.1335
 6247SOL    HW130200   4.251   1.878   1.722 -0.3875  0.0509 -2.6287
 6247SOL    HW230201   4.141   1.776   1.748 -0.0449 -0.7235 -0.8934
 6248SOL     OW30202   1.237   1.809   6.782  0.1326 -0.3061 -0.3409
 6248SOL    HW130203   1.169   1.858   6.736 -0.3047 -0.4325  0.1734
 6248SOL    HW230204   1.289   1.886   6.805 -0.2222  0.2555 -1.4634
 6249SOL     OW30205   2.452   0.996   5.578 -0.2441  0.5825  0.0427
 6249SOL    HW130206   2.415   1.027   5.495 -0.6926  2.5254  0.9642
 6249SOL    HW230207   2.522   1.062   5.579 -0.3386  0.6966 -1.2776
 6250SOL     OW30208   1.343   3.077  11.121  0.5201 -0.1808  0.0912
 6250SOL    HW130209   1.363   3.142  11.188  2.3240  0.4692 -1.0793
 6250SOL    HW230210   1.254   3.045  11.135  0.2286  0.9351  0.7661
 6251SOL     OW30211   2.434   1.156   7.793  0.1817 -0.7100  0.8729
 6251SOL    HW130212   2.418   1.088   7.859  3.7245 -1.3082  1.0904
 6251SOL    HW230213   2.464   1.231   7.846  2.0216 -0.8616  0.0402
 6252SOL     OW30214   2.284   3.295   2.193  0.0591  0.1267 -0.4605
 6252SOL    HW130215   2.266   3.280   2.100  0.0059 -1.1492 -0.2405
 6252SOL    HW230216   2.379   3.290   2.198 -0.0565  0.3900  1.9651
 6253SOL     OW30217   3.706   4.683   9.300 -0.7893  0.3695 -0.7620
 6253SOL    HW130218   3.630   4.642   9.258 -0.4485  0.5267 -1.5280
 6253SOL    HW230219   3.780   4.624   9.286  0.8736  2.3607 -0.1919
 6254SOL     OW30220   2.481   3.826   6.829  0.2513 -0.6723  0.5801
 6254SOL    HW130221   2.571   3.855   6.843 -0.3796  1.3555  0.4330
 6254SOL    HW230222   2.457   3.796   6.916 -2.7811  0.8362  0.2458
 6255SOL     OW30223   1.891   0.714   9.014  0.2024  0.0066  0.2136
 6255SOL    HW130224   1.820   0.774   9.034  2.7387  3.2827 -0.5911
 6255SOL    HW230225   1.895   0.679   9.103 -0.0807 -0.4209  0.0560
 6256SOL     OW30226   2.748   1.230  12.454 -0.0396 -0.3056 -0.2917
 6256SOL    HW130227   2.725   1.147  12.411 -1.7277 -0.4123  0.8364
 6256SOL    HW230228   2.709   1.226  12.541 -1.2017  2.3242 -0.7221
 6257SOL     OW30229   2.345   1.056   5.344  0.2684  0.4814 -0.7394
 6257SOL    HW130230   2.253   1.028   5.347  1.2812 -2.8008  1.0164
 6257SOL    HW230231   2.338   1.128   5.283 -0.1349 -0.3555 -1.6848
 6258SOL     OW30232   4.562   2.280   5.609 -0.0640 -0.3643 -0.1705
 6258SOL    HW130233   4.554   2.362   5.561 -0.3171  0.3358  1.0664
 6258SOL    HW230234   4.573   2.308   5.700  0.1895  1.1419 -0.6568
 6259SOL     OW30235   4.222   0.800   3.513 -0.2311 -0.5952 -0.1112
 6259SOL    HW130236   4.257   0.721   3.555  0.2610 -0.1047  0.4096
 6259SOL    HW230237   4.295   0.859   3.530 -0.5665  0.2865 -1.7066
 6260SOL     OW30238   1.062   4.473   7.171 -0.2748  0.2657 -0.3625
 6260SOL    HW130239   1.078   4.470   7.265  3.6388 -0.3739 -1.0406
 6260SOL    HW230240   1.040   4.382   7.149  0.9104  0.0635 -0.6917
 6261SOL     OW30241   3.674   0.394   2.155 -0.5961  0.1053  0.3233
 6261SOL    HW130242   3.717   0.324   2.204  0.3716  0.3968 -0.1134
 6261SOL    HW230243   3.664   0.461   2.222  2.3671  1.4955 -0.6589
 6262SOL     OW30244   1.819   4.682   0.211  0.1497 -0.0942 -0.8279
 6262SOL    HW130245   1.775   0.042   0.218  1.5210  0.7774 -2.4603
 6262SOL    HW230246   1.910   4.709   0.227 -0.8236  2.3008  0.7024
 6263SOL     OW30247   2.670   0.580  11.358 -0.2028  0.2947 -0.0232
 6263SOL    HW130248   2.700   0.489  11.351 -0.0603  0.3203  0.2228
 6263SOL    HW230249   2.734   0.618  11.299  0.9551  0.3135  1.2368
 6264SOL     OW30250   1.808   2.936   7.373  0.3960  0.1232 -0.3095
 6264SOL    HW130251   1.844   2.963   7.289 -1.0910  1.5086 -0.5137
 6264SOL    HW230252   1.841   2.847   7.379 -0.7554 -0.3668 -1.2215
 6265SOL     OW30253   4.004   1.693   4.889 -0.0214 -0.2102 -1.3486
 6265SOL    HW130254   4.080   1.634   4.886  0.5897  0.5509 -0.8400
 6265SOL    HW230255   4.003   1.717   4.982  1.1402  0.9087 -1.6292
 6266SOL     OW30256   3.590   1.802   3.134 -0.1216  0.1345  0.3013
 6266SOL    HW130257   3.601   1.887   3.090 -1.9699 -1.0757 -2.4351
 6266SOL    HW230258   3.619   1.747   3.061 -0.1821 -0.8585  1.0298
 6267SOL     OW30259   0.124   3.484   4.418  0.2244  0.0056  0.0851
 6267SOL    HW130260   0.136   3.458   4.509 -0.0266  0.5390  0.2669
 6267SOL    HW230261   0.088   3.573   4.420  2.0150  0.7500 -0.8537
 6268SOL     OW30262   2.255   4.638   5.478 -0.0536 -0.1469  0.3270
 6268SOL    HW130263   2.249   4.567   5.542 -0.5169 -1.8975 -1.6811
 6268SOL    HW230264   2.245   4.711   5.540  0.4598  0.2564 -0.0622
 6269SOL     OW30265   1.056   0.785   5.586 -0.3663 -0.2394 -0.1513
 6269SOL    HW130266   1.046   0.724   5.513 -2.0192  0.6916 -0.7087
 6269SOL    HW230267   1.151   0.796   5.592 -0.5917  0.0447  3.0381
 6270SOL     OW30268   2.126   2.570   5.395 -0.1527 -0.2548 -0.0689
 6270SOL    HW130269   2.097   2.540   5.481  1.1356  0.3765  0.5898
 6270SOL    HW230270   2.112   2.665   5.399  1.1045 -0.1013  0.5457
 6271SOL     OW30271   4.412   0.546   7.476  0.0968 -0.6671 -0.0202
 6271SOL    HW130272   4.453   0.631   7.493 -0.4405 -0.2322 -0.9046
 6271SOL    HW230273   4.489   0.490   7.464  0.3174 -0.3519 -0.0918
 6272SOL     OW30274   3.139   4.425   0.339  0.6092  0.1560  0.3392
 6272SOL    HW130275   3.069   4.379   0.386 -0.6763  3.5264  1.7729
 6272SOL    HW230276   3.186   4.471   0.408 -0.5422  0.5679  0.8548
 6273SOL     OW30277   0.447   2.031  14.822  0.2235 -0.1224  0.1080
 6273SOL    HW130278   0.513   2.084  14.866 -0.3979  1.6955 -1.1356
 6273SOL    HW230279   0.451   1.977  14.901  2.3572  1.3070  0.9946
 6274SOL     OW30280   4.543   0.183   4.137  0.0298  0.1344  0.8042
 6274SOL    HW130281   4.457   0.215   4.161  0.1428  1.2784 -0.2710
 6274SOL    HW230282   4.606   0.241   4.181 -0.1027 -0.6245  1.9841
 6275SOL     OW30283   0.582   2.232   1.635  0.0304  0.5635  0.0155
 6275SOL    HW130284   0.581   2.162   1.701 -0.3647  0.5952  0.0406
 6275SOL    HW230285   0.510   2.204   1.578 -1.1365  1.7545  0.9142
 6276SOL     OW30286   3.142   2.705   5.438  0.3971  0.2151  0.3698
 6276SOL    HW130287   3.082   2.726   5.510 -0.5730  0.9812 -0.6605
 6276SOL    HW230288   3.180   2.626   5.477 -0.0565 -0.5807 -0.8187
 6277SOL     OW30289   2.243   0.371  14.330  0.3744 -0.0202  0.1245
 6277SOL    HW130290   2.230   0.422  14.251 -0.0994 -0.0237  0.1944
 6277SOL    HW230291   2.160   0.390  14.374 -0.5068  0.5708 -1.8308
 6278SOL     OW30292   1.922   1.175  15.430 -0.6071 -0.1606 -0.0269
 6278SOL    HW130293   1.871   1.213  15.359  0.8743  1.7888 -0.0340
 6278SOL    HW230294   1.867   1.181  15.508 -0.7532  2.3433 -0.3400
 6279SOL     OW30295   4.166   0.662   7.422 -0.0021  0.0826  0.2786
 6279SOL    HW130296   4.210   0.587   7.382 -1.2083  1.7350 -4.1169
 6279SOL    HW230297   4.074   0.643   7.405  0.3219 -1.2748  0.0098
 6280SOL     OW30298   1.223   3.904  11.252  0.2901 -0.0379 -0.1387
 6280SOL    HW130299   1.307   3.868  11.281  1.1103  1.9982  0.0211
 6280SOL    HW230300   1.237   3.996  11.229  1.5064 -0.4106 -0.8554
 6281SOL     OW30301   3.106   3.296   3.813 -0.0097 -0.3369 -0.0669
 6281SOL    HW130302   3.098   3.345   3.894  1.8228  2.5606 -1.6150
 6281SOL    HW230303   3.019   3.257   3.812 -0.7091  1.2014 -0.7427
 6282SOL     OW30304   1.611   2.876   5.734 -0.3642  0.3333 -0.2050
 6282SOL    HW130305   1.609   2.844   5.824 -0.7749 -1.1841 -0.7424
 6282SOL    HW230306   1.565   2.959   5.746  0.6146  0.9843 -0.9393
 6283SOL     OW30307   3.801   3.258   3.943 -0.9359 -0.3998 -0.2924
 6283SOL    HW130308   3.861   3.187   3.964  1.3073  1.5901  0.1434
 6283SOL    HW230309   3.744   3.201   3.892  2.0153 -1.9989 -1.7816
 6284SOL     OW30310   4.411   4.029   3.161  0.1091 -0.2707  0.2810
 6284SOL    HW130311   4.438   4.088   3.231  0.4798 -1.3522  1.0345
 6284SOL    HW230312   4.489   4.037   3.106  0.3204 -0.9434  0.4885
 6285SOL     OW30313   3.661   4.180  12.684 -0.1217 -0.7038  0.0750
 6285SOL    HW130314   3.628   4.259  12.726 -3.9761 -1.9214 -0.6719
 6285SOL    HW230315   3.747   4.163  12.722 -1.2538 -1.5225  2.2991
 6286SOL     OW30316   1.790   2.067  17.679 -0.5748  0.5154  0.4817
 6286SOL    HW130317   1.862   2.098   0.034 -0.1077 -1.6860  1.1003
 6286SOL    HW230318   1.723   2.132  17.698 -2.9939 -1.4667 -1.3028
 6287SOL     OW30319   2.040   3.286   3.543  0.9398  0.4608  0.7370
 6287SOL    HW130320   2.114   3.337   3.577  1.4181 -0.9824  1.9018
 6287SOL    HW230321   1.963   3.342   3.551 -0.4220 -1.1216 -1.3389
 6288SOL     OW30322   0.502   3.923  16.845  0.6460 -0.0836  0.3308
 6288SOL    HW130323   0.446   3.976  16.900  0.3717  0.3188 -0.3339
 6288SOL    HW230324   0.528   3.986  16.778  1.2422 -1.1187 -0.4265
 6289SOL     OW30325   3.471   3.245   4.028  0.3201 -0.1377 -0.0193
 6289SOL    HW130326   3.425   3.265   3.947  1.2835 -0.7998 -0.7371
 6289SOL    HW230327   3.402   3.269   4.089 -2.6589 -0.0878 -3.3827
 6290SOL     OW30328   3.160   1.731   4.292  0.0933 -0.3539  0.0647
 6290SOL    HW130329   3.090   1.768   4.239 -0.4027 -0.7656  0.4357
 6290SOL    HW230330   3.229   1.797   4.299  1.1607 -1.5523  1.0072
 6291SOL     OW30331   2.040   1.119   7.952  0.1024  0.0861  0.4203
 6291SOL    HW130332   2.002   1.187   7.896  1.5715 -0.1731 -0.8762
 6291SOL    HW230333   1.964   1.064   7.968 -1.0138  1.2202 -0.9429
 6292SOL     OW30334   1.130   4.499   0.151 -0.1893  0.3146  0.3813
 6292SOL    HW130335   1.213   4.462   0.181  0.4379 -0.9693 -2.8666
 6292SOL    HW230336   1.062   4.454   0.201 -0.1076  0.1986  0.3876
 6293SOL     OW30337   2.700   3.937   3.142 -0.4067 -0.2544 -0.2715
 6293SOL    HW130338   2.754   4.012   3.119  1.2473 -0.5013  2.9262
 6293SOL    HW230339   2.707   3.880   3.065 -0.6195  0.4144 -0.7929
 6294SOL     OW30340   1.075   2.162  13.203 -0.2789  0.1989 -0.7566
 6294SOL    HW130341   1.070   2.129  13.114 -1.1780  0.1216 -0.6841
 6294SOL    HW230342   1.167   2.145  13.219 -0.4841 -0.7339 -0.5928
 6295SOL     OW30343   0.942   1.945  16.432 -0.7436 -0.2822 -0.8789
 6295SOL    HW130344   0.962   1.950  16.525 -1.0205  0.0155 -0.8340
 6295SOL    HW230345   0.851   1.916  16.432  0.7705 -4.9790  0.4612
 6296SOL     OW30346   3.551   0.393   3.860  0.5601  0.0571  0.0700
 6296SOL    HW130347   3.494   0.410   3.785  1.0749 -0.4641 -0.4355
 6296SOL    HW230348   3.639   0.414   3.829 -0.1262  2.7380 -0.1037
 6297SOL     OW30349   4.130   2.713   6.278  0.3995 -0.1498  0.8157
 6297SOL    HW130350   4.184   2.642   6.312 -0.5980 -2.9483 -3.3292
 6297SOL    HW230351   4.140   2.719   6.183  1.0091 -1.4523  0.8006
 6298SOL     OW30352   4.259   1.495  10.810  0.0664  0.1637  0.0492
 6298SOL    HW130353   4.265   1.406  10.846 -0.7781 -0.5907 -1.6785
 6298SOL    HW230354   4.350   1.524  10.811  0.4677 -1.0618 -3.5018
 6299SOL     OW30355   1.082   3.957   0.123 -0.0244  0.2617 -0.3146
 6299SOL    HW130356   1.146   3.896   0.087 -0.0483  0.4733 -0.7195
 6299SOL    HW230357   1.121   3.971   0.209 -0.5013 -0.1312 -0.0366
 6300SOL     OW30358   2.048   0.749   4.783 -0.0811 -0.2408 -0.6899
 6300SOL    HW130359   2.006   0.707   4.859  2.8147 -0.1881  0.9458
 6300SOL    HW230360   2.033   0.693   4.707 -2.0221  2.3257 -2.1814
 6301SOL     OW30361   3.423   0.321  15.919  0.2028  0.9914 -0.0517
 6301SOL    HW130362   3.352   0.257  15.921  1.2133 -0.1272  0.4016
 6301SOL    HW230363   3.486   0.256  15.887  0.2440 -0.6210  3.3696
 6302SOL     OW30364   2.302   1.932   6.271  0.0530  0.2088 -0.1396
 6302SOL    HW130365   2.258   1.853   6.240  0.1485 -0.0479  0.3803
 6302SOL    HW230366   2.363   1.892   6.333 -1.6134 -0.2385  1.1885
 6303SOL     OW30367   3.089   0.678  14.648 -0.3079  0.8143  0.3991
 6303SOL    HW130368   3.169   0.636  14.680 -0.6540 -0.0533  0.1278
 6303SOL    HW230369   3.127   0.737  14.582  1.3665 -0.9185 -0.2098
 6304SOL     OW30370   1.103   4.512   5.112  0.2689 -0.0584  0.3819
 6304SOL    HW130371   1.176   4.547   5.061  1.0035 -2.2880 -0.0581
 6304SOL    HW230372   1.027   4.542   5.061 -0.0689  1.6002  1.8282
 6305SOL     OW30373   2.039   2.739   3.255  0.4441 -0.6926 -0.3947
 6305SOL    HW130374   1.996   2.821   3.228  1.9678 -0.0239 -0.7873
 6305SOL    HW230375   1.977   2.700   3.316 -0.4382 -1.2690 -1.6444
 6306SOL     OW30376   0.183   0.536   2.306 -0.2150 -0.7131 -0.2089
 6306SOL    HW130377   0.225   0.458   2.270 -0.8740 -1.1779  0.0438
 6306SOL    HW230378   0.257   0.593   2.284 -1.5017  0.3099 -1.8550
 6307SOL     OW30379   4.680   0.480  12.769 -0.2950  0.3217 -0.1298
 6307SOL    HW130380   0.017   0.407  12.771  0.1092  0.5903 -2.4778
 6307SOL    HW230381   4.605   0.427  12.741  1.3517 -0.6594 -2.6505
 6308SOL     OW30382   3.040   1.104  14.033 -0.2952  0.6436  0.0255
 6308SOL    HW130383   2.991   1.044  13.977  1.5462 -0.4841 -0.3938
 6308SOL    HW230384   2.971   1.155  14.075 -0.3162  1.4937 -1.0204
 6309SOL     OW30385   3.442   2.315  13.109 -0.6082  0.4199 -0.0234
 6309SOL    HW130386   3.401   2.402  13.111 -0.5105  0.4636  0.0557
 6309SOL    HW230387   3.455   2.302  13.015 -2.1783 -0.9686 -0.0503
 6310SOL     OW30388   2.246   0.313   7.817  0.1288 -0.1301  0.4259
 6310SOL    HW130389   2.231   0.378   7.748  2.3673  1.1049  1.1202
 6310SOL    HW230390   2.249   0.373   7.891 -0.1103 -0.4819  0.7231
 6311SOL     OW30391   1.161   4.054  10.917 -0.0773  0.3347  0.2560
 6311SOL    HW130392   1.133   4.096  10.998  2.3615 -2.3298  2.4535
 6311SOL    HW230393   1.143   3.963  10.940 -1.4052  0.1349 -1.5352
 6312SOL     OW30394   4.665   2.616   4.579 -0.4034 -0.6346 -0.3876
 6312SOL    HW130395   4.723   2.614   4.655 -0.2131  2.7524 -0.4703
 6312SOL    HW230396   4.583   2.656   4.607 -0.2233  0.5044 -1.4734
 6313SOL     OW30397   0.387   4.082   0.729 -0.3997 -0.5352 -0.2205
 6313SOL    HW130398   0.351   4.121   0.808  1.2005 -1.8273  1.1590
 6313SOL    HW230399   0.380   4.163   0.677 -0.0708 -1.5549 -1.8578
 6314SOL     OW30400   1.803   0.712   6.227  0.2620  0.1961 -0.2868
 6314SOL    HW130401   1.768   0.673   6.147 -0.1131  1.5879 -0.7986
 6314SOL    HW230402   1.729   0.722   6.288  0.1799  0.4818 -0.4305
 6315SOL     OW30403   3.343   4.125   0.130 -0.3398  0.7225  0.1721
 6315SOL    HW130404   3.377   4.037   0.147  0.4459  1.1819  0.9209
 6315SOL    HW230405   3.421   4.166   0.166  1.4506 -4.0557  1.7575
 6316SOL     OW30406   1.738   3.096   1.972  0.8050  0.1385  0.4478
 6316SOL    HW130407   1.795   3.064   1.902 -0.6209 -0.8785 -0.2573
 6316SOL    HW230408   1.733   3.019   2.029  0.2726 -0.9936 -1.1038
 6317SOL     OW30409   2.361   3.005  12.236 -0.0739  0.5617 -0.2485
 6317SOL    HW130410   2.402   3.076  12.286  1.2566 -0.5936  0.2923
 6317SOL    HW230411   2.393   2.932  12.289 -1.0962 -0.3891 -0.9669
 6318SOL     OW30412   4.084   2.035  14.441  0.9584  0.4753  0.4346
 6318SOL    HW130413   4.113   2.117  14.481  0.9495  0.1698  1.0846
 6318SOL    HW230414   4.123   2.037  14.354 -1.0034  0.6385 -0.4608
 6319SOL     OW30415   0.252   4.342  14.148 -0.2355  0.1517  0.6442
 6319SOL    HW130416   0.181   4.278  14.154 -0.2201  0.1601  0.9178
 6319SOL    HW230417   0.283   4.319  14.060  0.5771  0.6001  0.8114
 6320SOL     OW30418   3.816   0.334   0.281 -0.3937  0.2130  0.0745
 6320SOL    HW130419   3.794   0.260   0.224  1.2273  0.1093 -0.4314
 6320SOL    HW230420   3.865   0.386   0.217  0.4320  1.6832  1.8915
 6321SOL     OW30421   1.068   2.824   2.850  0.0845  0.0198  0.6550
 6321SOL    HW130422   1.121   2.791   2.923 -0.2829 -0.6333  0.6290
 6321SOL    HW230423   1.119   2.896   2.812  1.4511 -0.0333  2.3775
 6322SOL     OW30424   4.533   4.097   2.465 -0.0838  0.1115 -0.1744
 6322SOL    HW130425   4.607   4.095   2.404  1.6912 -0.0607  2.0102
 6322SOL    HW230426   4.480   4.031   2.419 -0.2017 -1.2234  1.8633
 6323SOL     OW30427   3.215   1.105   4.304  0.2279  0.6618  0.0119
 6323SOL    HW130428   3.143   1.164   4.283 -0.3665 -0.1000 -0.1112
 6323SOL    HW230429   3.257   1.101   4.219 -2.2177 -1.6017 -1.0942
 6324SOL     OW30430   2.488   0.943   3.393  0.7877  0.3368 -0.0588
 6324SOL    HW130431   2.505   0.886   3.318  1.0675  0.0397  0.2297
 6324SOL    HW230432   2.473   1.024   3.345 -2.9727 -0.7300 -0.6519
 6325SOL     OW30433   2.098   3.485   8.265  0.1324 -0.1823  0.3902
 6325SOL    HW130434   2.106   3.407   8.319 -1.0076 -0.9202 -0.4997
 6325SOL    HW230435   2.123   3.547   8.333  0.9247 -1.6880  1.4492
 6326SOL     OW30436   1.131   1.873   4.879  0.2041  0.2944 -0.2612
 6326SOL    HW130437   1.106   1.960   4.850  0.2424  0.2424 -0.4508
 6326SOL    HW230438   1.110   1.878   4.973  1.7637  0.8201  0.0676
 6327SOL     OW30439   3.791   0.538  10.667  0.0773 -0.0930 -0.2792
 6327SOL    HW130440   3.699   0.555  10.686  0.9291  3.3344  0.6710
 6327SOL    HW230441   3.833   0.611  10.713 -0.2348  1.3113 -2.2249
 6328SOL     OW30442   1.601   3.990   9.038  0.1571  0.1880 -0.5862
 6328SOL    HW130443   1.550   3.995   8.957 -0.2588  0.0347 -0.3336
 6328SOL    HW230444   1.685   4.021   9.006  1.0144 -0.8324  0.7062
 6329SOL     OW30445   1.454   2.400   1.750 -0.6079 -0.0602  0.0670
 6329SOL    HW130446   1.533   2.346   1.745 -0.3278  0.6643 -3.3354
 6329SOL    HW230447   1.498   2.484   1.738 -1.4241  0.3271 -0.2434
 6330SOL     OW30448   2.553   4.266   8.311 -0.6897  0.3373  0.4921
 6330SOL    HW130449   2.496   4.260   8.387  0.7327 -0.3248  1.5045
 6330SOL    HW230450   2.527   4.191   8.258 -0.5831  1.9944 -1.9318
 6331SOL     OW30451   1.028   1.113  10.452  0.0645  0.2426 -0.4747
 6331SOL    HW130452   1.035   1.208  10.441 -1.3954  0.4102  0.0111
 6331SOL    HW230453   1.105   1.100  10.506  0.8755  2.5301 -1.0708
 6332SOL     OW30454   1.295   0.587   2.661  0.4289  0.5649  0.2047
 6332SOL    HW130455   1.362   0.646   2.696  0.4139 -1.4536  3.6197
 6332SOL    HW230456   1.310   0.519   2.727 -0.6397  0.2050  0.0784
 6333SOL     OW30457   3.640   4.688   2.248  0.0836 -0.3654  0.9689
 6333SOL    HW130458   3.676   4.615   2.198 -0.0526  0.3532 -0.1604
 6333SOL    HW230459   3.555   4.708   2.209  0.6700 -0.5143 -0.3750
 6334SOL     OW30460   2.110   4.198   4.964 -0.0420 -0.0565 -0.2033
 6334SOL    HW130461   2.175   4.227   4.901 -2.0633 -0.2230 -2.3624
 6334SOL    HW230462   2.141   4.238   5.046 -1.0525  0.6416 -0.1549
 6335SOL     OW30463   3.611   3.121   3.780 -0.3096 -0.1344  0.1160
 6335SOL    HW130464   3.628   3.106   3.687 -0.1247  0.6958  0.0089
 6335SOL    HW230465   3.521   3.149   3.764 -0.0276  0.0808 -1.0421
 6336SOL     OW30466   1.968   0.657   6.002  0.1795  0.6325  0.1498
 6336SOL    HW130467   1.971   0.651   6.097  0.6138 -0.2989  0.0886
 6336SOL    HW230468   1.886   0.609   5.989  1.0443 -2.1266  4.9359
 6337SOL     OW30469   3.814   0.101  11.426  0.5758 -0.3197  0.0420
 6337SOL    HW130470   3.740   0.160  11.414  0.5443 -0.6776 -1.4228
 6337SOL    HW230471   3.859   0.129  11.346  0.3055  0.5088  0.1778
 6338SOL     OW30472   0.787   3.606   3.047 -0.1544 -0.4658  0.2749
 6338SOL    HW130473   0.875   3.591   3.012  0.2198  0.4004  0.8535
 6338SOL    HW230474   0.793   3.560   3.130  0.9792 -2.9298 -1.1759
 6339SOL     OW30475   4.374   3.476   5.638  0.5580  0.2456 -0.3753
 6339SOL    HW130476   4.467   3.458   5.626  0.8763  1.7688 -0.1398
 6339SOL    HW230477   4.378   3.505   5.729 -1.4792 -1.2663  0.2096
 6340SOL     OW30478   1.705   1.205   1.546 -0.5093 -0.0044  0.1940
 6340SOL    HW130479   1.753   1.288   1.554  1.0552 -0.6950 -1.9609
 6340SOL    HW230480   1.725   1.183   1.455 -0.2945  0.4325  0.1305
 6341SOL     OW30481   1.249   2.926   4.215 -0.3098  0.1648 -0.1884
 6341SOL    HW130482   1.200   2.853   4.253  1.0345 -0.0636  1.1294
 6341SOL    HW230483   1.312   2.942   4.286  0.1158 -0.3576 -0.4462
 6342SOL     OW30484   2.093   4.035  16.918 -0.0626 -0.3028 -0.4819
 6342SOL    HW130485   2.000   4.056  16.931 -0.8114 -2.9467 -1.6092
 6342SOL    HW230486   2.105   3.953  16.965  2.1096  0.3968  0.1702
 6343SOL     OW30487   0.835   3.310  16.389  0.0920 -0.0785 -0.4004
 6343SOL    HW130488   0.826   3.388  16.443 -1.9989 -1.4805  1.2520
 6343SOL    HW230489   0.865   3.352  16.308 -0.4647 -0.1179 -0.6289
 6344SOL     OW30490   2.311   4.658   2.801  0.1463  0.2817  0.8144
 6344SOL    HW130491   2.360   4.716   2.744  0.6155 -1.2664 -0.3313
 6344SOL    HW230492   2.342   4.574   2.771  0.2312  1.6929 -3.0046
 6345SOL     OW30493   2.643   4.317   3.878 -0.0009 -0.3968  0.2816
 6345SOL    HW130494   2.554   4.341   3.903 -0.3017 -0.6901 -0.4838
 6345SOL    HW230495   2.629   4.232   3.837  3.4584 -0.3342 -1.0410
 6346SOL     OW30496   4.321   3.302  14.549  0.8010  0.3134  0.4343
 6346SOL    HW130497   4.298   3.224  14.500  1.5982 -1.7710  3.3718
 6346SOL    HW230498   4.314   3.370  14.482 -1.1545 -0.2177  0.0911
 6347SOL     OW30499   3.429   2.354   2.967 -0.0487  0.0766  0.0747
 6347SOL    HW130500   3.463   2.399   2.889 -0.1193 -0.4465 -0.2524
 6347SOL    HW230501   3.374   2.289   2.924 -0.3793  1.5041 -1.7000
 6348SOL     OW30502   3.456   1.550   9.877  0.7419  0.5359  0.6113
 6348SOL    HW130503   3.418   1.622   9.928 -0.7542  0.9800 -1.1298
 6348SOL    HW230504   3.448   1.478   9.940 -1.1934  1.9384  1.9436
 6349SOL     OW30505   4.599   2.311  17.218 -0.3565 -0.0846  0.0998
 6349SOL    HW130506   4.557   2.225  17.214 -1.2103  0.3098  0.6560
 6349SOL    HW230507   4.661   2.308  17.145 -0.3226  1.2716  0.0706
 6350SOL     OW30508   1.950   2.079   0.985 -0.6134  0.1301 -0.0967
 6350SOL    HW130509   2.032   2.124   1.002 -0.2166 -0.7166  0.2114
 6350SOL    HW230510   1.885   2.139   1.022 -2.7888 -2.5488  0.4495
 6351SOL     OW30511   3.038   4.410   7.554 -0.2812  0.5926  0.2948
 6351SOL    HW130512   3.073   4.465   7.625  1.8696  2.0506 -1.8785
 6351SOL    HW230513   3.105   4.341   7.547 -0.6826  0.2726 -0.3870
 6352SOL     OW30514   4.357   2.887   0.542  0.7737  0.4256  0.1550
 6352SOL    HW130515   4.303   2.898   0.621  1.9041 -2.0239  1.2603
 6352SOL    HW230516   4.359   2.977   0.509  1.2889  0.1735 -0.5019
 6353SOL     OW30517   1.022   3.235   5.601  0.1639 -0.1897 -0.2216
 6353SOL    HW130518   0.927   3.247   5.595  0.3683  1.5451  0.1480
 6353SOL    HW230519   1.047   3.321   5.568  0.7062  0.1367  1.0233
 6354SOL     OW30520   1.574   1.493   4.029 -0.5159 -0.1436  0.3942
 6354SOL    HW130521   1.597   1.496   4.122  1.1717  1.3764 -0.0597
 6354SOL    HW230522   1.478   1.495   4.031 -0.5257  0.2563 -0.8072
 6355SOL     OW30523   4.412   2.032   5.662 -0.0075  0.6314  0.2893
 6355SOL    HW130524   4.394   2.069   5.748  0.3505  1.0449  0.1847
 6355SOL    HW230525   4.486   2.086   5.635 -0.6499  1.4007  0.0856
 6356SOL     OW30526   0.672   0.349   3.109 -0.0408  0.1397  0.0577
 6356SOL    HW130527   0.633   0.291   3.175  1.4310  2.3731  2.8787
 6356SOL    HW230528   0.635   0.435   3.129 -0.1088  0.3296 -0.9137
 6357SOL     OW30529   4.035   2.465   2.890  0.0966 -0.3039 -0.3750
 6357SOL    HW130530   4.005   2.428   2.807  1.1052 -1.8723 -0.0402
 6357SOL    HW230531   4.125   2.432   2.886  0.4766  0.5570  0.9732
 6358SOL     OW30532   0.434   2.347   6.730  0.1534  0.5025 -0.1638
 6358SOL    HW130533   0.489   2.376   6.657 -0.5377 -1.0821 -1.3187
 6358SOL    HW230534   0.445   2.252   6.717  0.9198  0.6855 -0.8328
 6359SOL     OW30535   2.273   1.741   7.625 -0.3563  0.4004  1.3273
 6359SOL    HW130536   2.274   1.676   7.695  0.8639  0.7483  1.6405
 6359SOL    HW230537   2.368   1.754   7.621 -0.1914 -0.8503  1.2398
 6360SOL     OW30538   1.300   1.844   5.981 -0.4050 -0.1809  0.1831
 6360SOL    HW130539   1.344   1.785   5.920 -3.5541 -1.7863 -0.5225
 6360SOL    HW230540   1.331   1.812   6.066 -0.3188  3.2469  1.4456
 6361SOL     OW30541   3.352   0.081   9.249 -0.5404  0.0657 -0.0791
 6361SOL    HW130542   3.437   0.106   9.287 -0.5906  0.2182 -0.0675
 6361SOL    HW230543   3.351   0.142   9.175  1.4976 -1.3230 -1.2333
 6362SOL     OW30544   2.988   2.892   3.048 -0.0382 -0.3602  0.1057
 6362SOL    HW130545   3.071   2.921   3.085  0.1098 -0.6461  0.0018
 6362SOL    HW230546   2.991   2.796   3.054 -1.2571 -0.3733  0.4862
 6363SOL     OW30547   2.820   0.907   3.702 -0.1328 -0.4550  0.2085
 6363SOL    HW130548   2.759   0.962   3.653  0.9742  0.1572 -0.5041
 6363SOL    HW230549   2.815   0.828   3.649 -2.2792 -0.2482  0.1140
 6364SOL     OW30550   0.672   1.716  10.928  0.6408 -0.2261  0.2704
 6364SOL    HW130551   0.620   1.731  10.849  0.3787  1.3101  0.7392
 6364SOL    HW230552   0.601   1.686  10.985  1.6461  0.8942  2.1113
 6365SOL     OW30553   2.350   3.438   9.264 -0.7279  0.2760  0.1574
 6365SOL    HW130554   2.316   3.361   9.310  1.3112 -0.8791 -0.2964
 6365SOL    HW230555   2.272   3.475   9.223 -1.0017 -1.5136 -0.9233
 6366SOL     OW30556   4.208   1.308  10.059 -0.1719 -0.2669 -0.2788
 6366SOL    HW130557   4.169   1.385  10.100  0.0816 -0.1301 -0.2969
 6366SOL    HW230558   4.200   1.235  10.121  1.8565 -0.7446 -0.5667
 6367SOL     OW30559   3.973   4.233   2.947  0.0020  0.4019 -0.0332
 6367SOL    HW130560   3.882   4.213   2.965 -0.1401  1.4451  0.3738
 6367SOL    HW230561   4.013   4.220   3.032 -0.1361  0.2661  0.0099
 6368SOL     OW30562   4.081   3.129   0.414 -0.0974 -0.4223 -0.3749
 6368SOL    HW130563   4.096   3.122   0.508 -1.5204  0.8535 -0.0482
 6368SOL    HW230564   4.164   3.160   0.377  0.6701 -1.4273  0.4869
 6369SOL     OW30565   0.531   1.358  16.897 -0.0868  0.4339 -0.2667
 6369SOL    HW130566   0.495   1.418  16.963 -0.7375  0.7496 -0.9128
 6369SOL    HW230567   0.484   1.391  16.821 -1.0849  0.5234  0.3966
 6370SOL     OW30568   0.526   0.873   4.471  0.2056  0.2794  0.2912
 6370SOL    HW130569   0.487   0.938   4.414 -1.1226 -0.4996  0.3221
 6370SOL    HW230570   0.579   0.841   4.398 -2.1924  0.8884 -1.6805
 6371SOL     OW30571   4.560   4.224   4.442 -0.1517 -0.4782  0.4266
 6371SOL    HW130572   4.602   4.148   4.484 -0.7283 -0.5830  0.8315
 6371SOL    HW230573   4.626   4.292   4.443  0.0703 -0.6929  0.3672
 6372SOL     OW30574   4.364   0.649  16.741  0.3379  0.2770 -0.7400
 6372SOL    HW130575   4.333   0.694  16.820 -0.5072 -1.4040 -0.0972
 6372SOL    HW230576   4.427   0.715  16.713  0.1322  0.4468 -0.7993
 6373SOL     OW30577   2.624   0.596   6.196  0.4662  0.0708 -0.1580
 6373SOL    HW130578   2.565   0.670   6.181 -0.1168 -0.6276 -1.3710
 6373SOL    HW230579   2.590   0.526   6.140  1.3951 -0.2241 -0.3522
 6374SOL     OW30580   4.721   4.318   9.214 -0.4700  0.8572 -0.5944
 6374SOL    HW130581   0.067   4.309   9.149 -0.9552  2.1598 -1.3049
 6374SOL    HW230582   4.645   4.344   9.162 -0.4288 -2.2756 -2.1874
 6375SOL     OW30583   0.954   1.860   4.408 -0.8359 -1.0771 -0.3373
 6375SOL    HW130584   0.889   1.911   4.455 -0.4840 -0.5571 -0.4053
 6375SOL    HW230585   0.931   1.875   4.316  0.1233 -2.1084 -0.7529
 6376SOL     OW30586   3.684   2.719   0.907 -0.2162 -0.0330 -0.2011
 6376SOL    HW130587   3.598   2.754   0.883  0.0659  0.8842  0.1168
 6376SOL    HW230588   3.682   2.624   0.896  3.0917  0.0781 -1.8095
 6377SOL     OW30589   4.325   3.913   2.391  0.0431  0.0819  0.2386
 6377SOL    HW130590   4.321   3.850   2.318 -1.1424  0.1061  0.2910
 6377SOL    HW230591   4.305   3.860   2.468  0.5525  0.3673  0.5677
 6378SOL     OW30592   0.084   4.600  12.623  0.4231  0.6801 -0.6069
 6378SOL    HW130593   0.177   4.604  12.644  0.2512 -0.4326  0.4332
 6378SOL    HW230594   0.054   4.556  12.703  0.5203 -0.1999 -1.0449
 6379SOL     OW30595   4.491   4.302   9.086 -0.3728  0.6719  0.4364
 6379SOL    HW130596   4.412   4.314   9.139 -0.6732 -0.6682  0.2941
 6379SOL    HW230597   4.466   4.226   9.034  2.6738  1.7625 -2.6095
 6380SOL     OW30598   0.455   2.158   0.185 -0.1011  0.0416 -0.9946
 6380SOL    HW130599   0.373   2.117   0.212  0.0917  1.8499  2.3784
 6380SOL    HW230600   0.414   2.234   0.145 -2.1624 -0.7015 -0.3054
 6381SOL     OW30601   0.128   4.536  10.327  0.5388 -0.4347  0.2196
 6381SOL    HW130602   0.179   4.564  10.403 -0.5981 -0.3875  0.9517
 6381SOL    HW230603   0.135   4.446  10.358  1.9796  0.3701  2.2568
 6382SOL     OW30604   0.168   2.770   6.407 -0.1729 -0.3650  0.0505
 6382SOL    HW130605   0.090   2.815   6.437  0.1402 -0.9848  1.7811
 6382SOL    HW230606   0.164   2.784   6.312 -0.9679  0.0332  0.1417
 6383SOL     OW30607   2.090   0.697   3.602 -0.2512  0.0444 -0.5890
 6383SOL    HW130608   2.040   0.777   3.616  1.3475  1.1870 -1.3647
 6383SOL    HW230609   2.172   0.733   3.568  0.6573 -1.3565  0.1101
 6384SOL     OW30610   3.287   3.692   4.308 -0.1210 -0.8584 -1.0306
 6384SOL    HW130611   3.293   3.606   4.350  1.1399  0.5450  1.7187
 6384SOL    HW230612   3.197   3.689   4.276 -0.2776  0.9858 -0.7612
 6385SOL     OW30613   0.989   1.934  16.708 -0.0877 -0.1057  0.0548
 6385SOL    HW130614   1.037   1.875  16.767  1.4170  1.0350 -0.0251
 6385SOL    HW230615   0.906   1.965  16.745 -1.8885 -0.8158 -3.3708
 6386SOL     OW30616   3.830   2.717  12.802  0.1011  0.2976 -0.1538
 6386SOL    HW130617   3.765   2.664  12.756  0.8378 -2.0242  1.5250
 6386SOL    HW230618   3.909   2.720  12.748  0.5024  1.2505  0.4830
 6387SOL     OW30619   3.576   3.521  11.698 -0.4731  0.0502  0.5494
 6387SOL    HW130620   3.633   3.567  11.759 -1.8880  0.9733  1.1890
 6387SOL    HW230621   3.498   3.508  11.753 -0.3039  0.6041  0.9145
 6388SOL     OW30622   1.753   4.424  13.349 -0.4659  0.7560  0.6009
 6388SOL    HW130623   1.811   4.348  13.357 -1.6253 -0.1812  0.2004
 6388SOL    HW230624   1.778   4.456  13.263  1.5017  0.5163  1.0965
 6389SOL     OW30625   0.270   3.907   0.956 -0.1529  0.6288 -0.2029
 6389SOL    HW130626   0.335   3.889   0.888 -0.6715  1.7564 -1.0011
 6389SOL    HW230627   0.186   3.921   0.913 -0.7293 -1.5690  0.1914
 6390SOL     OW30628   0.500   0.660   5.171 -0.1647  0.5832 -0.5096
 6390SOL    HW130629   0.514   0.749   5.139 -0.7497  1.0582  0.5403
 6390SOL    HW230630   0.530   0.614   5.093  1.8117 -2.2195  1.8490
 6391SOL     OW30631   1.749   0.164   3.803 -0.1088  0.0929 -0.0622
 6391SOL    HW130632   1.688   0.107   3.850  1.5068 -2.0088 -0.5402
 6391SOL    HW230633   1.780   0.215   3.879  1.4153 -1.0567  0.0849
 6392SOL     OW30634   2.819   0.933   9.438  0.2388  0.4579 -0.4216
 6392SOL    HW130635   2.904   0.898   9.411 -0.7068 -0.4734 -2.1686
 6392SOL    HW230636   2.765   0.881   9.379  0.9205  1.1236 -1.6379
 6393SOL     OW30637   4.644   2.912   2.814  0.3016  0.2187  0.0730
 6393SOL    HW130638   4.659   2.817   2.812 -0.3001  0.2378 -4.6395
 6393SOL    HW230639   4.693   2.935   2.893  2.4888  0.5876 -1.4204
 6394SOL     OW30640   2.072   2.750   8.516  0.1463 -0.1955 -0.2260
 6394SOL    HW130641   2.145   2.716   8.568 -0.5765 -1.0731  0.2182
 6394SOL    HW230642   2.114   2.805   8.450 -1.7557  1.9268  0.3159
 6395SOL     OW30643   0.265   3.845   5.493 -0.0619  0.2077 -1.2154
 6395SOL    HW130644   0.270   3.900   5.415 -1.2047 -2.0182 -2.8672
 6395SOL    HW230645   0.181   3.799   5.499  0.1809 -0.0303  0.5679
 6396SOL     OW30646   3.973   3.594   9.394 -0.4268  0.1639 -0.0643
 6396SOL    HW130647   4.036   3.613   9.464 -0.0025 -1.0080 -0.1278
 6396SOL    HW230648   4.034   3.600   9.320  1.2778  0.5319  1.3736
 6397SOL     OW30649   2.855   1.256   3.795 -0.0344  0.0438  0.5267
 6397SOL    HW130650   2.788   1.211   3.845 -0.0118 -0.1225  0.4055
 6397SOL    HW230651   2.850   1.195   3.722  2.7954 -0.5661  0.8534
 6398SOL     OW30652   1.118   4.131  16.969 -0.1827 -0.0039  0.0517
 6398SOL    HW130653   1.034   4.089  16.952 -0.2884  0.8914 -1.6014
 6398SOL    HW230654   1.170   4.057  16.938 -0.4180  1.2503 -3.2972
 6399SOL     OW30655   1.319   3.400   7.368  0.4484 -0.5431 -0.5202
 6399SOL    HW130656   1.404   3.379   7.408  0.1041 -1.7358 -0.4395
 6399SOL    HW230657   1.331   3.335   7.299 -1.5750 -0.1683 -1.2172
 6400SOL     OW30658   4.489   2.486   9.915  0.7456  0.0101  0.0266
 6400SOL    HW130659   4.536   2.418   9.867  2.1602  0.5178  0.6887
 6400SOL    HW230660   4.410   2.479   9.861  0.2875 -0.8514  0.8156
 6401SOL     OW30661   3.110   0.515   7.271  0.0015 -0.6068  0.0315
 6401SOL    HW130662   3.081   0.602   7.245  0.2516 -0.3399  0.6487
 6401SOL    HW230663   3.077   0.499   7.360  1.7084 -2.0053  0.4101
 6402SOL     OW30664   1.193   1.180   4.357  0.0090 -0.0161 -0.0672
 6402SOL    HW130665   1.100   1.176   4.335 -0.1408 -0.5087  0.6378
 6402SOL    HW230666   1.226   1.203   4.270  1.2558  1.0557  0.6769
 6403SOL     OW30667   1.132   1.838   8.759  0.2976  0.1389  0.1151
 6403SOL    HW130668   1.177   1.794   8.687 -0.0121  1.8157 -1.0972
 6403SOL    HW230669   1.155   1.930   8.749  3.0978 -0.6509 -0.7878
 6404SOL     OW30670   0.347   1.923   2.869 -0.2744 -0.4408 -0.6248
 6404SOL    HW130671   0.422   1.935   2.928 -1.6785 -0.3191  1.1313
 6404SOL    HW230672   0.364   1.997   2.811  2.3666 -0.3148  0.2629
 6405SOL     OW30673   2.453   4.026   3.080  0.6056  0.7210 -0.2197
 6405SOL    HW130674   2.516   3.969   3.125  1.9532  1.4497 -1.1815
 6405SOL    HW230675   2.477   4.113   3.111  1.4653  1.0213 -1.7186
 6406SOL     OW30676   0.828   1.887  11.502  0.2298  0.3187  0.5851
 6406SOL    HW130677   0.746   1.882  11.454  0.3118 -0.7992  0.5677
 6406SOL    HW230678   0.892   1.908  11.434  2.0858 -0.5871  2.0366
 6407SOL     OW30679   3.355   0.422   2.464  0.0004  0.3533 -0.3315
 6407SOL    HW130680   3.448   0.407   2.484  0.7023  2.2880 -2.1658
 6407SOL    HW230681   3.357   0.473   2.383  1.8234 -0.9874 -1.1332
 6408SOL     OW30682   0.028   2.816   3.728  0.2390  0.1600 -0.0072
 6408SOL    HW130683   4.717   2.849   3.810  0.9590 -1.3900  0.9258
 6408SOL    HW230684   0.101   2.768   3.766  0.3985  1.1048  0.8638
 6409SOL     OW30685   4.377   3.019   3.285  0.3359  0.4309  0.4829
 6409SOL    HW130686   4.287   3.038   3.311  0.6383  4.0157 -1.0240
 6409SOL    HW230687   4.383   3.025   3.190 -0.3138  0.2561  0.4320
 6410SOL     OW30688   1.389   4.416   6.838 -0.5414  0.3130 -0.1403
 6410SOL    HW130689   1.439   4.354   6.785 -0.2559  0.3072  0.1398
 6410SOL    HW230690   1.395   4.374   6.924  0.1979 -1.3096 -0.9795
 6411SOL     OW30691   1.094   0.992  16.441 -0.2575  0.3573  0.2788
 6411SOL    HW130692   1.023   0.969  16.380  0.1421  0.7755 -0.3464
 6411SOL    HW230693   1.065   1.066  16.495  2.3151  0.0616  2.0165
 6412SOL     OW30694   2.805   2.558  14.538 -0.1515 -0.0831 -0.1934
 6412SOL    HW130695   2.810   2.481  14.481  3.5787 -0.9971  1.3226
 6412SOL    HW230696   2.742   2.614  14.494  0.7926  2.1613  1.3389
 6413SOL     OW30697   2.990   2.612   5.140  0.0213 -0.8448  0.1566
 6413SOL    HW130698   2.923   2.544   5.151 -1.3390  0.2754 -1.1947
 6413SOL    HW230699   2.979   2.661   5.221  0.1142 -0.7031  0.0824
 6414SOL     OW30700   3.468   0.776   8.014  0.8029  0.2913  0.0696
 6414SOL    HW130701   3.424   0.801   7.933 -0.9202 -1.8198  0.3511
 6414SOL    HW230702   3.548   0.828   8.007  1.5187 -0.7368  0.6965
 6415SOL     OW30703   0.622   2.744   5.559 -0.1174  0.1349 -0.5734
 6415SOL    HW130704   0.661   2.712   5.640  0.7959  0.9782 -0.6844
 6415SOL    HW230705   0.615   2.664   5.508 -1.7882 -0.1708  0.1189
 6416SOL     OW30706   0.223   4.044  10.112  0.1972 -0.3746  0.5888
 6416SOL    HW130707   0.236   3.970  10.171  0.2266 -0.1632  0.8480
 6416SOL    HW230708   0.307   4.043  10.066 -0.7832 -2.4522 -1.1870
 6417SOL     OW30709   3.407   0.707   8.489 -0.0328 -0.1768 -0.1518
 6417SOL    HW130710   3.384   0.637   8.427  0.1665 -1.5040  1.2928
 6417SOL    HW230711   3.319   0.744   8.495  0.4452  0.7390  1.2298
 6418SOL     OW30712   2.826   1.505  11.718  0.4945  0.5350 -0.5621
 6418SOL    HW130713   2.750   1.562  11.729  0.6129  0.5504  0.1800
 6418SOL    HW230714   2.796   1.416  11.700 -0.2492  0.7481 -0.3771
 6419SOL     OW30715   2.518   2.046   6.539 -0.1010  0.0445 -0.0290
 6419SOL    HW130716   2.484   1.957   6.532 -1.5729  0.6353 -0.3758
 6419SOL    HW230717   2.461   2.092   6.601 -0.3529  0.9037 -0.8930
 6420SOL     OW30718   1.834   1.558   8.739 -0.1338  0.0766  0.0840
 6420SOL    HW130719   1.867   1.598   8.820 -1.3801  0.1207  0.5780
 6420SOL    HW230720   1.918   1.535   8.701  0.1855 -0.6903  1.2527
 6421SOL     OW30721   4.216   4.673   6.072 -0.2987 -0.0643  0.0693
 6421SOL    HW130722   4.273   0.024   6.061  0.1769 -0.3863  0.3400
 6421SOL    HW230723   4.201   4.650   5.980  3.3693  0.7583 -0.7410
 6422SOL     OW30724   1.389   1.824   5.538  0.2895 -0.3407 -0.0794
 6422SOL    HW130725   1.453   1.783   5.480  0.2166  0.8629 -1.0182
 6422SOL    HW230726   1.439   1.894   5.579  0.7029 -1.4474  1.3010
 6423SOL     OW30727   3.375   2.185   9.668 -0.4444  0.7408  0.1463
 6423SOL    HW130728   3.364   2.104   9.718  1.4127  1.4228  1.6713
 6423SOL    HW230729   3.449   2.224   9.715  0.0761 -0.6624  0.4900
 6424SOL     OW30730   1.304   4.539  17.529  0.5139  0.3140 -0.2447
 6424SOL    HW130731   1.254   4.542  17.447 -0.3971  0.7626  0.3279
 6424SOL    HW230732   1.389   4.566  17.495  0.4950  0.8553  0.1496
 6425SOL     OW30733   2.256   4.344  13.301 -0.3518  0.8288  0.0346
 6425SOL    HW130734   2.221   4.258  13.325 -0.6924  0.1383 -2.9315
 6425SOL    HW230735   2.185   4.404  13.321  0.2709  1.6905 -0.3679
 6426SOL     OW30736   2.007   3.185   8.377 -0.1919  0.2754 -0.1504
 6426SOL    HW130737   1.970   3.195   8.289 -0.8387 -0.2511  0.0525
 6426SOL    HW230738   1.961   3.110   8.416  2.1066 -1.2451 -0.3480
 6427SOL     OW30739   1.050   0.000  17.406 -0.0174  0.1038  0.0921
 6427SOL    HW130740   1.107   0.075  17.388  1.5349 -1.1343 -0.1275
 6427SOL    HW230741   1.054   4.713  17.501  1.0710 -1.4709 -0.1500
 6428SOL     OW30742   4.573   1.365   1.968  0.1658  0.1373  0.1074
 6428SOL    HW130743   4.486   1.402   1.976  1.0440  2.2325  0.0227
 6428SOL    HW230744   4.566   1.270   1.977 -1.0035  0.5335  3.6326
 6429SOL     OW30745   3.782   4.587   5.173 -0.4164  0.1181 -0.5710
 6429SOL    HW130746   3.737   4.520   5.224 -0.7573  1.5552  1.0494
 6429SOL    HW230747   3.704   4.633   5.143 -0.7322  1.5757  2.4118
 6430SOL     OW30748   1.390   1.380   5.942 -0.6240  0.2750 -0.2447
 6430SOL    HW130749   1.379   1.307   6.003 -4.0332  1.6881  0.7990
 6430SOL    HW230750   1.461   1.425   5.989 -0.2691 -0.4443 -0.0957
 6431SOL     OW30751   2.690   1.155   9.120 -0.0042  0.4767 -0.3904
 6431SOL    HW130752   2.672   1.211   9.044  1.1442 -1.2739 -1.9594
 6431SOL    HW230753   2.732   1.083   9.072 -0.4059 -0.3694  0.5154
 6432SOL     OW30754   3.780   1.661   1.546 -0.4252 -0.5453  0.0124
 6432SOL    HW130755   3.843   1.590   1.547 -0.5431 -0.6466  0.2495
 6432SOL    HW230756   3.701   1.609   1.536 -0.9547 -0.1724  2.1832
 6433SOL     OW30757   2.431   3.734   5.054 -0.4492 -0.1010 -0.1797
 6433SOL    HW130758   2.453   3.815   5.100 -1.2515 -0.3236  0.6043
 6433SOL    HW230759   2.490   3.734   4.979 -1.3579 -0.5879 -0.8994
 6434SOL     OW30760   2.424   2.163   5.532 -0.0393  0.6350 -0.0024
 6434SOL    HW130761   2.469   2.155   5.616 -1.7730  2.3799  1.0893
 6434SOL    HW230762   2.394   2.072   5.521 -3.2256  1.8105 -1.0095
 6435SOL     OW30763   2.802   3.641   6.414  0.5618 -0.2024  0.3398
 6435SOL    HW130764   2.776   3.551   6.434 -1.3853 -0.1840 -2.0927
 6435SOL    HW230765   2.741   3.689   6.469 -0.2094  0.3538 -1.0093
 6436SOL     OW30766   3.855   4.711   4.685  0.1181 -0.5601 -0.3674
 6436SOL    HW130767   3.909   4.641   4.647  0.9455 -0.9655  1.5258
 6436SOL    HW230768   3.823   4.661   4.760  1.6235  0.3457  0.8922
 6437SOL     OW30769   1.109   0.149   4.053  0.5822  0.3412 -0.3491
 6437SOL    HW130770   1.099   0.209   3.979  0.7909 -1.2956 -1.6933
 6437SOL    HW230771   1.171   0.197   4.109 -0.2659  1.1088 -0.0621
 6438SOL     OW30772   4.229   2.680   1.877 -0.1274 -0.6170  0.0747
 6438SOL    HW130773   4.149   2.667   1.927  1.1862 -4.2394  1.2333
 6438SOL    HW230774   4.210   2.641   1.792 -1.5494  0.7774 -0.2435
 6439SOL     OW30775   2.259   0.745   8.351 -0.4911  0.0291  0.0197
 6439SOL    HW130776   2.215   0.673   8.306 -0.8585 -0.5572  1.3206
 6439SOL    HW230777   2.232   0.827   8.310  1.7341 -0.2359 -2.0109
 6440SOL     OW30778   2.274   1.896   2.352 -0.6373  0.1784 -0.5788
 6440SOL    HW130779   2.185   1.917   2.322 -0.2201 -2.8600 -3.8672
 6440SOL    HW230780   2.265   1.810   2.393 -0.0307  0.0049 -0.8119
 6441SOL     OW30781   3.786   1.194   8.902  0.5869 -0.0699  0.3714
 6441SOL    HW130782   3.815   1.277   8.942 -1.1046  1.1085 -0.8642
 6441SOL    HW230783   3.744   1.222   8.821  0.2972  2.8419  1.4996
 6442SOL     OW30784   2.470   1.819  14.681 -0.1726 -0.4718  0.0618
 6442SOL    HW130785   2.446   1.911  14.687 -2.7691 -1.1182 -0.3958
 6442SOL    HW230786   2.559   1.842  14.654 -0.2717 -0.1011  0.0596
 6443SOL     OW30787   3.854   3.269   0.448 -0.4681 -0.1656 -0.3958
 6443SOL    HW130788   3.923   3.204   0.434  0.9593  1.0283  1.0775
 6443SOL    HW230789   3.859   3.312   0.363 -1.8604 -1.0931 -0.9466
 6444SOL     OW30790   2.898   0.031  14.785 -0.5912  0.2547  0.8940
 6444SOL    HW130791   2.846   0.075  14.718  1.8644  0.9087 -0.5496
 6444SOL    HW230792   2.955   0.103  14.813  1.1287 -1.8066  2.7247
 6445SOL     OW30793   4.461   1.166   5.217 -0.4602  0.5213 -0.1220
 6445SOL    HW130794   4.508   1.208   5.145  0.5646 -1.0199 -0.3449
 6445SOL    HW230795   4.407   1.236   5.255  0.8574  1.7779 -0.5677
 6446SOL     OW30796   2.692   3.487  16.050 -0.4069  0.2034  0.3713
 6446SOL    HW130797   2.748   3.502  15.974  0.7722  2.4834  1.6965
 6446SOL    HW230798   2.662   3.575  16.072  2.1187  1.3185 -0.6303
 6447SOL     OW30799   4.463   1.309   6.314 -0.3194 -0.9200  0.1141
 6447SOL    HW130800   4.539   1.265   6.277  1.4136  1.2095  1.1515
 6447SOL    HW230801   4.425   1.235   6.362 -2.2642 -1.7318 -2.7315
 6448SOL     OW30802   4.574   0.376   3.387 -0.5208 -0.1481 -0.2054
 6448SOL    HW130803   4.642   0.350   3.325  0.5313  3.4373 -0.5442
 6448SOL    HW230804   4.517   0.301   3.369 -0.6919 -0.0055 -0.2545
 6449SOL     OW30805   1.842   3.245   4.649 -0.0208  0.2467  0.2917
 6449SOL    HW130806   1.894   3.185   4.596 -0.9932  0.6623 -1.1252
 6449SOL    HW230807   1.855   3.214   4.738 -0.6768 -1.0691 -0.0758
 6450SOL     OW30808   4.058   0.973   5.216  0.1361 -0.1096  0.1193
 6450SOL    HW130809   4.121   0.956   5.146 -1.7330 -1.7064 -1.1551
 6450SOL    HW230810   3.989   0.999   5.154  0.9675 -0.7115 -1.0546
 6451SOL     OW30811   2.461   4.666   0.247 -0.5932 -0.0957  0.4011
 6451SOL    HW130812   2.456   4.642   0.154 -2.8159  0.8671  0.2666
 6451SOL    HW230813   2.516   4.596   0.282 -1.0513 -1.3356 -1.3464
 6452SOL     OW30814   2.716   4.221   5.690 -0.2823 -0.5279  0.2576
 6452SOL    HW130815   2.729   4.295   5.631  2.0372 -0.4743  0.8144
 6452SOL    HW230816   2.772   4.151   5.658  0.0185  0.1162 -0.6330
 6453SOL     OW30817   0.858   3.619   7.823  0.4987  0.4058 -0.0615
 6453SOL    HW130818   0.789   3.573   7.870 -0.3584  0.6803 -1.0469
 6453SOL    HW230819   0.914   3.642   7.896 -0.0494  1.0791  0.1491
 6454SOL     OW30820   1.341   3.228  14.586  0.1198 -0.1564  0.1122
 6454SOL    HW130821   1.306   3.314  14.607 -1.4482 -0.5697 -0.7832
 6454SOL    HW230822   1.390   3.257  14.509 -1.7540 -0.4095 -1.1890
 6455SOL     OW30823   0.309   3.696   9.034  0.6172 -0.6264 -0.5143
 6455SOL    HW130824   0.355   3.750   9.098  0.6965 -1.5332  0.1972
 6455SOL    HW230825   0.371   3.623   9.031  0.0954 -1.0428 -1.1051
 6456SOL     OW30826   3.024   0.448   7.544  0.0282  0.8761  0.2657
 6456SOL    HW130827   3.051   0.466   7.634 -0.0912  0.5995  0.3586
 6456SOL    HW230828   3.020   0.352   7.551  0.5681  0.8108 -0.4172
 6457SOL     OW30829   2.298   0.089   9.742  0.2593 -0.2678 -0.4291
 6457SOL    HW130830   2.261   0.172   9.771 -0.0107 -0.5630  0.0677
 6457SOL    HW230831   2.273   0.037   9.819  2.9929  0.8840  1.2192
 6458SOL     OW30832   2.217   0.315   2.818  0.5706 -0.6178 -0.0694
 6458SOL    HW130833   2.179   0.232   2.791  3.4438 -2.0928  0.4054
 6458SOL    HW230834   2.142   0.375   2.819  1.0717  0.0120  0.2939
 6459SOL     OW30835   3.205   1.138   2.194 -0.7671 -0.2508 -0.0136
 6459SOL    HW130836   3.301   1.143   2.201 -0.8489  1.6187 -0.0783
 6459SOL    HW230837   3.171   1.209   2.248 -0.8938  0.5510 -1.1521
 6460SOL     OW30838   0.177   1.794   5.837 -0.1405  0.3345 -0.0988
 6460SOL    HW130839   0.247   1.769   5.897 -0.1720 -1.1272 -0.6884
 6460SOL    HW230840   0.123   1.716   5.834  0.1459  0.0153  2.9981
 6461SOL     OW30841   2.394   3.938   8.549  0.2351  0.1070  0.4657
 6461SOL    HW130842   2.420   3.913   8.460 -0.4809 -0.4589  0.4159
 6461SOL    HW230843   2.321   3.996   8.527 -0.7490 -0.7547  1.4266
 6462SOL     OW30844   2.754   4.009  13.171 -0.6150 -0.3447 -0.3998
 6462SOL    HW130845   2.677   3.971  13.128 -1.3416  1.6951 -0.8652
 6462SOL    HW230846   2.782   4.069  13.102  3.2467 -0.1572  1.3709
 6463SOL     OW30847   0.718   2.108  10.464 -0.0640  0.2341 -0.1107
 6463SOL    HW130848   0.678   2.108  10.551  1.5365  1.1222  0.6246
 6463SOL    HW230849   0.641   2.087  10.412 -0.3242 -0.2384  0.4637
 6464SOL     OW30850   4.507   3.070   2.979 -0.1390  0.0434  0.0743
 6464SOL    HW130851   4.412   3.078   2.964 -0.4278  0.3935  2.1240
 6464SOL    HW230852   4.535   3.017   2.905 -0.0974 -1.1294  0.9327
 6465SOL     OW30853   3.311   2.467   7.454  0.0152 -0.4990  0.3963
 6465SOL    HW130854   3.235   2.483   7.510 -0.6762 -2.2260 -0.0460
 6465SOL    HW230855   3.347   2.555   7.440 -2.2345  0.4461  0.4608
 6466SOL     OW30856   4.427   1.439  14.758 -0.0678  0.0343 -0.7875
 6466SOL    HW130857   4.437   1.360  14.706  0.6449 -0.7105  0.4601
 6466SOL    HW230858   4.477   1.420  14.838 -0.3877  3.3071  0.1818
 6467SOL     OW30859   0.663   0.965   2.394  0.2841  0.0044  0.0222
 6467SOL    HW130860   0.747   0.965   2.440  0.5420  0.1596 -0.4509
 6467SOL    HW230861   0.683   0.954   2.301 -0.0156  2.4704 -0.3297
 6468SOL     OW30862   0.305   0.051  10.174 -0.0505  0.8154  0.5678
 6468SOL    HW130863   0.261   0.132  10.146  2.5497  2.4845  1.3301
 6468SOL    HW230864   0.318   0.082  10.263 -0.9868 -1.9123  1.6392
 6469SOL     OW30865   1.435   1.608  11.809 -0.1333 -0.2304 -0.0782
 6469SOL    HW130866   1.502   1.627  11.743  0.2377  2.0226  0.9273
 6469SOL    HW230867   1.495   1.606  11.885 -0.2437  0.0702  0.0199
 6470SOL     OW30868   1.847   2.958   2.322 -0.0103 -0.7087 -0.3771
 6470SOL    HW130869   1.866   2.932   2.232  1.1682 -0.5624 -0.1796
 6470SOL    HW230870   1.914   2.909   2.371  0.2349 -0.7191 -0.7198
 6471SOL     OW30871   2.388   0.532   6.407 -0.0379  0.4053  0.0246
 6471SOL    HW130872   2.330   0.469   6.450 -0.7787 -0.1204 -1.7261
 6471SOL    HW230873   2.380   0.487   6.322 -1.7455 -0.4527  0.6459
 6472SOL     OW30874   3.532   4.078   2.461 -0.3114 -0.5318  0.4554
 6472SOL    HW130875   3.497   4.125   2.536 -1.0914  1.1369 -0.9575
 6472SOL    HW230876   3.552   3.991   2.495  2.1602 -0.1630 -0.1052
 6473SOL     OW30877   4.358   2.184   5.249 -0.3223  0.7701  0.2355
 6473SOL    HW130878   4.310   2.102   5.266  0.7634  1.0405  4.6340
 6473SOL    HW230879   4.291   2.242   5.212  0.0349  0.5190 -0.7930
 6474SOL     OW30880   0.808   3.344   4.979 -0.0981 -0.4740 -0.3268
 6474SOL    HW130881   0.794   3.434   5.011 -1.8034 -0.4449 -1.1504
 6474SOL    HW230882   0.898   3.335   4.949 -0.0308  0.7420 -0.5113
 6475SOL     OW30883   0.034   4.418  15.915  0.0158 -0.0701 -0.4285
 6475SOL    HW130884   4.715   4.336  15.892 -3.4904  1.8602 -0.6929
 6475SOL    HW230885   0.056   4.448  15.827  2.7539  0.9464  0.6231
 6476SOL     OW30886   2.530   2.081   2.956  0.4339  0.2223 -0.1395
 6476SOL    HW130887   2.491   2.146   3.015  1.0561 -0.2525  0.7906
 6476SOL    HW230888   2.602   2.062   3.016  0.3985  0.8444  0.1016
 6477SOL     OW30889   2.649   2.272   6.457  0.2404  0.5184 -0.2239
 6477SOL    HW130890   2.720   2.275   6.521 -0.6721  1.2181  0.7535
 6477SOL    HW230891   2.603   2.190   6.476 -1.8281  1.5849 -0.6987
 6478SOL     OW30892   4.589   3.858  14.659 -0.2794 -0.1406  0.8650
 6478SOL    HW130893   4.497   3.883  14.650 -0.8866 -3.1078 -0.8650
 6478SOL    HW230894   4.592   3.848  14.754 -0.7018  0.5840  0.9559
 6479SOL     OW30895   2.915   3.545  13.362  0.3688 -0.0058  0.2307
 6479SOL    HW130896   2.863   3.619  13.331 -0.6142 -0.8991 -0.2206
 6479SOL    HW230897   2.851   3.475  13.378  0.8323 -0.0620  1.9158
 6480SOL     OW30898   3.613   1.663   4.391 -0.1437  0.1635 -0.2315
 6480SOL    HW130899   3.673   1.588   4.393  1.5129  1.5074 -0.2774
 6480SOL    HW230900   3.539   1.615   4.430 -1.2225  0.3396 -2.0540
 6481SOL     OW30901   1.337   0.290   0.569  0.1790 -0.1790 -0.1595
 6481SOL    HW130902   1.360   0.371   0.614 -2.3211  1.1592 -1.2740
 6481SOL    HW230903   1.258   0.329   0.532  0.7107  0.6952 -0.3739
 6482SOL     OW30904   0.935   4.696   6.308  0.3031  0.1539 -0.1275
 6482SOL    HW130905   0.951   4.681   6.215  0.7384  0.9422 -0.1760
 6482SOL    HW230906   0.897   4.611   6.328 -1.2594  0.8289 -0.2047
 6483SOL     OW30907   4.485   0.475   8.327  0.2052  0.7550  0.0089
 6483SOL    HW130908   4.482   0.393   8.377 -0.7539  0.9739  0.3219
 6483SOL    HW230909   4.574   0.499   8.350 -0.4668  3.9294 -0.7728
 6484SOL     OW30910   3.628   0.810   3.022  0.1856 -0.3651 -0.4016
 6484SOL    HW130911   3.575   0.749   3.073 -1.3397 -0.3316 -1.9655
 6484SOL    HW230912   3.557   0.863   2.985  1.0655  0.8765 -0.2982
 6485SOL     OW30913   1.186   0.934  17.003  0.5277 -0.4750 -0.3952
 6485SOL    HW130914   1.256   0.999  16.990 -1.1390  2.3467  4.6299
 6485SOL    HW230915   1.117   0.957  16.941  0.3953  1.4551  0.4613
 6486SOL     OW30916   1.298   3.200   2.942 -0.2717 -0.2493 -0.0673
 6486SOL    HW130917   1.319   3.135   3.009 -1.5716 -0.3625  0.2181
 6486SOL    HW230918   1.276   3.273   3.000  0.6737 -2.1916  2.7018
 6487SOL     OW30919   3.198   0.589   9.293  0.5345  0.3172  0.4007
 6487SOL    HW130920   3.254   0.520   9.329 -0.1143 -0.6469 -0.4527
 6487SOL    HW230921   3.117   0.545   9.317  0.2720  0.8972  0.5706
 6488SOL     OW30922   2.317   0.198   5.920 -0.4342  0.1207  0.1917
 6488SOL    HW130923   2.288   0.137   5.988 -0.4411 -0.7899 -0.6242
 6488SOL    HW230924   2.401   0.231   5.952 -0.5672 -0.6780  1.3442
 6489SOL     OW30925   0.576   2.968   3.075  0.0894 -0.0013  0.1759
 6489SOL    HW130926   0.535   2.997   2.994  0.2576 -0.4793 -0.0814
 6489SOL    HW230927   0.602   3.046   3.124 -1.8095 -0.0962  1.3319
 6490SOL     OW30928   3.355   2.197   4.834 -0.2395 -0.6576  0.1526
 6490SOL    HW130929   3.419   2.161   4.773 -0.2750  0.3154 -0.4577
 6490SOL    HW230930   3.339   2.288   4.809 -1.8738 -1.6194 -2.2818
 6491SOL     OW30931   3.235   2.311  13.552 -0.2809  0.7136 -0.0447
 6491SOL    HW130932   3.211   2.383  13.494 -0.1017 -0.2839 -1.3609
 6491SOL    HW230933   3.272   2.253  13.485  0.1028 -0.3564  1.1053
 6492SOL     OW30934   2.219   4.485   3.568  0.1490 -0.2713 -0.3654
 6492SOL    HW130935   2.151   4.519   3.627  0.4687  1.3240 -0.9017
 6492SOL    HW230936   2.235   4.559   3.509 -1.4450 -0.7037 -1.3182
 6493SOL     OW30937   3.681   4.365  10.150 -0.1495 -0.1375 -0.2660
 6493SOL    HW130938   3.743   4.299  10.119 -0.7813 -1.3728  1.1032
 6493SOL    HW230939   3.626   4.318  10.212  1.0829  1.7564  2.2471
 6494SOL     OW30940   2.213   1.259   8.635 -0.2069  0.0489  0.2123
 6494SOL    HW130941   2.301   1.268   8.599  0.0878  1.0545  1.1656
 6494SOL    HW230942   2.206   1.169   8.669 -1.6613  0.2935  0.5716
 6495SOL     OW30943   3.995   1.778   9.535 -0.0692  0.9178 -0.1690
 6495SOL    HW130944   3.987   1.786   9.630 -0.6113 -1.5396 -0.0146
 6495SOL    HW230945   4.050   1.699   9.527 -0.2813  0.7630 -0.0800
 6496SOL     OW30946   1.721   3.403   8.475  0.5457  0.5257 -0.2553
 6496SOL    HW130947   1.654   3.351   8.430 -0.3397  1.4716 -0.0200
 6496SOL    HW230948   1.706   3.373   8.565  0.5107 -1.1056 -0.8063
 6497SOL     OW30949   0.850   3.744   4.149 -0.1111 -0.1041 -0.4385
 6497SOL    HW130950   0.843   3.649   4.142 -0.5754 -0.2129  1.4481
 6497SOL    HW230951   0.904   3.751   4.228  0.7093  0.3999 -1.0423
 6498SOL     OW30952   3.105   3.391   9.220  0.0963  0.2796 -0.1356
 6498SOL    HW130953   3.100   3.389   9.315 -0.4947 -1.0294 -0.1972
 6498SOL    HW230954   3.066   3.477   9.204  1.7460  0.9418 -0.5463
 6499SOL     OW30955   4.299   1.280   9.807 -0.0964 -0.8021 -0.2864
 6499SOL    HW130956   4.282   1.302   9.899  1.1881 -0.9758 -0.0007
 6499SOL    HW230957   4.394   1.290   9.813 -0.0882 -1.8080  1.1385
 6500SOL     OW30958   0.020   0.078   5.665 -0.5564 -0.2909  0.0541
 6500SOL    HW130959   0.096   0.124   5.631  0.2327 -0.4630  1.5623
 6500SOL    HW230960   0.042   4.713   5.641  0.9919 -0.3665  1.7648
 6501SOL     OW30961   2.758   3.190   3.396 -0.6216 -0.3154 -0.3762
 6501SOL    HW130962   2.688   3.172   3.459 -1.0365  0.8172 -0.5207
 6501SOL    HW230963   2.769   3.105   3.353 -0.3186  0.1552 -1.2175
 6502SOL     OW30964   0.278   0.307   8.764 -0.3721 -0.1542  0.1247
 6502SOL    HW130965   0.259   0.399   8.745 -0.9907  0.0362  1.6390
 6502SOL    HW230966   0.251   0.316   8.855  0.1665 -2.8566  0.5330
 6503SOL     OW30967   0.135   1.675  11.985 -0.6333 -0.1691 -0.2479
 6503SOL    HW130968   0.203   1.671  11.917  1.1784  2.3238  1.3919
 6503SOL    HW230969   0.059   1.679  11.927 -1.9757  0.4839  1.5536
 6504SOL     OW30970   2.194   4.305   5.243 -0.1664  0.0995  0.2353
 6504SOL    HW130971   2.134   4.303   5.318  0.7663  1.6585  1.0237
 6504SOL    HW230972   2.203   4.399   5.230  1.2240 -0.0450  0.2098
 6505SOL     OW30973   4.516   0.786  11.326  0.2758 -0.1061 -0.2316
 6505SOL    HW130974   4.439   0.751  11.281  1.1057 -1.5002 -0.5576
 6505SOL    HW230975   4.523   0.872  11.283 -0.0545  0.1650  0.2530
 6506SOL     OW30976   0.731   4.593   4.716 -0.1270  0.0892  0.0655
 6506SOL    HW130977   0.785   4.582   4.794  1.2515  2.5815 -0.5697
 6506SOL    HW230978   0.673   4.520   4.738  0.0798  0.0452  0.4692
 6507SOL     OW30979   0.458   1.401  10.893  0.2119 -0.0733  0.2687
 6507SOL    HW130980   0.408   1.445  10.825  0.7426  1.2030  0.6830
 6507SOL    HW230981   0.403   1.324  10.906 -1.1343  0.6177 -1.4209
 6508SOL     OW30982   2.627   0.365   4.718 -1.0596 -0.0355 -0.2014
 6508SOL    HW130983   2.669   0.361   4.633 -2.6024 -1.6014 -0.9085
 6508SOL    HW230984   2.607   0.458   4.718  0.0587  0.2137  2.4891
 6509SOL     OW30985   2.024   0.237  15.913 -0.5668 -0.1365 -0.5527
 6509SOL    HW130986   2.041   0.304  15.980  0.4627  1.1255 -2.0668
 6509SOL    HW230987   1.944   0.271  15.873 -0.0937  1.2919 -0.2690
 6510SOL     OW30988   3.283   0.230  12.642 -0.4145  0.3399  0.5448
 6510SOL    HW130989   3.334   0.300  12.684  3.1593 -1.9782  0.1173
 6510SOL    HW230990   3.220   0.282  12.594  1.3219 -0.4582 -2.6004
 6511SOL     OW30991   2.529   1.422  16.392  0.3580 -0.2641  0.1935
 6511SOL    HW130992   2.603   1.452  16.340 -0.7056  1.6583 -0.2026
 6511SOL    HW230993   2.458   1.468  16.348  0.7569  0.4845  0.3379
 6512SOL     OW30994   2.626   4.093   4.250  0.3434  0.2857  0.1429
 6512SOL    HW130995   2.714   4.129   4.249  0.2758  0.5033  1.9010
 6512SOL    HW230996   2.588   4.123   4.333 -0.7749 -1.5323  0.2879
 6513SOL     OW30997   0.140   1.835   3.263  0.6317 -0.0208  0.2627
 6513SOL    HW130998   0.055   1.793   3.250  0.0382  1.3996 -0.4612
 6513SOL    HW230999   0.205   1.767   3.246 -1.1112 -1.9999  1.4437
 6514SOL     OW31000   4.054   4.312   7.621  0.4282 -0.2185  0.2626
 6514SOL    HW131001   4.132   4.348   7.579  0.0618  2.6351  2.0440
 6514SOL    HW231002   4.104   4.272   7.691  0.8534  0.1614  0.1720
 6515SOL     OW31003   2.483   1.593   4.747 -0.2209 -0.4198 -0.5823
 6515SOL    HW131004   2.575   1.594   4.724  0.0639 -1.8047  0.4669
 6515SOL    HW231005   2.463   1.683   4.773  1.7633 -0.2390  0.3408
 6516SOL     OW31006   1.760   2.730   3.684  0.5396 -0.0385  0.6742
 6516SOL    HW131007   1.674   2.718   3.724  0.5486  3.3750  1.7299
 6516SOL    HW231008   1.815   2.669   3.734  0.9887 -0.8741 -0.8404
 6517SOL     OW31009   1.589   2.603   0.393 -0.0237  0.3518 -0.2086
 6517SOL    HW131010   1.678   2.573   0.376 -0.1291  0.2352 -0.5600
 6517SOL    HW231011   1.586   2.626   0.486  0.9559 -0.0782 -0.0694
 6518SOL     OW31012   1.925   3.116   1.563  0.0862 -0.5353 -0.1492
 6518SOL    HW131013   1.878   3.197   1.584 -0.1089 -0.7666  0.3078
 6518SOL    HW231014   1.979   3.148   1.491 -0.0693  1.0401  0.4344
 6519SOL     OW31015   3.330   3.735   8.806 -0.2752 -0.0943 -0.0488
 6519SOL    HW131016   3.409   3.778   8.839  0.3147  0.6376 -2.4535
 6519SOL    HW231017   3.296   3.686   8.882 -1.9844  1.4269  0.1864
 6520SOL     OW31018   0.590   1.631   5.551 -0.2589  0.3282 -0.4360
 6520SOL    HW131019   0.539   1.605   5.627  0.4884  0.0351 -0.0354
 6520SOL    HW231020   0.570   1.721   5.526 -1.4296  0.5019  1.1316
 6521SOL     OW31021   2.842   0.491  13.914  0.0359 -0.6417 -0.6530
 6521SOL    HW131022   2.895   0.434  13.971  2.3131  2.6931  0.5477
 6521SOL    HW231023   2.822   0.424  13.848 -1.7636 -0.5023 -0.2390
 6522SOL     OW31024   3.255   2.446   5.545  0.3809  0.2330 -0.0401
 6522SOL    HW131025   3.264   2.420   5.637 -0.3433  0.8776  0.2078
 6522SOL    HW231026   3.162   2.422   5.547  0.3496  0.3616  0.0365
 6523SOL     OW31027   4.208   3.816   2.956 -0.1036  0.0928  0.7197
 6523SOL    HW131028   4.247   3.779   3.036  1.9819 -0.0960 -0.3649
 6523SOL    HW231029   4.174   3.895   2.996 -0.1874  0.6041 -0.3559
 6524SOL     OW31030   3.885   1.956   5.691 -0.0326 -0.1359  0.1369
 6524SOL    HW131031   3.855   2.007   5.615  0.2411  2.3771  1.7033
 6524SOL    HW231032   3.979   1.972   5.681 -0.1056 -0.3934 -0.9483
 6525SOL     OW31033   2.460   4.299  12.622 -0.1499 -0.2561 -0.3220
 6525SOL    HW131034   2.486   4.388  12.644  0.0563 -0.9693  2.3345
 6525SOL    HW231035   2.539   4.247  12.638 -0.3717 -0.6259 -0.4274
 6526SOL     OW31036   3.172   2.049  14.166  0.2411 -0.0838  0.8193
 6526SOL    HW131037   3.167   1.969  14.114 -1.3255  1.8707 -1.9696
 6526SOL    HW231038   3.142   2.122  14.112 -2.2213 -0.7461  1.2868
 6527SOL     OW31039   3.310   4.073  16.146 -0.5402  0.3272  0.1041
 6527SOL    HW131040   3.221   4.069  16.109  0.2085  0.3205 -1.6986
 6527SOL    HW231041   3.318   4.050  16.238 -1.0858 -0.5659 -0.0675
 6528SOL     OW31042   1.388   4.438   0.213 -0.0184  0.1193  0.6147
 6528SOL    HW131043   1.471   4.459   0.257  0.1071  2.0507 -0.5165
 6528SOL    HW231044   1.430   4.409   0.131  1.9494  2.8395  0.6364
 6529SOL     OW31045   1.290   0.973  10.146  0.2294 -0.1426  0.3134
 6529SOL    HW131046   1.324   0.961  10.235  0.8334  1.8041  0.3276
 6529SOL    HW231047   1.317   0.890  10.106 -1.0793 -1.5982  2.4362
 6530SOL     OW31048   3.398   1.863   1.971 -0.0378  0.3503 -0.5778
 6530SOL    HW131049   3.326   1.925   1.985  1.3642  2.4341 -2.7907
 6530SOL    HW231050   3.474   1.917   1.950 -0.8445  1.1609 -1.4087
 6531SOL     OW31051   3.175   0.090  13.219  0.1023 -0.0791 -0.1726
 6531SOL    HW131052   3.114   0.073  13.291  1.1671 -1.8548  0.3273
 6531SOL    HW231053   3.141   0.155  13.158 -0.9481 -1.8844 -1.5049
 6532SOL     OW31054   1.097   2.018   5.358  0.0864  0.4326 -0.5880
 6532SOL    HW131055   1.064   2.022   5.448  0.4624 -2.2832 -0.3171
 6532SOL    HW231056   1.136   2.104   5.346 -0.8153  0.8544 -0.5029
 6533SOL     OW31057   0.143   3.594   1.431 -0.0756 -0.7407 -0.3835
 6533SOL    HW131058   0.234   3.623   1.424  0.0479 -0.5444  1.7857
 6533SOL    HW231059   0.095   3.677   1.438 -1.3950 -1.4531 -1.0959
 6534SOL     OW31060   2.642   0.606  14.375  0.2848  0.0450  0.1252
 6534SOL    HW131061   2.576   0.545  14.409  0.3877 -1.2762 -2.0501
 6534SOL    HW231062   2.708   0.600  14.444  0.0133  1.0883  0.4729
 6535SOL     OW31063   0.111   3.579   7.404 -0.6865 -0.3026 -0.1043
 6535SOL    HW131064   0.071   3.499   7.369  0.3652 -0.4669 -0.9330
 6535SOL    HW231065   0.080   3.585   7.495 -0.3740  0.7700 -0.0679
 6536SOL     OW31066   4.132   2.525   3.543 -0.2722 -0.1857 -0.7858
 6536SOL    HW131067   4.109   2.538   3.635  0.6185 -0.2432 -0.5532
 6536SOL    HW231068   4.048   2.538   3.499 -0.4079 -2.6176 -1.2237
 6537SOL     OW31069   1.068   2.207   6.982 -0.0769  0.0792  0.1384
 6537SOL    HW131070   1.019   2.259   7.046 -0.6593 -1.7924  1.1875
 6537SOL    HW231071   1.151   2.211   7.029 -0.1351  0.7615  0.1930
 6538SOL     OW31072   2.947   3.840   5.112  0.2143  0.3885  0.4654
 6538SOL    HW131073   2.972   3.927   5.080  1.2320 -0.6297 -1.4737
 6538SOL    HW231074   3.034   3.813   5.140 -0.4566 -0.1533  2.0195
 6539SOL     OW31075   0.250   2.681   4.123 -0.0735 -0.2653  0.2903
 6539SOL    HW131076   0.155   2.688   4.114 -0.1039 -0.9168  0.1036
 6539SOL    HW231077   0.278   2.756   4.175  1.4715  0.2413 -1.3050
 6540SOL     OW31078   1.553   4.662   6.114  0.2012 -0.2732  0.1591
 6540SOL    HW131079   1.458   4.649   6.124  0.1386 -0.4594 -0.6147
 6540SOL    HW231080   1.567   0.023   6.156  0.4309 -0.6138  0.7635
 6541SOL     OW31081   2.877   1.818   6.112 -0.0155 -0.5343 -0.3463
 6541SOL    HW131082   2.870   1.875   6.189  0.2383 -1.5182  0.4017
 6541SOL    HW231083   2.788   1.782   6.114  0.0110 -0.6367 -0.9559
 6542SOL     OW31084   0.152   3.653  17.053 -0.3676 -0.3387  0.1845
 6542SOL    HW131085   0.144   3.558  17.064  1.7153 -0.3942  1.1960
 6542SOL    HW231086   0.069   3.694  17.027  0.0002 -0.0634 -0.5280
 6543SOL     OW31087   4.008   3.124   9.315 -0.3412 -0.1098 -0.0144
 6543SOL    HW131088   3.944   3.077   9.262 -0.7487 -0.4636  0.7913
 6543SOL    HW231089   3.980   3.097   9.403 -1.9243 -1.1381 -0.8436
 6544SOL     OW31090   0.225   2.389  15.493 -0.7613 -0.0406  0.0273
 6544SOL    HW131091   0.198   2.481  15.498 -0.8078  0.0386 -1.4983
 6544SOL    HW231092   0.313   2.386  15.531 -1.5848  1.3246  2.0101
 6545SOL     OW31093   3.376   2.240   2.699  0.4860 -0.1443  0.0919
 6545SOL    HW131094   3.310   2.171   2.701  1.2880 -0.9474 -1.2018
 6545SOL    HW231095   3.363   2.276   2.612  2.2121  0.7321  0.2068
 6546SOL     OW31096   0.299   3.106   6.051  0.7621 -0.4547  0.0689
 6546SOL    HW131097   0.369   3.164   6.019  0.2105 -0.7278 -1.6662
 6546SOL    HW231098   0.264   3.159   6.123 -1.3037 -0.0064 -1.2816
 6547SOL     OW31099   0.139   2.821   7.822 -0.0649 -0.1764  0.1763
 6547SOL    HW131100   0.095   2.779   7.748  0.9268 -0.6091 -0.1576
 6547SOL    HW231101   0.215   2.764   7.836 -0.3595 -0.4654  0.6111
 6548SOL     OW31102   1.645   3.548   3.207 -0.0113  0.5173  0.1088
 6548SOL    HW131103   1.718   3.562   3.147 -0.1204  1.2573  0.1489
 6548SOL    HW231104   1.593   3.627   3.191  1.0616  1.0726 -0.6607
 6549SOL     OW31105   3.707   0.862   8.270 -0.3040  0.2237  0.2482
 6549SOL    HW131106   3.735   0.774   8.296  1.3112 -0.7021 -4.7917
 6549SOL    HW231107   3.721   0.862   8.176 -1.2510 -0.3494  0.1012
 6550SOL     OW31108   2.885   2.879   4.444  0.2692 -0.2689 -0.5391
 6550SOL    HW131109   2.932   2.807   4.487 -0.4327 -0.6056 -0.3328
 6550SOL    HW231110   2.796   2.846   4.446 -0.8193  2.6517 -0.6376
 6551SOL     OW31111   1.889   0.876   0.912 -0.3793  0.5962  0.2667
 6551SOL    HW131112   1.819   0.914   0.859 -0.8824 -0.5657  0.0799
 6551SOL    HW231113   1.874   0.781   0.908 -0.3993  0.5298  1.7911
 6552SOL     OW31114   1.471   3.493   9.141 -0.5964 -0.2166 -0.2639
 6552SOL    HW131115   1.415   3.543   9.200 -1.3924 -1.4626  0.0403
 6552SOL    HW231116   1.513   3.568   9.100 -3.4442  1.9988  0.8603
 6553SOL     OW31117   3.283   3.998   8.991 -0.3945 -0.0043  0.3854
 6553SOL    HW131118   3.368   3.962   8.964 -0.4577 -0.6085  0.9947
 6553SOL    HW231119   3.321   4.044   9.066 -0.4874 -1.6152  1.4260
 6554SOL     OW31120   2.398   1.384   1.347 -0.0513  0.7687 -0.3507
 6554SOL    HW131121   2.464   1.400   1.414 -0.6311  1.0029  0.1644
 6554SOL    HW231122   2.316   1.385   1.397 -0.2937  3.4492 -0.7896
 6555SOL     OW31123   2.344   3.239   2.536 -0.0897 -0.7804  0.3616
 6555SOL    HW131124   2.272   3.229   2.598 -0.2836 -1.4328  0.0430
 6555SOL    HW231125   2.299   3.255   2.453 -0.6227  0.3376  0.8716
 6556SOL     OW31126   4.566   2.032   4.899  0.1920 -0.1543 -0.2922
 6556SOL    HW131127   4.539   1.954   4.947 -0.5666  1.0166  1.1842
 6556SOL    HW231128   4.659   2.018   4.917  0.4394  0.0415 -1.4155
 6557SOL     OW31129   4.530   4.356  16.108  0.0143  0.4675 -0.6110
 6557SOL    HW131130   4.483   4.357  16.024  0.3538 -0.0063 -0.8052
 6557SOL    HW231131   4.498   4.440  16.141  0.9288 -0.1399  1.8342
 6558SOL     OW31132   4.256   1.714   9.205  0.6103 -0.0810 -0.3836
 6558SOL    HW131133   4.334   1.761   9.236  1.1996 -1.5708  0.3539
 6558SOL    HW231134   4.245   1.658   9.281  0.4419  3.8230  2.5024
 6559SOL     OW31135   0.496   0.492  10.920 -0.3519  0.0445  0.3317
 6559SOL    HW131136   0.558   0.432  10.960  0.2213  0.6578  0.3656
 6559SOL    HW231137   0.492   0.562  10.985 -1.1258  0.4386 -0.1430
 6560SOL     OW31138   3.784   2.129   8.423  0.2968 -0.2134 -0.1920
 6560SOL    HW131139   3.823   2.050   8.458  1.6878  1.0688  1.1580
 6560SOL    HW231140   3.707   2.139   8.479  1.2102  3.1485  0.4945
 6561SOL     OW31141   2.884   2.922   3.997 -0.1430 -0.1335 -0.4266
 6561SOL    HW131142   2.934   2.885   4.071 -0.1359  0.8754  0.0705
 6561SOL    HW231143   2.948   2.986   3.966  1.5955 -1.9037 -0.4936
 6562SOL     OW31144   0.575   4.674   2.013 -0.0978 -0.5909  0.1543
 6562SOL    HW131145   0.662   4.710   1.996 -0.9969  2.0164  1.1667
 6562SOL    HW231146   0.526   0.024   2.047  1.3130  0.7828 -0.7702
 6563SOL     OW31147   0.866   0.314  14.917  0.2561  0.0648  0.0211
 6563SOL    HW131148   0.840   0.394  14.872  0.7109  0.9689  1.3708
 6563SOL    HW231149   0.957   0.306  14.889  0.3316 -1.3729  0.6602
 6564SOL     OW31150   1.446   1.825  10.236  0.4116 -0.3881 -0.5270
 6564SOL    HW131151   1.524   1.871  10.267 -0.3879  0.1289  0.7003
 6564SOL    HW231152   1.448   1.743  10.285 -1.9147 -0.6267 -0.8461
 6565SOL     OW31153   4.116   3.701   5.788 -0.4683  0.7579 -0.2784
 6565SOL    HW131154   4.182   3.634   5.807 -0.9747  0.3502  0.0430
 6565SOL    HW231155   4.096   3.712   5.881  4.5538 -1.1689  0.9884
 6566SOL     OW31156   1.061   2.200   3.370  0.2426  0.0778 -0.0876
 6566SOL    HW131157   1.053   2.196   3.465 -0.9696 -1.5019 -0.2627
 6566SOL    HW231158   1.032   2.290   3.357  0.7343  0.5217  1.7979
 6567SOL     OW31159   1.574   3.649   2.656  0.8171  0.0212  0.2814
 6567SOL    HW131160   1.648   3.612   2.703  1.6877  0.7576 -0.5006
 6567SOL    HW231161   1.533   3.698   2.727  0.3670 -2.8478  2.0173
 6568SOL     OW31162   0.790   1.965   0.607 -0.2292 -0.3046  0.7178
 6568SOL    HW131163   0.827   1.964   0.518 -0.4996 -0.9475  0.6138
 6568SOL    HW231164   0.766   2.057   0.595  1.7239  0.0683 -0.4726
 6569SOL     OW31165   3.572   1.998  12.130  0.0909 -0.3075  0.3838
 6569SOL    HW131166   3.548   2.069  12.190  1.8874  0.4887  0.1571
 6569SOL    HW231167   3.592   2.045  12.049  0.2926 -1.5265 -0.2758
 6570SOL     OW31168   3.853   1.860   0.638  0.2130 -0.6407 -0.2265
 6570SOL    HW131169   3.806   1.943   0.645  1.9333  0.0908  2.5619
 6570SOL    HW231170   3.787   1.791   0.650  0.5064 -1.0896 -1.1888
 6571SOL     OW31171   4.157   0.045   4.217  0.5424 -0.2253 -0.2107
 6571SOL    HW131172   4.236   4.722   4.244  0.9517  0.5750  0.0093
 6571SOL    HW231173   4.091   4.699   4.213  0.3561 -0.0806  0.3085
 6572SOL     OW31174   0.159   0.350   9.020 -0.1937 -0.1717 -0.4376
 6572SOL    HW131175   0.101   0.424   9.039  1.3773  1.2414 -1.1543
 6572SOL    HW231176   0.108   0.274   9.049  1.0698 -1.7616 -2.3888
 6573SOL     OW31177   4.541   1.087  16.426 -0.3563 -0.2321  0.0350
 6573SOL    HW131178   4.473   1.049  16.482  0.7633  0.5118  1.8773
 6573SOL    HW231179   4.507   1.176  16.413 -1.5439 -0.5902  0.6325
 6574SOL     OW31180   1.563   3.909   5.751 -0.1011 -0.6815 -0.4447
 6574SOL    HW131181   1.478   3.904   5.794  0.0330 -1.7039 -0.3141
 6574SOL    HW231182   1.570   3.819   5.719 -1.0054 -0.3357 -1.5942
 6575SOL     OW31183   2.756   0.254   8.325  0.4515  0.5274  0.6486
 6575SOL    HW131184   2.695   0.283   8.392 -0.3866 -0.8818  0.5013
 6575SOL    HW231185   2.826   0.231   8.387 -0.0577  1.1574  1.4509
 6576SOL     OW31186   2.065   4.087   2.328  0.3078 -0.1342  0.1883
 6576SOL    HW131187   2.142   4.087   2.271  0.0147 -1.0703 -0.2074
 6576SOL    HW231188   2.099   4.088   2.418  1.1875 -0.7814 -0.1297
 6577SOL     OW31189   2.823   1.818   7.341 -0.0791  0.3154  0.4190
 6577SOL    HW131190   2.820   1.908   7.308  2.7934 -0.0754 -0.9045
 6577SOL    HW231191   2.915   1.801   7.360  0.2077  0.4116 -0.8870
 6578SOL     OW31192   4.619   4.501   2.743  0.2400 -0.5056  0.1683
 6578SOL    HW131193   4.707   4.464   2.729  0.8801  1.1780 -0.2851
 6578SOL    HW231194   4.574   4.455   2.673 -2.1801  0.6256  0.9964
 6579SOL     OW31195   0.988   4.541   5.728 -0.2341  0.4177  0.3654
 6579SOL    HW131196   0.914   4.582   5.774 -0.3260  0.5901  0.0647
 6579SOL    HW231197   0.942   4.501   5.654  0.4000 -0.5438  0.4871
 6580SOL     OW31198   2.151   2.528   2.912  0.4811 -0.1175  0.2208
 6580SOL    HW131199   2.246   2.537   2.906  0.3500  1.0693  0.0229
 6580SOL    HW231200   2.152   2.432   2.905 -0.5582 -0.1828  1.0459
 6581SOL     OW31201   2.375   3.549   8.060  0.3054  0.5095  0.2083
 6581SOL    HW131202   2.374   3.581   7.970 -1.0799  1.0065  0.3955
 6581SOL    HW231203   2.468   3.525   8.066  0.1757 -0.0313  0.0691
 6582SOL     OW31204   1.168   4.146   7.449 -0.1322  0.4261 -0.1097
 6582SOL    HW131205   1.163   4.059   7.410  1.8452  1.7772 -3.3275
 6582SOL    HW231206   1.241   4.135   7.511 -0.9974 -0.1061  0.8244
 6583SOL     OW31207   1.016   0.747   0.529 -0.0564  0.5364  0.2011
 6583SOL    HW131208   0.958   0.819   0.504 -1.2064 -1.7949 -3.7653
 6583SOL    HW231209   0.969   0.669   0.503 -0.4583  0.8013  0.1372
 6584SOL     OW31210   1.990   0.245  11.777  0.1902 -0.1116  0.6337
 6584SOL    HW131211   1.948   0.238  11.691  0.3211 -1.4373  0.6715
 6584SOL    HW231212   2.004   0.339  11.775 -2.4174  0.2758  0.2791
 6585SOL     OW31213   4.114   3.614  12.528  0.3277  0.0157  0.0553
 6585SOL    HW131214   4.119   3.622  12.623  0.6817 -0.5726  0.0915
 6585SOL    HW231215   4.208   3.610  12.509  0.1943 -0.5247 -0.5223
 6586SOL     OW31216   0.520   0.242  10.640  0.1353 -0.1099  0.3078
 6586SOL    HW131217   0.609   0.245  10.605 -0.2924 -2.0452 -0.9225
 6586SOL    HW231218   0.496   0.334  10.652 -0.5139  0.2379 -3.5774
 6587SOL     OW31219   3.975   0.876   0.659  0.1403 -0.3985  0.0401
 6587SOL    HW131220   3.920   0.809   0.619  1.3547 -2.0003  1.0987
 6587SOL    HW231221   4.053   0.874   0.603 -0.2297  3.1027 -0.6429
 6588SOL     OW31222   2.373   0.939  14.163 -0.0122  0.0363 -0.0425
 6588SOL    HW131223   2.336   0.971  14.081  0.3268 -1.0111 -0.6004
 6588SOL    HW231224   2.455   0.897  14.139  0.4887  0.1884  1.3748
 6589SOL     OW31225   2.610   2.857   3.566 -0.5457  0.5702  0.3822
 6589SOL    HW131226   2.616   2.952   3.558  0.7788  0.1741 -3.1809
 6589SOL    HW231227   2.664   2.830   3.640  1.9388  1.5439 -1.0700
 6590SOL     OW31228   2.673   0.173  11.917 -0.3503 -0.0667  0.9521
 6590SOL    HW131229   2.729   0.238  11.958 -0.6718  0.9878 -0.2808
 6590SOL    HW231230   2.677   0.192  11.823 -0.0701  1.6441  1.3093
 6591SOL     OW31231   3.064   0.854   9.277  0.1062  0.0388 -0.4838
 6591SOL    HW131232   3.116   0.932   9.295 -1.1425  0.4210  1.4554
 6591SOL    HW231233   3.106   0.795   9.340  1.1545  2.4525  1.0739
 6592SOL     OW31234   3.109   4.230   4.616  0.2434  0.0084  0.1918
 6592SOL    HW131235   3.172   4.268   4.677 -1.0969  1.4423  0.7070
 6592SOL    HW231236   3.042   4.184   4.665  0.1456 -0.5901 -0.5059
 6593SOL     OW31237   0.346   1.083  14.678 -0.0794  0.1895  0.1263
 6593SOL    HW131238   0.404   1.009  14.660 -0.1480 -0.3245  2.0074
 6593SOL    HW231239   0.364   1.107  14.769 -1.2941  0.1738  0.3782
 6594SOL     OW31240   1.390   4.167   3.314 -0.5082 -0.5044  0.3106
 6594SOL    HW131241   1.444   4.219   3.374  1.4156 -1.7246 -0.3772
 6594SOL    HW231242   1.399   4.082   3.356 -0.7505 -0.2555  0.8656
 6595SOL     OW31243   0.950   1.439   5.019  0.9245  0.2087  0.1099
 6595SOL    HW131244   0.945   1.517   4.964 -1.5307  1.5587  2.2716
 6595SOL    HW231245   0.891   1.375   4.979  1.9024 -0.3424 -0.4740
 6596SOL     OW31246   2.326   3.253   7.774 -0.5688  0.0651  0.5428
 6596SOL    HW131247   2.356   3.243   7.683 -2.3016 -0.5065  0.0426
 6596SOL    HW231248   2.413   3.267   7.813 -1.0457  2.1373  0.8906
 6597SOL     OW31249   3.321   3.753   4.894  0.4424 -0.5267  0.2181
 6597SOL    HW131250   3.368   3.715   4.968  0.1918  0.7364  1.0204
 6597SOL    HW231251   3.386   3.748   4.824  1.6467 -1.9287  1.4450
 6598SOL     OW31252   3.732   0.213  16.447 -0.6052 -0.1068 -0.6400
 6598SOL    HW131253   3.656   0.232  16.393 -0.4809 -3.0302 -1.8569
 6598SOL    HW231254   3.750   0.125  16.413 -0.6008 -0.7042  0.8826
 6599SOL     OW31255   4.449   3.713   6.150 -0.2686 -0.0819 -0.1983
 6599SOL    HW131256   4.449   3.789   6.208  2.3879 -0.3126  0.0785
 6599SOL    HW231257   4.442   3.648   6.220 -0.0649 -0.2626 -0.3477
 6600SOL     OW31258   4.396   1.384   8.882  0.3017  0.4157 -0.0696
 6600SOL    HW131259   4.479   1.336   8.891 -0.9236 -1.3831  1.6616
 6600SOL    HW231260   4.356   1.342   8.958  0.2056 -0.1803 -0.4490
 6601SOL     OW31261   1.144   0.216   4.319 -0.6315 -0.0506  0.9034
 6601SOL    HW131262   1.174   0.129   4.346 -1.0574 -0.1697  0.9955
 6601SOL    HW231263   1.053   0.196   4.298 -0.0083 -1.8917 -0.0052
 6602SOL     OW31264   1.936   4.502   9.648 -0.3206 -0.3782 -0.1485
 6602SOL    HW131265   1.985   4.434   9.694 -0.5887  0.2566  1.0854
 6602SOL    HW231266   1.899   4.539   9.728 -2.1322 -2.3359 -0.1072
 6603SOL     OW31267   2.723   0.820  17.673 -0.9231 -0.0277 -0.8539
 6603SOL    HW131268   2.649   0.824   0.034 -0.8322 -1.0500 -0.6784
 6603SOL    HW231269   2.789   0.804   0.041  0.4533  0.4084 -2.0884
 6604SOL     OW31270   0.398   0.066   3.146 -0.1162 -0.4995 -0.0062
 6604SOL    HW131271   0.360   0.100   3.065 -0.5835  0.4791  0.6284
 6604SOL    HW231272   0.402   4.698   3.123  1.1457 -0.8471  1.6523
 6605SOL     OW31273   1.034   4.684  10.319 -0.4058  0.7579 -0.3170
 6605SOL    HW131274   0.987   4.601  10.330  1.0971 -0.1465 -0.7924
 6605SOL    HW231275   1.077   4.694  10.403  0.4155  1.2886 -0.7985
 6606SOL     OW31276   1.542   0.316   0.408 -0.9038 -0.2431  0.5192
 6606SOL    HW131277   1.488   0.352   0.338  1.1121 -0.8228 -1.3347
 6606SOL    HW231278   1.468   0.293   0.464 -2.9271  1.2893 -1.5400
 6607SOL     OW31279   2.376   1.544   5.244 -0.4468 -0.2762  0.4663
 6607SOL    HW131280   2.330   1.507   5.168 -1.2477 -1.6972  1.6415
 6607SOL    HW231281   2.418   1.464   5.274  0.3733  0.4396  1.2258
 6608SOL     OW31282   3.907   0.695   2.899 -0.0153 -0.5100  0.5692
 6608SOL    HW131283   4.002   0.683   2.901  0.0708  0.2427  0.9859
 6608SOL    HW231284   3.904   0.768   2.961 -3.0721 -1.0986  1.1322
 6609SOL     OW31285   0.350   0.487   2.630 -0.0297 -0.3830  0.2644
 6609SOL    HW131286   0.364   0.471   2.724 -3.1526  0.3062  0.8483
 6609SOL    HW231287   0.420   0.543   2.599 -0.9793  0.8218  0.3036
 6610SOL     OW31288   2.357   0.372   6.192 -0.1892  0.2428 -0.4848
 6610SOL    HW131289   2.327   0.290   6.231  2.8280 -0.9115 -0.6280
 6610SOL    HW231290   2.444   0.337   6.174 -0.8307 -0.4075 -2.3260
 6611SOL     OW31291   2.124   3.467   2.880  0.2004  0.2918 -0.5270
 6611SOL    HW131292   2.074   3.409   2.937  1.9947 -0.0569  0.7237
 6611SOL    HW231293   2.112   3.419   2.798  0.6674 -0.5527 -0.1014
 6612SOL     OW31294   4.264   0.059   4.821 -0.2733 -0.4218 -0.3318
 6612SOL    HW131295   4.276   0.003   4.744 -3.6315 -0.7083 -0.6397
 6612SOL    HW231296   4.268   4.718   4.891 -1.2574  0.6593  0.7386
 6613SOL     OW31297   1.598   3.513   2.124  0.2688 -0.1932  0.0115
 6613SOL    HW131298   1.612   3.482   2.214 -2.0219 -0.6944  0.2007
 6613SOL    HW231299   1.561   3.434   2.086  0.0987  0.1623 -0.5573
 6614SOL     OW31300   4.102   2.941   8.207 -0.2394 -0.2426  0.5316
 6614SOL    HW131301   4.125   2.933   8.114 -0.9344  0.2270  0.3147
 6614SOL    HW231302   4.124   2.856   8.247  2.2908  1.5151  2.8577
 6615SOL     OW31303   3.012   4.113   9.198  0.1991  0.2487 -0.0046
 6615SOL    HW131304   3.028   4.206   9.216  3.0768 -0.6243  1.8615
 6615SOL    HW231305   2.931   4.124   9.149  0.5434 -1.0766 -0.8685
 6616SOL     OW31306   2.126   3.157  16.706 -0.0156 -0.1657  0.7973
 6616SOL    HW131307   2.144   3.202  16.623 -1.4917 -0.6417  0.2153
 6616SOL    HW231308   2.070   3.213  16.760 -0.2962 -1.5804  1.9803
 6617SOL     OW31309   4.021   2.529   3.788 -0.4490  0.7130  0.2091
 6617SOL    HW131310   3.934   2.566   3.804  0.8812  3.5428  0.9048
 6617SOL    HW231311   4.001   2.437   3.772  0.8144  0.1995  1.6404
 6618SOL     OW31312   2.966   1.051  11.633 -0.8556  0.0193 -0.1500
 6618SOL    HW131313   2.999   0.963  11.615 -0.2603  0.0260  0.9309
 6618SOL    HW231314   2.995   1.088  11.549  1.7025 -0.7562  0.4125
 6619SOL     OW31315   0.210   4.068   9.176  0.7556 -0.0021  0.1085
 6619SOL    HW131316   0.198   4.081   9.270  0.4126  0.8302 -0.0523
 6619SOL    HW231317   0.294   4.022   9.183  1.0141  0.4733  0.1229
 6620SOL     OW31318   1.837   1.363   5.892  0.0862 -0.2594  0.3504
 6620SOL    HW131319   1.910   1.362   5.954  0.2006  0.2498  0.2249
 6620SOL    HW231320   1.846   1.450   5.853 -1.5151  0.4682  1.6385
 6621SOL     OW31321   1.904   1.498   4.099 -0.5959 -0.0504  0.1910
 6621SOL    HW131322   1.965   1.448   4.153  1.2400  0.5004 -1.4126
 6621SOL    HW231323   1.821   1.497   4.147  0.3810 -0.0611  1.9090
 6622SOL     OW31324   1.563   3.523   4.717  0.0558  0.3190  0.1528
 6622SOL    HW131325   1.612   3.507   4.637  1.2538  5.9521 -0.2714
 6622SOL    HW231326   1.568   3.617   4.735 -0.7015  0.6976 -1.6742
 6623SOL     OW31327   2.498   2.309   4.155  0.2198  0.7669 -0.1905
 6623SOL    HW131328   2.554   2.357   4.216 -0.0673  0.2100  0.5064
 6623SOL    HW231329   2.545   2.232   4.123  0.6217  0.2799  1.5635
 6624SOL     OW31330   0.956   4.122   9.423  0.6674  0.1090 -0.3264
 6624SOL    HW131331   0.881   4.133   9.481  0.6636 -0.9377 -0.1249
 6624SOL    HW231332   0.908   4.085   9.348  0.8238  0.7577 -0.7455
 6625SOL     OW31333   4.130   4.314   6.069  0.2938 -0.2170  0.0163
 6625SOL    HW131334   4.055   4.274   6.027 -0.6769  3.3516 -1.6182
 6625SOL    HW231335   4.180   4.330   5.989  1.9089 -1.1260  0.8360
 6626SOL     OW31336   1.329   1.761   2.488  0.0564  0.1256  0.1831
 6626SOL    HW131337   1.308   1.789   2.577  0.7464 -1.8119  0.9454
 6626SOL    HW231338   1.262   1.802   2.433  0.6498  1.2971  0.3221
 6627SOL     OW31339   4.313   3.289   9.800 -0.7053  0.6432 -0.1003
 6627SOL    HW131340   4.252   3.309   9.871  0.4877  1.4837  0.6868
 6627SOL    HW231341   4.351   3.211   9.840  0.0940  0.4609 -1.1965
 6628SOL     OW31342   2.809   1.207   2.337 -0.0531 -0.3708  0.1298
 6628SOL    HW131343   2.774   1.124   2.305  1.0358 -0.0682 -1.8080
 6628SOL    HW231344   2.734   1.262   2.315  0.2203  1.0489  2.7032
 6629SOL     OW31345   2.667   2.311  17.150 -0.3178  0.3642  0.2000
 6629SOL    HW131346   2.623   2.373  17.209 -0.5140  1.3975 -1.0304
 6629SOL    HW231347   2.594   2.255  17.125 -0.5525 -0.9371  3.8177
 6630SOL     OW31348   0.257   0.625   9.976 -0.5514 -0.4684 -0.1125
 6630SOL    HW131349   0.214   0.657  10.056  0.3672  0.5256 -0.0193
 6630SOL    HW231350   0.198   0.551   9.962  0.2930 -1.1299 -0.1471
 6631SOL     OW31351   4.248   0.612   4.440 -0.3428 -0.2763 -0.1049
 6631SOL    HW131352   4.189   0.538   4.451 -1.7896  1.0527  1.0749
 6631SOL    HW231353   4.209   0.674   4.379  2.0703  2.7990  1.4536
 6632SOL     OW31354   3.501   0.891  13.603  0.1737  0.9564 -0.2494
 6632SOL    HW131355   3.557   0.967  13.620  0.8451 -0.1559  2.6801
 6632SOL    HW231356   3.418   0.930  13.629 -1.1578 -0.8344 -1.8414
 6633SOL     OW31357   1.858   2.401   2.172  0.2921 -0.2266 -0.3240
 6633SOL    HW131358   1.846   2.476   2.230 -0.4154 -1.6443  1.3807
 6633SOL    HW231359   1.858   2.444   2.087  2.6366  3.8975  1.7910
 6634SOL     OW31360   1.869   2.947   8.490 -0.2750 -0.7803 -0.2966
 6634SOL    HW131361   1.896   2.949   8.582 -2.3041 -0.9169  0.2830
 6634SOL    HW231362   1.922   2.869   8.473  1.0460  0.1026 -0.2547
 6635SOL     OW31363   2.905   3.767  10.938 -0.5635 -0.0452 -0.3661
 6635SOL    HW131364   2.964   3.700  10.902 -0.7954  0.7606 -2.2853
 6635SOL    HW231365   2.826   3.776  10.885 -1.8735 -2.2306  1.2421
 6636SOL     OW31366   1.870   1.650   5.836  0.6348 -0.3068 -0.3824
 6636SOL    HW131367   1.834   1.736   5.814 -2.9012 -1.4887  0.7793
 6636SOL    HW231368   1.868   1.656   5.932 -0.6485 -1.8275 -0.3266
 6637SOL     OW31369   4.460   3.081   9.895  0.3041 -0.3089  0.1370
 6637SOL    HW131370   4.435   2.988   9.895 -1.9422  0.3009 -0.8619
 6637SOL    HW231371   4.532   3.078   9.832 -0.3634  1.1250 -0.6974
 6638SOL     OW31372   1.633   2.672   7.609  0.5254 -0.0276 -0.2153
 6638SOL    HW131373   1.639   2.576   7.604 -2.1840 -0.2153  0.2128
 6638SOL    HW231374   1.692   2.700   7.539 -0.8657 -0.0165 -1.3907
 6639SOL     OW31375   4.072   2.365   4.063 -0.8858  0.4212  0.0342
 6639SOL    HW131376   4.132   2.431   4.027  1.8882 -0.8290  2.3391
 6639SOL    HW231377   4.056   2.403   4.149  1.1747 -2.2484  1.6058
 6640SOL     OW31378   2.109   3.155   2.945 -0.5698 -0.1636 -0.2907
 6640SOL    HW131379   2.017   3.128   2.945 -0.6722  0.1839 -2.3156
 6640SOL    HW231380   2.149   3.071   2.970 -1.4218 -0.5340 -0.1697
 6641SOL     OW31381   1.827   1.066   7.551  0.3927 -0.1180 -0.5181
 6641SOL    HW131382   1.906   1.013   7.543  0.7296  0.5444 -1.6722
 6641SOL    HW231383   1.858   1.154   7.575 -1.1525  0.2729  0.0501
 6642SOL     OW31384   4.083   2.870  16.533  0.2679  0.2364 -0.4622
 6642SOL    HW131385   4.027   2.845  16.460  0.8126  0.6152 -1.0077
 6642SOL    HW231386   4.143   2.795  16.542 -1.0456 -0.4711  2.4463
 6643SOL     OW31387   3.498   4.330   3.868  0.6279  0.1205 -0.6141
 6643SOL    HW131388   3.405   4.315   3.884  0.9931 -0.1776  1.2484
 6643SOL    HW231389   3.504   4.420   3.836  2.1298  0.1451 -0.2591
 6644SOL     OW31390   4.519   4.577   5.180 -0.4482  0.3846  0.4378
 6644SOL    HW131391   4.606   4.610   5.204 -0.1819 -1.1856  1.6354
 6644SOL    HW231392   4.529   4.493   5.225  2.5952  0.2492 -0.4774
 6645SOL     OW31393   2.656   0.236   6.355 -0.2589 -0.5107 -0.0061
 6645SOL    HW131394   2.715   0.281   6.415 -0.9916 -0.8697  0.9783
 6645SOL    HW231395   2.598   0.186   6.412  1.6181 -1.4185  1.1319
 6646SOL     OW31396   1.902   2.798   8.764 -0.3121  0.2796 -0.0371
 6646SOL    HW131397   1.942   2.756   8.840 -0.8497  1.1950  0.7657
 6646SOL    HW231398   1.956   2.758   8.697 -0.5691  0.0841 -0.1273
 6647SOL     OW31399   3.924   1.868  10.753 -0.2573 -0.6921  0.2485
 6647SOL    HW131400   4.011   1.833  10.772  0.0697  0.5121  0.9378
 6647SOL    HW231401   3.900   1.906  10.838  0.7710  0.2173  0.1364
 6648SOL     OW31402   0.525   2.611   4.679 -0.3240 -0.2181 -0.1578
 6648SOL    HW131403   0.490   2.529   4.714 -0.7741  0.2717  0.5399
 6648SOL    HW231404   0.478   2.677   4.729  1.0107  1.0933 -0.6136
 6649SOL     OW31405   4.569   1.704   4.072 -0.1188  0.2449 -0.4714
 6649SOL    HW131406   4.573   1.693   3.977 -0.1075 -0.7260 -0.3655
 6649SOL    HW231407   4.507   1.776   4.067 -1.3804 -0.8102 -0.1450
 6650SOL     OW31408   1.006   1.546   8.481 -0.6414 -0.8223  0.1213
 6650SOL    HW131409   0.961   1.462   8.475 -0.7984 -0.7563  0.3883
 6650SOL    HW231410   0.942   1.613   8.504 -0.3137 -0.6522  0.5514
 6651SOL     OW31411   1.236   4.594   6.693  0.6082 -0.5241 -0.5663
 6651SOL    HW131412   1.147   4.604   6.727  0.8247 -0.4393 -0.0198
 6651SOL    HW231413   1.271   4.515   6.734 -1.5988 -0.4808  1.4259
 6652SOL     OW31414   2.787   0.433   0.155  0.0821  0.0048  0.4411
 6652SOL    HW131415   2.739   0.357   0.189 -0.7273  0.6569  0.7364
 6652SOL    HW231416   2.720   0.489   0.118  0.8025  0.7258  0.2356
 6653SOL     OW31417   3.116   0.172   5.704 -0.6290 -0.3514 -0.4882
 6653SOL    HW131418   3.165   0.248   5.738 -0.8014  0.4277 -1.9710
 6653SOL    HW231419   3.022   0.183   5.713 -0.6167  0.4359 -1.3588
 6654SOL     OW31420   1.101   3.002   2.314  0.1046  0.0009  0.6552
 6654SOL    HW131421   1.183   3.031   2.354  2.1114 -0.8218 -2.8400
 6654SOL    HW231422   1.051   2.987   2.394  1.5180  1.3875  1.7942
 6655SOL     OW31423   1.715   0.057   4.899  0.3835  0.4227 -0.5139
 6655SOL    HW131424   1.737   0.109   4.976  0.4098 -0.1284 -0.1448
 6655SOL    HW231425   1.744   0.113   4.827  1.5513 -0.3764 -0.6697
 6656SOL     OW31426   0.696   0.868   6.946 -0.1140 -0.1111 -0.2315
 6656SOL    HW131427   0.783   0.889   6.980 -1.6428  2.1989  2.2553
 6656SOL    HW231428   0.705   0.908   6.860  0.0351  0.0083 -0.1622
 6657SOL     OW31429   3.642   3.622   8.726 -0.2328  0.5297  0.1788
 6657SOL    HW131430   3.656   3.708   8.765 -0.7096  0.9259 -0.5112
 6657SOL    HW231431   3.686   3.566   8.789  0.2601 -0.3272 -0.9120
 6658SOL     OW31432   1.205   3.251   5.819  0.5251  0.5020  0.8951
 6658SOL    HW131433   1.129   3.229   5.766  1.7425  0.4424 -0.8043
 6658SOL    HW231434   1.233   3.335   5.784 -0.7370  0.9340  0.9123
 6659SOL     OW31435   1.066   4.603   4.700 -0.2077 -0.2874 -0.5482
 6659SOL    HW131436   1.123   4.641   4.766  0.0024 -1.8165  0.1453
 6659SOL    HW231437   1.098   4.650   4.623 -0.1557 -0.6602 -0.7592
 6660SOL     OW31438   4.057   2.514  16.636  0.0898  0.2975  0.1562
 6660SOL    HW131439   4.070   2.448  16.569  1.2005  0.8780 -0.1903
 6660SOL    HW231440   4.035   2.466  16.716 -1.6327 -1.0804 -1.1497
 6661SOL     OW31441   4.338   2.942   7.882  0.0223  0.7312  0.4808
 6661SOL    HW131442   4.416   2.906   7.840 -1.1561 -0.7506 -0.4516
 6661SOL    HW231443   4.353   2.899   7.966  0.4465 -0.2833 -0.1108
 6662SOL     OW31444   4.266   3.634   7.321 -0.6999  1.0962  0.0436
 6662SOL    HW131445   4.268   3.679   7.405  1.0854  0.5724  0.2810
 6662SOL    HW231446   4.195   3.570   7.322 -0.1077  0.4578  0.8034
 6663SOL     OW31447   1.841   2.586   8.496  0.1401 -0.3828  0.0901
 6663SOL    HW131448   1.876   2.510   8.542  0.7466 -0.1089  0.0799
 6663SOL    HW231449   1.915   2.647   8.493 -0.8595  0.8239 -0.2302
 6664SOL     OW31450   2.177   2.258  11.746 -0.1873  0.0764  0.2441
 6664SOL    HW131451   2.234   2.240  11.671 -0.4626  1.9607 -0.4143
 6664SOL    HW231452   2.094   2.240  11.703 -0.0113 -3.6870  1.5069
 6665SOL     OW31453   4.646   3.304   6.189  0.0407  0.0401  0.0594
 6665SOL    HW131454   0.006   3.268   6.216  0.3201  0.6449 -0.0064
 6665SOL    HW231455   4.579   3.245   6.222 -0.2174  0.5370  0.4083
 6666SOL     OW31456   3.977   3.230  12.961  0.3110  0.0916  0.3892
 6666SOL    HW131457   3.984   3.213  12.867 -0.6771 -1.3593  0.5735
 6666SOL    HW231458   3.886   3.208  12.983  0.1501  1.9377  1.5323
 6667SOL     OW31459   1.534   0.638   3.726  0.2779 -0.1693 -0.3059
 6667SOL    HW131460   1.538   0.669   3.636 -2.9395  2.5358  0.4903
 6667SOL    HW231461   1.496   0.712   3.773 -0.4712 -0.6543 -0.1479
 6668SOL     OW31462   3.488   3.857   3.767 -0.1048 -0.4431 -0.5498
 6668SOL    HW131463   3.462   3.881   3.678 -1.8911 -1.4166 -0.2921
 6668SOL    HW231464   3.420   3.793   3.790 -0.4724  0.5092  1.0851
 6669SOL     OW31465   0.640   3.537   8.394  0.0393  0.1930  0.0231
 6669SOL    HW131466   0.732   3.552   8.418 -0.0047 -0.2847  0.5003
 6669SOL    HW231467   0.601   3.517   8.479 -1.5368  1.6711 -0.3649
 6670SOL     OW31468   1.108   1.617   5.943  0.0476 -0.4467  0.7778
 6670SOL    HW131469   1.130   1.657   5.859  2.1269  0.7475  1.8939
 6670SOL    HW231470   1.099   1.526   5.915 -0.5665 -0.3041  0.5098
 6671SOL     OW31471   0.375   4.509  17.054  0.1695  0.4983  0.5768
 6671SOL    HW131472   0.445   4.516  17.118  2.0059 -2.6398 -1.0757
 6671SOL    HW231473   0.376   4.415  17.040 -0.1116  0.6947 -0.7706
 6672SOL     OW31474   4.720   0.707   7.841  0.0807 -0.1838 -0.3538
 6672SOL    HW131475   4.644   0.729   7.894 -0.1579  2.5640 -1.8333
 6672SOL    HW231476   0.062   0.770   7.867  0.0903 -0.0577 -0.6771
 6673SOL     OW31477   2.044   2.653   6.298  0.2902 -0.0238  0.5177
 6673SOL    HW131478   2.107   2.582   6.309  1.2409  0.3847 -2.4600
 6673SOL    HW231479   1.977   2.614   6.354 -1.7900  1.6042 -0.8495
 6674SOL     OW31480   2.980   4.199   2.637  0.2390  0.3797 -0.1419
 6674SOL    HW131481   2.886   4.184   2.621  0.5393  0.0844 -1.6790
 6674SOL    HW231482   2.978   4.287   2.674 -0.1165  0.7323 -0.9828
 6675SOL     OW31483   3.922   1.893   8.515 -0.6255  0.7796  0.0021
 6675SOL    HW131484   3.937   1.807   8.476 -0.7514  0.5066  0.5597
 6675SOL    HW231485   3.969   1.892   8.598 -1.9347 -1.7491  0.7094
 6676SOL     OW31486   1.764   3.915   7.752  0.1724 -0.0105 -0.6355
 6676SOL    HW131487   1.726   3.863   7.681 -1.9207 -0.6763  1.0055
 6676SOL    HW231488   1.773   3.857   7.827  0.4323 -0.7249 -1.2218
 6677SOL     OW31489   0.001   3.692   5.166  0.3423 -0.7363  0.2472
 6677SOL    HW131490   0.015   3.617   5.109  0.2956 -1.3955  1.1081
 6677SOL    HW231491   4.631   3.691   5.183  0.4283 -1.2663  0.6761
 6678SOL     OW31492   0.047   1.006   3.691 -0.1135 -0.3306 -0.0386
 6678SOL    HW131493   0.136   1.017   3.659  0.0961  0.6180  0.8513
 6678SOL    HW231494   4.717   1.054   3.628  1.0462  1.8448  0.6200
 6679SOL     OW31495   2.928   4.302   6.993 -0.1915  0.2846  0.3601
 6679SOL    HW131496   2.929   4.398   6.992 -1.3826  0.2898  0.1566
 6679SOL    HW231497   2.950   4.277   7.083  1.5216 -3.0644 -1.0077
 6680SOL     OW31498   4.348   1.710   2.231 -0.6189  0.1277  0.2241
 6680SOL    HW131499   4.400   1.749   2.301 -0.9756 -1.2681  1.2647
 6680SOL    HW231500   4.273   1.764   2.257 -0.5516  0.7057 -0.7871
 6681SOL     OW31501   1.720   1.814   0.929  0.0437  0.3341 -0.2231
 6681SOL    HW131502   1.652   1.871   0.892 -1.4593 -1.4731 -0.2301
 6681SOL    HW231503   1.771   1.787   0.852  1.0864 -2.7246  1.5526
 6682SOL     OW31504   1.458   4.419   1.680  0.3094 -0.4466 -0.3035
 6682SOL    HW131505   1.388   4.457   1.627 -1.3829 -0.2557  2.0577
 6682SOL    HW231506   1.433   4.328   1.691  0.7638 -0.3921  1.2016
 6683SOL     OW31507   2.852   0.660   4.983 -0.5017  0.0409 -0.1634
 6683SOL    HW131508   2.880   0.666   5.074 -0.1253 -0.1083 -0.2693
 6683SOL    HW231509   2.911   0.727   4.947 -0.6697  0.1173 -0.2982
 6684SOL     OW31510   0.616   2.690   3.053  0.2797  0.1646  0.4164
 6684SOL    HW131511   0.576   2.776   3.039 -0.6037 -0.3890 -0.4757
 6684SOL    HW231512   0.561   2.657   3.124 -1.1603  0.7901 -0.4085
 6685SOL     OW31513   4.356   2.686   1.339 -0.2734  0.4094  0.3729
 6685SOL    HW131514   4.330   2.681   1.431  0.4425  2.6332  0.6920
 6685SOL    HW231515   4.406   2.768   1.332  2.5473 -1.4465 -1.2639
 6686SOL     OW31516   0.093   0.251   6.846 -0.6440 -0.4957 -0.7438
 6686SOL    HW131517   0.164   0.215   6.899 -1.2211 -0.8382 -0.1949
 6686SOL    HW231518   0.119   0.343   6.851  0.5132 -0.8131 -0.8773
 6687SOL     OW31519   0.218   3.432   6.489  0.5261 -0.0741  0.3955
 6687SOL    HW131520   0.282   3.435   6.560  1.1558 -1.3252 -0.1174
 6687SOL    HW231521   0.261   3.491   6.428 -3.6198  1.4673 -1.0156
 6688SOL     OW31522   3.040   4.077  16.053  0.4400  0.1026 -0.1843
 6688SOL    HW131523   3.035   4.153  15.995 -0.0615 -0.2260 -0.5736
 6688SOL    HW231524   3.002   4.124  16.127 -0.5836 -0.8750 -0.0915
 6689SOL     OW31525   1.863   1.083   8.603  0.1833 -0.1803  0.0206
 6689SOL    HW131526   1.819   1.111   8.684  0.3134 -1.6940  0.6242
 6689SOL    HW231527   1.874   0.989   8.615 -2.7131 -0.4280  0.6816
 6690SOL     OW31528   2.766   0.183   9.228 -0.2434 -0.5636  0.1377
 6690SOL    HW131529   2.758   0.098   9.185 -2.5888  0.3621 -1.2096
 6690SOL    HW231530   2.795   0.168   9.318 -1.1968  0.9237  0.6940
 6691SOL     OW31531   2.351   3.275   9.820  0.2352  0.1490 -0.3604
 6691SOL    HW131532   2.266   3.278   9.774 -0.5663  1.8603  1.2143
 6691SOL    HW231533   2.384   3.365   9.813  1.0780 -0.0122  1.5381
 6692SOL     OW31534   0.670   3.316   4.747  0.3882  0.2969  0.4109
 6692SOL    HW131535   0.730   3.325   4.821  1.2682 -1.2577 -0.1126
 6692SOL    HW231536   0.706   3.239   4.704 -2.0303  0.4353 -1.8922
 6693SOL     OW31537   0.082   4.241   4.222  0.0060  0.0523  0.8516
 6693SOL    HW131538   0.172   4.243   4.190  0.4550  1.4748  2.1712
 6693SOL    HW231539   0.057   4.331   4.198  0.2856  0.2128  1.1513
 6694SOL     OW31540   4.574   1.083   8.269  0.1385  0.2147 -0.1324
 6694SOL    HW131541   4.553   1.156   8.210 -0.4726 -0.2280 -0.4666
 6694SOL    HW231542   4.643   1.035   8.224  1.0270  0.6585  0.7681
 6695SOL     OW31543   3.859   3.086   7.010  0.0054  0.0640  0.2540
 6695SOL    HW131544   3.868   3.057   6.920 -0.7093 -0.6486  0.4114
 6695SOL    HW231545   3.913   3.024   7.061 -0.2096  0.1643  0.6064
 6696SOL     OW31546   3.862   2.373   8.789 -0.1771  0.0911  0.2569
 6696SOL    HW131547   3.819   2.331   8.864  0.5245  0.4703  0.8717
 6696SOL    HW231548   3.871   2.302   8.725 -0.4373 -0.5226  0.9065
 6697SOL     OW31549   2.318   0.485   0.559  0.0499  0.5477  0.0580
 6697SOL    HW131550   2.257   0.454   0.626  0.1159 -0.4351 -0.3290
 6697SOL    HW231551   2.361   0.565   0.587  0.2310  0.3032  0.4787
 6698SOL     OW31552   4.041   3.861   2.266 -0.5365 -0.7301  0.7171
 6698SOL    HW131553   4.122   3.838   2.220  1.1706  3.0360  1.7439
 6698SOL    HW231554   4.014   3.949   2.240  0.1592  0.2996  3.4184
 6699SOL     OW31555   3.067   3.875  13.440 -0.3469 -0.1798  0.0303
 6699SOL    HW131556   3.076   3.946  13.503  0.5829  0.4140 -0.7846
 6699SOL    HW231557   3.097   3.797  13.487 -0.3695 -0.3355 -0.2126
 6700SOL     OW31558   3.175   2.523  17.630  0.0319 -0.7539  0.7344
 6700SOL    HW131559   3.248   2.582  17.609 -0.7743 -0.2923 -0.7294
 6700SOL    HW231560   3.232   2.447  17.615 -0.6263 -1.3101  1.0303
 6701SOL     OW31561   4.453   4.272   5.996  0.2519 -0.4490  0.2188
 6701SOL    HW131562   4.409   4.255   6.079  0.3601  0.3350  0.4443
 6701SOL    HW231563   4.419   4.215   5.928  0.8110  0.7964 -1.1255
 6702SOL     OW31564   4.452   2.139   4.617 -0.1410  0.4836 -0.0826
 6702SOL    HW131565   4.426   2.225   4.652  0.9488  0.2065  1.4129
 6702SOL    HW231566   4.511   2.107   4.685 -1.1183 -0.2673  0.4083
 6703SOL     OW31567   3.022   2.622   8.451 -0.4090 -0.5859  0.1228
 6703SOL    HW131568   2.973   2.544   8.425 -0.5821  0.1098 -1.5997
 6703SOL    HW231569   2.981   2.685   8.393 -0.3766 -0.8983 -0.2348
 6704SOL     OW31570   3.419   1.513   4.514 -0.1399  0.1462 -0.4581
 6704SOL    HW131571   3.461   1.547   4.593 -1.7461  1.8533 -0.3331
 6704SOL    HW231572   3.326   1.530   4.527 -0.7998 -3.9161  0.3011
 6705SOL     OW31573   0.053   1.597   2.940  0.2899 -0.3534 -0.1702
 6705SOL    HW131574   4.722   1.618   3.015  2.1160  2.5488  0.3536
 6705SOL    HW231575   0.141   1.603   2.976 -0.0976  0.3793  0.6573
 6706SOL     OW31576   4.565   1.218   9.538  0.0256 -0.1151 -0.3692
 6706SOL    HW131577   4.629   1.280   9.574  0.3941 -0.9838  0.4913
 6706SOL    HW231578   4.577   1.143   9.597 -2.1756 -1.5466 -1.7746
 6707SOL     OW31579   0.457   0.014   7.378  0.5379 -0.0366  0.3333
 6707SOL    HW131580   0.540   0.003   7.331 -0.0870 -1.2371 -0.4845
 6707SOL    HW231581   0.479   4.698   7.461 -0.0940 -1.3967 -0.1710
 6708SOL     OW31582   4.164   2.699   5.992 -0.1416 -0.5578 -0.0009
 6708SOL    HW131583   4.199   2.729   5.909 -1.0612  0.1837 -0.1224
 6708SOL    HW231584   4.070   2.707   5.974 -0.3882 -0.6049  1.2415
 6709SOL     OW31585   1.291   0.900  15.703 -0.5102 -0.1540  0.2955
 6709SOL    HW131586   1.240   0.910  15.623 -1.9790  1.0239  1.3877
 6709SOL    HW231587   1.366   0.850  15.670  0.8542  1.5932  0.6800
 6710SOL     OW31588   2.586   3.520  12.735  0.4825 -0.1275  0.2486
 6710SOL    HW131589   2.572   3.540  12.828 -1.8288  1.5919 -0.4621
 6710SOL    HW231590   2.670   3.563  12.718  0.5584 -0.2923  0.2125
 6711SOL     OW31591   1.658   1.857  13.618  0.0280 -0.3815 -0.3806
 6711SOL    HW131592   1.669   1.902  13.701 -1.7031 -0.4375 -0.1324
 6711SOL    HW231593   1.725   1.901  13.565 -0.3303  0.1642 -0.3825
 6712SOL     OW31594   4.076   1.481   1.323 -0.1770 -0.3278 -0.2132
 6712SOL    HW131595   4.016   1.547   1.288  0.1542 -0.6267 -1.3341
 6712SOL    HW231596   4.160   1.527   1.318 -1.1242  1.5168  0.5413
 6713SOL     OW31597   1.631   1.032   6.993  0.0715  0.1363 -0.1358
 6713SOL    HW131598   1.541   1.061   7.008 -0.1341 -0.7976  0.4123
 6713SOL    HW231599   1.632   0.965   7.061  0.4744  1.1366  0.8554
 6714SOL     OW31600   3.809   2.842   8.852 -0.6576  0.1077  0.1055
 6714SOL    HW131601   3.730   2.895   8.848 -1.3621 -1.0589 -2.0022
 6714SOL    HW231602   3.782   2.762   8.806 -1.9195  0.5809  0.0222
 6715SOL     OW31603   2.121   1.029   5.010  0.0653 -0.1481 -0.6030
 6715SOL    HW131604   2.161   1.106   5.050  1.4826 -1.1962 -0.0260
 6715SOL    HW231605   2.035   1.037   5.052 -0.4927 -0.0902 -1.7653
 6716SOL     OW31606   3.047   2.406   3.637  0.0544 -0.6293  0.4724
 6716SOL    HW131607   3.019   2.319   3.607  0.2513 -1.1221  1.7552
 6716SOL    HW231608   2.983   2.470   3.605 -0.2076 -1.1851 -0.1197
 6717SOL     OW31609   1.886   4.609   3.144 -0.0873  0.1190  0.1090
 6717SOL    HW131610   1.797   4.597   3.111  0.1679 -2.2524  0.2961
 6717SOL    HW231611   1.927   4.614   3.057 -1.1707  1.6154 -0.3204
 6718SOL     OW31612   3.408   2.207  17.532  0.2007  0.1202 -0.7220
 6718SOL    HW131613   3.463   2.280  17.502  1.1010 -0.5486 -0.6655
 6718SOL    HW231614   3.382   2.178  17.445 -2.2668  0.8911 -0.2437
 6719SOL     OW31615   0.261   4.713  17.561  0.2765  0.2735  0.2403
 6719SOL    HW131616   0.203   4.715  17.485  1.3950  0.3084 -0.6107
 6719SOL    HW231617   0.327   4.661  17.516  0.1312 -1.3051  1.8489
 6720SOL     OW31618   1.487   2.382   5.210 -0.7496  0.0084 -0.5214
 6720SOL    HW131619   1.575   2.378   5.173 -1.7130  0.0347 -2.8247
 6720SOL    HW231620   1.530   2.385   5.296 -0.2765  0.6456 -0.7802
 6721SOL     OW31621   2.500   0.832   8.172 -0.2612  0.1467 -0.0118
 6721SOL    HW131622   2.452   0.762   8.216  0.0622  1.9306  3.1464
 6721SOL    HW231623   2.503   0.803   8.081 -2.5405  2.1563 -0.7278
 6722SOL     OW31624   3.418   3.499  13.549 -0.2713  0.5087 -0.0540
 6722SOL    HW131625   3.346   3.452  13.592  0.4790 -1.4492 -0.9249
 6722SOL    HW231626   3.486   3.435  13.569 -0.9118 -0.6642 -1.6272
 6723SOL     OW31627   1.732   3.275   0.124 -0.1268 -0.6411 -0.5459
 6723SOL    HW131628   1.706   3.204   0.183  0.2135  0.0581  0.4397
 6723SOL    HW231629   1.704   3.235   0.042  1.5120 -2.4807 -0.2023
 6724SOL     OW31630   0.235   2.009  11.123  0.3268 -0.3841  0.2715
 6724SOL    HW131631   0.282   2.029  11.042 -3.2048 -0.2192 -1.7379
 6724SOL    HW231632   0.281   2.061  11.189 -0.5920  0.9357 -0.1445
 6725SOL     OW31633   3.739   2.400   6.931  0.3640  0.5904 -0.0019
 6725SOL    HW131634   3.772   2.478   6.885  0.5567  0.0505 -0.7813
 6725SOL    HW231635   3.799   2.390   7.004 -0.8152  0.3443  0.9253
 6726SOL     OW31636   0.004   0.603   8.746 -0.2443  0.4455 -0.1099
 6726SOL    HW131637   0.079   0.662   8.755 -0.5167  0.5660  1.3426
 6726SOL    HW231638   4.707   0.595   8.839  1.4926  0.3822  0.2852
 6727SOL     OW31639   0.733   1.145   3.818 -0.1918 -0.2060  0.4441
 6727SOL    HW131640   0.701   1.092   3.745 -0.1792 -1.9740  1.7132
 6727SOL    HW231641   0.648   1.160   3.859  0.3235  1.7668  0.7920
 6728SOL     OW31642   2.127   0.350   1.257 -0.2841 -0.3151 -0.1909
 6728SOL    HW131643   2.092   0.436   1.281  0.7048  1.0630 -3.5544
 6728SOL    HW231644   2.223   0.354   1.259 -0.2409 -2.1172  0.8711
 6729SOL     OW31645   4.067   0.408   6.934 -0.6469 -0.0989 -0.6089
 6729SOL    HW131646   4.068   0.456   7.017  0.7062  0.7217 -1.1286
 6729SOL    HW231647   3.982   0.363   6.932 -0.9739  0.5392 -0.7641
 6730SOL     OW31648   2.406   2.612   2.881  0.0033  0.7694  0.0978
 6730SOL    HW131649   2.381   2.571   2.798 -0.8052  0.6210  0.4123
 6730SOL    HW231650   2.491   2.649   2.858  0.0906 -1.3252 -2.9463
 6731SOL     OW31651   2.542   3.410   7.762 -0.4705 -0.0208 -0.4428
 6731SOL    HW131652   2.525   3.504   7.750  1.5710  0.7070  2.4331
 6731SOL    HW231653   2.582   3.412   7.849  0.9458 -1.7731 -1.0646
 6732SOL     OW31654   4.528   1.451   9.340  0.0549  0.8490  0.2648
 6732SOL    HW131655   4.529   1.378   9.402  1.9567  0.3857 -0.3138
 6732SOL    HW231656   4.563   1.525   9.390 -1.9569  2.1084 -0.2022
 6733SOL     OW31657   1.260   2.374   1.153 -0.1464 -0.2929  0.3845
 6733SOL    HW131658   1.261   2.409   1.243 -1.3909 -0.1985  0.3588
 6733SOL    HW231659   1.250   2.280   1.167 -3.0069  0.0131  0.4279
 6734SOL     OW31660   3.307   4.505   8.145 -0.3251  0.0699  0.1448
 6734SOL    HW131661   3.281   4.577   8.202  1.6462  0.1956  0.8939
 6734SOL    HW231662   3.219   4.473   8.125 -0.0176  0.0497 -1.1719
 6735SOL     OW31663   1.994   2.206  15.546 -0.2679 -0.2706  0.0462
 6735SOL    HW131664   1.976   2.296  15.518  0.1922  0.2075  1.2773
 6735SOL    HW231665   1.974   2.157  15.466 -1.6744 -0.0823  0.2815
 6736SOL     OW31666   2.167   1.805  17.247 -0.5144  0.2410 -0.1669
 6736SOL    HW131667   2.114   1.742  17.198  0.3447 -0.6913  0.1122
 6736SOL    HW231668   2.155   1.783  17.340 -0.5351 -0.1167 -0.2545
 6737SOL     OW31669   3.630   1.004   1.731 -0.2499  0.3125  0.0968
 6737SOL    HW131670   3.691   1.075   1.707 -0.7565  1.6688  2.8523
 6737SOL    HW231671   3.703   0.951   1.763  2.2911  3.1676 -0.9048
 6738SOL     OW31672   4.217   3.374   3.874  0.3112 -0.0544  0.2187
 6738SOL    HW131673   4.256   3.425   3.945 -0.6313  1.5408 -0.4084
 6738SOL    HW231674   4.290   3.359   3.814 -1.1601  0.5065 -1.7091
 6739SOL     OW31675   0.808   2.223   6.612 -0.1240  0.5457 -0.2944
 6739SOL    HW131676   0.810   2.128   6.624 -0.8869  0.7129  1.1504
 6739SOL    HW231677   0.787   2.230   6.519 -0.1115 -0.6934 -0.3926
 6740SOL     OW31678   0.405   1.391   2.949  0.2199  0.2701 -0.1630
 6740SOL    HW131679   0.465   1.323   2.919  0.4451 -0.2410  1.4301
 6740SOL    HW231680   0.432   1.475   2.911 -0.8053 -1.0657 -3.8294
 6741SOL     OW31681   1.965   0.236   5.907  0.4545 -0.3236  0.6687
 6741SOL    HW131682   1.954   0.142   5.891  0.8973 -0.2127 -0.2644
 6741SOL    HW231683   2.008   0.269   5.828 -1.8571 -0.3176 -0.5900
 6742SOL     OW31684   3.924   0.012   8.217  0.2630  0.0437  0.1053
 6742SOL    HW131685   3.940   0.039   8.307 -1.9460  2.2183 -0.1375
 6742SOL    HW231686   3.949   4.644   8.221  2.4688  0.6689  0.6385
 6743SOL     OW31687   0.051   2.322   4.935  0.1461  0.1946  0.2196
 6743SOL    HW131688   0.087   2.275   4.860  1.4848  2.0924 -0.3361
 6743SOL    HW231689   0.119   2.293   4.996 -1.0128  0.6400  1.7151
 6744SOL     OW31690   3.133   3.345  14.599  0.6964 -0.0848 -0.3943
 6744SOL    HW131691   3.227   3.329  14.609  1.1056  0.3093 -3.8989
 6744SOL    HW231692   3.128   3.422  14.543  2.0620 -0.3845 -0.9360
 6745SOL     OW31693   0.040   1.874   2.591  0.3907  0.0106 -0.0477
 6745SOL    HW131694   0.091   1.858   2.512  1.0463  2.7835 -0.1742
 6745SOL    HW231695   0.105   1.874   2.661 -0.9594 -1.8411  1.2255
 6746SOL     OW31696   0.609   1.032  11.202  0.2642  0.2436  0.0817
 6746SOL    HW131697   0.613   1.030  11.106  0.2624  1.9411  0.0503
 6746SOL    HW231698   0.625   0.938  11.216 -0.9306  0.1108  0.5258
 6747SOL     OW31699   0.076   3.821  13.322 -0.2421  0.3902  0.3328
 6747SOL    HW131700   4.718   3.868  13.336  0.0892  0.5742  1.6781
 6747SOL    HW231701   0.046   3.759  13.256  0.4663 -1.1907  1.5080
 6748SOL     OW31702   2.772   0.118   5.934  0.3263  0.0743 -0.1434
 6748SOL    HW131703   2.797   0.180   5.865 -1.1215  1.4175  0.5468
 6748SOL    HW231704   2.735   0.043   5.888  0.1249 -0.0076  0.1551
 6749SOL     OW31705   2.520   2.739   8.126  0.3742 -0.0559 -0.1652
 6749SOL    HW131706   2.474   2.668   8.082  1.8296 -0.7348 -0.5858
 6749SOL    HW231707   2.591   2.759   8.065  1.8441 -0.5201  1.3982
 6750SOL     OW31708   1.245   3.647   8.818 -0.4842  0.1596  0.0854
 6750SOL    HW131709   1.265   3.692   8.735  1.6506 -0.7832  0.0730
 6750SOL    HW231710   1.182   3.709   8.854 -1.0237 -0.3263 -0.0239
 6751SOL     OW31711   1.492   0.466  13.968 -0.8645  0.4013 -0.1695
 6751SOL    HW131712   1.569   0.511  13.934 -1.5008  1.0486 -0.7569
 6751SOL    HW231713   1.515   0.377  13.944  0.1852  0.4828  0.5326
 6752SOL     OW31714   3.695   2.951   1.436 -0.6269  0.0717  0.1760
 6752SOL    HW131715   3.768   2.934   1.377  1.1380 -0.8809  2.6431
 6752SOL    HW231716   3.721   2.901   1.513  1.0801  1.8279  0.7520
 6753SOL     OW31717   1.122   1.653   8.220  0.3772 -0.0019 -0.0294
 6753SOL    HW131718   1.120   1.647   8.315  1.1254  3.2155  0.2054
 6753SOL    HW231719   1.063   1.726   8.199 -0.4582  0.4487  4.0141
 6754SOL     OW31720   3.416   0.480   3.221 -0.3637  0.1969 -0.0173
 6754SOL    HW131721   3.413   0.384   3.226 -0.5087  0.2107  0.1712
 6754SOL    HW231722   3.415   0.492   3.126 -1.1278 -2.0198 -0.2919
 6755SOL     OW31723   4.658   0.388   7.478  0.1825  0.2135  0.8526
 6755SOL    HW131724   0.002   0.349   7.424 -1.5729  0.2372 -1.3751
 6755SOL    HW231725   4.674   0.368   7.571  2.0452  1.2662  0.7519
 6756SOL     OW31726   1.853   1.413   5.417 -0.2866  0.5018  0.0990
 6756SOL    HW131727   1.778   1.358   5.441 -1.0227  0.8762 -1.3410
 6756SOL    HW231728   1.840   1.493   5.467 -1.8420 -0.1334  0.7006
 6757SOL     OW31729   0.439   0.006   2.387 -0.0677 -0.6240  0.0900
 6757SOL    HW131730   0.520   4.679   2.385  0.8189  0.8435 -1.6567
 6757SOL    HW231731   0.462   0.091   2.424 -1.4815 -0.2223  0.0288
 6758SOL     OW31732   0.747   0.318  16.084  0.1030 -0.0789 -0.4820
 6758SOL    HW131733   0.772   0.292  15.996  0.9482 -2.5287  0.4769
 6758SOL    HW231734   0.711   0.234  16.110 -0.1600  0.3964  0.7203
 6759SOL     OW31735   2.862   4.338   9.095  0.1547  0.7305  0.0744
 6759SOL    HW131736   2.829   4.284   9.023 -1.2675  1.5263  0.1298
 6759SOL    HW231737   2.781   4.366   9.137  0.6930  1.5496  0.5549
 6760SOL     OW31738   1.252   0.526   6.511 -0.1347 -0.2357  0.1187
 6760SOL    HW131739   1.300   0.444   6.501  0.4981  0.1467 -0.0440
 6760SOL    HW231740   1.197   0.522   6.433  1.1572 -1.4459 -0.7323
 6761SOL     OW31741   2.529   2.315   5.332  0.0127  0.3333 -0.0277
 6761SOL    HW131742   2.498   2.304   5.422  1.0641  2.6803  0.6223
 6761SOL    HW231743   2.550   2.226   5.304 -0.8429  0.3463 -0.7036
 6762SOL     OW31744   2.498   1.949   9.472 -0.2782 -0.5252 -0.5748
 6762SOL    HW131745   2.550   2.015   9.424  2.6908 -1.8254  0.8720
 6762SOL    HW231746   2.561   1.920   9.537 -1.2707  0.7052  0.9451
 6763SOL     OW31747   2.720   1.560   0.585 -0.2323 -0.3358  0.4825
 6763SOL    HW131748   2.723   1.633   0.647 -0.1503 -0.2365  0.3624
 6763SOL    HW231749   2.706   1.480   0.637 -1.0318  0.2482  1.1601
 6764SOL     OW31750   1.713   2.033   7.110 -0.4346 -0.1703  0.4568
 6764SOL    HW131751   1.657   1.958   7.092 -0.4343  0.5474 -2.4365
 6764SOL    HW231752   1.788   2.026   7.051 -1.7124  0.1657 -1.1933
 6765SOL     OW31753   4.374   0.993   6.803  0.1602 -0.3613  0.6174
 6765SOL    HW131754   4.286   0.975   6.836 -0.2405  0.1961 -0.1120
 6765SOL    HW231755   4.365   0.940   6.724 -0.7466 -0.1484  0.5771
 6766SOL     OW31756   3.932   4.558   9.255  0.1271  0.7113 -0.2546
 6766SOL    HW131757   4.001   4.505   9.294 -1.0529  0.7766  1.9085
 6766SOL    HW231758   3.976   4.615   9.191  1.0122  1.6267  1.1818
 6767SOL     OW31759   1.587   2.433   7.470  0.1234 -0.1129  0.0157
 6767SOL    HW131760   1.515   2.435   7.407  0.3615 -0.5510 -0.2733
 6767SOL    HW231761   1.581   2.346   7.509  0.4087 -0.7784 -1.4087
 6768SOL     OW31762   4.289   2.186  17.488  0.3612  0.1217 -0.2072
 6768SOL    HW131763   4.279   2.231  17.404  2.1700 -1.9645 -1.5369
 6768SOL    HW231764   4.306   2.097  17.458  1.2824  0.3692 -0.4186
 6769SOL     OW31765   0.560   1.129   7.701 -0.1832 -0.7015 -0.1471
 6769SOL    HW131766   0.638   1.074   7.713 -1.4276 -2.0526  1.7365
 6769SOL    HW231767   0.594   1.203   7.651 -1.9267 -1.5309 -2.5804
 6770SOL     OW31768   2.708   3.885   9.440 -0.1657 -0.6219  0.3946
 6770SOL    HW131769   2.702   3.847   9.352  0.1286  0.7804 -0.2364
 6770SOL    HW231770   2.803   3.887   9.454 -0.2248  0.3216  0.6749
 6771SOL     OW31771   3.792   4.037   1.029  0.1446 -0.0575 -0.0162
 6771SOL    HW131772   3.752   4.077   1.106 -0.6039 -1.2790  0.2231
 6771SOL    HW231773   3.770   3.945   1.043 -0.5110  0.3955  1.8197
 6772SOL     OW31774   1.923   2.208   5.121  0.1288 -0.1526 -0.0696
 6772SOL    HW131775   1.869   2.148   5.172 -0.3501 -1.3182 -1.9429
 6772SOL    HW231776   1.868   2.286   5.130 -3.2316 -2.3570 -1.7930
 6773SOL     OW31777   3.317   3.752  13.087  0.0616 -0.2136 -0.4517
 6773SOL    HW131778   3.235   3.786  13.123  0.5769  1.1388 -0.5617
 6773SOL    HW231779   3.281   3.696  13.019  2.3251 -0.3612 -1.5350
 6774SOL     OW31780   4.225   3.777   3.951  0.2648  0.7465  0.0796
 6774SOL    HW131781   4.213   3.766   3.857 -0.2404 -1.3837  0.3763
 6774SOL    HW231782   4.131   3.767   3.970  0.0006  0.3498 -1.4483
 6775SOL     OW31783   0.582   3.958   6.039  0.0450  0.0403 -0.0285
 6775SOL    HW131784   0.611   3.993   5.955  2.4312 -1.3827  0.1858
 6775SOL    HW231785   0.618   3.873   6.014  0.5863 -0.1814  1.5512
 6776SOL     OW31786   1.954   0.421   0.502 -0.4840 -0.6738 -0.6592
 6776SOL    HW131787   1.990   0.332   0.512  0.0613 -0.6988 -2.6918
 6776SOL    HW231788   1.920   0.415   0.413 -1.5485 -0.2153 -0.2792
 6777SOL     OW31789   0.337   0.088   5.291 -0.1882 -0.6682 -0.2959
 6777SOL    HW131790   0.332   0.149   5.218 -0.7501 -1.1722 -0.6715
 6777SOL    HW231791   0.365   0.007   5.248  2.1484 -0.2190  0.3524
 6778SOL     OW31792   1.227   2.098   7.468  0.0384  0.2022 -0.2895
 6778SOL    HW131793   1.298   2.081   7.530  0.0171  0.1086 -0.2895
 6778SOL    HW231794   1.283   2.138   7.402 -0.4581  1.4143  0.0384
 6779SOL     OW31795   0.161   2.441  10.332  1.2205  0.0964  0.9803
 6779SOL    HW131796   0.115   2.420  10.414 -1.1822  1.5824  0.0090
 6779SOL    HW231797   0.251   2.438  10.363  1.4541  0.0267  0.2720
 6780SOL     OW31798   4.347   0.351   9.091  0.4539 -0.6067  0.0159
 6780SOL    HW131799   4.442   0.337   9.092  0.2535 -2.0437 -1.2022
 6780SOL    HW231800   4.344   0.376   9.183 -1.5989 -1.4360  0.1770
 6781SOL     OW31801   2.015   3.309   9.494 -0.8797 -0.5594 -0.0434
 6781SOL    HW131802   2.022   3.372   9.423  1.3250  0.8598  1.4250
 6781SOL    HW231803   1.941   3.347   9.540 -0.1475 -0.3287  0.9515
 6782SOL     OW31804   2.450   0.898   8.585  0.1608 -0.6975 -0.0975
 6782SOL    HW131805   2.359   0.912   8.614  0.5062  2.3656 -0.4997
 6782SOL    HW231806   2.489   0.932   8.665  1.0772 -0.9705 -0.4342
 6783SOL     OW31807   1.305   3.623   8.286 -0.1746 -0.1126  0.1317
 6783SOL    HW131808   1.334   3.581   8.205  1.3875 -1.0462  1.1676
 6783SOL    HW231809   1.214   3.596   8.293 -0.3852  0.5827  0.0769
 6784SOL     OW31810   3.998   3.702   6.702  0.0150 -0.0186  0.4291
 6784SOL    HW131811   3.914   3.747   6.711 -0.9114 -1.4479 -1.0764
 6784SOL    HW231812   4.004   3.713   6.607 -0.4831 -0.9673  0.2909
 6785SOL     OW31813   0.131   4.697   8.294  0.0932 -0.1740  0.5667
 6785SOL    HW131814   0.117   4.612   8.337 -0.4137  0.1247  0.9840
 6785SOL    HW231815   0.042   0.007   8.297  0.0024 -0.1646 -2.2645
 6786SOL     OW31816   3.387   4.600   7.889 -0.1669 -0.0435 -0.1416
 6786SOL    HW131817   3.439   4.527   7.854 -1.0137 -0.1939 -1.0653
 6786SOL    HW231818   3.378   4.580   7.983 -0.7663  0.7357 -0.0361
 6787SOL     OW31819   3.130   3.110   4.073 -0.1372 -0.2093  0.1416
 6787SOL    HW131820   3.176   3.040   4.119 -0.6177  0.5364  1.7401
 6787SOL    HW231821   3.181   3.187   4.101 -0.4953  0.1808 -0.2844
 6788SOL     OW31822   1.277   0.396   4.521  0.4770  0.5166 -0.9239
 6788SOL    HW131823   1.189   0.431   4.534  1.3438  1.3365  2.8582
 6788SOL    HW231824   1.261   0.322   4.462  1.5231  0.4612 -1.1478
 6789SOL     OW31825   0.909   2.571   8.141  0.0028 -0.5776 -0.0782
 6789SOL    HW131826   0.884   2.661   8.162 -1.3233 -1.5256  2.4201
 6789SOL    HW231827   0.831   2.549   8.089 -0.9202  0.5512  0.8113
 6790SOL     OW31828   1.769   4.604   1.587 -0.6616 -0.0400 -0.0457
 6790SOL    HW131829   1.811   4.627   1.670 -1.1048  0.6451 -0.0176
 6790SOL    HW231830   1.739   4.513   1.595 -0.4086 -0.0786  0.4619
 6791SOL     OW31831   1.647   3.941   7.116 -0.7600  0.2263  0.0976
 6791SOL    HW131832   1.717   3.986   7.070 -1.2272 -0.8463 -1.6403
 6791SOL    HW231833   1.634   3.990   7.198  0.8021 -1.8002  1.5532
 6792SOL     OW31834   4.223   3.013   3.039 -0.4153  0.4846 -0.2428
 6792SOL    HW131835   4.161   3.016   3.112  1.2409  1.5864  1.1496
 6792SOL    HW231836   4.164   3.039   2.969 -0.6385 -0.9749 -0.5927
 6793SOL     OW31837   0.907   0.287   5.377  0.1709  0.0604 -0.3042
 6793SOL    HW131838   0.903   0.201   5.337  0.4584 -0.0766 -0.0339
 6793SOL    HW231839   1.002   0.292   5.383  0.2188  0.6214 -1.4933
 6794SOL     OW31840   3.220   3.696   3.056  0.6865 -0.0992  0.0025
 6794SOL    HW131841   3.161   3.741   3.117  0.9254 -0.3175  0.3944
 6794SOL    HW231842   3.165   3.624   3.026 -0.0779  0.2339  0.5975
 6795SOL     OW31843   4.663   4.513   8.092  0.6386  0.1943 -0.2908
 6795SOL    HW131844   4.649   4.489   8.183  1.6059  1.4077  0.1696
 6795SOL    HW231845   0.016   4.458   8.077  1.4349  1.1554  0.2532
 6796SOL     OW31846   3.407   4.005   0.640  0.0511  0.1873  0.2698
 6796SOL    HW131847   3.402   3.923   0.591  0.3228  0.4787 -0.2469
 6796SOL    HW231848   3.362   4.059   0.575 -1.1859 -2.0292 -0.7142
 6797SOL     OW31849   2.213   0.684   1.040  0.5440  0.0837  0.4338
 6797SOL    HW131850   2.136   0.637   1.010 -0.5055  1.8160  0.4124
 6797SOL    HW231851   2.284   0.620   1.035 -0.3740 -0.8581 -0.5395
 6798SOL     OW31852   1.446   2.607  16.345 -0.5127 -0.2998  0.2176
 6798SOL    HW131853   1.436   2.693  16.386  1.8905  0.4368 -0.7122
 6798SOL    HW231854   1.507   2.619  16.272  0.0094  0.7361  0.8267
 6799SOL     OW31855   3.389   4.654   4.086  0.0911  0.3006 -0.5326
 6799SOL    HW131856   3.396   4.711   4.009  1.1650  0.3077 -0.4352
 6799SOL    HW231857   3.445   4.706   4.144 -1.2453 -0.9970  1.9243
 6800SOL     OW31858   3.604   4.413  11.575 -0.3365 -0.0216 -0.2167
 6800SOL    HW131859   3.586   4.388  11.666  0.5039 -1.3338 -0.4310
 6800SOL    HW231860   3.645   4.500  11.579  1.7158 -1.0670  1.2210
 6801SOL     OW31861   4.177   1.398   6.501  0.0308  0.0059  0.3364
 6801SOL    HW131862   4.136   1.392   6.588 -1.7597  1.1720 -0.4253
 6801SOL    HW231863   4.169   1.492   6.490  0.0520  0.0559  0.7221
 6802SOL     OW31864   1.209   1.307   2.425 -0.1758 -0.0238  0.0463
 6802SOL    HW131865   1.247   1.231   2.468  0.4342  1.0131  1.3579
 6802SOL    HW231866   1.282   1.369   2.419 -0.5445  0.3586 -0.5132
 6803SOL     OW31867   2.018   2.557   2.546  0.3222  1.0017 -0.5860
 6803SOL    HW131868   1.930   2.528   2.570  0.7692 -2.2820 -2.8969
 6803SOL    HW231869   2.047   2.621   2.611  0.1661  1.6701 -1.1640
 6804SOL     OW31870   0.309   2.232  15.846 -0.5882  0.1294 -0.1938
 6804SOL    HW131871   0.254   2.165  15.807  1.2329  0.6469 -3.6848
 6804SOL    HW231872   0.281   2.240  15.938 -0.3465  1.1363 -0.1962
 6805SOL     OW31873   2.035   1.278   2.661  0.0138 -0.2212  0.0431
 6805SOL    HW131874   2.002   1.221   2.730 -0.3017  2.5507  2.1669
 6805SOL    HW231875   2.095   1.224   2.609  1.7505  0.3143  1.4983
 6806SOL     OW31876   1.942   3.104   5.177 -0.3103  0.7467  0.1272
 6806SOL    HW131877   1.873   3.156   5.218  0.3934  1.0692  0.9191
 6806SOL    HW231878   1.945   3.153   5.096 -0.0161  1.4171  0.5441
 6807SOL     OW31879   0.134   1.570   8.610  0.0368 -0.2068  0.6291
 6807SOL    HW131880   0.148   1.510   8.537  1.0098 -1.1297  1.5809
 6807SOL    HW231881   0.042   1.553   8.629 -0.5447  0.5211 -1.4555
 6808SOL     OW31882   1.147   2.732   0.584  0.3492  0.3127  0.0463
 6808SOL    HW131883   1.187   2.781   0.512  0.2785  1.7434  0.9783
 6808SOL    HW231884   1.186   2.645   0.573  0.1234  0.6568 -3.5418
 6809SOL     OW31885   0.823   0.745   9.406 -0.0766 -0.3061 -0.1935
 6809SOL    HW131886   0.788   0.699   9.482  0.7613 -1.6067 -0.6022
 6809SOL    HW231887   0.756   0.812   9.390  1.0072  0.9728  0.6810
 6810SOL     OW31888   1.165   0.190   8.720  0.4998 -0.0024  0.4733
 6810SOL    HW131889   1.113   0.264   8.751 -1.6559 -0.6684 -1.5322
 6810SOL    HW231890   1.253   0.226   8.719  0.9158 -1.0010  0.9287
 6811SOL     OW31891   4.241   3.952   5.664 -0.7937 -0.5228 -0.1959
 6811SOL    HW131892   4.237   3.857   5.668 -0.4555 -0.4743  1.2216
 6811SOL    HW231893   4.166   3.972   5.721 -1.2910  3.1629 -2.0998
 6812SOL     OW31894   4.312   0.962   5.347 -0.1953  0.1296  0.6966
 6812SOL    HW131895   4.222   0.992   5.352 -0.3695 -0.2918  0.1377
 6812SOL    HW231896   4.351   1.033   5.297 -0.8138  1.1816  1.7131
 6813SOL     OW31897   1.555   1.317  17.037 -0.0821  0.2893  0.1868
 6813SOL    HW131898   1.553   1.410  17.014  1.3677  0.7038  1.6555
 6813SOL    HW231899   1.647   1.310  17.063  0.3264 -1.1494 -1.6817
 6814SOL     OW31900   2.763   2.534   5.475 -0.1955  0.3582 -0.1353
 6814SOL    HW131901   2.769   2.478   5.398  0.1895 -1.9273  1.5710
 6814SOL    HW231902   2.709   2.486   5.538 -1.6129  1.8942 -0.1970
 6815SOL     OW31903   2.862   2.362   1.945 -0.1303  0.1773  0.4393
 6815SOL    HW131904   2.848   2.430   2.011  1.8216  1.4081 -0.4150
 6815SOL    HW231905   2.902   2.411   1.873  0.9130  0.7666  1.4165
 6816SOL     OW31906   1.422   0.025   0.386  0.1293 -0.7804 -0.0558
 6816SOL    HW131907   1.502   4.697   0.386 -0.6682 -1.9388  3.4845
 6816SOL    HW231908   1.432   0.071   0.302  0.2515 -0.6404  0.0350
 6817SOL     OW31909   2.437   0.809   3.166 -0.5174 -0.0669  0.2491
 6817SOL    HW131910   2.390   0.869   3.109 -0.7365  1.8337  2.4346
 6817SOL    HW231911   2.377   0.735   3.166  1.4961 -1.7211  2.7817
 6818SOL     OW31912   4.262   4.373   3.516  0.0695 -0.0896 -0.1574
 6818SOL    HW131913   4.285   4.463   3.539 -1.3785  0.1870  0.1811
 6818SOL    HW231914   4.312   4.323   3.581  0.6835  1.0953  0.2810
 6819SOL     OW31915   3.557   1.073   5.707  0.2273  0.5348  0.1940
 6819SOL    HW131916   3.517   1.118   5.781 -0.2296 -0.6399  0.6669
 6819SOL    HW231917   3.508   1.115   5.636  2.0402  0.0454 -1.3339
 6820SOL     OW31918   3.673   3.564   6.876  0.2323  0.2791  0.4002
 6820SOL    HW131919   3.597   3.591   6.825  0.4734 -0.1119 -0.1686
 6820SOL    HW231920   3.654   3.599   6.963 -2.5678 -0.3533  0.0331
 6821SOL     OW31921   0.359   2.107   3.894  0.0163 -0.2420 -0.2524
 6821SOL    HW131922   0.269   2.131   3.875  0.2288  1.3632  0.7494
 6821SOL    HW231923   0.405   2.150   3.821  0.0245 -0.5444 -0.4254
 6822SOL     OW31924   2.301   3.986  11.517  0.3675 -0.1843  0.1671
 6822SOL    HW131925   2.393   3.998  11.539  0.0399 -0.6131  1.7614
 6822SOL    HW231926   2.287   4.034  11.436 -0.8213 -0.6725  0.0736
 6823SOL     OW31927   3.508   0.799   5.625 -0.0656  0.1665  0.0057
 6823SOL    HW131928   3.485   0.830   5.537 -1.2029  2.2883  1.0490
 6823SOL    HW231929   3.534   0.885   5.658 -1.1384 -0.0319  1.3260
 6824SOL     OW31930   4.321   1.000  16.561 -0.4155 -0.2273 -0.5531
 6824SOL    HW131931   4.276   1.063  16.617 -0.2320  0.4224 -1.1285
 6824SOL    HW231932   4.257   0.930  16.577  1.3365 -1.1026  2.5275
 6825SOL     OW31933   2.950   2.688  15.551  0.2522 -0.0796  0.6366
 6825SOL    HW131934   3.037   2.678  15.591  0.6009 -1.3274 -0.4264
 6825SOL    HW231935   2.933   2.596  15.531  2.7398 -0.7638  1.6399
 6826SOL     OW31936   1.563   1.974  10.508 -0.3403  0.3982 -0.0247
 6826SOL    HW131937   1.595   1.960  10.598 -0.9890 -3.3609 -0.4028
 6826SOL    HW231938   1.493   1.910  10.502 -1.2341  1.1539  2.0233
 6827SOL     OW31939   4.166   1.157   7.552  0.1821 -0.3108 -0.0255
 6827SOL    HW131940   4.143   1.096   7.483 -2.8728  1.3990 -0.5227
 6827SOL    HW231941   4.105   1.229   7.538 -1.2743 -2.2759 -3.5783
 6828SOL     OW31942   0.035   3.855   1.461 -0.1692  0.1681 -0.4216
 6828SOL    HW131943   4.681   3.859   1.516 -0.6066  0.1054 -1.0321
 6828SOL    HW231944   0.050   3.943   1.426  1.0628 -0.9603 -2.7243
 6829SOL     OW31945   0.243   1.128   4.719  0.8474  0.0202  0.1313
 6829SOL    HW131946   0.292   1.052   4.686  1.3492  0.8065 -0.9366
 6829SOL    HW231947   0.186   1.087   4.784 -1.1553  2.3214 -0.1480
 6830SOL     OW31948   0.923   3.584   8.790 -0.6722 -0.4404  0.1292
 6830SOL    HW131949   0.923   3.538   8.874  2.4620  1.8233  1.3848
 6830SOL    HW231950   1.018   3.590   8.778 -0.6298 -0.1972  0.5901
 6831SOL     OW31951   1.323   3.167   8.231  0.0603  0.3868 -0.0644
 6831SOL    HW131952   1.391   3.177   8.165  1.9503 -0.2017  1.7869
 6831SOL    HW231953   1.289   3.078   8.220 -1.3340  1.1556 -1.8620
 6832SOL     OW31954   1.836   1.396   6.438  0.4496 -0.4287  0.3189
 6832SOL    HW131955   1.809   1.385   6.529 -1.9694  1.2044 -0.2057
 6832SOL    HW231956   1.931   1.405   6.448  0.7075 -1.9117 -0.7034
 6833SOL     OW31957   1.975   4.663  16.294  0.5837  0.1686 -0.3332
 6833SOL    HW131958   1.905   4.676  16.229  0.9183 -0.0798 -0.7466
 6833SOL    HW231959   1.919   4.671  16.371  3.4535 -1.7391  1.9261
 6834SOL     OW31960   2.528   4.690   2.192 -0.0436  0.3637  0.4836
 6834SOL    HW131961   2.476   0.046   2.182 -1.9824 -0.9107  0.3852
 6834SOL    HW231962   2.613   0.006   2.211 -0.4038  1.6392 -0.5557
 6835SOL     OW31963   0.892   1.970   4.151  0.7142 -0.0552 -0.1734
 6835SOL    HW131964   0.934   2.042   4.103 -0.5227  1.6644  1.3151
 6835SOL    HW231965   0.860   1.921   4.075  0.3158  0.3791 -0.2833
 6836SOL     OW31966   2.193   1.219   4.642 -0.0637  0.2518  0.2826
 6836SOL    HW131967   2.192   1.124   4.654 -0.6132  0.0817 -1.2531
 6836SOL    HW231968   2.272   1.231   4.695  0.1332  1.4536 -0.2991
 6837SOL     OW31969   1.924   2.270   6.447  0.1519 -0.0469  0.1359
 6837SOL    HW131970   1.906   2.240   6.536 -2.0642 -1.5722 -0.8515
 6837SOL    HW231971   2.006   2.221   6.440  0.0188 -0.3156  0.5096
 6838SOL     OW31972   4.176   2.785  13.504 -0.5745 -0.4630  0.1460
 6838SOL    HW131973   4.186   2.879  13.519  1.1284 -1.0176  2.3909
 6838SOL    HW231974   4.200   2.777  13.412 -0.0095  0.6641  0.1912
 6839SOL     OW31975   4.647   1.743  16.932 -0.5438  0.2039  0.1802
 6839SOL    HW131976   4.571   1.771  16.982 -1.3320 -1.2645 -0.2175
 6839SOL    HW231977   4.646   1.648  16.921 -0.4104  0.1439  0.6940
 6840SOL     OW31978   1.757   0.241  14.867  0.3338 -0.4196 -0.0331
 6840SOL    HW131979   1.840   0.288  14.859 -1.0116  2.0040  0.4407
 6840SOL    HW231980   1.748   0.241  14.962  1.1954 -3.4715  0.0672
 6841SOL     OW31981   3.638   3.293  13.587  0.0318 -0.1542  0.1604
 6841SOL    HW131982   3.709   3.320  13.528  2.5982 -2.5511  2.1523
 6841SOL    HW231983   3.646   3.198  13.577 -1.2847 -0.4120  1.5718
 6842SOL     OW31984   3.840   3.481   3.334 -0.1255 -0.3351  0.0315
 6842SOL    HW131985   3.917   3.527   3.300  1.0750 -3.3561 -1.3554
 6842SOL    HW231986   3.773   3.541   3.300 -0.6151  0.3438  2.2392
 6843SOL     OW31987   0.129   0.191  13.880 -0.3534  0.9194  0.3947
 6843SOL    HW131988   0.194   0.257  13.855 -0.1390 -0.3158 -2.4078
 6843SOL    HW231989   0.118   0.207  13.973  1.8709  2.4402  0.3972
 6844SOL     OW31990   3.971   1.942   4.549  0.0126  0.0881  0.3822
 6844SOL    HW131991   4.055   1.988   4.551  0.6793 -1.0456 -1.0268
 6844SOL    HW231992   3.904   2.007   4.573  1.9998  1.9509  0.8731
 6845SOL     OW31993   2.856   4.443  11.511 -0.3317 -0.3415  0.0201
 6845SOL    HW131994   2.873   4.351  11.529 -0.5337 -0.8389 -2.3282
 6845SOL    HW231995   2.942   4.458  11.473  0.1939  2.8223  2.4352
 6846SOL     OW31996   4.705   1.999   6.355 -0.0872  0.1943 -0.1146
 6846SOL    HW131997   0.051   1.935   6.361 -0.3899 -0.1231  0.1001
 6846SOL    HW231998   4.629   1.942   6.374 -0.2129  0.0578 -1.0142
 6847SOL     OW31999   3.510   0.825   2.360  0.1971  0.3105 -0.4319
 6847SOL    HW132000   3.588   0.868   2.397 -0.3949  0.1626  1.0080
 6847SOL    HW232001   3.536   0.733   2.368  0.1488  0.3108 -0.2627
 6848SOL     OW32002   3.405   3.312   3.729  0.2427 -0.2208 -0.1486
 6848SOL    HW132003   3.444   3.395   3.703 -0.1850 -1.1132 -3.7308
 6848SOL    HW232004   3.315   3.345   3.721  1.0483  1.3248 -3.0911
 6849SOL     OW32005   1.978   2.537   7.539 -0.1029 -0.5980  0.1213
 6849SOL    HW132006   1.932   2.468   7.587  1.5976 -2.7852 -1.4118
 6849SOL    HW232007   1.908   2.602   7.531  1.1124  1.3008  4.3138
 6850SOL     OW32008   4.537   3.741  11.696 -0.0132 -1.1172  0.4435
 6850SOL    HW132009   4.603   3.748  11.627 -1.1009  0.7450 -0.4321
 6850SOL    HW232010   4.563   3.667  11.750 -1.1163 -0.9564  1.2051
 6851SOL     OW32011   3.714   3.954   3.183 -0.1886  0.3167  0.4005
 6851SOL    HW132012   3.764   4.026   3.219 -1.3934  1.2457  0.2395
 6851SOL    HW232013   3.645   3.992   3.128 -0.3197  1.4787  1.3737
 6852SOL     OW32014   1.216   0.455   9.130 -0.0232  0.5982 -0.0400
 6852SOL    HW132015   1.195   0.523   9.066  0.5146  0.9900  0.2071
 6852SOL    HW232016   1.309   0.479   9.131  0.7600 -2.4893  1.4530
 6853SOL     OW32017   0.826   0.117   8.739  0.2583  0.0814  0.6337
 6853SOL    HW132018   0.748   0.085   8.785 -0.9410 -0.3924 -1.7435
 6853SOL    HW232019   0.857   0.045   8.684  0.7636  0.8795 -0.1336
 6854SOL     OW32020   2.862   0.866   7.532  0.4075  0.4240  0.1830
 6854SOL    HW132021   2.781   0.855   7.582  1.6155 -0.5925  1.8761
 6854SOL    HW232022   2.876   0.961   7.530 -2.4646  0.8395 -0.5626
 6855SOL     OW32023   0.621   3.775   9.078  0.3142 -0.3010  0.4910
 6855SOL    HW132024   0.652   3.690   9.108 -0.4205 -0.9711 -0.6450
 6855SOL    HW232025   0.650   3.780   8.987 -2.5241  0.1116 -0.4028
 6856SOL     OW32026   4.542   3.040   4.068 -0.0118 -0.0752 -0.2832
 6856SOL    HW132027   4.500   3.051   3.983 -0.2555 -0.2107 -0.1790
 6856SOL    HW232028   4.514   3.124   4.105  1.5718  1.4736 -2.6305
 6857SOL     OW32029   0.813   0.921   0.402  0.3098 -0.3732  0.5110
 6857SOL    HW132030   0.804   0.946   0.494  2.1051 -0.3527  0.6738
 6857SOL    HW232031   0.719   0.913   0.382  0.8107  1.5734 -2.7540
 6858SOL     OW32032   3.277   4.244  14.929 -0.5843  0.2809 -0.2769
 6858SOL    HW132033   3.331   4.288  14.995 -2.1225  1.1545  0.4062
 6858SOL    HW232034   3.299   4.293  14.850 -0.2099 -0.0410 -0.3732
 6859SOL     OW32035   1.607   3.453   2.395  0.7431  0.4688 -0.0369
 6859SOL    HW132036   1.574   3.510   2.465 -0.4849 -2.1397  1.4690
 6859SOL    HW232037   1.685   3.411   2.430 -1.1094 -2.9046 -0.0184
 6860SOL     OW32038   1.303   0.152   6.165 -0.0194 -0.0274 -0.3798
 6860SOL    HW132039   1.283   0.111   6.250 -1.2160  0.1163 -0.5896
 6860SOL    HW232040   1.225   0.122   6.120 -0.0729 -1.6059  0.7596
 6861SOL     OW32041   2.866   0.953   8.773  0.0219 -0.1156 -0.7471
 6861SOL    HW132042   2.961   0.965   8.769 -0.0849  1.7882  3.1698
 6861SOL    HW232043   2.844   0.930   8.864  2.8680  0.8686  0.1674
 6862SOL     OW32044   4.600   1.379  13.499 -0.1488 -0.2555  0.1290
 6862SOL    HW132045   4.610   1.300  13.446  1.7796 -1.5110  2.3151
 6862SOL    HW232046   4.514   1.400  13.463 -0.4285  1.1575  1.5978
 6863SOL     OW32047   2.947   2.475   2.674 -0.2987  0.0422  0.5433
 6863SOL    HW132048   2.869   2.531   2.674 -1.3708 -1.4444 -1.2118
 6863SOL    HW232049   2.919   2.384   2.687 -1.4368  0.0484 -1.8513
 6864SOL     OW32050   2.767   3.309   2.025 -0.4323  0.2882 -0.5706
 6864SOL    HW132051   2.799   3.256   2.098  2.3774 -0.8215 -2.6675
 6864SOL    HW232052   2.745   3.244   1.959 -1.4489  1.5325 -1.4643
 6865SOL     OW32053   4.621   1.323  10.100 -0.2358 -0.3320  0.5238
 6865SOL    HW132054   4.714   1.307  10.117 -0.0282  0.0169 -0.2962
 6865SOL    HW232055   4.612   1.298  10.008  2.0017 -1.3297  0.5684
 6866SOL     OW32056   3.832   1.872   0.331 -0.1438  0.5705 -0.5353
 6866SOL    HW132057   3.915   1.865   0.377 -0.1750 -0.9453 -0.7017
 6866SOL    HW232058   3.769   1.871   0.403 -0.2538  1.8171 -0.6185
 6867SOL     OW32059   3.457   0.027   2.704  0.7078 -0.2337 -0.0835
 6867SOL    HW132060   3.537   0.078   2.720  0.0175 -0.0943  2.9520
 6867SOL    HW232061   3.403   0.095   2.663 -0.7772 -2.1929 -1.4176
 6868SOL     OW32062   3.795   0.308   4.368 -0.4155  0.2741 -0.4696
 6868SOL    HW132063   3.796   0.220   4.330 -0.0617  0.1269 -0.1252
 6868SOL    HW232064   3.742   0.289   4.446 -0.9492  4.0085  0.0812
 6869SOL     OW32065   1.063   4.641  10.607  0.2344  0.1485  0.0690
 6869SOL    HW132066   0.972   4.667  10.624 -0.2562  0.5965 -3.2270
 6869SOL    HW232067   1.067   4.546  10.608  1.9233  0.2274  0.2757
 6870SOL     OW32068   3.364   3.092   8.692  0.1697 -0.2310  0.0012
 6870SOL    HW132069   3.300   3.162   8.701 -0.8384 -1.1298 -0.3088
 6870SOL    HW232070   3.388   3.100   8.600  2.0948 -1.2540  0.3933
 6871SOL     OW32071   1.268   2.423  16.448 -0.1445  0.2762 -0.3671
 6871SOL    HW132072   1.288   2.440  16.540 -2.7007 -0.0479  0.2316
 6871SOL    HW232073   1.314   2.495  16.406 -1.6246  1.6329  0.3569
 6872SOL     OW32074   4.262   0.572   7.863  0.5525  0.1128 -0.1727
 6872SOL    HW132075   4.328   0.634   7.892 -0.0051  0.9126 -0.6336
 6872SOL    HW232076   4.244   0.518   7.940  1.5476 -1.4048 -1.0083
 6873SOL     OW32077   1.956   2.560   1.980 -0.1801  0.1828  0.3165
 6873SOL    HW132078   2.029   2.615   2.006 -0.4113  1.3694 -1.5526
 6873SOL    HW232079   1.997   2.524   1.902 -0.7093  0.3293 -0.0308
 6874SOL     OW32080   3.578   4.426  11.074 -0.0983 -0.3975 -0.2011
 6874SOL    HW132081   3.667   4.461  11.077 -1.0270  1.7903  2.3506
 6874SOL    HW232082   3.542   4.425  11.163  0.3910  0.2398  0.0007
 6875SOL     OW32083   2.637   0.406   2.609 -0.1208 -0.2012 -0.0360
 6875SOL    HW132084   2.601   0.414   2.698 -2.4142 -3.8956 -0.6526
 6875SOL    HW232085   2.704   0.474   2.612  0.6169 -1.0348  2.5689
 6876SOL     OW32086   2.947   0.330  12.081  0.9173  0.4127  0.3931
 6876SOL    HW132087   2.957   0.327  12.177  1.3855  0.5380  0.3480
 6876SOL    HW232088   2.859   0.366  12.073  0.3068 -1.1901 -0.1356
 6877SOL     OW32089   4.361   2.248   8.852  0.2426  0.0868 -0.6202
 6877SOL    HW132090   4.331   2.174   8.904 -0.8462  0.6105 -0.5035
 6877SOL    HW232091   4.445   2.256   8.895  0.2902  2.3374 -1.1268
 6878SOL     OW32092   4.195   1.362   6.979 -0.0873  0.3325  0.3899
 6878SOL    HW132093   4.126   1.302   7.009 -0.6810  1.4853  1.3170
 6878SOL    HW232094   4.272   1.312   7.008 -1.6755 -1.4694  1.5741
 6879SOL     OW32095   2.619   0.986   4.539  0.8474 -0.6464  0.4950
 6879SOL    HW132096   2.654   0.932   4.611 -1.9530 -1.5995  1.1453
 6879SOL    HW232097   2.696   1.035   4.510  0.6638 -0.6287  0.0500
 6880SOL     OW32098   3.371   4.564   9.628 -0.2581  0.7565  0.3158
 6880SOL    HW132099   3.444   4.622   9.606 -1.6254  1.8276 -1.3513
 6880SOL    HW232100   3.423   4.499   9.675  0.1383  1.7590  1.2620
 6881SOL     OW32101   2.463   2.217   0.946  0.6037  0.3810  0.1382
 6881SOL    HW132102   2.526   2.284   0.973  2.0514 -1.1883  0.6652
 6881SOL    HW232103   2.468   2.157   1.020 -2.3960 -0.5259 -0.3938
 6882SOL     OW32104   2.805   0.098   2.230 -0.0177  0.0556  0.2628
 6882SOL    HW132105   2.794   0.190   2.254 -0.3523 -0.3574  1.6782
 6882SOL    HW232106   2.827   0.113   2.138  1.9770  0.6734  0.8367
 6883SOL     OW32107   0.720   3.819   5.653  0.0391 -0.1438  0.3166
 6883SOL    HW132108   0.742   3.821   5.560 -0.7534  0.2126  0.1407
 6883SOL    HW232109   0.644   3.762   5.657  0.6663 -0.9144  1.2232
 6884SOL     OW32110   4.283   2.593   4.401  0.3764 -0.2597  0.6969
 6884SOL    HW132111   4.297   2.499   4.387 -1.1331 -0.1729 -1.2380
 6884SOL    HW232112   4.335   2.613   4.479  1.8974  0.7235 -0.5591
 6885SOL     OW32113   0.819   2.258   1.509  0.3679 -0.0812  0.3859
 6885SOL    HW132114   0.887   2.244   1.575 -0.8663 -0.0394  1.6559
 6885SOL    HW232115   0.743   2.219   1.550  0.8653  0.1241  1.5002
 6886SOL     OW32116   2.676   0.349   2.330  0.0310 -0.5762 -0.8116
 6886SOL    HW132117   2.656   0.329   2.422 -0.1273  0.4938 -0.6114
 6886SOL    HW232118   2.593   0.376   2.291  0.4070  0.4160 -0.9362
 6887SOL     OW32119   2.545   2.498   9.590  0.1637  0.3940  1.0097
 6887SOL    HW132120   2.537   2.593   9.577 -1.3043 -0.1153 -1.8603
 6887SOL    HW232121   2.615   2.481   9.527 -0.4262 -2.0392  1.0385
 6888SOL     OW32122   3.537   4.482  11.340 -0.5129  0.1177 -0.5452
 6888SOL    HW132123   3.520   4.574  11.357 -2.5509 -0.8270  2.5904
 6888SOL    HW232124   3.545   4.457  11.432  0.6277  1.6383 -0.2476
 6889SOL     OW32125   2.560   0.856   0.494  0.7608  0.5205  0.6129
 6889SOL    HW132126   2.615   0.910   0.552  0.6607 -1.2132  2.3123
 6889SOL    HW232127   2.505   0.816   0.562 -0.2857  0.7878 -0.0826
 6890SOL     OW32128   0.196   1.802  14.798  0.3323 -0.3548  0.8055
 6890SOL    HW132129   0.177   1.742  14.871 -0.8951  0.4396  1.1254
 6890SOL    HW232130   0.225   1.735  14.735 -0.3784  0.9249 -0.8979
 6891SOL     OW32131   2.019   4.647   6.379  0.2256  0.1027  0.0506
 6891SOL    HW132132   2.069   4.717   6.338  0.5022  0.6411  1.2981
 6891SOL    HW232133   2.089   4.599   6.424 -0.8181 -1.5330 -0.0762
 6892SOL     OW32134   4.254   1.715  13.818 -0.1752 -0.9138  0.4663
 6892SOL    HW132135   4.231   1.807  13.803  2.3663 -0.6030 -1.4947
 6892SOL    HW232136   4.213   1.705  13.904  2.4032  0.0371  1.8239
 6893SOL     OW32137   1.032   1.659   4.086 -0.3183 -0.2399 -0.0533
 6893SOL    HW132138   1.105   1.700   4.133 -0.5822 -1.1227  1.1136
 6893SOL    HW232139   1.015   1.737   4.033 -0.8769 -0.1934  0.1956
 6894SOL     OW32140   2.146   1.908   6.945  0.4537  0.1126  0.3150
 6894SOL    HW132141   2.197   1.852   6.887 -0.3826 -0.1829 -0.1382
 6894SOL    HW232142   2.149   1.871   7.034 -0.1841 -0.8877 -0.0797
 6895SOL     OW32143   1.110   4.208   5.478  0.3599 -0.2504  0.3813
 6895SOL    HW132144   1.109   4.241   5.388  0.2211 -0.2892  0.3685
 6895SOL    HW232145   1.202   4.201   5.501  0.1325 -0.5388  1.2209
 6896SOL     OW32146   3.977   0.882   0.020  0.6555 -0.3477 -0.2048
 6896SOL    HW132147   4.021   0.967   0.007  1.5253 -0.8314 -0.4432
 6896SOL    HW232148   3.978   0.848  17.630 -0.0590 -0.0629 -0.3135
 6897SOL     OW32149   2.967   1.549   1.940 -0.6251 -0.2134  0.8045
 6897SOL    HW132150   2.966   1.619   2.006 -1.9100 -0.2061  0.7915
 6897SOL    HW232151   3.059   1.523   1.946 -0.6786 -0.5925 -0.0353
 6898SOL     OW32152   3.689   3.130   0.162 -0.4522  0.1602 -0.1277
 6898SOL    HW132153   3.604   3.118   0.205 -1.0762  0.3369 -1.3000
 6898SOL    HW232154   3.710   3.223   0.153  0.2609  0.1300  1.3012
 6899SOL     OW32155   3.525   3.870   5.852 -0.1102 -0.1043 -0.4783
 6899SOL    HW132156   3.483   3.785   5.860  0.1890 -0.4162 -2.3126
 6899SOL    HW232157   3.470   3.920   5.912  1.5031 -1.8662  2.4706
 6900SOL     OW32158   0.353   0.804   9.520  0.7951 -0.0465 -0.3557
 6900SOL    HW132159   0.372   0.779   9.610  1.1242  0.0854 -0.3868
 6900SOL    HW232160   0.259   0.799   9.536  0.4474  0.8594 -2.1519
 6901SOL     OW32161   4.304   0.903   1.430 -0.1644  0.2243  0.1229
 6901SOL    HW132162   4.396   0.883   1.447 -0.4705 -1.5702 -0.3569
 6901SOL    HW232163   4.295   0.998   1.442 -4.1036  0.2516 -2.9980
 6902SOL     OW32164   4.173   3.289   1.567  0.3390 -0.5911  0.3978
 6902SOL    HW132165   4.225   3.252   1.496 -0.5899  2.0043 -1.6447
 6902SOL    HW232166   4.090   3.254   1.534  0.3494 -0.3319  0.0877
 6903SOL     OW32167   2.688   2.963  10.115 -0.3711  0.1607  0.3061
 6903SOL    HW132168   2.594   2.953  10.128 -0.4769 -0.6536 -1.0680
 6903SOL    HW232169   2.710   2.874  10.142 -0.3326  0.0792  0.0099
 6904SOL     OW32170   2.649   1.614   7.411 -0.1086 -0.5448 -0.1815
 6904SOL    HW132171   2.583   1.657   7.465  0.2122 -1.3924  0.8744
 6904SOL    HW232172   2.688   1.691   7.369  1.0241 -0.4622  1.0291
 6905SOL     OW32173   0.669   2.067   1.838  0.2962 -0.0762 -0.3998
 6905SOL    HW132174   0.668   2.159   1.862  1.9679  0.2519 -1.5875
 6905SOL    HW232175   0.652   2.033   1.926  1.7469 -0.2268 -0.1645
 6906SOL     OW32176   4.235   0.434  14.008  0.5353 -0.1060 -0.2772
 6906SOL    HW132177   4.171   0.489  13.965  0.0209 -0.5288 -0.0482
 6906SOL    HW232178   4.227   0.463  14.099 -0.1044 -0.0251 -0.3599
 6907SOL     OW32179   0.350   4.573   4.059 -0.1416 -0.2730 -0.0538
 6907SOL    HW132180   0.435   4.541   4.090  0.4320 -1.8655 -3.2137
 6907SOL    HW232181   0.385   4.639   3.999 -0.5900 -1.1988 -1.3437
 6908SOL     OW32182   2.276   4.243  13.618 -0.1427  0.3906 -0.1052
 6908SOL    HW132183   2.266   4.288  13.702  3.0367 -1.4348  1.2327
 6908SOL    HW232184   2.210   4.276  13.557 -0.6947 -1.4410 -0.4759
 6909SOL     OW32185   2.305   3.744  11.951  0.0794  0.0090  0.6273
 6909SOL    HW132186   2.237   3.805  11.921  0.3608  1.0437  2.0829
 6909SOL    HW232187   2.253   3.718  12.028 -1.3163  0.4727 -0.1465
 6910SOL     OW32188   3.592   3.294  14.040  0.0971  0.5187  0.5870
 6910SOL    HW132189   3.583   3.331  13.952  0.5430 -3.2400 -1.0395
 6910SOL    HW232190   3.628   3.370  14.087  1.6689  1.4947 -2.1782
 6911SOL     OW32191   0.968   0.265   5.731  0.5152 -0.0211 -0.4702
 6911SOL    HW132192   0.938   0.186   5.777  2.0736  0.6435  1.6812
 6911SOL    HW232193   0.883   0.289   5.694  0.3858 -0.5349 -0.5012
 6912SOL     OW32194   1.950   2.493   9.373  0.7080  0.2265 -0.3808
 6912SOL    HW132195   2.027   2.449   9.409  1.9850  1.2250 -1.8925
 6912SOL    HW232196   1.933   2.436   9.297  0.8920  1.1604 -1.1215
 6913SOL     OW32197   0.779   1.595   6.839 -0.7175 -0.5884 -0.5508
 6913SOL    HW132198   0.777   1.573   6.746 -0.1957  2.6186 -1.2886
 6913SOL    HW232199   0.738   1.681   6.845 -0.5802 -0.4970 -0.9087
 6914SOL     OW32200   2.571   0.154   5.176  0.0629 -0.1902 -0.3805
 6914SOL    HW132201   2.497   0.108   5.136 -1.4889  1.2980  0.7414
 6914SOL    HW232202   2.632   0.152   5.103  1.1991 -0.7914  0.5816
 6915SOL     OW32203   1.871   3.951  11.860 -0.1210  0.7845 -0.3583
 6915SOL    HW132204   1.952   3.931  11.814 -0.1141  1.3632 -0.5983
 6915SOL    HW232205   1.804   3.907  11.808  2.0506 -0.5348 -2.0176
 6916SOL     OW32206   3.708   0.478   6.561  0.3652 -0.4572  0.4158
 6916SOL    HW132207   3.800   0.487   6.535  0.3474  0.2361  0.5955
 6916SOL    HW232208   3.660   0.498   6.481  0.2888 -0.1207  0.5469
 6917SOL     OW32209   2.907   3.592  10.660  0.2338 -0.1329 -0.0767
 6917SOL    HW132210   2.862   3.508  10.665 -0.2456  0.1720  0.6945
 6917SOL    HW232211   2.984   3.578  10.715  2.2053 -0.4381 -2.9343
 6918SOL     OW32212   1.473   2.877  15.143 -0.0993 -0.1263  0.1625
 6918SOL    HW132213   1.379   2.897  15.151 -0.0261  0.6116 -0.8468
 6918SOL    HW232214   1.509   2.947  15.196 -3.6412  0.0291  2.4119
 6919SOL     OW32215   0.456   0.950   8.325 -0.1007 -0.2749 -0.3012
 6919SOL    HW132216   0.509   0.930   8.403 -0.8696  0.2650  0.3596
 6919SOL    HW232217   0.369   0.921   8.351  1.0899 -1.6068  2.2420
 6920SOL     OW32218   1.002   2.211   1.716  0.7265 -0.2431  0.3432
 6920SOL    HW132219   1.002   2.164   1.799  0.1221  0.6927  0.8746
 6920SOL    HW232220   1.075   2.169   1.672  1.2537 -1.8364  2.7123
 6921SOL     OW32221   3.118   4.521   6.749  0.1022 -0.0109 -0.2085
 6921SOL    HW132222   3.043   4.569   6.715  0.0501  1.0281  1.3849
 6921SOL    HW232223   3.148   4.578   6.820  0.0931  0.6686 -0.7473
 6922SOL     OW32224   2.511   1.673   7.123  0.3278 -0.0725  0.0667
 6922SOL    HW132225   2.606   1.666   7.118  0.2490 -1.9086  1.3081
 6922SOL    HW232226   2.483   1.582   7.118  0.9617 -0.3322  1.1841
 6923SOL     OW32227   1.709   0.901   9.079 -0.3567  0.4546 -0.0287
 6923SOL    HW132228   1.624   0.887   9.036  0.3115  1.6879 -1.7772
 6923SOL    HW232229   1.703   0.880   9.172 -0.7944  0.4265 -0.0607
 6924SOL     OW32230   3.420   2.758   0.767  0.1751  0.4195  0.3995
 6924SOL    HW132231   3.364   2.736   0.693 -1.0695  1.3766  1.0608
 6924SOL    HW232232   3.432   2.853   0.758 -0.3102  0.3991 -0.4040
 6925SOL     OW32233   0.283   3.607   2.481 -0.1607 -0.1042  0.3035
 6925SOL    HW132234   0.286   3.516   2.511  0.3620  0.2441  1.2817
 6925SOL    HW232235   0.237   3.654   2.550 -0.0839  2.0413 -1.0920
 6926SOL     OW32236   1.167   0.917   3.626 -0.8756 -0.9865 -0.4464
 6926SOL    HW132237   1.103   0.848   3.610  1.3287 -3.2049  0.3227
 6926SOL    HW232238   1.117   0.980   3.678  0.0748  0.3977 -1.2170
 6927SOL     OW32239   0.369   2.762   2.541 -0.2258  0.3807  0.8285
 6927SOL    HW132240   0.391   2.828   2.475  1.7111 -0.2624  0.8410
 6927SOL    HW232241   0.302   2.708   2.499  1.8869 -1.4922 -0.1287
 6928SOL     OW32242   2.152   0.201  15.618  0.1716  0.1122 -0.0195
 6928SOL    HW132243   2.130   0.160  15.534  1.7757 -2.2327  0.7214
 6928SOL    HW232244   2.081   0.265  15.618 -0.4095 -0.5395  2.3839
 6929SOL     OW32245   3.147   1.852   6.880  0.5142 -0.6610  0.1459
 6929SOL    HW132246   3.232   1.874   6.843  0.5700 -1.1681 -0.0212
 6929SOL    HW232247   3.086   1.852   6.806 -0.1551  0.6458  0.6725
 6930SOL     OW32248   0.510   3.686   2.348 -0.9411  0.1674  0.3409
 6930SOL    HW132249   0.506   3.781   2.356 -4.4544  0.2835 -2.6339
 6930SOL    HW232250   0.433   3.661   2.399 -0.6826  0.1372  0.7147
 6931SOL     OW32251   2.003   2.363  15.257 -0.2500  0.2293 -0.8449
 6931SOL    HW132252   2.006   2.420  15.180 -2.2625  1.2154 -0.1763
 6931SOL    HW232253   2.068   2.295  15.239 -4.0454 -3.2820 -1.1867
 6932SOL     OW32254   3.191   1.427   1.917 -0.1421  0.1931  0.1319
 6932SOL    HW132255   3.261   1.376   1.959 -2.6418 -2.0173  1.6250
 6932SOL    HW232256   3.242   1.498   1.879 -0.7879  1.6007  1.9030
 6933SOL     OW32257   4.136   1.119   8.514 -0.5589 -0.1099 -0.2707
 6933SOL    HW132258   4.144   1.049   8.579  0.1153 -1.7793 -2.1430
 6933SOL    HW232259   4.178   1.188   8.565  2.1600 -2.1414  0.2495
 6934SOL     OW32260   3.441   1.647   2.685  0.2795  0.1433  0.3620
 6934SOL    HW132261   3.445   1.579   2.618 -0.8394 -0.5111  0.9752
 6934SOL    HW232262   3.473   1.608   2.766 -0.7712 -2.3757 -0.4244
 6935SOL     OW32263   0.253   3.559  13.124 -0.3124  0.3136  0.1727
 6935SOL    HW132264   0.311   3.556  13.048  1.6086  0.5022  1.6464
 6935SOL    HW232265   0.223   3.649  13.110  0.2480  0.8734  2.6150
 6936SOL     OW32266   3.913   3.047   3.688  0.3431 -0.0649 -0.0276
 6936SOL    HW132267   3.957   3.131   3.696  1.7587 -0.8654  0.6875
 6936SOL    HW232268   3.830   3.060   3.643  0.3108 -1.1947 -0.3009
 6937SOL     OW32269   2.790   1.873   8.271 -0.3030  0.0471 -0.5888
 6937SOL    HW132270   2.785   1.947   8.332  0.3944  0.0819 -0.5805
 6937SOL    HW232271   2.868   1.910   8.230  1.4245 -0.1838  2.4586
 6938SOL     OW32272   4.242   2.955   6.403  0.2317 -0.1129  0.2471
 6938SOL    HW132273   4.180   3.013   6.358 -0.4983  0.0527  1.4654
 6938SOL    HW232274   4.207   2.868   6.382 -2.1064  0.5723  1.3793
 6939SOL     OW32275   3.028   1.200   1.999 -0.0265  0.5694 -0.3801
 6939SOL    HW132276   3.082   1.195   2.078 -2.9769  0.5484  1.6689
 6939SOL    HW232277   3.046   1.291   1.976 -0.7740  0.5644 -1.0009
 6940SOL     OW32278   3.443   1.915   5.331  0.0521  0.5432 -0.0118
 6940SOL    HW132279   3.406   1.925   5.243  1.1581  0.7246 -0.4541
 6940SOL    HW232280   3.407   1.989   5.379  0.9542  0.7935  0.2781
 6941SOL     OW32281   2.782   0.275   4.223 -0.4519 -0.3625 -0.1658
 6941SOL    HW132282   2.783   0.316   4.136 -2.3027 -2.1876 -1.0526
 6941SOL    HW232283   2.852   0.212   4.207 -0.3922 -0.3783  0.1536
 6942SOL     OW32284   0.731   1.408  10.961  0.3540  0.0529  0.0082
 6942SOL    HW132285   0.638   1.429  10.948  0.5836  0.9397 -0.1909
 6942SOL    HW232286   0.767   1.483  11.007  2.4571 -0.3914 -0.9022
 6943SOL     OW32287   2.997   1.648   3.957 -0.6684  0.6234 -0.5394
 6943SOL    HW132288   2.999   1.650   4.053  1.1558 -2.8622 -0.5186
 6943SOL    HW232289   2.903   1.642   3.939 -1.0701  2.2972  0.9750
 6944SOL     OW32290   0.480   0.669   5.437  0.7003  0.0106 -0.6003
 6944SOL    HW132291   0.556   0.617   5.463 -1.4472 -1.9093  1.9357
 6944SOL    HW232292   0.485   0.655   5.343  0.1632  0.7231 -0.7397
 6945SOL     OW32293   0.015   4.477  12.916  0.1657  0.2482  0.0373
 6945SOL    HW132294   4.678   4.536  12.960 -2.7044 -0.9195 -2.3764
 6945SOL    HW232295   4.720   4.397  12.965 -2.4562  0.1821 -1.1183
 6946SOL     OW32296   0.233   2.917  16.482 -0.0616  0.8227  0.3653
 6946SOL    HW132297   0.256   2.869  16.562  0.7927  0.6341  0.0122
 6946SOL    HW232298   0.200   3.000  16.516  0.8248  1.4151 -0.2180
 6947SOL     OW32299   4.186   0.692   9.227 -0.1804  0.5041 -0.0081
 6947SOL    HW132300   4.252   0.744   9.181  0.4252 -2.1562 -2.1650
 6947SOL    HW232301   4.176   0.614   9.172  1.5109 -0.0187  0.4368
 6948SOL     OW32302   4.171   3.723  13.744 -0.2227  0.2866  0.2460
 6948SOL    HW132303   4.216   3.692  13.822  0.3099  1.5627  0.4562
 6948SOL    HW232304   4.189   3.817  13.742  0.2585  0.1407 -2.7417
 6949SOL     OW32305   0.163   3.496   3.516 -0.0789  0.6577 -0.7119
 6949SOL    HW132306   0.074   3.532   3.527 -1.1941 -1.6615 -2.3697
 6949SOL    HW232307   0.173   3.451   3.600 -0.0049  0.0022 -1.0758
 6950SOL     OW32308   1.508   2.641   3.846 -0.2215  0.0759  0.6001
 6950SOL    HW132309   1.450   2.590   3.903  0.2453 -2.2562 -0.9894
 6950SOL    HW232310   1.549   2.697   3.913  0.0328 -0.8462  1.2217
 6951SOL     OW32311   1.960   1.656   3.873 -0.6102 -0.4121 -0.2108
 6951SOL    HW132312   1.937   1.609   3.954 -1.4336  1.7448  0.7993
 6951SOL    HW232313   1.958   1.748   3.897 -1.5501 -0.2649 -0.8480
 6952SOL     OW32314   3.661   0.791  16.867  0.0242  0.2699  0.3714
 6952SOL    HW132315   3.573   0.821  16.843 -0.2645  0.7824  2.1140
 6952SOL    HW232316   3.699   0.793  16.779 -0.6433 -1.6628  0.0350
 6953SOL     OW32317   2.552   2.973   2.187  0.2682  0.2796 -0.2817
 6953SOL    HW132318   2.614   2.939   2.251  1.0018  0.2768 -0.9831
 6953SOL    HW232319   2.588   2.953   2.100  2.6304  1.2657  0.4707
 6954SOL     OW32320   0.499   3.981  10.263  0.0453 -0.0196 -0.2805
 6954SOL    HW132321   0.489   4.074  10.243  0.4831 -0.0727 -0.7305
 6954SOL    HW232322   0.419   3.962  10.313  0.0552 -1.3347 -0.7472
 6955SOL     OW32323   4.159   2.591   5.548 -0.6396  0.2465 -0.3250
 6955SOL    HW132324   4.110   2.511   5.530 -1.3718  0.4641  0.7454
 6955SOL    HW232325   4.121   2.659   5.491 -2.3901  0.0442  0.6124
 6956SOL     OW32326   3.269   1.074   7.513 -0.4945 -0.3157 -0.1204
 6956SOL    HW132327   3.353   1.113   7.537  0.3031 -0.7168 -2.2672
 6956SOL    HW232328   3.214   1.097   7.588  1.7508 -0.0914  1.4515
 6957SOL     OW32329   4.138   0.778   8.133 -0.2363  0.3275 -0.3229
 6957SOL    HW132330   4.187   0.696   8.135  0.2773  0.6262 -0.7541
 6957SOL    HW232331   4.121   0.785   8.227 -0.1092 -1.0643 -0.2014
 6958SOL     OW32332   2.065   4.203   4.674 -0.3071  0.2861  0.1743
 6958SOL    HW132333   2.090   4.115   4.701 -0.6139  0.4716  1.0923
 6958SOL    HW232334   2.141   4.253   4.704  1.0083 -2.7672  1.9732
 6959SOL     OW32335   4.168   1.992   5.351 -1.0343 -0.4733 -0.2599
 6959SOL    HW132336   4.125   1.906   5.352 -0.8318 -0.5504  2.9762
 6959SOL    HW232337   4.151   2.035   5.435 -2.2429 -0.2751 -0.6136
 6960SOL     OW32338   1.324   0.820   5.622  0.1305 -0.4362  0.1340
 6960SOL    HW132339   1.358   0.818   5.532 -3.6991 -1.8040 -1.2764
 6960SOL    HW232340   1.318   0.913   5.645 -2.2222 -0.6089  0.1264
 6961SOL     OW32341   4.414   3.241   7.225  0.3583  0.2367  0.1892
 6961SOL    HW132342   4.365   3.258   7.305  1.0360 -1.9324  1.0837
 6961SOL    HW232343   4.336   3.227   7.172 -0.6715 -1.0948  2.0401
 6962SOL     OW32344   3.955   0.291   5.309  0.5813 -0.1476  0.0817
 6962SOL    HW132345   4.001   0.212   5.282  0.8168  0.3317 -0.9174
 6962SOL    HW232346   3.866   0.276   5.276 -0.0481  1.8755  0.8408
 6963SOL     OW32347   4.536   3.318   3.073  0.4072  0.1193 -0.1240
 6963SOL    HW132348   4.485   3.354   3.000  0.6175  0.1065 -0.2767
 6963SOL    HW232349   4.538   3.226   3.046 -0.2914 -0.3099  1.2993
 6964SOL     OW32350   4.006   4.579  11.273  0.2833 -0.4244  0.0084
 6964SOL    HW132351   4.047   4.642  11.333 -0.3119  0.5416 -0.5867
 6964SOL    HW232352   4.078   4.558  11.215  0.4363 -0.0258  0.0482
 6965SOL     OW32353   1.414   2.203   5.488  0.4424  0.4565  0.3100
 6965SOL    HW132354   1.476   2.275   5.495  0.5974  0.5849 -2.4881
 6965SOL    HW232355   1.365   2.206   5.571 -1.2836  0.3896 -0.7025
 6966SOL     OW32356   4.293   4.223   9.317  0.0079  0.2407  0.7991
 6966SOL    HW132357   4.343   4.147   9.348 -0.7340 -0.9454 -0.9096
 6966SOL    HW232358   4.206   4.186   9.328  0.4388 -1.6668 -2.1919
 6967SOL     OW32359   1.938   4.548   2.107  0.4512 -0.2900  0.4287
 6967SOL    HW132360   2.033   4.553   2.117  0.3149  0.8029  1.0670
 6967SOL    HW232361   1.927   4.475   2.168 -0.0700 -0.2221  0.4108
 6968SOL     OW32362   0.125   2.106   4.337 -0.2112  0.8580  0.4640
 6968SOL    HW132363   0.119   2.168   4.265  2.3427  0.9571  0.3184
 6968SOL    HW232364   0.082   2.026   4.306  2.6476 -1.1697  1.6974
 6969SOL     OW32365   2.758   1.929   6.625 -0.5771  0.0946 -0.3639
 6969SOL    HW132366   2.682   1.964   6.579  0.0791  1.5627 -0.3499
 6969SOL    HW232367   2.761   2.004   6.684  0.0378 -0.2178 -0.0026
 6970SOL     OW32368   3.344   3.046   5.429  0.1489 -0.8701  0.0080
 6970SOL    HW132369   3.373   2.988   5.360  0.5374 -0.6383 -0.0264
 6970SOL    HW232370   3.277   3.097   5.383 -0.5427 -0.5414  1.3644
 6971SOL     OW32371   0.286   1.967   2.033  0.6785 -0.2273 -0.6250
 6971SOL    HW132372   0.300   1.905   2.105 -0.8763  0.3666  0.1800
 6971SOL    HW232373   0.209   2.014   2.066  1.3081  2.6535 -3.2250
 6972SOL     OW32374   3.327   1.703   3.231 -0.4012  0.0695  0.3258
 6972SOL    HW132375   3.376   1.785   3.226  0.6389 -0.6213 -0.7349
 6972SOL    HW232376   3.379   1.641   3.180  0.9678  2.4299 -1.1266
 6973SOL     OW32377   1.484   3.932   0.012  0.0003 -0.4838  0.3744
 6973SOL    HW132378   1.437   3.956  17.632 -1.1646 -0.5283  1.0442
 6973SOL    HW232379   1.423   3.867   0.048  0.6069 -0.9451  0.5620
 6974SOL     OW32380   3.655   0.760   2.137  0.4582  0.4104 -0.1793
 6974SOL    HW132381   3.605   0.776   2.217 -0.2554 -0.9081 -0.3766
 6974SOL    HW232382   3.583   0.739   2.078 -0.3884  1.6324  0.4122
 6975SOL     OW32383   1.710   3.118   6.317 -0.4126  0.0531  0.3672
 6975SOL    HW132384   1.742   3.093   6.230 -0.8749  2.4678 -0.5045
 6975SOL    HW232385   1.685   3.027   6.333  0.4902  0.0582  1.7405
 6976SOL     OW32386   3.282   1.411   2.650 -0.1260  1.0394 -0.2906
 6976SOL    HW132387   3.281   1.479   2.583  1.5755 -0.3764 -1.7221
 6976SOL    HW232388   3.304   1.337   2.594  1.0516  0.2542  1.2190
 6977SOL     OW32389   4.483   0.070   9.001  0.0728  0.3418 -0.2499
 6977SOL    HW132390   4.568   0.113   9.001  0.2436  0.0104  1.0240
 6977SOL    HW232391   4.428   0.139   8.964 -0.4097 -0.2022 -0.5472
 6978SOL     OW32392   1.918   0.174   7.128 -0.1894  0.0213 -0.6072
 6978SOL    HW132393   1.946   0.135   7.211 -2.3686 -0.0793  0.0790
 6978SOL    HW232394   1.947   0.265   7.135  2.7064 -1.1618  2.3659
 6979SOL     OW32395   2.584   0.416   6.587  0.2013  0.3382 -0.3076
 6979SOL    HW132396   2.534   0.335   6.582  0.2514  0.3002 -0.1924
 6979SOL    HW232397   2.528   0.477   6.540  0.9931 -0.9938 -2.9836
 6980SOL     OW32398   3.448   0.544   2.920  0.2412  0.0612 -0.5873
 6980SOL    HW132399   3.426   0.455   2.891  1.7391 -1.1682  2.0481
 6980SOL    HW232400   3.542   0.529   2.934  0.1988  0.3359 -0.0336
 6981SOL     OW32401   2.694   0.486  11.667 -0.5252 -0.5185  0.4182
 6981SOL    HW132402   2.752   0.424  11.711  0.4912 -1.0599 -1.6646
 6981SOL    HW232403   2.674   0.438  11.586 -2.8891  0.9790  0.1327
 6982SOL     OW32404   1.786   0.264   9.228 -0.1013 -0.6408 -0.5847
 6982SOL    HW132405   1.857   0.212   9.267 -1.5431 -1.1606  1.3162
 6982SOL    HW232406   1.703   0.232   9.263 -0.7782  2.7174  0.8697
 6983SOL     OW32407   4.373   0.468   0.888 -0.7329  0.0114 -0.8420
 6983SOL    HW132408   4.366   0.404   0.958 -4.2601 -1.1103 -2.2296
 6983SOL    HW232409   4.411   0.544   0.931  0.3978 -0.1428 -1.5640
 6984SOL     OW32410   1.592   2.631  15.893  0.1970 -0.0812 -0.1247
 6984SOL    HW132411   1.601   2.642  15.798  1.1534 -2.8201 -0.3632
 6984SOL    HW232412   1.572   2.538  15.900 -2.3358  0.5818  1.2240
 6985SOL     OW32413   4.654   4.151   5.498 -0.0826 -0.1106  0.1173
 6985SOL    HW132414   0.015   4.177   5.463 -0.4380 -0.3070 -0.8695
 6985SOL    HW232415   4.637   4.073   5.446  0.7886  0.0740 -0.4493
 6986SOL     OW32416   0.021   0.091   9.125  0.1536 -0.1831 -0.3003
 6986SOL    HW132417   0.007   0.061   9.216 -0.1876 -0.3163 -0.3952
 6986SOL    HW232418   0.080   0.021   9.097 -0.4422 -1.2727  1.1401
 6987SOL     OW32419   3.800   1.200   2.126 -0.5651 -0.4129  0.0061
 6987SOL    HW132420   3.784   1.123   2.071  0.7267  0.7358 -1.9811
 6987SOL    HW232421   3.787   1.266   2.058 -1.2996 -0.5832 -0.0192
 6988SOL     OW32422   2.894   1.277   5.865 -0.0177 -0.5167  0.0947
 6988SOL    HW132423   2.865   1.220   5.794 -1.4944  0.5044 -0.1420
 6988SOL    HW232424   2.860   1.362   5.835  0.4057  0.1675  1.5959
 6989SOL     OW32425   1.606   1.942   3.066 -0.2345  0.2503  0.0906
 6989SOL    HW132426   1.615   1.956   2.972 -1.7498 -1.4259 -0.3247
 6989SOL    HW232427   1.699   1.946   3.085 -0.2090  1.2327 -0.2698
 6990SOL     OW32428   3.145   3.238   6.378  0.6123 -0.0565 -0.4531
 6990SOL    HW132429   3.199   3.165   6.407 -1.1969 -1.3732 -0.4300
 6990SOL    HW232430   3.062   3.214   6.419  0.7832  0.3348  0.1205
 6991SOL     OW32431   1.750   1.899   4.386  0.0880 -0.0139  0.3795
 6991SOL    HW132432   1.700   1.896   4.305  1.5549 -1.7599 -0.4484
 6991SOL    HW232433   1.734   1.989   4.414 -2.1054  0.5076 -2.5741
 6992SOL     OW32434   4.702   1.194  16.714  0.0670  0.1949  0.0904
 6992SOL    HW132435   4.698   1.187  16.809 -0.6762  3.1817  0.2692
 6992SOL    HW232436   4.628   1.249  16.687  0.0985 -0.5223 -1.4976
 6993SOL     OW32437   1.770   4.460   7.879  0.6353 -0.6866 -0.0789
 6993SOL    HW132438   1.776   4.530   7.814 -0.6920  1.0230  1.6287
 6993SOL    HW232439   1.684   4.469   7.920  0.1753 -0.6529 -1.0659
 6994SOL     OW32440   3.337   4.320  10.033 -0.5724  0.4832 -0.0006
 6994SOL    HW132441   3.395   4.354   9.964  1.8236  0.4874  2.0165
 6994SOL    HW232442   3.344   4.391  10.097 -0.7530 -0.4286  1.0255
 6995SOL     OW32443   4.013   2.853   0.396  0.4483 -0.1120 -0.1863
 6995SOL    HW132444   4.027   2.815   0.309  0.8391  1.0317 -0.6236
 6995SOL    HW232445   3.999   2.945   0.374 -0.8720 -0.3586 -0.3375
 6996SOL     OW32446   4.679   4.313   7.734  0.0951 -0.0964  0.6568
 6996SOL    HW132447   0.004   4.395   7.739  0.3309 -0.2392  0.6956
 6996SOL    HW232448   4.610   4.328   7.669  1.1450  1.9650  0.0188
 6997SOL     OW32449   1.333   0.652   4.456 -0.3137 -0.7685 -0.1020
 6997SOL    HW132450   1.324   0.671   4.363 -3.7533 -3.1277 -0.2375
 6997SOL    HW232451   1.340   0.556   4.454 -0.1163 -0.8063  2.3269
 6998SOL     OW32452   0.263   2.725  16.065  0.1368 -0.6961 -0.3577
 6998SOL    HW132453   0.278   2.635  16.093 -1.4024 -0.3811  1.5147
 6998SOL    HW232454   0.347   2.764  16.089  0.6053 -2.9073  1.5957
 6999SOL     OW32455   2.341   3.055  14.768  0.5845 -0.1167 -0.0331
 6999SOL    HW132456   2.333   2.969  14.810  1.3398 -0.3979 -0.4698
 6999SOL    HW232457   2.370   3.040  14.678  1.5791  1.3624  0.0405
 7000SOL     OW32458   0.386   0.921   3.736 -0.0086  0.2405 -0.3823
 7000SOL    HW132459   0.329   0.849   3.763 -0.6456 -0.1300 -2.6994
 7000SOL    HW232460   0.458   0.875   3.693  0.1093  0.3813 -0.3355
 7001SOL     OW32461   2.751   1.526  11.026 -0.0436  0.5664 -0.6077
 7001SOL    HW132462   2.811   1.587  10.982  0.7810  0.5468  0.4922
 7001SOL    HW232463   2.660   1.551  11.010 -0.2242  0.7851  0.7258
 7002SOL     OW32464   2.521   2.744   6.436  0.1960  0.5136 -0.2713
 7002SOL    HW132465   2.434   2.776   6.462  1.5558  0.8918  3.7938
 7002SOL    HW232466   2.564   2.827   6.415  0.1437  0.2770 -1.3313
 7003SOL     OW32467   3.130   2.332   2.146  0.0414  0.6052  0.9286
 7003SOL    HW132468   3.088   2.256   2.185  1.5094 -0.7999 -0.2601
 7003SOL    HW232469   3.060   2.357   2.085  0.7084 -1.7863 -0.8376
 7004SOL     OW32470   1.371   3.823  13.709 -0.4198 -0.0484 -0.1042
 7004SOL    HW132471   1.326   3.777  13.780 -1.7608  1.2110 -0.1234
 7004SOL    HW232472   1.428   3.882  13.757 -2.3210  1.1708  0.6430
 7005SOL     OW32473   2.435   3.226   7.510 -0.0402  0.0312 -0.9057
 7005SOL    HW132474   2.350   3.258   7.478  0.0005  0.2747 -0.7709
 7005SOL    HW232475   2.500   3.272   7.457  1.1791 -0.3984  0.2396
 7006SOL     OW32476   0.132   4.320   9.657  0.3335  0.8785  0.1589
 7006SOL    HW132477   0.154   4.227   9.652  1.8412  1.1699  1.4431
 7006SOL    HW232478   0.190   4.339   9.730 -0.6458  0.3218  1.0852
 7007SOL     OW32479   4.178   4.515   7.916  0.2280  0.0545 -0.1102
 7007SOL    HW132480   4.171   4.419   7.922 -1.1134  0.2135  0.9181
 7007SOL    HW232481   4.089   4.544   7.894  0.0184 -1.5728 -1.4326
 7008SOL     OW32482   2.638   3.725   5.737  0.0078  0.1583  0.0100
 7008SOL    HW132483   2.581   3.665   5.688 -0.6333 -0.8931  2.0649
 7008SOL    HW232484   2.717   3.669   5.741 -0.7396 -0.8051  1.1293
 7009SOL     OW32485   3.281   3.680  14.648  0.3736  0.0705 -0.1344
 7009SOL    HW132486   3.213   3.747  14.638  0.0727 -0.6076 -2.7601
 7009SOL    HW232487   3.326   3.720  14.722  2.5104  0.6412 -1.7461
 7010SOL     OW32488   1.673   4.213   7.581  0.4166  0.5005 -0.3964
 7010SOL    HW132489   1.635   4.200   7.667 -0.7075 -0.3303 -1.0226
 7010SOL    HW232490   1.766   4.203   7.602  0.7161  3.1982 -0.4884
 7011SOL     OW32491   2.096   1.415   0.262 -0.2086 -0.0511 -0.3196
 7011SOL    HW132492   2.008   1.396   0.293 -0.4661 -1.2982 -1.8046
 7011SOL    HW232493   2.082   1.424   0.168  1.5875  1.8965 -0.4005
 7012SOL     OW32494   2.883   0.885  10.731  0.3815 -0.0906 -0.6998
 7012SOL    HW132495   2.824   0.918  10.799  1.3512 -0.6304  0.3971
 7012SOL    HW232496   2.836   0.912  10.651 -0.7254  2.0710  0.6682
 7013SOL     OW32497   3.155   0.814   2.324  0.2449  0.0061 -0.0887
 7013SOL    HW132498   3.173   0.845   2.235 -0.1802 -0.5011 -0.3502
 7013SOL    HW232499   3.127   0.890   2.375  1.8840  0.8306 -0.4325
 7014SOL     OW32500   0.446   2.873  13.747 -0.1398 -0.2669  0.0642
 7014SOL    HW132501   0.378   2.806  13.757  0.8276 -1.0270  1.5953
 7014SOL    HW232502   0.482   2.877  13.836  1.9981 -0.2165 -0.8087
 7015SOL     OW32503   1.281   1.235   9.567 -0.2648 -0.1616 -0.3644
 7015SOL    HW132504   1.299   1.261   9.658  1.5140 -1.9831 -0.1819
 7015SOL    HW232505   1.300   1.141   9.565  0.8309  0.1033 -2.1318
 7016SOL     OW32506   3.802   3.504   2.591 -0.6035  0.8237  0.2587
 7016SOL    HW132507   3.835   3.592   2.570  2.8500 -0.7635 -0.9282
 7016SOL    HW232508   3.712   3.531   2.606 -0.7790  0.2666  0.2090
 7017SOL     OW32509   2.191   3.931   4.334  0.4569  0.2720 -0.1391
 7017SOL    HW132510   2.285   3.943   4.325  0.7873 -1.8047  0.6039
 7017SOL    HW232511   2.160   3.933   4.243  0.2900  0.7104 -0.0755
 7018SOL     OW32512   3.434   0.045   4.749 -0.1918 -0.8162 -0.1509
 7018SOL    HW132513   3.366   4.722   4.798 -1.3236  2.2705  1.3131
 7018SOL    HW232514   3.487   0.083   4.820  0.6772  1.2807 -1.9308
 7019SOL     OW32515   1.229   0.106   2.738  0.0804 -0.3605  0.0170
 7019SOL    HW132516   1.163   0.044   2.708 -0.5288 -0.2100  1.0747
 7019SOL    HW232517   1.195   0.114   2.827  0.3643  2.2126 -0.0998
 7020SOL     OW32518   3.271   4.327   4.419  0.1737  0.0938 -0.0354
 7020SOL    HW132519   3.289   4.239   4.386  0.4507  0.2078 -0.1923
 7020SOL    HW232520   3.214   4.303   4.492 -2.2601 -0.7914 -2.2243
 7021SOL     OW32521   4.156   3.280   8.428  0.2290  0.2437  0.2945
 7021SOL    HW132522   4.159   3.248   8.338  0.2923 -2.1432  1.1647
 7021SOL    HW232523   4.209   3.223   8.484 -1.2734 -0.0114  1.4629
 7022SOL     OW32524   0.902   2.154   3.033  0.5511 -0.0075 -0.6618
 7022SOL    HW132525   0.936   2.105   3.108 -0.4206 -0.2586 -0.3879
 7022SOL    HW232526   0.842   2.093   2.990  1.9680 -2.6112  1.0669
 7023SOL     OW32527   1.880   1.117   5.122 -0.9019  0.3280 -0.3053
 7023SOL    HW132528   1.786   1.131   5.109 -1.2432 -1.2456  0.5462
 7023SOL    HW232529   1.910   1.208   5.125 -0.4092  0.2090 -1.6158
 7024SOL     OW32530   1.636   0.913  14.459  0.1834  0.1532  0.0157
 7024SOL    HW132531   1.639   0.878  14.370  0.9076 -2.7160  1.1498
 7024SOL    HW232532   1.645   0.828  14.503 -0.1189  0.9166  1.5614
 7025SOL     OW32533   0.411   2.331   5.267  0.5784  0.3196 -0.0725
 7025SOL    HW132534   0.400   2.243   5.301  1.2431  0.4576  0.5048
 7025SOL    HW232535   0.369   2.367   5.345 -0.2313  1.3668 -0.9903
 7026SOL     OW32536   0.614   0.486   3.753  0.1456 -0.1858  0.5313
 7026SOL    HW132537   0.622   0.437   3.672 -1.6342 -1.5045  1.1401
 7026SOL    HW232538   0.551   0.435   3.804 -0.5718 -2.7323 -2.9435
 7027SOL     OW32539   2.041   1.740   6.710 -0.2101 -0.0183 -0.4168
 7027SOL    HW132540   2.122   1.692   6.693  0.4977  0.7977  0.6415
 7027SOL    HW232541   2.026   1.711   6.800 -0.3061 -2.0201 -1.0772
 7028SOL     OW32542   1.689   3.163   5.837 -0.0304 -0.5588 -0.3700
 7028SOL    HW132543   1.693   3.259   5.836  0.6893 -0.5592  1.4761
 7028SOL    HW232544   1.597   3.140   5.826 -0.5253  2.2321 -2.1233
 7029SOL     OW32545   0.659   2.169   9.831 -0.2128 -0.0243 -0.6874
 7029SOL    HW132546   0.654   2.264   9.830 -1.6468 -0.0804  1.3212
 7029SOL    HW232547   0.720   2.155   9.903 -0.6329  1.4239 -0.0634
 7030SOL     OW32548   0.552   4.268   5.240 -0.0208  0.4088  0.0877
 7030SOL    HW132549   0.646   4.270   5.260  0.0318  0.3159 -0.1439
 7030SOL    HW232550   0.526   4.354   5.273 -0.4249  0.6828 -0.9302
 7031SOL     OW32551   2.881   1.356   4.581  0.1131 -0.2560 -0.8095
 7031SOL    HW132552   2.958   1.299   4.574  0.1578 -0.1775 -0.9592
 7031SOL    HW232553   2.885   1.391   4.492 -1.3085  1.5013 -0.1852
 7032SOL     OW32554   3.035   3.778   0.416  0.6618  0.2599  0.1727
 7032SOL    HW132555   2.968   3.799   0.481 -0.5880  0.8792 -1.3144
 7032SOL    HW232556   3.066   3.866   0.394 -0.6409  0.0616 -2.4648
 7033SOL     OW32557   4.641   3.046  10.224 -0.0289  0.3549 -0.8073
 7033SOL    HW132558   4.705   3.111  10.254 -1.4314  1.3922 -0.0209
 7033SOL    HW232559   4.578   3.100  10.176 -1.7331 -1.1223 -0.2072
 7034SOL     OW32560   1.079   3.119   9.126  0.0098  0.1764  0.4344
 7034SOL    HW132561   1.005   3.153   9.178  0.3304  0.1485  0.9062
 7034SOL    HW232562   1.102   3.051   9.189  0.0934  0.0462  0.2607
 7035SOL     OW32563   1.203   4.123   9.137 -0.4476 -0.0322  0.2960
 7035SOL    HW132564   1.176   4.031   9.135 -1.3931  0.2488 -0.3452
 7035SOL    HW232565   1.292   4.113   9.169 -0.0559  1.1022 -0.4612
 7036SOL     OW32566   3.464   0.679   4.948  0.9976 -0.2227  0.6378
 7036SOL    HW132567   3.413   0.635   5.015  1.3799  0.5973  1.4753
 7036SOL    HW232568   3.486   0.608   4.888 -0.0836 -0.0382  0.0068
 7037SOL     OW32569   0.265   4.461  13.007  0.4333 -0.1527  0.2741
 7037SOL    HW132570   0.177   4.482  12.978  1.1753  0.7172 -1.3219
 7037SOL    HW232571   0.278   4.517  13.084  3.2227 -0.8169  0.2893
 7038SOL     OW32572   3.639   4.385  16.583  0.1705  0.2461 -0.1440
 7038SOL    HW132573   3.546   4.373  16.563  0.5871 -2.0666 -0.6488
 7038SOL    HW232574   3.647   4.475  16.615 -0.1545  1.1824 -2.6757
 7039SOL     OW32575   3.327   1.956   1.593 -0.0977  0.4042  0.5543
 7039SOL    HW132576   3.365   2.031   1.547 -0.4364  0.9837  1.2109
 7039SOL    HW232577   3.233   1.968   1.581 -0.0653 -0.0299 -0.0965
 7040SOL     OW32578   4.415   2.258   7.646 -0.6142  0.2246 -0.1205
 7040SOL    HW132579   4.510   2.248   7.653 -0.5728  1.0638  0.5970
 7040SOL    HW232580   4.400   2.247   7.740 -1.6828 -1.3014 -0.4823
 7041SOL     OW32581   0.308   1.707   8.437 -0.0263  0.2319 -0.3326
 7041SOL    HW132582   0.389   1.713   8.488  0.3360 -3.8975 -0.4396
 7041SOL    HW232583   0.252   1.680   8.510 -0.3591  1.7908  0.0073
 7042SOL     OW32584   3.896   1.523   3.578 -0.1014  0.2832 -0.5523
 7042SOL    HW132585   3.895   1.500   3.485 -1.9308  2.5424 -1.0718
 7042SOL    HW232586   3.852   1.450   3.623  0.9908 -0.0122  0.0488
 7043SOL     OW32587   0.974   2.563  16.895 -0.1095  0.8728 -0.1257
 7043SOL    HW132588   0.893   2.523  16.925  1.3772  0.2741  3.0346
 7043SOL    HW232589   1.018   2.585  16.977 -1.1252  1.3535  0.2896
 7044SOL     OW32590   1.380   4.119  15.536  0.3299  0.3120  0.2008
 7044SOL    HW132591   1.295   4.087  15.507  0.7324  0.2336 -0.8622
 7044SOL    HW232592   1.373   4.200  15.486 -1.1649 -0.0368 -0.1600
 7045SOL     OW32593   1.129   0.303   2.589 -0.6250  0.1467 -0.5045
 7045SOL    HW132594   1.192   0.244   2.630 -1.1229 -0.6623 -0.9077
 7045SOL    HW232595   1.109   0.266   2.503 -1.9092  0.2212 -0.2345
 7046SOL     OW32596   1.994   3.854   9.113 -0.2984  0.0668 -0.0603
 7046SOL    HW132597   1.962   3.811   9.033 -2.9375 -0.5753  1.3537
 7046SOL    HW232598   1.931   3.835   9.182 -0.5355  0.5667 -0.1409
 7047SOL     OW32599   4.098   4.031   6.675 -0.7841  0.0387  0.5222
 7047SOL    HW132600   4.189   4.020   6.703 -1.1652 -1.1227  1.3023
 7047SOL    HW232601   4.085   4.019   6.580  0.3179 -2.7943  0.7331
 7048SOL     OW32602   2.087   3.335   5.894  0.0723  0.2587 -0.4040
 7048SOL    HW132603   2.102   3.243   5.917 -0.4534  0.0498 -0.8974
 7048SOL    HW232604   2.036   3.339   5.813  1.8182  0.6234 -1.5025
 7049SOL     OW32605   4.347   3.000  14.913 -0.6678 -0.4371 -0.0831
 7049SOL    HW132606   4.399   2.972  14.988  0.6693  0.7855 -0.5626
 7049SOL    HW232607   4.292   2.922  14.902 -1.5905  0.3890 -1.3763
 7050SOL     OW32608   1.705   1.157   8.827 -0.5817  0.0917 -0.1949
 7050SOL    HW132609   1.690   1.148   8.921 -0.9706  0.2416 -0.2463
 7050SOL    HW232610   1.613   1.161   8.804  0.4328  1.9252 -3.9413
 7051SOL     OW32611   1.278   0.381   6.037  0.4888 -0.4997  0.1471
 7051SOL    HW132612   1.294   0.298   6.084 -0.7806 -2.2139 -2.4640
 7051SOL    HW232613   1.185   0.364   6.028 -0.0749  2.1558  1.0034
 7052SOL     OW32614   4.166   1.221  10.557  0.0271  0.5589 -0.4357
 7052SOL    HW132615   4.168   1.150  10.621  2.9027 -1.1029 -2.3936
 7052SOL    HW232616   4.247   1.266  10.584  1.4241 -0.6695 -2.6189
 7053SOL     OW32617   2.569   0.360   8.511  0.2499 -0.3780 -0.1069
 7053SOL    HW132618   2.532   0.448   8.507 -0.2786 -0.6168 -0.5531
 7053SOL    HW232619   2.487   0.309   8.510  0.1052 -0.1411 -0.2904
 7054SOL     OW32620   3.666   1.088   2.643 -0.1141  0.0439  0.0038
 7054SOL    HW132621   3.737   1.149   2.663 -1.2848  1.1225  0.8973
 7054SOL    HW232622   3.717   1.025   2.592 -2.4304 -2.8888  1.2577
 7055SOL     OW32623   3.712   4.050   5.741 -0.5756  0.3582 -0.0673
 7055SOL    HW132624   3.630   4.092   5.716 -0.0175  0.7655 -1.2101
 7055SOL    HW232625   3.686   3.976   5.796 -0.0140  2.5175  3.0857
 7056SOL     OW32626   3.150   4.521   3.758 -0.5217 -0.6047  0.0132
 7056SOL    HW132627   3.080   4.459   3.782 -2.1321  0.9449 -0.6682
 7056SOL    HW232628   3.143   4.594   3.818  0.6980  1.5357 -2.4530
 7057SOL     OW32629   2.177   4.400   9.443 -0.1165  0.7902  0.0589
 7057SOL    HW132630   2.137   4.358   9.520 -1.2052 -1.8012 -1.9413
 7057SOL    HW232631   2.097   4.400   9.391  1.0076  1.7343 -1.6822
 7058SOL     OW32632   1.790   4.187   1.752  0.0233  0.4251  0.2180
 7058SOL    HW132633   1.759   4.224   1.834 -0.1547 -0.4650  0.5553
 7058SOL    HW232634   1.720   4.129   1.721  1.3938 -0.2448 -1.6132
 7059SOL     OW32635   2.554   2.642   3.925 -0.0001 -0.6393  0.4684
 7059SOL    HW132636   2.560   2.679   4.013 -2.0382  0.8604 -0.0094
 7059SOL    HW232637   2.624   2.577   3.920 -0.3406 -1.1775  2.6101
 7060SOL     OW32638   2.017   2.907  14.600 -0.2146  0.2689 -0.2232
 7060SOL    HW132639   1.924   2.889  14.617 -0.0456  2.0179  2.5586
 7060SOL    HW232640   2.045   2.822  14.567  0.7361  0.3227  0.4237
 7061SOL     OW32641   2.898   1.164   7.952 -0.4070 -0.1483 -0.5494
 7061SOL    HW132642   2.831   1.216   7.909  1.4916  3.2405  0.5979
 7061SOL    HW232643   2.855   1.141   8.034  1.5386 -1.5641  0.0771
 7062SOL     OW32644   1.251   3.469   6.901  0.0436  0.1409 -0.4462
 7062SOL    HW132645   1.163   3.441   6.925 -0.0051 -0.3914 -1.2440
 7062SOL    HW232646   1.270   3.517   6.981 -0.5698 -1.0342  0.3995
 7063SOL     OW32647   2.341   2.663  14.601  0.0762 -0.4448  0.7796
 7063SOL    HW132648   2.374   2.574  14.616  0.0601 -0.6049 -0.1362
 7063SOL    HW232649   2.377   2.687  14.515 -0.0365 -0.3744  0.7525
 7064SOL     OW32650   2.494   2.793   4.203  0.2130  0.3767 -0.1653
 7064SOL    HW132651   2.506   2.886   4.185 -0.9909  0.6357  0.3781
 7064SOL    HW232652   2.554   2.790   4.278  0.6340 -0.1493 -0.5227
 7065SOL     OW32653   3.235   1.843   3.501 -0.1970 -0.0226  0.1838
 7065SOL    HW132654   3.301   1.826   3.434 -1.7015  1.7446 -1.7458
 7065SOL    HW232655   3.289   1.850   3.580  0.1332 -0.8480  0.0309
 7066SOL     OW32656   1.817   2.315   1.084  0.1919  0.1434 -0.0110
 7066SOL    HW132657   1.814   2.371   1.007  0.4810  1.5103  0.9587
 7066SOL    HW232658   1.726   2.288   1.092  0.6396 -0.6606  2.5058
 7067SOL     OW32659   2.789   3.510   8.872  0.2229  0.5216 -0.0564
 7067SOL    HW132660   2.801   3.569   8.946  1.6630  0.2071 -0.0412
 7067SOL    HW232661   2.734   3.569   8.821  0.6281  1.2676  0.3550
 7068SOL     OW32662   1.421   0.077  12.972  0.1935  0.2691  1.0345
 7068SOL    HW132663   1.446   0.159  12.930 -1.1970  0.6896  1.0487
 7068SOL    HW232664   1.327   0.081  12.989 -0.0284 -3.1841  0.7592
 7069SOL     OW32665   3.652   0.301  15.562 -0.2467  0.0063 -0.4125
 7069SOL    HW132666   3.569   0.346  15.545 -0.2700  0.2647  0.3691
 7069SOL    HW232667   3.708   0.293  15.484 -0.9541  0.2287 -0.9363
 7070SOL     OW32668   4.235   4.443   6.777 -0.8766  0.5316  0.2100
 7070SOL    HW132669   4.218   4.522   6.829  0.5518  0.2064  1.1720
 7070SOL    HW232670   4.265   4.493   6.700  0.6137 -1.4786 -0.5105
 7071SOL     OW32671   2.053   0.575   6.242 -0.1540 -0.0064  0.7289
 7071SOL    HW132672   2.015   0.499   6.287  0.6882  0.0787  1.5814
 7071SOL    HW232673   1.993   0.648   6.262 -0.9876  0.0609 -2.0678
 7072SOL     OW32674   2.817   2.805   6.272 -0.2984 -0.5741  0.1929
 7072SOL    HW132675   2.743   2.866   6.269  0.9044  0.8878  0.7444
 7072SOL    HW232676   2.876   2.848   6.210 -1.2574  0.7599  0.1961
 7073SOL     OW32677   0.093   3.114   9.936 -0.0898 -0.7410  0.3693
 7073SOL    HW132678   0.067   3.192   9.886  0.2513 -0.0157  1.3163
 7073SOL    HW232679   0.173   3.145   9.979 -0.6863 -0.1010  1.0294
 7074SOL     OW32680   4.691   4.615   2.433 -0.1443  0.1831  0.2998
 7074SOL    HW132681   4.701   4.582   2.523 -0.8344 -1.0578 -0.0865
 7074SOL    HW232682   0.006   4.549   2.377  0.0210 -0.2103  0.8727
 7075SOL     OW32683   3.045   1.785   3.199 -0.1810 -0.2887  0.4648
 7075SOL    HW132684   3.133   1.767   3.234 -0.5235 -0.3803  1.2720
 7075SOL    HW232685   3.069   1.813   3.111 -0.6609  1.4849  0.8999
 7076SOL     OW32686   0.535   0.410  13.160 -0.0651 -0.4052 -0.1927
 7076SOL    HW132687   0.477   0.334  13.150  0.2131 -0.6237 -0.1235
 7076SOL    HW232688   0.599   0.405  13.089  1.7881 -0.9589  1.5325
 7077SOL     OW32689   1.701   2.704   7.142  0.2602 -0.4891  0.1265
 7077SOL    HW132690   1.771   2.651   7.103  0.6710 -0.3633  0.6983
 7077SOL    HW232691   1.621   2.656   7.120  0.5144 -1.0750  0.4817
 7078SOL     OW32692   0.097   1.100   9.874 -0.0047  0.5341  0.2983
 7078SOL    HW132693   0.025   1.077   9.815  2.0827 -4.9892 -0.1474
 7078SOL    HW232694   0.113   1.190   9.846 -2.0593  1.0178  0.7154
 7079SOL     OW32695   0.461   3.935   9.933  0.2196  0.4367  0.2550
 7079SOL    HW132696   0.532   3.936   9.997  0.2091 -0.5552  0.2790
 7079SOL    HW232697   0.470   3.841   9.918  0.5288  0.4542  0.3406
 7080SOL     OW32698   2.060   4.431  16.137  0.4625 -0.2771 -0.6645
 7080SOL    HW132699   2.038   4.508  16.190 -0.0386  0.1891 -1.5396
 7080SOL    HW232700   2.080   4.459  16.048 -0.1169  1.0262 -0.3908
 7081SOL     OW32701   4.003   1.116   0.214  0.0178  0.4977 -0.3841
 7081SOL    HW132702   3.945   1.047   0.245  0.3273  1.1170  1.6134
 7081SOL    HW232703   4.035   1.161   0.293 -0.9074 -1.4295  1.0715
 7082SOL     OW32704   1.181   4.005   9.517  0.0114  0.0315  0.0799
 7082SOL    HW132705   1.115   4.052   9.467 -0.1857 -1.3796 -0.9748
 7082SOL    HW232706   1.129   3.951   9.576  0.3898  1.2506  1.5535
 7083SOL     OW32707   2.195   0.647   1.380  1.0498  0.1558 -0.6994
 7083SOL    HW132708   2.113   0.648   1.429  1.8504 -1.3741  0.6589
 7083SOL    HW232709   2.166   0.687   1.297 -2.1891  0.1008  0.4246
 7084SOL     OW32710   4.379   0.405   1.163  0.0803 -0.0642 -0.7141
 7084SOL    HW132711   4.290   0.379   1.188  0.3548  1.2366  1.7157
 7084SOL    HW232712   4.427   0.344   1.219  0.7327  0.9925 -0.1306
 7085SOL     OW32713   2.619   1.489   5.722  0.0519 -0.0969 -0.5201
 7085SOL    HW132714   2.562   1.462   5.651 -2.8830  0.6387  1.5855
 7085SOL    HW232715   2.560   1.492   5.797  0.7973  0.9842  0.0257
 7086SOL     OW32716   0.008   1.239   6.219  0.5100  0.4835 -0.3507
 7086SOL    HW132717   0.063   1.174   6.175 -1.0985 -1.8917  1.1354
 7086SOL    HW232718   0.073   1.290   6.266  0.6136  0.7772 -0.8049
 7087SOL     OW32719   0.619   3.683   1.734  0.2743 -0.2629 -0.3080
 7087SOL    HW132720   0.673   3.614   1.695  0.7523 -0.0802  0.0400
 7087SOL    HW232721   0.621   3.748   1.663 -1.2867 -0.8060 -0.8470
 7088SOL     OW32722   4.342   1.790   5.554 -0.0804  0.6328 -0.0042
 7088SOL    HW132723   4.366   1.877   5.585  2.2080  0.5799 -1.6079
 7088SOL    HW232724   4.410   1.739   5.599 -2.2016 -0.3142  2.1505
 7089SOL     OW32725   0.124   1.765  12.443 -0.5984  0.3184 -0.3447
 7089SOL    HW132726   0.186   1.739  12.375 -1.5586  3.0940 -2.2715
 7089SOL    HW232727   0.117   1.679  12.484 -0.3644  0.6063  0.2939
 7090SOL     OW32728   1.893   1.074  15.863  0.0069 -1.0061 -0.9956
 7090SOL    HW132729   1.882   1.052  15.770 -0.5396  1.2671 -1.4804
 7090SOL    HW232730   1.908   1.169  15.865  0.2713 -1.0654 -0.1756
 7091SOL     OW32731   0.037   3.039  16.030  0.0848 -0.1131  0.4414
 7091SOL    HW132732   0.043   3.131  16.006  2.3352 -0.8374 -1.7976
 7091SOL    HW232733   0.096   3.002  15.964  0.7626 -0.4864  1.2628
 7092SOL     OW32734   2.267   3.227   6.611 -0.0214  0.0050  0.1104
 7092SOL    HW132735   2.180   3.207   6.646  0.3657  0.5411  1.3726
 7092SOL    HW232736   2.258   3.221   6.516 -1.3679 -1.4713  0.3189
 7093SOL     OW32737   1.152   3.579   3.266  0.0196  0.2631  0.4471
 7093SOL    HW132738   1.111   3.517   3.325 -2.3933  0.8909 -0.5984
 7093SOL    HW232739   1.195   3.644   3.322 -0.2274 -0.0190  0.9527
 7094SOL     OW32740   1.215   0.702   1.630 -0.0327 -0.6599 -0.1291
 7094SOL    HW132741   1.143   0.647   1.599  0.8501 -0.7954 -1.9791
 7094SOL    HW232742   1.180   0.730   1.714 -1.6154 -0.1235 -0.9822
 7095SOL     OW32743   3.277   3.319   4.195 -0.1479 -0.0133  0.1917
 7095SOL    HW132744   3.265   3.348   4.285 -1.1570 -0.5397  0.2328
 7095SOL    HW232745   3.224   3.384   4.147  0.3381 -0.7523 -1.3488
 7096SOL     OW32746   3.761   1.518   7.427 -0.3961  0.1419 -0.5914
 7096SOL    HW132747   3.732   1.505   7.336 -0.4463 -2.4714 -0.1939
 7096SOL    HW232748   3.756   1.614   7.431  0.6383  0.1975 -0.5177
 7097SOL     OW32749   2.091   0.879   8.903  0.4635 -0.0965  0.3439
 7097SOL    HW132750   2.010   0.832   8.924  0.8396 -0.4249  1.0578
 7097SOL    HW232751   2.149   0.807   8.928  0.4862  0.3541  1.5582
 7098SOL     OW32752   2.359   0.958  12.567  0.4419 -0.0714  0.2871
 7098SOL    HW132753   2.289   1.006  12.611 -0.7740  0.5807 -2.3267
 7098SOL    HW232754   2.429   0.969  12.631  1.9592 -4.2986 -0.6326
 7099SOL     OW32755   4.233   2.096   6.408 -0.1441  0.2362 -0.3552
 7099SOL    HW132756   4.267   2.027   6.466 -1.6001  0.4147  0.7252
 7099SOL    HW232757   4.267   2.172   6.455 -2.4842  1.6565 -0.9917
 7100SOL     OW32758   1.120   4.018   5.659 -0.0876 -0.7938 -0.4744
 7100SOL    HW132759   1.212   4.036   5.637 -0.0503  1.2080  1.2281
 7100SOL    HW232760   1.078   4.072   5.592 -1.3973 -1.1299  0.0834
 7101SOL     OW32761   1.865   2.332   8.258 -0.3871 -0.2456 -0.0452
 7101SOL    HW132762   1.786   2.343   8.312 -0.2101  0.2836  0.1064
 7101SOL    HW232763   1.881   2.413   8.210  0.6857  0.0643  0.8286
 7102SOL     OW32764   3.781   4.627   6.187 -0.0725  0.5994  0.0477
 7102SOL    HW132765   3.751   4.562   6.124 -1.8620 -0.1095  1.6058
 7102SOL    HW232766   3.871   4.599   6.204  0.6449  2.2557 -1.0988
 7103SOL     OW32767   3.741   2.874   6.779 -0.5645 -0.0560  0.3280
 7103SOL    HW132768   3.775   2.924   6.705 -2.9717 -0.5637 -1.1383
 7103SOL    HW232769   3.650   2.902   6.782 -1.2588 -2.2303 -0.4461
 7104SOL     OW32770   3.184   4.141   2.418  0.4789 -0.3838  0.7674
 7104SOL    HW132771   3.216   4.075   2.357 -0.6711 -0.0664 -0.1583
 7104SOL    HW232772   3.110   4.096   2.458 -0.6837 -0.4679 -1.5212
 7105SOL     OW32773   2.975   0.724  12.868 -0.2303  0.0982 -0.2622
 7105SOL    HW132774   3.039   0.719  12.940 -1.9965 -2.3280  1.1237
 7105SOL    HW232775   3.025   0.733  12.787  2.1235  0.2049  1.1749
 7106SOL     OW32776   1.057   4.633   6.944 -0.2581  0.0194 -0.7171
 7106SOL    HW132777   1.046   4.561   7.006  0.0721  0.7468  0.1877
 7106SOL    HW232778   0.963   4.644   6.930 -0.8053 -1.7765  1.5283
 7107SOL     OW32779   1.258   1.744   6.345 -0.2507 -0.4976 -0.0104
 7107SOL    HW132780   1.193   1.813   6.356  1.8129  1.1415  1.9840
 7107SOL    HW232781   1.322   1.780   6.284 -0.5527 -1.1145 -0.6973
 7108SOL     OW32782   4.609   3.700  14.460 -0.5177  0.5519  0.1390
 7108SOL    HW132783   4.597   3.748  14.542  1.2402  0.3888  0.5030
 7108SOL    HW232784   4.655   3.620  14.486  1.0358  1.2702 -0.4180
 7109SOL     OW32785   4.358   3.175   1.409  0.0149  0.6272  0.0510
 7109SOL    HW132786   4.445   3.212   1.428  0.3946 -0.2079 -0.0493
 7109SOL    HW232787   4.381   3.082   1.406 -0.4338  0.5797 -2.1051
 7110SOL     OW32788   0.594   3.761   4.002  0.0337  0.1399  0.1353
 7110SOL    HW132789   0.582   3.844   3.954 -1.2537 -1.6681 -2.6636
 7110SOL    HW232790   0.683   3.751   4.035  0.9649 -0.3993 -2.6052
 7111SOL     OW32791   2.331   2.286   4.739  0.3337 -0.3681 -0.5353
 7111SOL    HW132792   2.382   2.244   4.808 -2.7800 -2.2896  0.5840
 7111SOL    HW232793   2.274   2.344   4.790 -0.4604 -1.6574  0.0478
 7112SOL     OW32794   2.902   0.578  12.570  0.4052  0.0202 -0.1612
 7112SOL    HW132795   2.965   0.648  12.588  0.0586  0.4994 -0.8218
 7112SOL    HW232796   2.816   0.616  12.584  0.1242 -0.6369 -0.0999
 7113SOL     OW32797   4.423   4.339  13.697  0.1639 -0.3081 -0.2696
 7113SOL    HW132798   4.425   4.424  13.653  0.3615 -0.0656  0.2056
 7113SOL    HW232799   4.330   4.317  13.701 -0.0456  0.5467 -0.4187
 7114SOL     OW32800   4.240   2.535  12.276 -0.2655 -0.1824 -0.8775
 7114SOL    HW132801   4.250   2.441  12.291  0.0219 -0.2364 -1.4181
 7114SOL    HW232802   4.331   2.556  12.255 -0.4299 -0.2634 -1.6652
 7115SOL     OW32803   0.278   2.678   8.863  0.1211  0.4120  0.6455
 7115SOL    HW132804   0.246   2.590   8.844  1.7844  0.3055 -1.7263
 7115SOL    HW232805   0.328   2.707   8.787 -0.3495  0.8202  0.4999
 7116SOL     OW32806   4.237   4.428   5.252 -0.2108 -0.1501 -0.2656
 7116SOL    HW132807   4.286   4.415   5.334  0.9841 -2.7183 -1.3906
 7116SOL    HW232808   4.159   4.474   5.284 -1.6762 -0.8777 -2.8398
 7117SOL     OW32809   3.834   0.368   7.993 -0.4246  0.1582  0.1998
 7117SOL    HW132810   3.908   0.355   7.933  0.8573 -0.7797  1.9726
 7117SOL    HW232811   3.793   0.446   7.955 -1.9499 -1.1335 -0.7872
 7118SOL     OW32812   4.207   1.806  15.743 -0.3322  0.2296  0.5210
 7118SOL    HW132813   4.267   1.765  15.680 -1.1229  0.5916 -0.4589
 7118SOL    HW232814   4.245   1.894  15.744 -1.3600  0.6248  4.6947
 7119SOL     OW32815   2.026   2.423   4.238 -0.0739 -0.8631  0.1860
 7119SOL    HW132816   1.999   2.495   4.182  2.4650  0.8819  1.2512
 7119SOL    HW232817   2.120   2.440   4.243 -0.5028  1.6126 -0.6164
 7120SOL     OW32818   0.400   2.072   9.769  0.3424 -0.1258 -0.7960
 7120SOL    HW132819   0.485   2.114   9.782  0.7839 -1.2562 -0.0132
 7120SOL    HW232820   0.354   2.141   9.817  1.4649  0.4280 -0.5175
 7121SOL     OW32821   2.002   3.233   2.274  0.3368 -0.2831 -0.7107
 7121SOL    HW132822   1.958   3.168   2.218  1.9325 -1.7948 -0.1902
 7121SOL    HW232823   2.095   3.217   2.264  1.1973  2.7588  2.1961
 7122SOL     OW32824   1.648   3.069   4.049  0.3577 -0.1426  0.2029
 7122SOL    HW132825   1.595   2.991   4.060 -2.6876  1.7198 -1.1739
 7122SOL    HW232826   1.637   3.088   3.956  0.3727 -2.1655 -0.2141
 7123SOL     OW32827   0.633   3.950  12.053  0.2869  0.2266  0.2169
 7123SOL    HW132828   0.556   3.894  12.053 -0.6902  1.5928 -1.5016
 7123SOL    HW232829   0.660   3.953  12.145 -1.6033 -0.7208  0.7968
 7124SOL     OW32830   2.655   4.166   5.139  0.3291 -0.2504 -0.2188
 7124SOL    HW132831   2.618   4.251   5.116 -0.1647  0.2273  2.3216
 7124SOL    HW232832   2.723   4.189   5.202  0.5052  0.8865 -0.8232
 7125SOL     OW32833   0.967   2.296   5.805 -0.5136 -0.2736  0.6063
 7125SOL    HW132834   0.879   2.287   5.843 -0.6284 -0.4042  0.3093
 7125SOL    HW232835   1.020   2.330   5.877 -2.0648  1.4265  0.9566
 7126SOL     OW32836   2.285   0.225   4.824  0.4306 -0.1780 -0.6366
 7126SOL    HW132837   2.300   0.319   4.833  2.7322 -0.6896  0.6769
 7126SOL    HW232838   2.318   0.216   4.735  4.5770 -0.4289  0.9642
 7127SOL     OW32839   4.438   2.972   9.622  0.1947  0.3751 -1.0530
 7127SOL    HW132840   4.355   3.017   9.635  0.5193  0.3700  0.9779
 7127SOL    HW232841   4.474   2.988   9.534  2.0286  0.1986 -0.3319
 7128SOL     OW32842   1.819   2.342  12.702 -0.0545 -0.2116  0.5802
 7128SOL    HW132843   1.806   2.320  12.610 -0.0797 -0.3251  0.6119
 7128SOL    HW232844   1.870   2.424  12.701 -0.3496 -0.0298  0.0960
 7129SOL     OW32845   3.441   2.348   7.927  0.0469  0.1362 -0.6971
 7129SOL    HW132846   3.499   2.398   7.985  1.3862 -1.2156 -0.8658
 7129SOL    HW232847   3.352   2.381   7.939  1.3708  3.7435 -0.8584
 7130SOL     OW32848   3.494   1.303   7.223 -0.3965 -0.4198 -0.0391
 7130SOL    HW132849   3.532   1.322   7.309 -2.4931  0.0332  0.7923
 7130SOL    HW232850   3.513   1.381   7.171 -0.1013 -0.2804  0.2808
 7131SOL     OW32851   1.926   3.771  11.529 -0.6695  0.9363 -0.9092
 7131SOL    HW132852   1.851   3.761  11.587  0.7912  0.2103  0.8566
 7131SOL    HW232853   1.981   3.832  11.577 -0.1092 -0.5883  0.3709
 7132SOL     OW32854   1.094   0.980   5.041 -0.2096 -0.2317  0.1222
 7132SOL    HW132855   1.118   1.072   5.026 -0.6055 -0.2096 -0.3804
 7132SOL    HW232856   0.999   0.978   5.028 -0.5497 -1.4175  2.8663
 7133SOL     OW32857   4.198   4.701   7.423  0.1964 -0.5336  0.7138
 7133SOL    HW132858   4.246   0.049   7.463  0.9895  0.1520 -1.4972
 7133SOL    HW232859   4.133   0.023   7.370 -1.6335 -3.4877  0.3750
 7134SOL     OW32860   2.224   2.394   2.432  0.7510  0.3614 -0.2942
 7134SOL    HW132861   2.169   2.367   2.358  2.2954 -0.0359 -1.2994
 7134SOL    HW232862   2.167   2.456   2.477 -0.3261  0.0180 -1.1728
 7135SOL     OW32863   4.311   0.156   5.450 -0.4756  0.0348  0.0499
 7135SOL    HW132864   4.365   0.118   5.519  1.7400 -0.4756 -1.9647
 7135SOL    HW232865   4.377   0.194   5.393  0.0450 -0.1702  0.5198
 7136SOL     OW32866   3.164   4.699   5.294  0.1369 -0.0809 -0.5300
 7136SOL    HW132867   3.144   0.056   5.340  3.3359  1.6334 -2.2043
 7136SOL    HW232868   3.230   4.654   5.346 -0.5525  0.5025  0.8596
 7137SOL     OW32869   4.032   3.246  14.151  0.0693  0.2542  0.5370
 7137SOL    HW132870   4.061   3.319  14.205 -1.5414  0.2792  1.3849
 7137SOL    HW232871   3.971   3.298  14.098  2.7969  2.3002 -0.5574
 7138SOL     OW32872   3.495   3.607   0.919  0.1099  0.2230  0.0653
 7138SOL    HW132873   3.448   3.530   0.889 -1.0288  0.5798  0.9677
 7138SOL    HW232874   3.499   3.605   1.015  3.1376 -0.5827 -0.0503
 7139SOL     OW32875   4.235   1.639   7.153 -0.0773 -0.2586  0.1946
 7139SOL    HW132876   4.143   1.648   7.179 -0.0064 -1.8887  1.0296
 7139SOL    HW232877   4.256   1.547   7.168 -0.6458 -0.2851  0.8404
 7140SOL     OW32878   1.855   2.572  12.222 -0.4889  0.2002 -0.2032
 7140SOL    HW132879   1.761   2.584  12.216 -0.4792  0.4029  0.0434
 7140SOL    HW232880   1.887   2.662  12.226 -0.9991  0.3698  0.0075
 7141SOL     OW32881   1.126   2.307   8.066 -0.5090 -0.1113  0.0632
 7141SOL    HW132882   1.042   2.325   8.107 -2.1215 -2.5624 -2.1637
 7141SOL    HW232883   1.103   2.248   7.994  0.2421  1.1659 -1.2199
 7142SOL     OW32884   0.515   1.951   0.376  0.0884 -0.0031  0.9194
 7142SOL    HW132885   0.508   2.035   0.330  1.4286 -0.3513  0.0912
 7142SOL    HW232886   0.445   1.950   0.442  0.4443  0.2056  1.3052
 7143SOL     OW32887   0.261   3.042   7.957 -0.0859  0.0607  0.2647
 7143SOL    HW132888   0.192   3.083   8.009 -0.2509 -0.3155  0.3408
 7143SOL    HW232889   0.207   2.984   7.903 -0.4012  2.3554 -1.9003
 7144SOL     OW32890   4.191   0.223   8.874  0.2402 -0.2209  0.2346
 7144SOL    HW132891   4.191   0.314   8.844 -0.7053 -0.1741  0.3891
 7144SOL    HW232892   4.202   0.235   8.968 -2.3808  2.1379  0.2153
 7145SOL     OW32893   0.329   0.704   3.423 -0.7460 -0.1326  0.3107
 7145SOL    HW132894   0.280   0.630   3.458  1.3117 -2.2567 -1.2815
 7145SOL    HW232895   0.268   0.734   3.355  0.2928 -0.4485 -0.7622
 7146SOL     OW32896   4.564   1.638   3.784 -0.5302  0.4063 -0.2691
 7146SOL    HW132897   4.541   1.546   3.798 -3.3104  1.2398  0.6172
 7146SOL    HW232898   4.503   1.657   3.713  1.8299  0.1407 -2.3615
 7147SOL     OW32899   4.356   4.503   7.115  0.4613 -0.2520 -0.0339
 7147SOL    HW132900   4.323   4.582   7.071 -1.4385 -1.7281 -1.2611
 7147SOL    HW232901   4.420   4.541   7.174  0.7360  0.8090 -1.0164
 7148SOL     OW32902   1.576   2.884   5.140 -0.8383 -0.2236 -0.4225
 7148SOL    HW132903   1.629   2.897   5.062  1.5018 -1.5127  0.9323
 7148SOL    HW232904   1.646   2.851   5.198  1.0250 -1.9119 -3.6478
 7149SOL     OW32905   0.495   0.676   6.740  0.0499  0.3564 -0.2237
 7149SOL    HW132906   0.463   0.696   6.828 -2.5455 -2.0832 -0.6025
 7149SOL    HW232907   0.421   0.695   6.682 -0.4698 -1.7940 -0.2630
 7150SOL     OW32908   1.276   1.910   1.825  0.3717 -0.1968  0.0799
 7150SOL    HW132909   1.279   1.829   1.774  1.0001 -0.9517  1.3232
 7150SOL    HW232910   1.202   1.892   1.882 -0.1307 -0.9617 -0.8157
 7151SOL     OW32911   1.271   0.551  11.183 -0.6341 -0.0189  0.2669
 7151SOL    HW132912   1.312   0.620  11.131  1.2278 -1.0621  0.3567
 7151SOL    HW232913   1.193   0.539  11.127 -0.5930 -0.5302  0.3131
 7152SOL     OW32914   3.543   4.429   2.952 -0.4479 -0.2509 -0.4792
 7152SOL    HW132915   3.587   4.373   2.888  3.4004  0.5349  1.4230
 7152SOL    HW232916   3.463   4.456   2.908 -1.5860 -0.5059  1.4419
 7153SOL     OW32917   1.388   0.341  17.200 -0.2458  0.1694 -0.4573
 7153SOL    HW132918   1.358   0.387  17.278 -1.2503 -0.9301 -0.1969
 7153SOL    HW232919   1.319   0.275  17.199 -0.6713  0.5829  1.9955
 7154SOL     OW32920   1.440   4.199   7.036 -0.1297 -0.1757  0.1457
 7154SOL    HW132921   1.419   4.209   7.129  0.3123 -0.5119  0.2802
 7154SOL    HW232922   1.360   4.154   7.008 -0.0083  0.0824 -0.6200
 7155SOL     OW32923   1.506   3.885   6.468 -0.1241 -0.0123 -0.4307
 7155SOL    HW132924   1.540   3.905   6.556 -2.0776  0.7516  0.1520
 7155SOL    HW232925   1.532   3.960   6.414  1.7734 -0.8233 -0.6564
 7156SOL     OW32926   4.091   1.840   0.473 -0.5350 -0.1770 -0.6180
 7156SOL    HW132927   4.032   1.813   0.544  0.6657 -0.7217  0.1774
 7156SOL    HW232928   4.112   1.755   0.434 -0.2102 -0.0363 -0.7460
 7157SOL     OW32929   0.351   3.881   8.137  0.3290  0.0615 -0.1649
 7157SOL    HW132930   0.391   3.866   8.051  2.4677 -1.0758  1.0476
 7157SOL    HW232931   0.364   3.793   8.172  2.8119  0.3495 -0.4004
 7158SOL     OW32932   1.121   2.334   6.069 -0.4617 -0.2383 -0.0841
 7158SOL    HW132933   1.063   2.375   6.133 -0.7299  0.5371 -0.8170
 7158SOL    HW232934   1.202   2.328   6.119 -1.7923 -2.7420  1.7594
 7159SOL     OW32935   1.040   3.025   0.165  0.2671  0.3634  0.5034
 7159SOL    HW132936   0.977   3.074   0.217 -1.5921 -1.7848  0.2814
 7159SOL    HW232937   1.113   3.018   0.226 -0.2373 -2.6124  0.7847
 7160SOL     OW32938   2.971   2.985   3.374 -0.5565  0.1424  0.2077
 7160SOL    HW132939   3.062   2.954   3.378 -0.1888  1.4431  2.2246
 7160SOL    HW232940   2.961   3.009   3.466  3.2202 -0.9439  0.8915
 7161SOL     OW32941   2.449   0.235   0.696 -0.2550 -0.3216 -0.1255
 7161SOL    HW132942   2.530   0.270   0.733 -0.7681 -2.3594  2.8479
 7161SOL    HW232943   2.412   0.315   0.658  0.6242 -0.9132 -2.2510
 7162SOL     OW32944   0.686   3.480   6.936 -0.5825  0.2284 -0.1551
 7162SOL    HW132945   0.653   3.390   6.933  0.9016 -0.3300  0.0409
 7162SOL    HW232946   0.606   3.532   6.928 -0.6433  0.1694  0.0714
 7163SOL     OW32947   2.715   1.309   7.824  0.2191  0.0920  0.3991
 7163SOL    HW132948   2.663   1.388   7.841  1.8840  1.3075 -0.2188
 7163SOL    HW232949   2.775   1.347   7.760 -1.0160  0.2291 -0.6948
 7164SOL     OW32950   4.259   4.431   7.436 -0.5025 -0.2364  0.3495
 7164SOL    HW132951   4.221   4.519   7.430 -0.2576 -0.1938 -0.6024
 7164SOL    HW232952   4.316   4.417   7.361 -0.1065 -1.2440  0.8449
 7165SOL     OW32953   2.716   2.760   0.687 -0.6005  0.3806 -0.6070
 7165SOL    HW132954   2.761   2.831   0.641 -0.2682  1.0388  0.7352
 7165SOL    HW232955   2.683   2.710   0.613  1.8462 -4.3614  1.4854
 7166SOL     OW32956   2.194   3.321   8.034  0.2075 -0.0845 -0.0730
 7166SOL    HW132957   2.282   3.297   8.004 -0.5989 -0.1046 -2.4343
 7166SOL    HW232958   2.214   3.409   8.065 -0.8594 -0.1782  0.8741
 7167SOL     OW32959   3.368   4.165   9.205  0.0902  0.4615 -0.0061
 7167SOL    HW132960   3.415   4.126   9.279  0.1227  2.0623  0.8015
 7167SOL    HW232961   3.285   4.191   9.244 -0.0888 -0.6639  0.3599
 7168SOL     OW32962   2.264   1.241   6.084  0.5484 -0.4511  0.1358
 7168SOL    HW132963   2.208   1.184   6.031 -0.3843  0.8443 -0.2567
 7168SOL    HW232964   2.313   1.174   6.132  0.1768 -2.1230 -1.8023
 7169SOL     OW32965   1.894   0.354  12.143 -0.0281 -0.7572 -0.0387
 7169SOL    HW132966   1.854   0.276  12.182  0.9094 -1.0785  0.2793
 7169SOL    HW232967   1.968   0.360  12.203  1.3498 -0.7910 -1.7366
 7170SOL     OW32968   1.725   4.559   9.444  0.0441  0.2900 -0.1310
 7170SOL    HW132969   1.807   4.514   9.468 -1.2575 -1.9679  0.0853
 7170SOL    HW232970   1.757   4.649   9.440  2.6671 -0.5723  1.2750
 7171SOL     OW32971   2.434   0.630   7.457 -0.1090 -0.1848  0.2712
 7171SOL    HW132972   2.465   0.676   7.535  0.7469  1.2873 -0.9329
 7171SOL    HW232973   2.471   0.692   7.395  1.5536 -1.4456  0.0111
 7172SOL     OW32974   2.220   0.504   7.585 -0.8237  0.4534 -0.2440
 7172SOL    HW132975   2.168   0.582   7.561  0.5417  1.5271  0.3185
 7172SOL    HW232976   2.297   0.513   7.529 -0.4917 -1.1979 -0.0457
 7173SOL     OW32977   0.519   2.174  10.692 -0.4886 -0.0066 -0.3179
 7173SOL    HW132978   0.516   2.184  10.787  2.0133 -0.8617 -0.1451
 7173SOL    HW232979   0.441   2.228  10.682  0.8495  2.1367  0.9288
 7174SOL     OW32980   0.288   2.454   7.421  0.2137  0.4070 -0.0321
 7174SOL    HW132981   0.348   2.439   7.494  1.8795  0.6452 -1.3345
 7174SOL    HW232982   0.209   2.412   7.453  0.4993  1.3390  1.8649
 7175SOL     OW32983   4.665   4.484   0.335 -0.1124 -0.3123  0.6565
 7175SOL    HW132984   0.013   4.542   0.358 -2.0371  1.8789  1.1605
 7175SOL    HW232985   4.670   4.489   0.239  0.4924  2.3014  0.8230
 7176SOL     OW32986   4.261   0.111   8.595  0.5742 -0.3330 -0.3928
 7176SOL    HW132987   4.236   0.018   8.595  0.5504 -0.3083 -3.2458
 7176SOL    HW232988   4.216   0.128   8.678 -0.2214  1.0468 -1.1107
 7177SOL     OW32989   4.067   2.020  17.276 -0.8031 -0.1759 -0.3834
 7177SOL    HW132990   4.016   1.951  17.318 -0.0598 -0.6712 -0.2857
 7177SOL    HW232991   4.156   2.001  17.307 -0.7351 -0.8204 -0.9842
 7178SOL     OW32992   2.821   3.308   2.927 -0.1587 -0.0349 -0.4734
 7178SOL    HW132993   2.884   3.269   2.988 -0.0959 -1.1699 -1.2607
 7178SOL    HW232994   2.764   3.365   2.978  0.1293 -0.7073  0.5926
 7179SOL     OW32995   4.685   3.497  11.787  0.0677  0.2380 -0.5067
 7179SOL    HW132996   0.016   3.514  11.711  0.9105 -1.2655 -0.2277
 7179SOL    HW232997   4.656   3.407  11.772 -1.3328  0.8112 -1.1468
 7180SOL     OW32998   1.082   3.717   7.069 -0.1414 -0.0557 -0.2643
 7180SOL    HW132999   1.173   3.708   7.099 -1.0713 -3.0065  1.6741
 7180SOL    HW233000   1.054   3.626   7.078 -0.4516  0.3186  2.5798
 7181SOL     OW33001   2.683   3.751   1.065  0.2232  0.2362  0.6028
 7181SOL    HW133002   2.689   3.681   1.000 -0.7583  0.4893  0.2440
 7181SOL    HW233003   2.591   3.777   1.062  0.2029  0.1019  0.1733
 7182SOL     OW33004   3.051   1.957   1.516 -0.8283 -0.3344  0.1549
 7182SOL    HW133005   3.037   1.873   1.559 -1.5370  0.3024  1.1633
 7182SOL    HW233006   3.042   2.021   1.587 -0.3974 -0.6997  0.5392
 7183SOL     OW33007   1.847   3.714  13.096 -0.0231 -0.1165  0.1620
 7183SOL    HW133008   1.891   3.630  13.105 -0.4722 -0.3731 -0.0303
 7183SOL    HW233009   1.769   3.703  13.150 -1.4336  2.1745 -1.3890
 7184SOL     OW33010   1.726   3.806  17.031 -0.2236 -0.0356  0.4962
 7184SOL    HW133011   1.698   3.785  17.121 -0.3708  0.8765  0.6614
 7184SOL    HW233012   1.773   3.889  17.044 -2.3836  1.3140 -0.3663
 7185SOL     OW33013   2.510   1.194  16.562 -0.0077 -0.0665  0.0802
 7185SOL    HW133014   2.519   1.277  16.516  0.3889 -0.3672 -0.3936
 7185SOL    HW233015   2.441   1.217  16.624  0.2249 -1.8561  1.0121
 7186SOL     OW33016   4.183   3.506   2.490 -0.0853 -0.1141 -0.4929
 7186SOL    HW133017   4.271   3.507   2.528 -0.6809 -3.3004  0.9324
 7186SOL    HW233018   4.131   3.572   2.537  0.3392  0.2073 -0.4657
 7187SOL     OW33019   1.242   3.676   5.161 -0.1731 -0.0123  0.3657
 7187SOL    HW133020   1.190   3.749   5.194  0.6866 -0.0722  1.8324
 7187SOL    HW233021   1.199   3.644   5.081  0.1144  0.8303 -0.1304
 7188SOL     OW33022   1.347   2.273   4.999 -0.1878 -1.0211  0.2362
 7188SOL    HW133023   1.360   2.190   5.045 -0.4246 -0.9408  0.4511
 7188SOL    HW233024   1.401   2.320   5.063 -0.6966  0.2620 -0.2733
 7189SOL     OW33025   1.682   1.539  11.653  0.8241 -0.2548  0.2605
 7189SOL    HW133026   1.744   1.612  11.658  0.8092 -0.1449 -0.9720
 7189SOL    HW233027   1.722   1.475  11.711  1.6077 -0.4942 -0.5460
 7190SOL     OW33028   2.840   1.401   7.320  0.0749 -0.0007  0.0806
 7190SOL    HW133029   2.832   1.357   7.235  1.1101 -1.4442  0.7381
 7190SOL    HW233030   2.795   1.485   7.308 -0.9781 -0.4479  0.8410
 7191SOL     OW33031   0.372   4.367  14.526  0.1975 -0.4805  0.0897
 7191SOL    HW133032   0.313   4.401  14.593  0.1873 -0.7805  0.2357
 7191SOL    HW233033   0.323   4.298  14.482 -1.0580  2.8491 -3.7462
 7192SOL     OW33034   0.602   2.231   2.342  0.2205 -0.5440  0.2038
 7192SOL    HW133035   0.609   2.326   2.331 -0.1558 -0.7896 -2.1352
 7192SOL    HW233036   0.515   2.229   2.301  0.8293  1.1362 -1.1589
 7193SOL     OW33037   1.329   4.174   7.670 -0.1085 -0.2896 -0.0888
 7193SOL    HW133038   1.300   4.204   7.756  0.4644  1.8282 -0.6397
 7193SOL    HW233039   1.411   4.132   7.694 -1.6017 -2.7833  0.6921
 7194SOL     OW33040   0.734   0.599   8.199  0.0756 -0.4603 -0.3617
 7194SOL    HW133041   0.689   0.542   8.137 -1.4511 -0.6241  0.9035
 7194SOL    HW233042   0.668   0.594   8.268  2.9060  1.7907  2.4980
 7195SOL     OW33043   1.311   3.643   4.183  0.0403 -0.3264 -0.4233
 7195SOL    HW133044   1.225   3.608   4.208  0.0642 -0.7602 -0.9496
 7195SOL    HW233045   1.373   3.603   4.243 -0.7704 -1.6238 -0.4378
 7196SOL     OW33046   4.554   2.598   5.528  0.4834 -0.4924 -0.0098
 7196SOL    HW133047   4.507   2.529   5.482  1.6881 -0.4909 -1.2424
 7196SOL    HW233048   4.483   2.650   5.565  2.0191 -0.3942  2.8066
 7197SOL     OW33049   2.160   1.994   2.030 -0.0756 -0.2576  0.3009
 7197SOL    HW133050   2.117   1.916   2.065  1.3145 -1.4650 -0.6944
 7197SOL    HW233051   2.173   1.963   1.940  1.0784  0.9422  0.0396
 7198SOL     OW33052   0.671   3.310  13.959  0.3649  0.5954  0.0216
 7198SOL    HW133053   0.640   3.270  13.878  1.0580  0.4371 -0.1626
 7198SOL    HW233054   0.625   3.394  13.950 -0.3065  0.2657  0.4068
 7199SOL     OW33055   4.111   1.928   6.955 -0.2728 -0.4499 -0.1554
 7199SOL    HW133056   4.131   1.843   6.995  0.2104 -1.0138 -1.5930
 7199SOL    HW233057   4.027   1.943   6.998  1.9746  0.7121  3.8460
 7200SOL     OW33058   4.045   2.634   2.468 -0.2043  0.8558 -0.2927
 7200SOL    HW133059   4.127   2.671   2.437 -0.3324  0.3899 -1.1865
 7200SOL    HW233060   4.045   2.659   2.560 -2.8353 -4.3184  1.1205
 7201SOL     OW33061   2.921   1.352  13.131  0.1791 -0.5386 -0.0631
 7201SOL    HW133062   2.878   1.267  13.139 -0.8714 -0.1302 -1.5336
 7201SOL    HW233063   2.873   1.400  13.198  1.3727 -0.7031  0.9311
 7202SOL     OW33064   4.412   3.621  14.966 -0.4600  0.1984 -0.5972
 7202SOL    HW133065   4.457   3.694  14.926 -2.5554  0.8891 -1.7106
 7202SOL    HW233066   4.390   3.652  15.053 -0.6046 -0.5667 -0.3544
 7203SOL     OW33067   3.764   0.410   0.552  0.1017 -0.1741  0.0937
 7203SOL    HW133068   3.794   0.336   0.605 -1.3834 -0.4746  0.5075
 7203SOL    HW233069   3.785   0.374   0.466  2.8240 -1.1299  1.1450
 7204SOL     OW33070   3.071   0.995   3.818  0.7422  0.5660 -0.2141
 7204SOL    HW133071   2.992   0.942   3.827  0.4748  0.4607 -3.2588
 7204SOL    HW233072   3.125   0.943   3.878 -0.7604 -0.2084  0.4536
 7205SOL     OW33073   1.613   3.968   4.560  0.2776  0.1920  0.2304
 7205SOL    HW133074   1.537   3.992   4.507  0.9734  1.8518 -0.0377
 7205SOL    HW233075   1.651   4.055   4.571  0.4267 -0.0283  1.4429
 7206SOL     OW33076   0.759   4.586   9.155 -0.3061 -0.0077  0.6038
 7206SOL    HW133077   0.844   4.626   9.136 -0.2276  0.7600  2.5723
 7206SOL    HW233078   0.705   4.663   9.138 -0.1834 -0.0866 -0.1479
 7207SOL     OW33079   4.241   1.622  12.644 -0.4885  0.5253  0.5221
 7207SOL    HW133080   4.225   1.694  12.582 -1.6044  0.4437  0.7159
 7207SOL    HW233081   4.166   1.563  12.647 -1.2918  1.6037  1.3031
 7208SOL     OW33082   0.841   3.572   2.043 -0.1722  0.4527  0.2394
 7208SOL    HW133083   0.927   3.533   2.055 -1.2805 -1.4724  1.8523
 7208SOL    HW233084   0.866   3.664   2.031  0.8771  0.0684 -0.5267
 7209SOL     OW33085   0.858   2.416   6.834  0.2973 -0.3919  0.5665
 7209SOL    HW133086   0.820   2.374   6.758 -1.2593 -0.9793  1.6631
 7209SOL    HW233087   0.944   2.373   6.839 -0.1289 -1.2994  0.0447
 7210SOL     OW33088   0.082   3.215   2.849 -0.4059 -0.5454  0.5033
 7210SOL    HW133089   0.158   3.221   2.908  0.1754 -1.2458 -0.1819
 7210SOL    HW233090   0.059   3.123   2.838  0.7296 -0.9137  1.1297
 7211SOL     OW33091   3.699   0.311  10.508 -0.8494  0.2363  0.7180
 7211SOL    HW133092   3.714   0.402  10.534 -2.3454  0.6670  0.0993
 7211SOL    HW233093   3.772   0.268  10.551 -1.5311 -1.9187 -0.2842
 7212SOL     OW33094   0.422   2.042   5.756  0.1348 -0.0537  0.0957
 7212SOL    HW133095   0.364   2.038   5.831  0.8952 -3.4985  0.5173
 7212SOL    HW233096   0.376   1.990   5.690 -0.5794 -0.0608  0.6009
 7213SOL     OW33097   2.392   1.667   5.517 -0.2723  1.1813 -0.3072
 7213SOL    HW133098   2.387   1.583   5.563  0.9738  0.2090 -1.9186
 7213SOL    HW233099   2.363   1.637   5.431 -1.1339  0.6909  0.1544
 7214SOL     OW33100   1.833   0.832   8.657  0.3106  0.0313 -0.5541
 7214SOL    HW133101   1.750   0.842   8.705 -0.0530 -1.6016 -0.8324
 7214SOL    HW233102   1.837   0.737   8.672  1.7376  0.1724 -0.0573
 7215SOL     OW33103   4.568   4.158   1.350  0.6007  0.2230 -0.2795
 7215SOL    HW133104   4.649   4.139   1.398  0.1756 -1.0628 -0.0699
 7215SOL    HW233105   4.572   4.249   1.322  1.6355  0.3200  0.1820
 7216SOL     OW33106   1.902   0.977   6.047 -0.2241  0.0852 -0.7108
 7216SOL    HW133107   1.902   1.023   6.131  1.1268  1.1451 -1.2864
 7216SOL    HW233108   1.863   0.898   6.083  0.3560 -1.4396 -3.4176
 7217SOL     OW33109   2.922   0.665  12.308 -0.6568 -0.0290 -0.1854
 7217SOL    HW133110   2.925   0.620  12.393  0.4780 -1.1035 -0.7974
 7217SOL    HW233111   3.015   0.655  12.291 -0.4040  2.6490 -0.3836
 7218SOL     OW33112   2.968   3.506   1.986  0.0683 -0.0610 -0.0866
 7218SOL    HW133113   2.898   3.571   1.978  0.5251  0.5612  0.9885
 7218SOL    HW233114   2.915   3.434   2.019 -1.4915  0.2767 -1.8774
 7219SOL     OW33115   2.028   4.139   9.962 -0.1016 -0.2869  0.2286
 7219SOL    HW133116   2.024   4.043   9.962 -0.5659 -0.2537 -3.4221
 7219SOL    HW233117   1.953   4.172  10.012  0.1682 -2.1174  1.8399
 7220SOL     OW33118   3.953   1.739   1.833 -0.7738 -0.2981  0.7299
 7220SOL    HW133119   3.968   1.717   1.925  0.2612 -1.5286  0.2581
 7220SOL    HW233120   3.951   1.658   1.782 -1.9268  0.3473 -0.2607
 7221SOL     OW33121   0.996   1.087   4.771 -0.4214  0.0544  0.4697
 7221SOL    HW133122   1.016   0.995   4.790 -0.4248  0.3821  2.1297
 7221SOL    HW233123   1.071   1.110   4.717 -0.6948  0.9428  0.4595
 7222SOL     OW33124   4.585   0.696   8.168  0.5004  0.1157 -0.1603
 7222SOL    HW133125   4.648   0.732   8.231 -0.9972  1.8341  0.3415
 7222SOL    HW233126   4.520   0.661   8.229  0.7586  1.1972  0.7391
 7223SOL     OW33127   2.070   0.829   6.478  0.1636 -0.4363  0.3929
 7223SOL    HW133128   2.082   0.762   6.546  1.1454 -1.4813 -0.7899
 7223SOL    HW233129   2.019   0.898   6.520 -0.6159 -1.5660  1.2978
 7224SOL     OW33130   3.240   3.250  12.828 -0.1907 -0.2497 -0.5564
 7224SOL    HW133131   3.259   3.293  12.744 -3.1277 -1.3880 -1.7798
 7224SOL    HW233132   3.328   3.258  12.866 -0.6593 -0.6773  0.5904
 7225SOL     OW33133   0.817   3.767  11.037 -0.6843 -0.5461  0.5624
 7225SOL    HW133134   0.800   3.677  11.065  1.1867 -1.1840 -0.3258
 7225SOL    HW233135   0.865   3.805  11.110  2.4665 -3.0068 -0.2210
 7226SOL     OW33136   3.529   0.064   4.291 -0.3024  0.5967  0.3698
 7226SOL    HW133137   3.619   0.068   4.259 -0.4294 -0.1487 -0.0990
 7226SOL    HW233138   3.541   0.104   4.377 -0.1435  1.4574 -0.0551
 7227SOL     OW33139   0.664   1.399   5.418 -0.1970 -0.1302 -0.4155
 7227SOL    HW133140   0.669   1.427   5.326  2.7376  1.3275  0.1592
 7227SOL    HW233141   0.623   1.473   5.463 -0.7481  0.1688 -1.4092
 7228SOL     OW33142   2.706   2.154  15.382 -0.1169 -0.5536 -0.0398
 7228SOL    HW133143   2.790   2.200  15.396  0.0693 -0.9167  0.0301
 7228SOL    HW233144   2.689   2.171  15.290 -2.5228  1.1189  0.7173
 7229SOL     OW33145   2.905   2.959   3.637 -0.2020 -0.7918  0.2418
 7229SOL    HW133146   2.969   2.951   3.708 -2.3751  0.7847  2.4095
 7229SOL    HW233147   2.835   2.921   3.690 -1.8903 -1.2034 -2.3054
 7230SOL     OW33148   4.227   1.014   2.856 -0.1605  0.3463  0.5155
 7230SOL    HW133149   4.257   1.000   2.946  2.5434  1.6708 -0.1644
 7230SOL    HW233150   4.249   1.105   2.836 -0.1651  0.2815  0.2139
 7231SOL     OW33151   1.244   0.351   3.750 -0.2409  0.0084  0.4748
 7231SOL    HW133152   1.338   0.349   3.771 -0.7303  0.9596  2.7420
 7231SOL    HW233153   1.216   0.441   3.763 -1.6006 -0.2344 -0.8156
 7232SOL     OW33154   2.377   2.555   6.796 -0.0840  0.5464 -0.3821
 7232SOL    HW133155   2.404   2.463   6.788 -0.0998  0.4095  1.1877
 7232SOL    HW233156   2.452   2.593   6.751  2.1440 -1.1652  1.8273
 7233SOL     OW33157   3.031   0.593   3.399 -0.2127 -0.2796 -0.8888
 7233SOL    HW133158   2.958   0.654   3.402  0.7280  0.8096 -0.2678
 7233SOL    HW233159   3.063   0.606   3.310 -0.5106  0.0301 -0.9461
 7234SOL     OW33160   3.680   4.495   8.320  0.2390 -0.5303 -0.1580
 7234SOL    HW133161   3.746   4.427   8.337 -0.9560 -1.5385  0.3996
 7234SOL    HW233162   3.698   4.523   8.230  0.2180  1.6108  0.5068
 7235SOL     OW33163   2.304   2.051  14.754  0.3003 -0.6355 -0.1665
 7235SOL    HW133164   2.239   2.003  14.804  1.0509 -0.0087  1.4094
 7235SOL    HW233165   2.245   2.078  14.683 -0.8630 -0.3443  0.9171
 7236SOL     OW33166   3.712   2.434   6.277  0.4809 -0.1304 -0.9537
 7236SOL    HW133167   3.735   2.523   6.248  0.7576 -0.0828 -0.5899
 7236SOL    HW233168   3.696   2.453   6.369  1.5950 -0.8657 -0.6171
 7237SOL     OW33169   3.401   1.961   4.054  0.2774 -0.8938 -1.0719
 7237SOL    HW133170   3.475   1.937   3.999  0.6600 -3.2425  0.4927
 7237SOL    HW233171   3.428   1.927   4.140 -1.6314 -0.7993 -0.4437
 7238SOL     OW33172   3.684   0.404   5.246  0.1402  0.4112  0.4392
 7238SOL    HW133173   3.691   0.462   5.170 -0.7817 -0.6611 -0.4595
 7238SOL    HW233174   3.720   0.460   5.314 -0.7068  1.2020  0.2240
 7239SOL     OW33175   3.676   4.439  12.105 -0.2225  0.4711  0.4536
 7239SOL    HW133176   3.751   4.388  12.135 -0.5538 -1.1482 -1.4180
 7239SOL    HW233177   3.612   4.408  12.169 -1.9887  2.8412 -0.1550
 7240SOL     OW33178   1.527   2.563   2.180 -0.2020  0.2539 -0.4991
 7240SOL    HW133179   1.513   2.592   2.270  1.4344  2.1536 -0.8802
 7240SOL    HW233180   1.464   2.490   2.182  1.6832 -1.3285  0.3355
 7241SOL     OW33181   4.147   3.747   6.084  0.1793  0.0854  0.3916
 7241SOL    HW133182   4.061   3.723   6.120 -0.3991  1.2599 -0.2145
 7241SOL    HW233183   4.140   3.842   6.088  1.1753  0.1024  1.6425
 7242SOL     OW33184   1.674   0.686   3.289  0.8708  0.4354  0.3682
 7242SOL    HW133185   1.768   0.704   3.291  1.0579 -0.4964 -0.1592
 7242SOL    HW233186   1.683   0.596   3.320  0.3765  1.2021  2.7380
 7243SOL     OW33187   2.060   0.313   4.237  0.1368 -0.3500  0.3880
 7243SOL    HW133188   2.139   0.267   4.265  0.3227  0.2366  0.8190
 7243SOL    HW233189   2.005   0.300   4.314 -0.1478  3.6361  0.8820
 7244SOL     OW33190   3.139   4.206  15.180 -0.5104 -0.1757 -0.4158
 7244SOL    HW133191   3.153   4.199  15.086  2.2060  0.9235 -0.0744
 7244SOL    HW233192   3.143   4.111  15.192  2.9499 -0.1964 -1.7873
 7245SOL     OW33193   4.113   1.883   2.220 -0.4848 -0.1233  0.2057
 7245SOL    HW133194   4.036   1.916   2.174  0.0100  0.0766 -0.4798
 7245SOL    HW233195   4.177   1.949   2.195 -0.8247  0.5163  1.0313
 7246SOL     OW33196   3.062   0.314   5.176  0.0364 -0.0099  0.2357
 7246SOL    HW133197   2.978   0.335   5.216 -1.0323 -0.3762 -1.8337
 7246SOL    HW233198   3.110   0.286   5.254  3.3168  2.9912 -0.7416
 7247SOL     OW33199   1.618   1.257   5.767 -0.2195  0.0189 -0.0953
 7247SOL    HW133200   1.547   1.260   5.832  0.1880 -1.2124  0.4036
 7247SOL    HW233201   1.686   1.317   5.798  0.2719 -0.7550  0.3066
 7248SOL     OW33202   4.217   0.640   2.733  0.2334  0.5011 -0.4709
 7248SOL    HW133203   4.193   0.597   2.651  0.8566 -1.2268  0.2513
 7248SOL    HW233204   4.208   0.735   2.721 -0.6665  0.2237 -1.9584
 7249SOL     OW33205   0.514   3.626   7.703  0.2955 -0.6032 -0.0585
 7249SOL    HW133206   0.490   3.705   7.752 -1.7770 -0.5244 -1.2440
 7249SOL    HW233207   0.555   3.664   7.625 -2.0167  1.9839 -0.0189
 7250SOL     OW33208   4.384   4.196   8.788  0.7630  0.2921 -0.3767
 7250SOL    HW133209   4.289   4.191   8.788  0.6415  2.7156 -3.3092
 7250SOL    HW233210   4.409   4.287   8.771  1.8304 -0.1333 -1.1026
 7251SOL     OW33211   0.404   1.525  11.277 -0.7886 -0.0240 -0.1508
 7251SOL    HW133212   0.486   1.480  11.296  0.0234  1.2172 -0.7002
 7251SOL    HW233213   0.419   1.571  11.194  0.8150  0.1466  0.2353
 7252SOL     OW33214   4.184   3.231   7.056 -0.0743  0.2980 -0.3565
 7252SOL    HW133215   4.142   3.303   7.008  0.2617 -0.7394 -2.2127
 7252SOL    HW233216   4.201   3.166   6.988 -1.7414  0.9599 -1.3986
 7253SOL     OW33217   4.043   2.682   6.997 -0.7259  0.0863  0.4878
 7253SOL    HW133218   4.080   2.611   6.944 -0.8289 -0.5132  1.2129
 7253SOL    HW233219   4.101   2.687   7.074 -0.2193 -0.1386  0.1226
 7254SOL     OW33220   0.673   1.327   9.857 -0.0206  0.5742  0.7499
 7254SOL    HW133221   0.743   1.340   9.921  0.1766 -1.2684  0.9300
 7254SOL    HW233222   0.650   1.236   9.879  1.5780 -0.3396 -1.3055
 7255SOL     OW33223   0.640   3.383   5.756  0.0891  0.6485 -0.3398
 7255SOL    HW133224   0.575   3.361   5.823  0.1814  0.8200 -0.1913
 7255SOL    HW233225   0.720   3.370   5.807 -2.0239 -1.2009  2.4864
 7256SOL     OW33226   2.032   3.297   3.224 -0.2404 -0.4892  0.1542
 7256SOL    HW133227   1.964   3.259   3.169 -0.9725  0.2262  0.5775
 7256SOL    HW233228   2.105   3.253   3.180 -0.1175 -2.2853  2.1514
 7257SOL     OW33229   2.780   3.743   2.406 -0.5300  0.3372 -0.3448
 7257SOL    HW133230   2.720   3.753   2.480 -1.0976  1.5151 -0.9595
 7257SOL    HW233231   2.743   3.800   2.338  2.0467  0.0971 -1.9630
 7258SOL     OW33232   1.017   4.068   6.802  0.0944 -0.4551 -0.1112
 7258SOL    HW133233   0.937   4.027   6.834  2.1132 -3.8149  0.6762
 7258SOL    HW233234   1.039   4.018   6.723  3.3027  0.3076  0.2736
 7259SOL     OW33235   4.212   1.153  10.289  0.0956 -0.8958 -0.1012
 7259SOL    HW133236   4.307   1.153  10.275 -0.0892 -1.1502 -1.4014
 7259SOL    HW233237   4.209   1.186  10.379 -2.5399 -0.6887 -0.2634
 7260SOL     OW33238   2.845   0.988  13.836 -0.1093 -0.2417  0.5116
 7260SOL    HW133239   2.862   0.894  13.833  4.6723  0.6327  0.1540
 7260SOL    HW233240   2.817   1.014  13.748 -1.7131 -1.1475  0.7446
 7261SOL     OW33241   0.350   0.888   2.443  0.2082 -0.1975 -0.0175
 7261SOL    HW133242   0.405   0.949   2.492  1.0472  0.7661 -2.1342
 7261SOL    HW233243   0.296   0.947   2.390  1.6967  2.0877  1.0092
 7262SOL     OW33244   2.132   0.267   9.846 -0.7202  0.5702 -0.2503
 7262SOL    HW133245   2.128   0.349   9.797 -0.0269  1.3844  1.0817
 7262SOL    HW233246   2.084   0.293   9.925 -2.1920  1.1070 -1.3145
 7263SOL     OW33247   2.992   0.530  11.596  0.7758  0.5028  0.1368
 7263SOL    HW133248   2.964   0.450  11.641  2.0066  0.6294  1.1150
 7263SOL    HW233249   2.987   0.507  11.503 -1.3896 -1.2534  0.6726
 7264SOL     OW33250   3.133   0.068   2.123  0.1718 -0.0276 -0.0895
 7264SOL    HW133251   3.116   0.162   2.129 -1.5248 -0.1477 -3.0093
 7264SOL    HW233252   3.113   0.038   2.034  0.7711 -0.9654  0.0923
 7265SOL     OW33253   2.527   2.476   9.260  0.2326 -0.2663  0.6509
 7265SOL    HW133254   2.551   2.560   9.221 -2.1566  0.8338  1.5214
 7265SOL    HW233255   2.501   2.434   9.178 -1.6502  1.1566  0.5299
 7266SOL     OW33256   0.916   2.313   4.432  0.0135 -0.1101  0.4324
 7266SOL    HW133257   0.973   2.298   4.358  3.6421  0.5475  3.0954
 7266SOL    HW233258   0.844   2.366   4.398 -0.2823 -0.6590  0.2084
 7267SOL     OW33259   1.779   1.913  14.078 -0.6877  0.4230 -0.2477
 7267SOL    HW133260   1.771   1.849  14.006 -1.2128 -0.2747  0.4311
 7267SOL    HW233261   1.688   1.923  14.104 -0.7439  1.4906 -0.8672
 7268SOL     OW33262   0.105   3.067   2.200 -0.4949  0.1432  0.5124
 7268SOL    HW133263   0.077   2.976   2.215 -1.0304  0.5833  2.0811
 7268SOL    HW233264   0.060   3.092   2.119  2.2804 -1.2574 -1.4694
 7269SOL     OW33265   1.538   0.493  14.466 -0.0259 -0.2858 -0.1183
 7269SOL    HW133266   1.618   0.523  14.511 -1.1786  1.2260  0.9206
 7269SOL    HW233267   1.477   0.522  14.534  1.8937 -1.0901  1.9657
 7270SOL     OW33268   0.368   4.202  16.702  0.2575 -0.0052  0.1161
 7270SOL    HW133269   0.442   4.150  16.671 -0.8322 -0.2087 -2.1734
 7270SOL    HW233270   0.416   4.269  16.751  1.3608  0.3844 -1.5015
 7271SOL     OW33271   3.063   0.615   3.116  0.5254  0.6368  0.2418
 7271SOL    HW133272   3.100   0.653   3.036  1.7757 -0.3414  0.3669
 7271SOL    HW233273   3.032   0.697   3.155 -0.4427  0.1625  0.4601
 7272SOL     OW33274   3.152   3.556   7.759 -0.0244  0.0945  0.1424
 7272SOL    HW133275   3.089   3.499   7.802 -0.0530 -0.7837 -1.0623
 7272SOL    HW233276   3.235   3.511   7.774  0.3321  1.0531  1.0850
 7273SOL     OW33277   3.470   0.025  16.250  0.3576  0.3424 -0.3553
 7273SOL    HW133278   3.487   0.112  16.286 -0.0417 -0.0867  0.8655
 7273SOL    HW233279   3.554   4.706  16.267  0.0866  0.6073  1.6496
 7274SOL     OW33280   3.545   3.606   0.052  0.4781  0.2802  0.0310
 7274SOL    HW133281   3.618   3.658   0.020  2.2823 -1.9093  0.5491
 7274SOL    HW233282   3.533   3.535  17.689  2.2119  1.0602 -1.1723
 7275SOL     OW33283   3.676   2.984   7.257  0.7538  0.0422  0.3870
 7275SOL    HW133284   3.653   3.022   7.172  0.9780 -1.1505 -0.2011
 7275SOL    HW233285   3.752   2.929   7.241 -0.1264 -1.1955  0.4367
 7276SOL     OW33286   2.568   3.157   3.590 -0.2575  0.0075 -0.6205
 7276SOL    HW133287   2.526   3.207   3.519  1.2212  2.8662  0.5223
 7276SOL    HW233288   2.517   3.196   3.661 -1.0704 -0.8698 -0.7129
 7277SOL     OW33289   4.159   1.784  10.865  0.0455  0.1069 -0.1182
 7277SOL    HW133290   4.160   1.729  10.943 -1.5816 -1.0595 -0.9130
 7277SOL    HW233291   4.216   1.731  10.809 -1.8639  0.1245 -2.0720
 7278SOL     OW33292   2.169   3.019   2.164 -0.1067 -0.1342  0.2639
 7278SOL    HW133293   2.220   3.036   2.085 -0.9181 -3.0703 -0.8885
 7278SOL    HW233294   2.216   2.943   2.198  1.7556  0.1896 -1.6095
 7279SOL     OW33295   3.145   4.378  15.935  0.2412 -0.0930 -0.2598
 7279SOL    HW133296   3.063   4.364  15.981 -0.0657 -0.7467 -1.0022
 7279SOL    HW233297   3.133   4.340  15.848 -3.7724 -1.8940  1.0734
 7280SOL     OW33298   2.381   2.397  15.240  0.1098 -0.3497 -0.0419
 7280SOL    HW133299   2.411   2.307  15.230 -1.6905 -0.8109 -1.1937
 7280SOL    HW233300   2.464   2.440  15.261 -0.0097  0.3740 -1.0882
 7281SOL     OW33301   0.926   1.639  12.510  0.3200  0.1497 -0.2456
 7281SOL    HW133302   0.888   1.627  12.597 -1.0153  2.8559 -0.4564
 7281SOL    HW233303   0.863   1.603  12.447 -2.0915  0.3996  1.9960
 7282SOL     OW33304   4.215   1.315  17.494 -0.1403  0.3495  0.7535
 7282SOL    HW133305   4.245   1.345  17.580  0.5687  2.2390 -0.1568
 7282SOL    HW233306   4.143   1.267  17.535 -0.0368 -1.8734 -1.6634
 7283SOL     OW33307   3.721   1.972  13.735 -0.1738  0.1473  0.1712
 7283SOL    HW133308   3.645   2.012  13.692  0.5343 -1.1530 -2.2655
 7283SOL    HW233309   3.739   1.898  13.677 -0.2956  0.0149  0.3030
 7284SOL     OW33310   1.492   2.144   3.738  0.4720 -0.0120  0.1087
 7284SOL    HW133311   1.460   2.231   3.761  0.9571  0.3178 -0.4839
 7284SOL    HW233312   1.426   2.112   3.677  0.9968  0.9077 -0.9312
 7285SOL     OW33313   2.665   0.272  15.457  0.3855 -0.3985 -0.2896
 7285SOL    HW133314   2.656   0.314  15.372 -1.4235  1.6058  0.9056
 7285SOL    HW233315   2.716   0.201  15.418  0.1222  0.0616 -1.4616
 7286SOL     OW33316   0.361   0.606   4.771 -0.3679  0.1760  0.2385
 7286SOL    HW133317   0.445   0.578   4.805  0.0993  2.2358  0.7703
 7286SOL    HW233318   0.342   0.538   4.707 -2.1845  0.9722 -0.0701
 7287SOL     OW33319   3.026   2.915   7.862 -0.1967 -0.0282  0.3941
 7287SOL    HW133320   3.086   2.857   7.815  0.5053  1.5052 -0.6030
 7287SOL    HW233321   3.010   2.988   7.802 -2.8390  0.5823  1.8306
 7288SOL     OW33322   1.007   1.050   3.805 -0.5315  0.0399  0.0624
 7288SOL    HW133323   0.913   1.061   3.793 -0.7616  0.3385  2.1035
 7288SOL    HW233324   1.031   1.131   3.851 -1.1767  0.9525 -1.1920
 7289SOL     OW33325   2.534   2.624   4.607  0.1948  0.1665 -0.6649
 7289SOL    HW133326   2.446   2.591   4.625 -0.2530  0.8267 -1.6231
 7289SOL    HW233327   2.538   2.671   4.690 -3.1524 -1.5390  0.4588
 7290SOL     OW33328   1.591   0.598  12.453  0.1767  0.1796  0.7044
 7290SOL    HW133329   1.496   0.586  12.455  0.0665  1.2130  1.7154
 7290SOL    HW233330   1.626   0.518  12.492 -0.4916 -0.0046  0.9372
 7291SOL     OW33331   2.820   0.775   3.331  0.1545  0.1963  0.9558
 7291SOL    HW133332   2.760   0.724   3.277  1.7122 -0.0555 -0.5320
 7291SOL    HW233333   2.816   0.859   3.285  1.5944 -1.3574 -1.9927
 7292SOL     OW33334   2.131   3.573   7.841  0.0501 -0.6596 -0.0745
 7292SOL    HW133335   2.156   3.482   7.827  1.8681  0.2400 -2.4813
 7292SOL    HW233336   2.133   3.604   7.751  1.4963 -1.4080 -0.2951
 7293SOL     OW33337   3.520   2.641   7.573 -0.2654 -0.0882  0.2046
 7293SOL    HW133338   3.506   2.715   7.513  0.3651 -1.1385 -1.2398
 7293SOL    HW233339   3.537   2.678   7.659  0.0958 -0.7190  0.4057
 7294SOL     OW33340   3.372   1.799  17.408 -0.0497  0.1506 -0.1696
 7294SOL    HW133341   3.398   1.862  17.475 -2.6742  0.1976  0.8239
 7294SOL    HW233342   3.438   1.815  17.341 -0.3837  0.3268 -0.4585
 7295SOL     OW33343   4.226   0.318  13.067 -0.2949  0.1789  0.1715
 7295SOL    HW133344   4.216   0.323  13.162 -0.7229 -0.9013  0.1758
 7295SOL    HW233345   4.244   0.410  13.044 -0.0601 -0.1921 -1.1079
 7296SOL     OW33346   3.034   0.609   0.327 -0.2063  0.2362  0.0887
 7296SOL    HW133347   3.121   0.617   0.366  0.9208 -3.7239 -1.6460
 7296SOL    HW233348   2.981   0.636   0.403  0.3599  0.2745  0.4658
 7297SOL     OW33349   4.266   2.123   6.969 -0.4892  0.6039  0.8164
 7297SOL    HW133350   4.206   2.052   6.946  0.6667 -0.0604 -0.1384
 7297SOL    HW233351   4.199   2.188   6.989 -0.1828  0.8420  1.0808
 7298SOL     OW33352   4.501   1.107   2.634  0.2583 -0.3680  0.5316
 7298SOL    HW133353   4.494   1.142   2.545 -1.4377 -1.1076  0.3747
 7298SOL    HW233354   4.552   1.029   2.612  1.0494  0.3272 -0.1076
 7299SOL     OW33355   0.848   2.218  10.018  0.3671  0.3223 -0.3900
 7299SOL    HW133356   0.921   2.250   9.964 -0.9678 -0.6423 -2.7472
 7299SOL    HW233357   0.895   2.207  10.100 -0.7700 -2.1791 -0.0893
 7300SOL     OW33358   3.161   2.500   1.479 -0.0519  0.2578  0.4430
 7300SOL    HW133359   3.100   2.499   1.405 -0.1964  1.7682  0.5389
 7300SOL    HW233360   3.209   2.419   1.459  1.4159  1.4946 -1.1323
 7301SOL     OW33361   2.049   4.453   1.796 -0.2129 -0.2311 -0.4383
 7301SOL    HW133362   2.014   4.422   1.713 -0.3558  1.3179 -0.9462
 7301SOL    HW233363   1.974   4.451   1.856  1.7214  1.3907  2.0256
 7302SOL     OW33364   3.265   2.291   7.274 -0.1917  0.0688  0.2412
 7302SOL    HW133365   3.179   2.265   7.306  0.5319 -1.4975  0.9167
 7302SOL    HW233366   3.276   2.365   7.332 -1.1313  1.7066 -1.6824
 7303SOL     OW33367   0.708   4.694  10.387  0.1845  0.1192  0.1425
 7303SOL    HW133368   0.767   4.620  10.375 -0.4275  0.0489 -2.2965
 7303SOL    HW233369   0.623   4.651  10.390 -0.2529  0.9596 -0.2383
 7304SOL     OW33370   0.274   0.154   5.559  0.0334  0.0318 -0.5896
 7304SOL    HW133371   0.273   0.107   5.476  0.6390  0.8696 -1.0777
 7304SOL    HW233372   0.294   0.245   5.536  1.1803 -0.0472  0.1038
 7305SOL     OW33373   2.181   4.371   2.584  0.2410  0.1812  0.1046
 7305SOL    HW133374   2.219   4.322   2.511  1.0405 -0.6430  1.0614
 7305SOL    HW233375   2.247   4.343   2.647  0.4647 -1.5622 -0.8973
 7306SOL     OW33376   0.925   3.143   5.182  0.1340  0.2624  0.0193
 7306SOL    HW133377   0.986   3.199   5.135  1.9059 -3.3985 -2.0874
 7306SOL    HW233378   0.982   3.074   5.219  0.1381  0.0382 -0.4057
 7307SOL     OW33379   2.853   3.977   7.370 -0.1570 -0.0943 -0.4923
 7307SOL    HW133380   2.819   3.893   7.401 -0.1335  1.2156  3.0694
 7307SOL    HW233381   2.940   3.968   7.407 -0.3600 -1.1790 -0.2898
 7308SOL     OW33382   0.905   2.284  16.701 -0.0996  0.4437 -0.1416
 7308SOL    HW133383   0.975   2.279  16.766  1.4721  0.9282 -1.7833
 7308SOL    HW233384   0.954   2.269  16.620  0.7718 -0.2490  0.5144
 7309SOL     OW33385   3.148   1.542   4.604 -0.0826 -0.2888  1.1793
 7309SOL    HW133386   3.135   1.565   4.696 -1.4936  2.5362  0.2423
 7309SOL    HW233387   3.064   1.499   4.587  0.8198 -1.1103 -1.1592
 7310SOL     OW33388   3.625   0.801   4.514  0.2573 -0.4738 -0.2471
 7310SOL    HW133389   3.571   0.722   4.509  0.8601 -0.8699 -0.5817
 7310SOL    HW233390   3.559   0.854   4.558 -1.7783 -1.0365 -2.6264
 7311SOL     OW33391   2.474   0.386   3.250  0.0224  0.0592 -0.6243
 7311SOL    HW133392   2.529   0.459   3.281  0.3561  0.5390 -2.3468
 7311SOL    HW233393   2.536   0.365   3.180  0.7137 -1.7389  0.5163
 7312SOL     OW33394   3.862   3.368  11.490  0.8912 -1.2234  0.1403
 7312SOL    HW133395   3.858   3.340  11.399  1.0575  1.6961 -0.7563
 7312SOL    HW233396   3.831   3.456  11.468  1.7747 -0.6619  1.1399
 7313SOL     OW33397   2.442   4.580  11.175 -0.1386 -0.1691  0.0079
 7313SOL    HW133398   2.537   4.575  11.161 -0.3556 -1.8414 -0.8905
 7313SOL    HW233399   2.404   4.586  11.088 -2.0028  0.7588  0.8752
 7314SOL     OW33400   1.362   0.591   6.757  0.1833  0.5584 -0.1600
 7314SOL    HW133401   1.338   0.565   6.667  2.5837 -3.1018  0.2389
 7314SOL    HW233402   1.290   0.652   6.773 -1.9934 -1.9908 -0.0351
 7315SOL     OW33403   2.388   2.187  13.582 -0.5711  0.1096 -0.3410
 7315SOL    HW133404   2.400   2.124  13.511 -2.2744 -0.1112 -0.4279
 7315SOL    HW233405   2.307   2.233  13.560 -0.5948  0.2837  0.1048
 7316SOL     OW33406   4.609   0.981   9.074 -0.1517 -0.3346  0.0242
 7316SOL    HW133407   4.605   1.046   9.004  1.2271 -1.8895 -1.5081
 7316SOL    HW233408   4.576   1.028   9.150  0.5701  1.4209 -0.7476
 7317SOL     OW33409   2.717   3.718  13.224 -0.0401 -0.3279 -0.1779
 7317SOL    HW133410   2.697   3.799  13.270  0.1253 -0.8311  0.7757
 7317SOL    HW233411   2.769   3.757  13.153 -1.2634  3.9733  1.3100
 7318SOL     OW33412   2.138   1.358   8.029  0.2496  0.1170  0.1888
 7318SOL    HW133413   2.119   1.265   8.016 -0.3581  0.8071 -3.8888
 7318SOL    HW233414   2.175   1.354   8.117 -0.1376  0.8572  0.3837
 7319SOL     OW33415   4.483   0.983   6.047  0.0912 -0.3299  0.3675
 7319SOL    HW133416   4.531   0.958   6.126  3.8341 -0.7956 -2.0492
 7319SOL    HW233417   4.533   1.063   6.029 -0.6004 -0.3580 -1.6662
 7320SOL     OW33418   2.688   2.848   2.384  0.2608 -0.4370 -0.0743
 7320SOL    HW133419   2.704   2.787   2.456 -1.0413 -1.5824 -0.7496
 7320SOL    HW233420   2.713   2.926   2.433  0.3423  0.3622 -1.4071
 7321SOL     OW33421   0.707   0.635  13.882 -0.2700  0.1392  0.1878
 7321SOL    HW133422   0.671   0.558  13.925  0.3835 -0.1837  0.1498
 7321SOL    HW233423   0.702   0.617  13.788  2.1890  0.3240  0.0103
 7322SOL     OW33424   3.076   4.085   0.219 -0.3946 -0.2573 -0.1921
 7322SOL    HW133425   3.108   4.116   0.303 -1.8634  1.5247 -0.2907
 7322SOL    HW233426   3.162   4.083   0.177  0.1765  1.3734  0.8926
 7323SOL     OW33427   0.498   2.238   7.482  0.7460 -0.3755 -0.2046
 7323SOL    HW133428   0.545   2.281   7.411  1.1233 -0.5729 -0.0787
 7323SOL    HW233429   0.503   2.304   7.551 -0.8861  0.3853 -0.8205
 7324SOL     OW33430   4.232   0.715   8.409 -0.2094  0.1239  0.6340
 7324SOL    HW133431   4.302   0.651   8.426  0.2212  0.5296  0.3913
 7324SOL    HW233432   4.290   0.791   8.411 -0.7669  0.4947  2.7926
 7325SOL     OW33433   3.643   0.138   7.537  0.8811  0.3885 -0.0045
 7325SOL    HW133434   3.665   0.152   7.445  0.3844  1.8638  0.0994
 7325SOL    HW233435   3.668   0.224   7.571 -0.6765  0.1245  1.7516
 7326SOL     OW33436   3.008   2.270   6.526 -0.0975  0.3581 -0.2039
 7326SOL    HW133437   3.102   2.285   6.516  0.3619 -2.5703 -0.1702
 7326SOL    HW233438   3.011   2.226   6.611 -0.0357  0.9501  0.1057
 7327SOL     OW33439   3.796   2.068  11.490 -0.5280 -0.3199  0.3516
 7327SOL    HW133440   3.711   2.025  11.492 -0.1570 -1.1334 -1.2507
 7327SOL    HW233441   3.829   2.067  11.580 -3.1632 -0.6179  1.3190
 7328SOL     OW33442   3.048   3.311  10.953  0.7393  0.0672 -0.8872
 7328SOL    HW133443   3.005   3.277  10.875 -1.4409 -1.1790  0.8483
 7328SOL    HW233444   2.996   3.278  11.027 -0.0436  2.8286 -0.2126
 7329SOL     OW33445   3.211   2.386   8.739  0.2442  0.4919  0.2388
 7329SOL    HW133446   3.147   2.411   8.806  0.2219  1.8361 -0.2872
 7329SOL    HW233447   3.288   2.435   8.769  0.6497 -1.8416  3.0392
 7330SOL     OW33448   0.442   4.307   8.173 -0.0698  0.2517 -0.0570
 7330SOL    HW133449   0.494   4.229   8.192 -0.0333  0.6755  1.5847
 7330SOL    HW233450   0.459   4.310   8.079 -0.8313 -1.2220 -0.2460
 7331SOL     OW33451   0.746   1.895   3.907 -0.1798  0.3671  0.4376
 7331SOL    HW133452   0.723   1.987   3.896  0.1249  0.1976 -1.6348
 7331SOL    HW233453   0.672   1.857   3.860  0.7968 -0.6516 -0.2856
 7332SOL     OW33454   3.046   4.395   8.076  0.2148 -0.0697  0.7436
 7332SOL    HW133455   2.994   4.473   8.059 -0.6710 -0.9594 -0.6594
 7332SOL    HW233456   2.992   4.345   8.137  1.8917 -2.1800  0.5117
 7333SOL     OW33457   2.634   2.690   6.058  0.0885 -0.4039  0.0167
 7333SOL    HW133458   2.693   2.651   6.123  1.0125  0.5605 -0.2511
 7333SOL    HW233459   2.584   2.615   6.025  0.6364 -1.2104  0.9937
 7334SOL     OW33460   1.732   1.151  13.947  0.2245 -0.0765 -0.5620
 7334SOL    HW133461   1.782   1.231  13.960 -1.2247  0.4214  1.8601
 7334SOL    HW233462   1.770   1.102  14.020 -0.8548 -0.3558 -0.1932
 7335SOL     OW33463   2.706   2.120   4.134 -0.3156  0.1110 -0.4711
 7335SOL    HW133464   2.674   2.034   4.159 -0.1588  0.4997  1.0529
 7335SOL    HW233465   2.795   2.103   4.166 -0.2274  0.9574 -0.2762
 7336SOL     OW33466   3.851   3.654   0.863  0.0655 -0.5046 -0.0714
 7336SOL    HW133467   3.782   3.679   0.925 -0.1060 -0.6237 -0.2141
 7336SOL    HW233468   3.939   3.652   0.900  0.2698 -0.3160 -0.5422
 7337SOL     OW33469   4.331   1.699   5.267  0.2662 -0.3848  0.4482
 7337SOL    HW133470   4.376   1.771   5.311 -2.4454  1.8125 -0.3293
 7337SOL    HW233471   4.241   1.713   5.296  0.6038 -0.4140  1.5030
 7338SOL     OW33472   0.021   0.505   6.666  0.1972 -0.2023  0.0449
 7338SOL    HW133473   4.688   0.452   6.610 -2.0996  1.0628  1.1776
 7338SOL    HW233474   4.690   0.500   6.744 -1.9869 -0.9313 -1.5567
 7339SOL     OW33475   4.258   2.306   4.342  0.4878 -0.0711 -0.1153
 7339SOL    HW133476   4.287   2.243   4.408 -1.4680  0.3643  1.1519
 7339SOL    HW233477   4.283   2.258   4.263  0.3051  2.2017 -1.5661
 7340SOL     OW33478   0.133   2.491   8.697  0.2351  0.4049 -0.3222
 7340SOL    HW133479   0.200   2.423   8.705  0.7169  1.1810  2.4872
 7340SOL    HW233480   0.107   2.488   8.605  0.3174  0.2337 -0.3392
 7341SOL     OW33481   3.361   2.470   2.212  0.3121  0.1634 -0.2964
 7341SOL    HW133482   3.360   2.433   2.300  0.2917 -1.0429 -0.8092
 7341SOL    HW233483   3.272   2.450   2.181  0.1003 -1.1198  1.1318
 7342SOL     OW33484   3.695   3.283   6.826 -0.2527 -0.0601 -0.1084
 7342SOL    HW133485   3.785   3.252   6.825 -0.6087 -1.0817 -1.9978
 7342SOL    HW233486   3.706   3.378   6.829 -0.7744 -0.0435  1.3754
 7343SOL     OW33487   0.542   0.568   7.228 -0.3442  0.0928 -0.6035
 7343SOL    HW133488   0.631   0.563   7.193 -0.9333 -0.2167 -2.0534
 7343SOL    HW233489   0.492   0.595   7.152  0.1709  2.6879 -0.0081
 7344SOL     OW33490   0.276   3.219  16.259  0.3317 -0.3467  0.1579
 7344SOL    HW133491   0.193   3.255  16.290  0.9810  1.7087 -0.4812
 7344SOL    HW233492   0.337   3.269  16.313  0.2548  0.9880 -1.0047
 7345SOL     OW33493   3.826   3.783  15.880  0.3455 -0.2253 -0.7022
 7345SOL    HW133494   3.748   3.833  15.904  0.4742 -1.7562  2.9820
 7345SOL    HW233495   3.890   3.850  15.905  0.8895 -1.6090  1.5670
 7346SOL     OW33496   4.567   4.303   9.616  0.5862  0.0790 -0.7215
 7346SOL    HW133497   4.642   4.331   9.667  0.4548 -0.9382  0.0319
 7346SOL    HW233498   4.505   4.286   9.687  0.6988  1.7176 -0.2410
 7347SOL     OW33499   0.525   1.130   3.391 -0.4121 -0.1288  0.4215
 7347SOL    HW133500   0.507   1.049   3.342  0.8201  0.2807 -0.7132
 7347SOL    HW233501   0.594   1.174   3.340 -1.5996  2.1502  0.7958
 7348SOL     OW33502   3.026   0.230   8.429 -0.1581 -0.0821 -0.3233
 7348SOL    HW133503   3.006   0.324   8.431  2.3319  0.3993  0.6314
 7348SOL    HW233504   2.978   0.187   8.500 -1.2333  2.8228  0.7261
 7349SOL     OW33505   1.196   0.019   6.372  0.4791 -0.1835 -0.3712
 7349SOL    HW133506   1.102   0.003   6.358  0.8024 -1.2956 -1.2423
 7349SOL    HW233507   1.193   0.044   6.465  0.9153  1.1774 -0.7198
 7350SOL     OW33508   0.370   0.145   6.043  0.5152  0.2213  0.0756
 7350SOL    HW133509   0.413   0.231   6.035  1.4408 -0.1104  1.5023
 7350SOL    HW233510   0.374   0.100   5.958 -0.8780  1.3739 -0.6073
 7351SOL     OW33511   0.644   3.158   7.162 -0.1453 -0.1197 -0.8821
 7351SOL    HW133512   0.727   3.170   7.209 -0.5300  2.0050 -0.7798
 7351SOL    HW233513   0.607   3.083   7.210 -1.6348  1.2022  0.0279
 7352SOL     OW33514   1.080   3.334   7.193 -0.0984 -0.4721 -0.0528
 7352SOL    HW133515   1.045   3.247   7.211  0.3689 -0.2724  1.8647
 7352SOL    HW233516   1.014   3.372   7.136 -1.6237 -0.9423  1.4212
 7353SOL     OW33517   0.695   2.698   3.409  0.0639  0.2896 -0.0939
 7353SOL    HW133518   0.720   2.789   3.426  2.4788 -0.2930 -0.5368
 7353SOL    HW233519   0.727   2.676   3.321  3.1284 -1.7561  1.5675
 7354SOL     OW33520   4.443   3.769   9.615  0.1912  0.1144  0.4659
 7354SOL    HW133521   4.351   3.749   9.597  0.8915 -1.5884 -1.2011
 7354SOL    HW233522   4.473   3.703   9.678 -1.2363 -2.6526 -1.7580
 7355SOL     OW33523   3.125   0.926   7.981  0.3508 -0.1376 -0.2952
 7355SOL    HW133524   3.197   0.874   7.946 -0.7306 -0.7722 -1.5466
 7355SOL    HW233525   3.063   0.912   7.910  0.1879  1.2878 -0.4388
 7356SOL     OW33526   3.230   2.825   1.831 -0.0261 -0.7629  0.3515
 7356SOL    HW133527   3.218   2.920   1.829 -0.7108 -0.8605 -0.0381
 7356SOL    HW233528   3.160   2.801   1.770  0.3909 -1.8058  0.2766
 7357SOL     OW33529   0.144   1.411  15.834  0.5800 -0.1046  0.1077
 7357SOL    HW133530   0.071   1.410  15.774 -0.5168  0.6563  1.4327
 7357SOL    HW233531   0.096   1.407  15.917 -2.5062  0.0560 -1.6883
 7358SOL     OW33532   0.323   0.417  17.320 -0.5162  0.5568  1.3781
 7358SOL    HW133533   0.334   0.433  17.226 -3.1284  0.2519  1.0301
 7358SOL    HW233534   0.255   0.351  17.313  0.5570 -0.2455 -1.5314
 7359SOL     OW33535   0.992   1.116  13.992 -0.4327  0.4242 -0.6638
 7359SOL    HW133536   1.021   1.181  14.055 -0.0306  1.0001 -1.4323
 7359SOL    HW233537   0.918   1.079  14.038  0.0562  0.3452  0.0494
 7360SOL     OW33538   1.484   1.175   3.175 -0.0306 -0.3131  0.0760
 7360SOL    HW133539   1.554   1.217   3.124 -1.8062  1.2288 -1.0905
 7360SOL    HW233540   1.475   1.097   3.120 -0.8947  2.0658 -3.1261
 7361SOL     OW33541   0.616   1.596  15.467 -0.1975  0.8008 -0.3533
 7361SOL    HW133542   0.706   1.563  15.470 -0.6852 -0.2589  2.1131
 7361SOL    HW233543   0.581   1.567  15.551  0.4209 -3.3780 -1.5246
 7362SOL     OW33544   0.899   0.329  16.369  0.0479  0.3778  0.3986
 7362SOL    HW133545   0.983   0.352  16.409  0.6945 -3.5462  1.3375
 7362SOL    HW233546   0.929   0.310  16.280 -1.0077  2.1888 -0.3391
 7363SOL     OW33547   0.950   1.780   7.504  0.3484  0.5672  0.3000
 7363SOL    HW133548   1.022   1.818   7.454  2.0131 -2.6514  0.2741
 7363SOL    HW233549   0.936   1.703   7.450  3.2966  0.1633  0.1113
 7364SOL     OW33550   4.113   4.479   1.957  0.2479 -0.0283  0.0797
 7364SOL    HW133551   4.035   4.443   1.999  1.5255  0.2336  2.6899
 7364SOL    HW233552   4.165   4.492   2.036  1.5078 -3.4572 -0.1761
 7365SOL     OW33553   4.484   0.680   2.295  0.4421  0.3308 -0.2363
 7365SOL    HW133554   4.560   0.723   2.334  0.7991 -0.2794 -0.2656
 7365SOL    HW233555   4.466   0.720   2.210 -1.1226 -0.5682 -0.3091
 7366SOL     OW33556   0.678   2.855  10.975 -0.1747  0.6670  0.1366
 7366SOL    HW133557   0.629   2.897  11.046 -0.3963 -0.2632  0.5227
 7366SOL    HW233558   0.610   2.810  10.926 -0.8942  2.2816 -0.3727
 7367SOL     OW33559   3.348   1.469   3.733  0.7631  0.6585 -0.0372
 7367SOL    HW133560   3.334   1.549   3.784 -0.0073  1.8182 -2.0457
 7367SOL    HW233561   3.259   1.445   3.708  0.5880  1.2094  0.0620
 7368SOL     OW33562   2.833   0.775   8.021 -0.0838 -0.1001  0.4280
 7368SOL    HW133563   2.874   0.759   7.936 -0.3352 -1.3004  0.5216
 7368SOL    HW233564   2.770   0.843   7.997 -1.7673 -1.7200  0.2935
 7369SOL     OW33565   0.385   2.260  12.294 -0.1906  0.6595 -0.6278
 7369SOL    HW133566   0.387   2.199  12.367 -0.3206 -0.2446 -1.3782
 7369SOL    HW233567   0.477   2.280  12.275  0.1802  1.1597  1.6520
 7370SOL     OW33568   1.611   2.003   2.788 -0.0488 -1.1515  0.0628
 7370SOL    HW133569   1.665   1.961   2.721 -1.7091  0.4115 -2.2386
 7370SOL    HW233570   1.541   2.039   2.735  1.3038  0.1224 -0.8662
 7371SOL     OW33571   1.732   2.049   9.233  0.3547  0.3816 -0.6187
 7371SOL    HW133572   1.715   1.954   9.232  3.8174 -0.3237  4.2186
 7371SOL    HW233573   1.766   2.066   9.145  0.7391 -0.0147 -0.5500
 7372SOL     OW33574   3.778   4.567   0.370  0.0892 -0.2380 -0.0684
 7372SOL    HW133575   3.765   4.609   0.454 -1.4748 -1.8911  0.5188
 7372SOL    HW233576   3.779   4.641   0.310 -1.0561 -0.5861 -0.5301
 7373SOL     OW33577   2.369   4.191   7.388  0.2918  0.0909  0.8587
 7373SOL    HW133578   2.355   4.155   7.475 -0.8535 -1.3494  0.0844
 7373SOL    HW233579   2.463   4.179   7.373 -0.5024 -3.8723 -1.1883
 7374SOL     OW33580   4.506   3.442   2.047  0.7570  0.4699  0.0446
 7374SOL    HW133581   4.471   3.481   2.127 -2.7395 -1.7227 -0.3954
 7374SOL    HW233582   4.546   3.359   2.075  1.0768  0.4990 -0.3323
 7375SOL     OW33583   3.386   0.130   6.043 -0.0336 -0.4432  0.0810
 7375SOL    HW133584   3.291   0.119   6.044 -0.1225  0.5457  2.3229
 7375SOL    HW233585   3.409   0.146   6.135 -0.4468  1.9128 -0.2162
 7376SOL     OW33586   0.517   0.765   7.763 -0.0133  0.4482  0.3214
 7376SOL    HW133587   0.490   0.710   7.837  0.6229  0.3401  0.4743
 7376SOL    HW233588   0.532   0.694   7.701 -0.1667 -0.1992  1.0272
 7377SOL     OW33589   0.499   1.997  14.555 -0.1647  0.1413 -0.1895
 7377SOL    HW133590   0.579   1.974  14.600  0.0369  0.8186 -0.2043
 7377SOL    HW233591   0.451   2.011  14.636 -1.0428 -2.5661 -0.2141
 7378SOL     OW33592   2.041   2.835  14.154  0.3808  0.0677  0.1950
 7378SOL    HW133593   2.078   2.749  14.175 -1.8848 -0.9898 -0.1123
 7378SOL    HW233594   1.948   2.816  14.166 -0.0733  1.7024 -0.7023
 7379SOL     OW33595   1.172   0.342   5.378  0.2053 -0.3923 -0.3456
 7379SOL    HW133596   1.213   0.315   5.460  0.1691 -1.0001 -0.5254
 7379SOL    HW233597   1.238   0.396   5.334  0.5385 -2.1792 -2.0704
 7380SOL     OW33598   4.486   3.592  13.629  0.0507 -0.4261  0.8401
 7380SOL    HW133599   4.449   3.680  13.617 -3.3468 -1.8356  0.9170
 7380SOL    HW233600   4.578   3.611  13.613 -0.4861  1.8103  0.3605
 7381SOL     OW33601   1.626   2.107   3.483  0.0695 -0.1320 -0.5310
 7381SOL    HW133602   1.718   2.105   3.459  0.0350 -2.1990 -0.4609
 7381SOL    HW233603   1.632   2.113   3.578 -0.0466 -2.8273 -0.3742
 7382SOL     OW33604   0.926   3.093   8.740  0.3288 -0.6173 -0.5563
 7382SOL    HW133605   0.951   3.162   8.800 -2.3546 -1.9127  2.0796
 7382SOL    HW233606   0.980   3.021   8.772  0.1232 -0.5982 -0.1710
 7383SOL     OW33607   0.562   1.172   1.578 -0.0318 -0.2500  0.6199
 7383SOL    HW133608   0.584   1.260   1.545 -1.5677 -1.3338 -3.2422
 7383SOL    HW233609   0.607   1.185   1.662 -0.7752 -0.2034  1.0113
 7384SOL     OW33610   2.245   3.306  14.991 -0.0306  0.6522  0.3858
 7384SOL    HW133611   2.250   3.234  14.928 -0.3005  1.9631 -1.1234
 7384SOL    HW233612   2.308   3.374  14.966  2.1951 -1.7156 -0.3812
 7385SOL     OW33613   0.196   1.090  16.621  0.7816 -0.1712  0.0659
 7385SOL    HW133614   0.164   1.114  16.534 -1.1800  0.4520  0.9513
 7385SOL    HW233615   0.129   1.131  16.676  0.5929 -1.2378  0.6408
 7386SOL     OW33616   4.077   4.264   8.455  0.3105 -0.0497 -0.3346
 7386SOL    HW133617   4.092   4.250   8.548 -0.2480  0.7030 -0.1383
 7386SOL    HW233618   3.983   4.245   8.456  0.4628 -0.8475 -1.1954
 7387SOL     OW33619   0.656   2.901   2.330  0.5877 -0.2803 -0.0491
 7387SOL    HW133620   0.588   2.916   2.265  0.2633 -0.0205  0.3519
 7387SOL    HW233621   0.619   2.943   2.408  2.1515 -1.5260  1.3962
 7388SOL     OW33622   4.684   2.795   5.363  0.1082 -0.1992  0.0817
 7388SOL    HW133623   4.613   2.844   5.320 -0.3708 -1.5833 -0.7067
 7388SOL    HW233624   4.639   2.745   5.432  1.2632 -0.4536  0.6401
 7389SOL     OW33625   2.829   4.298   5.282 -0.1330  0.4546 -0.1007
 7389SOL    HW133626   2.871   4.381   5.259  0.4635  0.3105  0.4811
 7389SOL    HW233627   2.772   4.327   5.353 -1.5438 -0.9522 -0.6665
 7390SOL     OW33628   2.306   3.679  13.352  0.4672  0.1703 -0.0821
 7390SOL    HW133629   2.368   3.752  13.353  0.4251  0.1887  0.8135
 7390SOL    HW233630   2.279   3.666  13.443 -1.4067  2.0597 -0.3676
 7391SOL     OW33631   1.146   1.073   3.135 -0.4462 -0.6080  0.1605
 7391SOL    HW133632   1.056   1.038   3.137 -0.5903 -0.2867 -0.6545
 7391SOL    HW233633   1.114   1.164   3.136  0.0999 -0.4555  2.8179
 7392SOL     OW33634   0.500   1.596   2.830 -0.0675 -0.0309 -0.1445
 7392SOL    HW133635   0.583   1.618   2.872 -0.2288 -1.4679  0.8937
 7392SOL    HW233636   0.525   1.587   2.738 -0.7006  1.5616 -0.4691
 7393SOL     OW33637   0.304   4.054   7.859 -0.2740 -0.0050  0.0328
 7393SOL    HW133638   0.329   4.065   7.767  0.3839 -0.2426  0.1793
 7393SOL    HW233639   0.209   4.061   7.865 -0.3387  0.5838 -1.7071
 7394SOL     OW33640   1.277   3.594   8.014  0.4619 -0.2369 -0.2944
 7394SOL    HW133641   1.273   3.529   7.944 -1.1996 -0.5769  0.1051
 7394SOL    HW233642   1.372   3.594   8.024  0.5943  5.4985 -2.0617
 7395SOL     OW33643   3.824   4.418   5.759 -0.1624  0.3310  0.0284
 7395SOL    HW133644   3.850   4.505   5.729 -1.2589  0.6474  0.0063
 7395SOL    HW233645   3.787   4.377   5.681 -2.2038  1.5427  0.3462
 7396SOL     OW33646   3.480   3.449   8.945 -0.0105  0.0850  0.4877
 7396SOL    HW133647   3.574   3.463   8.938 -0.0220 -0.4184 -0.6061
 7396SOL    HW233648   3.466   3.404   9.029 -0.7040 -0.5553  0.0317
 7397SOL     OW33649   3.125   3.335  15.104 -0.1957  0.1635  0.3248
 7397SOL    HW133650   3.115   3.327  15.199 -0.2621 -0.0640  0.2984
 7397SOL    HW233651   3.091   3.249  15.078  0.1386  0.0035  0.4091
 7398SOL     OW33652   2.646   1.158  12.718 -0.2428  0.4941  0.1089
 7398SOL    HW133653   2.666   1.218  12.791  1.0273 -1.1419  1.1010
 7398SOL    HW233654   2.610   1.084  12.767  0.8641 -0.6420 -0.7995
 7399SOL     OW33655   3.864   4.590   9.688 -0.0354  0.2225  0.1923
 7399SOL    HW133656   3.827   4.662   9.739  0.3285  0.9767 -0.6317
 7399SOL    HW233657   3.887   4.525   9.755 -0.7538  1.7693  1.9578
 7400SOL     OW33658   4.342   1.981   3.667  0.6275  0.4782  0.1208
 7400SOL    HW133659   4.349   2.031   3.586  1.7161  0.6679  0.3361
 7400SOL    HW233660   4.273   2.033   3.709 -0.7651  0.1438 -1.7737
 7401SOL     OW33661   0.009   1.034   1.831 -0.3263  0.5532  0.1531
 7401SOL    HW133662   4.670   1.029   1.759  0.6991 -0.7590 -0.6519
 7401SOL    HW233663   0.080   1.085   1.791 -0.5906  0.6817 -0.1559
 7402SOL     OW33664   1.524   0.975   4.428  0.0768  0.4272  0.0358
 7402SOL    HW133665   1.531   1.065   4.397 -0.3778  0.1906 -0.7626
 7402SOL    HW233666   1.612   0.971   4.465 -0.0004  1.1467  0.2865
 7403SOL     OW33667   0.380   0.970   1.496  0.3959 -0.0352  0.0228
 7403SOL    HW133668   0.449   1.026   1.530  1.4261 -1.7861  0.8293
 7403SOL    HW233669   0.330   0.941   1.572 -1.4086 -0.2545 -1.2308
 7404SOL     OW33670   3.354   1.766  14.839  0.2738  0.3329  0.0255
 7404SOL    HW133671   3.325   1.698  14.900  0.8094 -0.2642 -0.3815
 7404SOL    HW233672   3.446   1.748  14.817  0.5489  0.8095  0.8139
 7405SOL     OW33673   0.630   4.190  16.895 -0.4462  0.4372  0.5965
 7405SOL    HW133674   0.555   4.188  16.954 -0.1648 -0.4935  0.9279
 7405SOL    HW233675   0.623   4.282  16.870  0.8138  0.2594 -0.4531
 7406SOL     OW33676   4.200   0.884  11.084 -0.0109  0.0566  0.0087
 7406SOL    HW133677   4.110   0.858  11.106 -0.1436 -0.2634 -0.8729
 7406SOL    HW233678   4.239   0.816  11.139  1.0541 -0.4728 -1.3904
 7407SOL     OW33679   2.218   2.267   2.941  0.3060  0.0588 -0.2025
 7407SOL    HW133680   2.266   2.268   3.024 -1.2479  0.0447  0.6867
 7407SOL    HW233681   2.197   2.174   2.951  2.3645 -0.6762 -2.8790
 7408SOL     OW33682   2.980   1.242   5.251  0.4418  0.0713 -0.1833
 7408SOL    HW133683   3.036   1.218   5.178  0.8855  2.3745 -0.5868
 7408SOL    HW233684   2.896   1.244   5.205  1.0378  0.9513 -1.2347
 7409SOL     OW33685   3.657   1.833   2.790  0.2504  0.0528  0.2455
 7409SOL    HW133686   3.580   1.776   2.793  1.2913 -1.4615 -2.2318
 7409SOL    HW233687   3.700   1.790   2.716 -1.1295  1.3068 -1.2622
 7410SOL     OW33688   1.309   2.250   7.109 -0.5948 -0.4325 -0.1209
 7410SOL    HW133689   1.389   2.277   7.064 -0.0842  0.2224  1.1843
 7410SOL    HW233690   1.345   2.191   7.175  0.4574 -0.6672 -0.8993
 7411SOL     OW33691   4.112   1.778   5.964  0.3562  0.5771  0.5818
 7411SOL    HW133692   4.026   1.813   5.988  1.4581  2.3269  1.9125
 7411SOL    HW233693   4.142   1.748   6.049  0.9426 -0.2450  0.0872
 7412SOL     OW33694   3.782   2.711   3.819 -0.1612 -0.2663  0.1844
 7412SOL    HW133695   3.726   2.756   3.881  1.6993  1.9390  0.2396
 7412SOL    HW233696   3.716   2.685   3.754  0.7754 -1.3329 -0.3525
 7413SOL     OW33697   3.896   2.653   4.669  0.0082 -0.3275 -0.0858
 7413SOL    HW133698   3.894   2.712   4.593 -0.2061  0.5503  0.5959
 7413SOL    HW233699   3.803   2.637   4.686 -0.2862  1.6682  0.1924
 7414SOL     OW33700   1.488   1.475   4.450  0.0617 -0.0121 -0.0165
 7414SOL    HW133701   1.502   1.485   4.544  1.7070 -0.9312 -0.1561
 7414SOL    HW233702   1.424   1.542   4.427 -0.2729 -0.1349  0.5684
 7415SOL     OW33703   0.021   1.911   8.924  0.3258 -0.4302 -0.5150
 7415SOL    HW133704   0.090   1.847   8.905  0.8025 -0.8892  2.6906
 7415SOL    HW233705   0.030   1.912   9.020  0.2522  1.8413 -0.5332
 7416SOL     OW33706   3.254   0.116  12.889 -0.3650 -0.2479  0.2807
 7416SOL    HW133707   3.193   0.146  12.957  1.5526 -0.3379  2.0343
 7416SOL    HW233708   3.241   0.178  12.817  1.8688 -1.1412 -0.8853
 7417SOL     OW33709   1.540   0.879  17.129  0.1421  0.6869 -0.3011
 7417SOL    HW133710   1.555   0.820  17.203 -2.5709  0.6547  0.2066
 7417SOL    HW233711   1.552   0.822  17.053  1.5955 -0.7127  0.9651
 7418SOL     OW33712   3.381   4.197  12.846 -0.2320 -0.7940 -0.2517
 7418SOL    HW133713   3.326   4.193  12.924 -1.2442 -0.9025 -0.9562
 7418SOL    HW233714   3.421   4.283  12.861 -3.0003  0.7403 -1.5999
 7419SOL     OW33715   4.364   4.425  10.647 -0.0583  0.3836 -0.0907
 7419SOL    HW133716   4.350   4.417  10.742  0.5671 -1.2958 -0.1466
 7419SOL    HW233717   4.294   4.485  10.621  0.5824  1.4181  0.5555
 7420SOL     OW33718   0.898   1.441   8.169 -0.0942 -0.6443 -0.1571
 7420SOL    HW133719   0.988   1.463   8.192  0.3852 -1.9902 -0.7184
 7420SOL    HW233720   0.909   1.356   8.126 -2.3451 -0.9851 -0.0671
 7421SOL     OW33721   0.262   2.683  15.501 -0.4266  0.1602 -0.1134
 7421SOL    HW133722   0.171   2.673  15.528  0.3758 -0.4624  2.4245
 7421SOL    HW233723   0.257   2.750  15.433 -0.9008 -0.1445 -0.3770
 7422SOL     OW33724   0.346   1.188  10.695 -0.0509  0.5377 -0.0575
 7422SOL    HW133725   0.395   1.235  10.627 -0.9955 -0.1159 -1.1959
 7422SOL    HW233726   0.256   1.186  10.662 -0.4042  0.0447  0.9533
 7423SOL     OW33727   0.980   4.197  15.431 -0.5568 -0.3401 -0.3178
 7423SOL    HW133728   0.999   4.104  15.422  2.0237  0.3180 -1.7345
 7423SOL    HW233729   1.056   4.234  15.385  0.1515 -0.3137  0.8778
 7424SOL     OW33730   3.066   3.463   6.156  0.3402 -0.5618 -0.1553
 7424SOL    HW133731   3.042   3.554   6.137 -2.8717 -1.4389 -0.1868
 7424SOL    HW233732   2.997   3.425   6.211 -2.8413 -0.1423 -3.8479
 7425SOL     OW33733   0.825   1.289  13.811 -0.0545 -0.3596 -0.3652
 7425SOL    HW133734   0.878   1.259  13.885  0.6582  1.4884 -0.1347
 7425SOL    HW233735   0.875   1.361  13.772 -0.5622  0.4561  0.4865
 7426SOL     OW33736   4.616   3.804  12.430  0.7404 -0.0927  0.0235
 7426SOL    HW133737   4.643   3.869  12.495  0.1863 -0.5945  0.7615
 7426SOL    HW233738   4.601   3.859  12.353 -2.5823  2.8190  2.7765
 7427SOL     OW33739   0.901   0.091   2.802  0.1863  0.3465 -0.2518
 7427SOL    HW133740   0.901   0.186   2.812 -1.4403  0.2852  0.3051
 7427SOL    HW233741   0.821   0.071   2.849 -0.1551  1.2287 -0.4631
 7428SOL     OW33742   3.369   1.689   1.549 -0.2989  0.6339 -0.7386
 7428SOL    HW133743   3.329   1.669   1.464 -1.2728  0.4260 -0.2321
 7428SOL    HW233744   3.361   1.784   1.554 -0.7899  0.5965 -0.8717
 7429SOL     OW33745   4.018   2.024  15.782 -0.1221  0.1829 -0.2120
 7429SOL    HW133746   4.108   2.041  15.753 -0.4673 -0.3440 -1.5710
 7429SOL    HW233747   3.982   1.979  15.706  1.7882 -0.1962 -0.8991
 7430SOL     OW33748   2.448   4.310   7.810  0.7045  0.1204  0.3427
 7430SOL    HW133749   2.389   4.385   7.800  2.1265  1.3462  1.2525
 7430SOL    HW233750   2.512   4.347   7.748  1.4520 -0.1842  0.9338
 7431SOL     OW33751   3.202   3.750   8.559  0.3511  0.5371 -0.1982
 7431SOL    HW133752   3.183   3.844   8.557  1.2644  0.7600  2.0201
 7431SOL    HW233753   3.262   3.735   8.631  0.5353 -0.0316 -0.4688
 7432SOL     OW33754   0.653   0.524   4.512  0.4220  0.2851  0.1450
 7432SOL    HW133755   0.676   0.608   4.552  0.9006 -0.6146  1.7415
 7432SOL    HW233756   0.569   0.548   4.473  0.1753  0.1796  0.6219
 7433SOL     OW33757   0.416   4.030   9.558 -0.1839  0.3036  0.3965
 7433SOL    HW133758   0.372   4.016   9.641 -2.1911 -1.7794 -1.0322
 7433SOL    HW233759   0.411   3.947   9.510  0.9927  0.3994  0.0993
 7434SOL     OW33760   1.453   4.062  10.918  0.0559  0.1734 -0.0742
 7434SOL    HW133761   1.472   4.044  11.011  2.6541 -0.3384 -0.7098
 7434SOL    HW233762   1.366   4.027  10.901  1.0899 -1.7712 -1.3807
 7435SOL     OW33763   1.314   1.817  10.526 -0.2447  0.2832  0.0573
 7435SOL    HW133764   1.312   1.738  10.471  0.9857  1.4972 -1.7418
 7435SOL    HW233765   1.253   1.797  10.596  0.5825  1.0174  0.9733
 7436SOL     OW33766   3.395   0.152   7.850 -0.0332 -0.5294  0.2123
 7436SOL    HW133767   3.375   0.187   7.937  1.0535 -1.6433  0.9218
 7436SOL    HW233768   3.402   0.058   7.863 -1.5971 -1.0170 -2.6832
 7437SOL     OW33769   4.461   2.416   4.631 -0.0233  0.0843 -0.0826
 7437SOL    HW133770   4.541   2.431   4.582 -0.0410 -0.6311 -0.3246
 7437SOL    HW233771   4.490   2.379   4.714  1.1854 -2.4150 -1.6358
 7438SOL     OW33772   0.312   2.403   7.136  0.7157  0.0847 -0.1498
 7438SOL    HW133773   0.319   2.308   7.147  0.7034  0.1780  0.6885
 7438SOL    HW233774   0.291   2.422   7.227 -0.3566  1.3117 -0.6546
 7439SOL     OW33775   0.588   1.240   5.948 -0.4968 -0.4509 -0.1888
 7439SOL    HW133776   0.527   1.278   5.885 -0.9260 -1.7206 -0.5351
 7439SOL    HW233777   0.591   1.311   6.013 -1.3361 -1.1144  0.5904
 7440SOL     OW33778   2.225   0.347  17.549  0.6694 -0.3093 -0.5741
 7440SOL    HW133779   2.150   0.336  17.490  0.4502 -0.0229 -0.3483
 7440SOL    HW233780   2.282   0.301  17.487  1.2368 -0.7500  0.2793
 7441SOL     OW33781   3.791   1.443   1.974  0.4178 -0.2889 -0.0844
 7441SOL    HW133782   3.769   1.515   2.033 -1.9934  1.5340 -3.2333
 7441SOL    HW233783   3.885   1.457   1.961  0.2482  1.9064  0.9988
 7442SOL     OW33784   0.169   0.020   9.693  0.1248  0.0236  0.3702
 7442SOL    HW133785   0.095   4.706   9.647 -0.1084  1.8079 -0.7404
 7442SOL    HW233786   0.132   0.085   9.752 -0.6647 -0.0123 -0.0857
 7443SOL     OW33787   3.437   2.134  11.446  0.4111 -0.2621 -1.4018
 7443SOL    HW133788   3.386   2.212  11.465 -0.9217 -1.3520 -0.5258
 7443SOL    HW233789   3.415   2.069  11.512 -0.2350  0.4900 -0.8842
 7444SOL     OW33790   1.159   0.422   1.837  0.1203 -0.0789  0.3880
 7444SOL    HW133791   1.143   0.329   1.853  3.1755 -0.4193  1.4349
 7444SOL    HW233792   1.081   0.440   1.785  1.3210  1.9689 -0.7211
 7445SOL     OW33793   1.920   0.257  16.372  0.2945  0.0389  0.0505
 7445SOL    HW133794   1.985   0.219  16.431 -0.8787 -1.7841  0.1535
 7445SOL    HW233795   1.972   0.304  16.306 -0.9909  1.3442 -0.0371
 7446SOL     OW33796   1.858   3.010  16.703  0.0880  0.1657 -0.1303
 7446SOL    HW133797   1.932   2.978  16.756  0.0593  0.1924 -0.0735
 7446SOL    HW233798   1.816   3.059  16.774 -0.3227  0.0521 -0.3000
 7447SOL     OW33799   0.221   2.493  13.356 -0.4455  0.5107  0.2597
 7447SOL    HW133800   0.179   2.579  13.361  0.0951  0.9953 -3.1165
 7447SOL    HW233801   0.155   2.435  13.394 -0.8806  1.1255  0.4413
 7448SOL     OW33802   2.946   3.021  16.815  0.6460 -0.8921  0.6208
 7448SOL    HW133803   2.950   3.036  16.721  0.9170 -2.3359  0.4056
 7448SOL    HW233804   2.929   2.927  16.814 -1.6614 -0.4751 -0.0466
 7449SOL     OW33805   1.296   3.783   5.553  0.2898  0.7398 -0.3146
 7449SOL    HW133806   1.307   3.877   5.564  0.7568  0.4617  1.6724
 7449SOL    HW233807   1.220   3.783   5.494 -0.8832  3.8854  1.1973
 7450SOL     OW33808   3.554   3.541   2.853 -0.2831  0.3901  0.2215
 7450SOL    HW133809   3.634   3.552   2.904  0.4388  0.1254 -0.8600
 7450SOL    HW233810   3.496   3.515   2.925 -1.1430  2.0168  0.1044
 7451SOL     OW33811   2.960   0.612   0.603  0.3889 -0.0430 -0.7675
 7451SOL    HW133812   2.900   0.640   0.672  0.5487 -0.7800 -0.3304
 7451SOL    HW233813   2.994   0.527   0.630 -1.5955 -0.3063  0.8427
 7452SOL     OW33814   2.583   4.398   2.271 -0.0633  1.0202 -0.2991
 7452SOL    HW133815   2.546   4.485   2.255 -1.6258  0.3207 -0.4492
 7452SOL    HW233816   2.596   4.361   2.183 -3.0183  1.5026 -0.9210
 7453SOL     OW33817   1.038   3.047   7.040  0.0916  0.9471  0.3589
 7453SOL    HW133818   1.107   2.986   7.066 -0.4553 -0.3760 -1.2822
 7453SOL    HW233819   1.086   3.089   6.968  1.7036  1.4993  1.7737
 7454SOL     OW33820   4.344   0.579   2.974 -0.3479  0.4208  0.0722
 7454SOL    HW133821   4.262   0.546   3.012 -0.7061  1.6292  0.3470
 7454SOL    HW233822   4.319   0.591   2.883 -0.2079 -2.7281 -0.3978
 7455SOL     OW33823   0.985   2.153   1.333 -0.2540  1.0192 -0.2948
 7455SOL    HW133824   0.941   2.073   1.360 -1.3876  1.5045 -0.6955
 7455SOL    HW233825   0.916   2.207   1.371 -2.2180 -0.4300 -1.7683
 7456SOL     OW33826   2.432   0.883   7.263  0.4440  0.3709 -0.0550
 7456SOL    HW133827   2.522   0.893   7.232  0.4159  0.9204  0.0371
 7456SOL    HW233828   2.424   0.966   7.311 -2.5887 -1.1996  2.1815
 7457SOL     OW33829   3.377   4.380   3.182 -0.1142 -0.0167  0.3565
 7457SOL    HW133830   3.435   4.426   3.120  0.1817  0.4201  0.9640
 7457SOL    HW233831   3.355   4.302   3.131 -1.0575  0.6686 -0.2843
 7458SOL     OW33832   3.797   0.195   2.293 -0.9003 -0.4757 -0.0714
 7458SOL    HW133833   3.742   0.121   2.320 -3.1236  0.8882 -0.9147
 7458SOL    HW233834   3.878   0.147   2.278 -0.4301 -0.0689  1.1773
 7459SOL     OW33835   2.237   4.173  12.571 -0.0260 -0.4075  0.3682
 7459SOL    HW133836   2.321   4.204  12.605  0.0778 -0.2199 -0.0560
 7459SOL    HW233837   2.240   4.216  12.485  0.8812  0.4854  0.8465
 7460SOL     OW33838   2.042   1.482   4.753 -0.2421 -0.4508 -0.4056
 7460SOL    HW133839   2.070   1.523   4.671  2.4745  2.3902  1.9333
 7460SOL    HW233840   2.080   1.396   4.731 -0.4893 -0.6462 -0.0578
 7461SOL     OW33841   0.533   1.676   1.258 -0.1562 -0.6045  0.4876
 7461SOL    HW133842   0.544   1.606   1.194  0.1964  0.5053 -0.6731
 7461SOL    HW233843   0.465   1.726   1.212 -1.0175 -2.6558 -0.4729
 7462SOL     OW33844   2.885   4.463   3.893  0.4605 -0.2976  0.2011
 7462SOL    HW133845   2.837   4.533   3.848  0.9122  0.0411  0.2414
 7462SOL    HW233846   2.827   4.390   3.874 -0.5476  0.9320 -1.4620
 7463SOL     OW33847   3.381   4.094   6.921  0.0434  0.3226 -0.3530
 7463SOL    HW133848   3.318   4.162   6.898  0.6399  0.5803 -1.2198
 7463SOL    HW233849   3.325   4.050   6.985  2.0785  0.3038  1.4486
 7464SOL     OW33850   3.010   0.141   4.229 -1.0159 -0.0867  0.4186
 7464SOL    HW133851   2.980   0.052   4.211  0.2613 -0.2268 -0.9453
 7464SOL    HW233852   3.096   0.122   4.266 -0.6723  0.0164 -0.3287
 7465SOL     OW33853   3.644   3.383   1.843  0.2112 -0.0571  0.0335
 7465SOL    HW133854   3.726   3.405   1.800  0.6327  0.4583  1.0881
 7465SOL    HW233855   3.674   3.430   1.921  0.9002 -0.3545 -0.0491
 7466SOL     OW33856   0.371   1.991   8.425  0.1657 -0.3873  0.0202
 7466SOL    HW133857   0.318   1.915   8.401  0.5285  0.2288 -2.7076
 7466SOL    HW233858   0.305   2.055   8.451  1.7643  1.4875 -0.5019
 7467SOL     OW33859   1.932   0.713  15.757  0.1362  0.2280  0.6019
 7467SOL    HW133860   2.019   0.715  15.716  0.1700 -0.8324  0.6158
 7467SOL    HW233861   1.896   0.781  15.700  0.0132 -1.1793 -1.0014
 7468SOL     OW33862   2.953   3.918   9.570  0.2924 -0.2659  0.2689
 7468SOL    HW133863   3.043   3.901   9.542  0.3772 -2.1603  1.7004
 7468SOL    HW233864   2.962   3.938   9.663  0.4455  1.0596 -0.0356
 7469SOL     OW33865   1.131   0.498   4.218  0.1697 -0.0750 -0.3864
 7469SOL    HW133866   1.153   0.416   4.263  1.4077 -0.4514 -1.6824
 7469SOL    HW233867   1.052   0.522   4.267 -0.2385  1.2910 -1.7176
 7470SOL     OW33868   3.882   3.308   7.181  0.1643 -0.6327 -0.4477
 7470SOL    HW133869   3.860   3.216   7.169  1.6213 -1.3559  2.3255
 7470SOL    HW233870   3.900   3.326   7.089 -0.5158 -0.5003 -0.5491
 7471SOL     OW33871   1.616   4.557   0.346  0.4703 -0.1870 -0.6892
 7471SOL    HW133872   1.641   4.546   0.437  2.3745  0.5213 -1.1302
 7471SOL    HW233873   1.700   4.584   0.311  1.6828 -3.2040 -0.1177
 7472SOL     OW33874   1.439   4.562   0.815  0.1084  0.5222  0.1484
 7472SOL    HW133875   1.398   4.494   0.762  1.1895 -1.5715  1.9948
 7472SOL    HW233876   1.436   4.515   0.898 -0.2706  0.4769  0.1078
 7473SOL     OW33877   1.576   4.355   8.952 -0.1941 -0.3241 -0.1976
 7473SOL    HW133878   1.517   4.417   8.995 -0.0501 -0.1235 -0.2868
 7473SOL    HW233879   1.578   4.399   8.866  0.5261 -0.3102 -0.1783
 7474SOL     OW33880   4.659   4.710   4.273  0.1865 -0.3307 -0.0106
 7474SOL    HW133881   4.587   4.674   4.326  0.5113  0.4919  0.9796
 7474SOL    HW233882   4.621   0.061   4.229  1.4723 -0.1909 -0.8634
 7475SOL     OW33883   1.284   3.831   3.024  0.1803  0.8671 -0.0822
 7475SOL    HW133884   1.351   3.805   3.088  1.7311  2.4162 -1.0952
 7475SOL    HW233885   1.266   3.918   3.059 -1.0225 -0.0676  1.6734
 7476SOL     OW33886   3.533   2.323   8.930 -0.1841  0.0060  0.7155
 7476SOL    HW133887   3.507   2.355   9.016 -0.3821  2.5103 -0.2653
 7476SOL    HW233888   3.622   2.292   8.945 -0.1067 -0.3922 -0.5230
 7477SOL     OW33889   1.237   4.535   3.698 -0.2931 -0.1399 -0.0877
 7477SOL    HW133890   1.199   4.456   3.736  1.1227 -0.1944  1.1961
 7477SOL    HW233891   1.158   4.585   3.676 -1.8195 -2.3975  0.2288
 7478SOL     OW33892   1.365   2.508   4.473 -0.0317 -0.8919 -0.5731
 7478SOL    HW133893   1.300   2.549   4.530  0.8096  1.8972 -1.6057
 7478SOL    HW233894   1.312   2.436   4.440 -3.2613  2.5167 -2.7271
 7479SOL     OW33895   1.350   3.708  17.322  0.2831  0.2491  0.2056
 7479SOL    HW133896   1.297   3.707  17.402  1.7287  1.1935  1.1685
 7479SOL    HW233897   1.290   3.740  17.254  1.1444  0.0292 -0.6534
 7480SOL     OW33898   4.294   0.201   7.569  0.2771 -0.6177 -0.1781
 7480SOL    HW133899   4.252   0.279   7.604  1.5992 -0.5729  1.3015
 7480SOL    HW233900   4.374   0.220   7.618  2.3562 -1.4474 -3.2147
 7481SOL     OW33901   3.635   4.156   6.079  0.4584 -0.0653 -0.8145
 7481SOL    HW133902   3.638   4.251   6.073 -1.4092  0.1558  1.9919
 7481SOL    HW233903   3.700   4.139   6.147 -1.2911  1.3431  1.2107
 7482SOL     OW33904   1.199   0.288  12.532  0.1054  0.6332  0.1171
 7482SOL    HW133905   1.113   0.282  12.491  0.7438 -0.5444 -1.0510
 7482SOL    HW233906   1.200   0.197  12.563  1.8825  0.9083  0.9097
 7483SOL     OW33907   1.565   0.388  11.429 -0.1156  0.4201 -0.2992
 7483SOL    HW133908   1.559   0.313  11.370  1.4619  0.3206 -0.3515
 7483SOL    HW233909   1.638   0.440  11.395  0.7977  0.0954  1.1219
 7484SOL     OW33910   1.138   3.620  12.007 -0.3112 -0.3055 -0.3459
 7484SOL    HW133911   1.053   3.578  11.994 -0.0495 -0.1314 -2.7583
 7484SOL    HW233912   1.147   3.620  12.102  1.5589  0.3530 -0.5133
 7485SOL     OW33913   1.191   0.789   0.726  0.6890  0.5746  0.0280
 7485SOL    HW133914   1.108   0.780   0.679  0.0245 -0.3644  1.3963
 7485SOL    HW233915   1.250   0.815   0.655 -0.8529  0.4764 -1.2818
 7486SOL     OW33916   3.964   4.220   7.136 -0.6445 -0.2924 -0.1194
 7486SOL    HW133917   4.044   4.266   7.109 -1.9823  2.0904 -0.0056
 7486SOL    HW233918   3.961   4.157   7.064 -1.9393 -0.9387  0.5010
 7487SOL     OW33919   4.580   4.614   9.245 -0.3383  0.0507  0.3351
 7487SOL    HW133920   4.665   4.571   9.238 -1.3896 -2.1608  0.8684
 7487SOL    HW233921   4.524   4.552   9.292 -0.2829 -1.1860 -1.2257
 7488SOL     OW33922   3.966   0.433   7.469 -0.7389  0.5229  0.2692
 7488SOL    HW133923   4.024   0.437   7.545  0.0909  0.1838 -0.3569
 7488SOL    HW233924   3.890   0.390   7.509  0.6471 -1.4467  0.7361
 7489SOL     OW33925   2.327   1.382  13.920 -0.2290 -0.3824 -0.8293
 7489SOL    HW133926   2.333   1.406  14.013  1.9482  0.2276 -1.1084
 7489SOL    HW233927   2.402   1.322  13.912 -1.0273 -1.4153 -0.5422
 7490SOL     OW33928   2.863   2.036   2.660 -0.1967 -0.3830  0.3530
 7490SOL    HW133929   2.835   1.970   2.597 -0.1336 -1.0013  0.9799
 7490SOL    HW233930   2.832   2.110   2.608  4.0514  0.7789 -0.5639
 7491SOL     OW33931   3.047   2.970   8.690  0.4779 -0.5402 -0.0615
 7491SOL    HW133932   3.051   3.034   8.619  0.4879 -0.0132  0.4229
 7491SOL    HW233933   3.071   3.020   8.768  0.0240 -0.1116 -0.1935
 7492SOL     OW33934   3.354   4.607   5.481 -0.1645  0.1670  0.2762
 7492SOL    HW133935   3.290   4.606   5.552  1.0306  2.4547  1.3985
 7492SOL    HW233936   3.427   4.564   5.526 -0.6539 -0.6002  0.3266
 7493SOL     OW33937   3.543   2.023   1.790 -0.2456 -0.5415 -0.2121
 7493SOL    HW133938   3.491   2.014   1.711 -1.2978 -0.2798  0.4463
 7493SOL    HW233939   3.601   1.949   1.772 -0.5656 -0.8248 -0.0761
 7494SOL     OW33940   0.550   0.117  12.321  0.0375 -0.2804  0.4843
 7494SOL    HW133941   0.619   0.079  12.266  0.0121  1.1201 -0.5147
 7494SOL    HW233942   0.472   0.086  12.275 -1.3799 -0.8643  3.3486
 7495SOL     OW33943   4.458   2.134   6.739 -0.2288 -0.7166 -0.1193
 7495SOL    HW133944   4.423   2.165   6.823  0.9164 -1.1122  0.5017
 7495SOL    HW233945   4.394   2.068   6.712 -0.6378 -0.4114  0.1080
 7496SOL     OW33946   3.345   2.170   1.971  0.1092 -0.1656 -0.3533
 7496SOL    HW133947   3.306   2.233   2.031  2.1264  0.5092  0.2448
 7496SOL    HW233948   3.282   2.099   1.977 -0.3833  0.3241  0.3021
 7497SOL     OW33949   3.555   0.020   6.307  0.0511 -0.6017  0.2030
 7497SOL    HW133950   3.631   4.710   6.260  0.6792  1.1360 -0.0498
 7497SOL    HW233951   3.569   4.717   6.398  0.7671 -0.6599  0.0729
 7498SOL     OW33952   0.755   1.950   7.420  0.0399  0.3290  0.5530
 7498SOL    HW133953   0.803   1.904   7.489  0.5597  1.5470  1.0076
 7498SOL    HW233954   0.821   2.006   7.380  0.5421 -0.5721  0.1192
 7499SOL     OW33955   0.608   2.801  10.472  0.0082 -0.2596  0.6014
 7499SOL    HW133956   0.617   2.865  10.402  0.6026 -2.3022 -1.2076
 7499SOL    HW233957   0.629   2.849  10.552  0.1325 -0.3299  0.6114
 7500SOL     OW33958   0.634   1.836  16.761 -0.3608 -0.5045 -0.1205
 7500SOL    HW133959   0.706   1.891  16.793 -2.0075  1.5140  0.1294
 7500SOL    HW233960   0.560   1.872  16.811  1.7847  0.2394  2.5693
 7501SOL     OW33961   2.330   2.148   6.752 -0.5585  0.6275 -0.1510
 7501SOL    HW133962   2.346   2.126   6.843  1.2973  2.2306 -0.0813
 7501SOL    HW233963   2.392   2.221   6.744 -0.3926  0.5018 -0.0068
 7502SOL     OW33964   4.028   3.349   4.200 -0.0786  0.2625  0.1847
 7502SOL    HW133965   4.011   3.427   4.146  2.0200 -0.4507 -1.4753
 7502SOL    HW233966   3.990   3.378   4.283 -3.4647 -0.3112 -1.1528
 7503SOL     OW33967   0.217   3.388   2.250  0.1742  0.1751 -0.2621
 7503SOL    HW133968   0.285   3.330   2.217 -0.0887 -0.5540  0.4839
 7503SOL    HW233969   0.164   3.336   2.310  0.6879  0.1746  0.1909
 7504SOL     OW33970   4.255   1.215   8.262 -0.1147  0.1013  0.1736
 7504SOL    HW133971   4.224   1.137   8.215 -1.6029  0.6391  0.2616
 7504SOL    HW233972   4.254   1.178   8.350  1.4789  0.4693  0.3474
 7505SOL     OW33973   3.746   3.622   4.318 -0.4232 -0.0210 -0.0842
 7505SOL    HW133974   3.694   3.544   4.300 -0.3121  0.4089 -2.3336
 7505SOL    HW233975   3.726   3.672   4.238 -0.6988 -2.3830 -1.4931
 7506SOL     OW33976   4.614   0.684   6.411 -0.1960 -0.3045 -0.0325
 7506SOL    HW133977   4.575   0.655   6.493 -1.0399  0.2039 -0.2604
 7506SOL    HW233978   4.650   0.601   6.379 -1.3251 -0.7093 -0.2207
 7507SOL     OW33979   2.531   0.223   8.929  0.2625  0.1589  0.3221
 7507SOL    HW133980   2.490   0.308   8.917  1.8688  1.0867  1.3768
 7507SOL    HW233981   2.498   0.189   9.011  0.3348  0.6150  0.5422
 7508SOL     OW33982   2.381   1.782   6.900  0.3430 -0.1450 -0.1849
 7508SOL    HW133983   2.425   1.867   6.887 -2.0389  0.9586 -0.9636
 7508SOL    HW233984   2.427   1.752   6.979  0.1951 -1.0463 -0.4451
 7509SOL     OW33985   0.192   1.225   8.276  0.1337 -0.1626  0.0860
 7509SOL    HW133986   0.225   1.276   8.202  0.1161  0.0009  0.1926
 7509SOL    HW233987   0.174   1.147   8.224  1.2248 -2.0763  2.5555
 7510SOL     OW33988   3.383   1.846   6.718  0.1189 -0.3637  0.0606
 7510SOL    HW133989   3.479   1.839   6.716 -0.1268 -3.2889 -0.8220
 7510SOL    HW233990   3.358   1.763   6.678  1.2968 -0.6812 -0.0322
 7511SOL     OW33991   4.668   3.784   2.065 -0.6711 -0.3452 -0.6605
 7511SOL    HW133992   4.688   3.733   2.143  1.6702  0.0255 -1.0249
 7511SOL    HW233993   0.010   3.852   2.074 -1.2125 -0.1922  2.0740
 7512SOL     OW33994   1.940   1.120  12.835 -0.0997  0.3618 -0.0061
 7512SOL    HW133995   1.936   1.030  12.867 -0.7947 -0.1865 -1.6305
 7512SOL    HW233996   1.849   1.136  12.808  0.2866  0.8881 -0.9946
 7513SOL     OW33997   0.686   0.052   7.170 -0.6647 -0.2238 -0.3754
 7513SOL    HW133998   0.779   0.029   7.176 -1.2154 -3.0146 -2.6106
 7513SOL    HW233999   0.663   0.034   7.079  0.0948  0.2654 -0.6750
 7514SOL     OW34000   3.133   0.788   5.691 -0.5363  0.3218 -0.4544
 7514SOL    HW134001   3.045   0.784   5.728 -0.8389 -1.3016 -1.3146
 7514SOL    HW234002   3.111   0.810   5.600  0.9788 -4.3582 -1.9903
 7515SOL     OW34003   0.313   0.822   1.225  0.3662  0.5712  0.6067
 7515SOL    HW134004   0.271   0.907   1.237 -2.0656 -0.6023  0.3509
 7515SOL    HW234005   0.402   0.857   1.214 -0.6418  2.6937 -0.7027
 7516SOL     OW34006   2.293   3.944  14.992 -0.3821 -0.2878 -0.5983
 7516SOL    HW134007   2.357   3.947  15.062 -1.1962 -1.6192  0.2034
 7516SOL    HW234008   2.321   3.866  14.943  1.9920 -0.6532  1.3688
 7517SOL     OW34009   4.461   3.118   6.247  0.2529 -0.3320  0.2416
 7517SOL    HW134010   4.386   3.170   6.215 -1.6444 -2.6043  0.9912
 7517SOL    HW234011   4.411   3.069   6.313  0.5607  0.0956  0.7893
 7518SOL     OW34012   1.923   4.281   2.590 -0.3465 -0.6568  1.2511
 7518SOL    HW134013   2.018   4.293   2.587 -0.4614 -0.4855 -1.1693
 7518SOL    HW234014   1.916   4.277   2.686  3.0579  3.7144  1.6853
 7519SOL     OW34015   4.074   3.875   1.910  0.1448  0.3263 -0.1927
 7519SOL    HW134016   4.095   3.784   1.929 -1.1925 -0.1490 -1.0190
 7519SOL    HW234017   3.984   3.863   1.880 -0.6064  0.8499  1.8339
 7520SOL     OW34018   4.542   0.800   0.494  0.4574 -0.6859  0.1648
 7520SOL    HW134019   4.612   0.865   0.495  1.3609 -1.6604  0.0544
 7520SOL    HW234020   4.591   0.734   0.543 -0.3065 -0.5574  1.0914
 7521SOL     OW34021   1.553   1.656  15.765 -0.1767  0.1156  0.1346
 7521SOL    HW134022   1.565   1.720  15.695  1.0825 -1.2183 -0.8629
 7521SOL    HW234023   1.462   1.664  15.793 -0.1946  0.9598 -0.1749
 7522SOL     OW34024   3.109   1.336   8.736  0.0911 -0.1075  0.0939
 7522SOL    HW134025   3.192   1.384   8.742  0.1269 -0.1329 -0.2272
 7522SOL    HW234026   3.043   1.401   8.714  0.1227  0.3225  1.2765
 7523SOL     OW34027   4.358   2.658   2.742  0.2449  0.1219 -0.4358
 7523SOL    HW134028   4.375   2.707   2.823 -1.0509  0.7316 -0.5429
 7523SOL    HW234029   4.350   2.570   2.778 -0.9346  0.3157 -0.2360
 7524SOL     OW34030   1.762   1.868   6.260  0.0111 -0.2261  0.8611
 7524SOL    HW134031   1.822   1.813   6.309  3.2405  0.7937 -1.9535
 7524SOL    HW234032   1.748   1.934   6.327 -0.2935  1.1625 -0.5571
 7525SOL     OW34033   2.511   3.994   8.205 -0.2863  0.1688  0.8634
 7525SOL    HW134034   2.471   3.910   8.230 -1.7248 -0.0509 -2.1973
 7525SOL    HW234035   2.460   4.020   8.128 -1.2224 -0.2488  1.3403
 7526SOL     OW34036   1.831   3.452   3.988  0.3311  0.1031 -0.0683
 7526SOL    HW134037   1.839   3.357   4.000 -2.3919 -0.2099 -0.8537
 7526SOL    HW234038   1.843   3.476   4.080 -1.1935 -0.8732  0.3924
 7527SOL     OW34039   3.073   4.298   2.902  0.1275 -0.4267  0.0855
 7527SOL    HW134040   3.125   4.293   2.822 -0.3035 -0.2222 -0.2061
 7527SOL    HW234041   3.137   4.259   2.962  1.3807  1.0179 -0.2948
 7528SOL     OW34042   0.853   2.773   3.143  0.7798  0.4388  0.0191
 7528SOL    HW134043   0.873   2.838   3.075 -1.3284  0.5519 -0.4745
 7528SOL    HW234044   0.789   2.725   3.091  1.0409  1.2022 -1.0012
 7529SOL     OW34045   3.613   4.133   1.245  0.2466 -0.5558  0.0912
 7529SOL    HW134046   3.540   4.071   1.246  0.8952 -1.3673 -2.6243
 7529SOL    HW234047   3.676   4.078   1.290  0.0785 -0.4891  0.4119
 7530SOL     OW34048   0.500   3.524  13.969  0.1684 -0.8306 -0.4021
 7530SOL    HW134049   0.418   3.540  13.922  0.2435 -3.8995 -1.5629
 7530SOL    HW234050   0.544   3.604  13.942 -0.9029 -0.4605 -1.0862
 7531SOL     OW34051   3.557   4.356   7.852  0.3244 -0.5397  0.8471
 7531SOL    HW134052   3.637   4.375   7.802  0.7247 -0.6519  1.4389
 7531SOL    HW234053   3.550   4.262   7.839 -1.3299 -0.5772  2.0843
 7532SOL     OW34054   3.182   3.452  16.516 -0.8460 -0.2341 -0.4053
 7532SOL    HW134055   3.153   3.392  16.448  0.6338 -1.4923  0.0552
 7532SOL    HW234056   3.229   3.520  16.467  0.6085 -2.1733 -1.7339
 7533SOL     OW34057   2.478   4.024  13.116 -0.1168  0.0474  0.2490
 7533SOL    HW134058   2.411   3.988  13.058 -2.0762 -1.8487  3.7056
 7533SOL    HW234059   2.497   4.099  13.060 -1.7813  0.1854 -0.1492
 7534SOL     OW34060   0.042   2.552  10.050 -0.3093  0.5210  0.0419
 7534SOL    HW134061   0.099   2.482  10.081  1.6061  2.3363  0.5887
 7534SOL    HW234062   0.113   2.611  10.026  0.7129 -1.1094 -1.0096
 7535SOL     OW34063   4.488   1.831   2.433 -0.3966  0.0865 -0.4693
 7535SOL    HW134064   4.450   1.901   2.487 -0.7907 -0.6841  0.2508
 7535SOL    HW234065   4.574   1.832   2.477 -0.5462 -2.3660 -0.1384
 7536SOL     OW34066   3.433   4.219  11.319  0.2925  0.0415  0.1154
 7536SOL    HW134067   3.474   4.303  11.301  0.3600 -0.0353 -0.0914
 7536SOL    HW234068   3.379   4.202  11.242  1.4594  0.1169 -0.7132
 7537SOL     OW34069   0.661   4.639   8.259 -0.4202  0.3407 -0.2508
 7537SOL    HW134070   0.622   4.601   8.180 -3.2781  0.5102  1.1001
 7537SOL    HW234071   0.661   0.007   8.235  0.3195  0.6788  1.0606
 7538SOL     OW34072   3.428   1.179   2.512 -1.2857  0.3678  0.7047
 7538SOL    HW134073   3.487   1.226   2.453 -0.5897  1.3676  2.1959
 7538SOL    HW234074   3.483   1.131   2.573 -1.0932 -0.5941 -0.2218
 7539SOL     OW34075   3.656   3.785   4.507 -0.1936  0.3435  0.1605
 7539SOL    HW134076   3.702   3.717   4.458 -1.5817  0.1352 -0.8593
 7539SOL    HW234077   3.588   3.803   4.442 -0.6435  2.1389  1.1441
 7540SOL     OW34078   3.893   2.372   7.171 -0.5340 -0.2851 -0.5409
 7540SOL    HW134079   3.873   2.317   7.247 -0.4937  0.1797 -0.1950
 7540SOL    HW234080   3.872   2.458   7.209 -3.1530 -1.2281  0.1428
 7541SOL     OW34081   4.689   0.579   4.843  0.4030  0.3589  0.6618
 7541SOL    HW134082   0.041   0.635   4.857  0.4441  0.5045 -0.1630
 7541SOL    HW234083   4.625   0.618   4.904 -2.0021 -1.1013 -0.9612
 7542SOL     OW34084   3.113   0.382   4.199  0.2773  0.1915 -0.3839
 7542SOL    HW134085   3.116   0.290   4.227  2.8680  0.1876 -0.6620
 7542SOL    HW234086   3.086   0.369   4.108 -1.2002 -4.2527  0.6809
 7543SOL     OW34087   2.425   1.417   8.963 -0.9806 -0.0835  0.0285
 7543SOL    HW134088   2.333   1.443   8.956 -0.9111 -0.1920 -1.3528
 7543SOL    HW234089   2.435   1.447   9.053 -3.5977 -1.2123  0.6965
 7544SOL     OW34090   4.357   1.504   1.335  0.5458  0.6692  0.2302
 7544SOL    HW134091   4.440   1.491   1.290 -1.1272 -0.7806 -2.4816
 7544SOL    HW234092   4.382   1.534   1.422 -0.7015  0.6155  0.6074
 7545SOL     OW34093   0.002   4.447   4.466  0.1119 -0.2073 -0.6695
 7545SOL    HW134094   0.072   4.462   4.403 -0.2441  1.5737 -0.6530
 7545SOL    HW234095   4.714   4.531   4.511  0.5541  0.7797 -2.4139
 7546SOL     OW34096   3.598   3.255   3.042 -0.0799 -0.1289  0.3243
 7546SOL    HW134097   3.529   3.316   3.069  0.6501  1.7399 -2.0999
 7546SOL    HW234098   3.665   3.317   3.014 -1.0201  2.2608  3.3926
 7547SOL     OW34099   1.151   2.212   6.730  0.5078 -0.3313  0.1484
 7547SOL    HW134100   1.116   2.210   6.819  0.5900  0.0765  0.1901
 7547SOL    HW234101   1.087   2.154   6.690 -0.8925  0.4936  1.1883
 7548SOL     OW34102   4.534   1.311  15.022 -0.4946  0.9611  0.6153
 7548SOL    HW134103   4.560   1.259  14.946 -3.3122  2.5226 -1.4139
 7548SOL    HW234104   4.607   1.294  15.080 -1.4411 -1.4021  1.0981
 7549SOL     OW34105   3.409   0.308   2.092 -0.2098  0.0676  0.3457
 7549SOL    HW134106   3.503   0.321   2.082 -0.4769  0.0722 -2.1294
 7549SOL    HW234107   3.391   0.382   2.150 -1.3872 -0.5671  0.8061
 7550SOL     OW34108   2.150   4.591   4.349 -0.5484  0.2225 -0.6280
 7550SOL    HW134109   2.154   4.585   4.253 -0.4605  3.0813 -0.8146
 7550SOL    HW234110   2.117   4.502   4.363  0.2609 -0.1351 -1.0174
 7551SOL     OW34111   1.851   1.648   7.452  0.4457  0.1246 -0.0843
 7551SOL    HW134112   1.770   1.692   7.427  0.5633 -1.6382 -3.4781
 7551SOL    HW234113   1.848   1.649   7.548 -2.1818  0.3901 -0.1750
 7552SOL     OW34114   2.441   4.000   2.803 -0.3702  0.1847  0.3157
 7552SOL    HW134115   2.445   4.031   2.893  1.2094 -1.3854  0.7873
 7552SOL    HW234116   2.364   3.943   2.804  1.1045 -1.8959 -1.9096
 7553SOL     OW34117   3.519   0.854  14.449 -0.1767 -0.4004 -0.2760
 7553SOL    HW134118   3.612   0.874  14.442 -0.6361  1.6341 -0.3866
 7553SOL    HW234119   3.480   0.931  14.408  1.7735  1.6678  1.7293
 7554SOL     OW34120   3.834   2.695   3.167 -0.4667  0.3069 -0.5711
 7554SOL    HW134121   3.776   2.692   3.091  0.2471  0.9930 -1.1412
 7554SOL    HW234122   3.917   2.701   3.121 -1.3855  1.6606 -2.0759
 7555SOL     OW34123   2.441   2.724   5.607  0.9991 -0.0348  0.6583
 7555SOL    HW134124   2.395   2.776   5.541  1.8585 -1.9283 -1.4646
 7555SOL    HW234125   2.412   2.770   5.685  2.4277  0.8821  0.6391
 7556SOL     OW34126   0.006   3.388  16.144  0.1706  0.2658  0.5884
 7556SOL    HW134127   0.005   3.328  16.219  0.2754  1.3508  1.4565
 7556SOL    HW234128   4.647   3.432  16.161 -0.1332  0.4391 -1.4130
 7557SOL     OW34129   3.653   1.101  13.693 -0.1293 -0.0215  0.4098
 7557SOL    HW134130   3.618   1.131  13.777  2.1351  0.6239  1.1452
 7557SOL    HW234131   3.749   1.106  13.697 -0.0268 -0.3285 -1.6682
 7558SOL     OW34132   3.565   0.197   5.828 -0.1547 -0.0130 -0.0446
 7558SOL    HW134133   3.607   0.262   5.885  1.9595 -1.4905  0.0527
 7558SOL    HW234134   3.499   0.170   5.893  0.1224  2.7549  1.4169
 7559SOL     OW34135   3.943   3.445   8.272  0.0786 -0.4959 -0.1149
 7559SOL    HW134136   4.015   3.502   8.248 -0.4847  0.0250 -0.5725
 7559SOL    HW234137   3.871   3.507   8.286 -1.9490 -2.4151 -1.8955
 7560SOL     OW34138   2.127   3.243   2.688 -0.3020  0.0381 -0.0304
 7560SOL    HW134139   2.129   3.213   2.779  2.4296 -1.1808 -0.4731
 7560SOL    HW234140   2.073   3.176   2.647  0.1128  0.1356 -0.7297
 7561SOL     OW34141   4.152   1.969   7.574 -0.8421  0.2644 -0.3659
 7561SOL    HW134142   4.220   1.903   7.588 -0.1614  1.1109  0.3215
 7561SOL    HW234143   4.105   1.935   7.498  1.5698 -3.1650 -0.3281
 7562SOL     OW34144   0.881   2.371   3.796 -0.6240  0.0064 -0.3132
 7562SOL    HW134145   0.793   2.408   3.808 -0.9678 -0.6917 -0.6395
 7562SOL    HW234146   0.944   2.442   3.806 -0.5015 -0.4350  1.9690
 7563SOL     OW34147   4.504   1.252   8.541 -0.0742  0.0814  0.1197
 7563SOL    HW134148   4.528   1.200   8.465 -2.9491 -1.9258  0.5693
 7563SOL    HW234149   4.583   1.307   8.538 -0.0710 -0.0223 -1.2761
 7564SOL     OW34150   1.808   1.312  17.131 -0.0802 -0.2157  0.1581
 7564SOL    HW134151   1.823   1.218  17.142 -0.2217 -0.2013  0.4808
 7564SOL    HW234152   1.888   1.358  17.155 -0.2907 -0.3302  1.0907
 7565SOL     OW34153   3.883   0.176  11.888  0.0416  0.0836  0.2184
 7565SOL    HW134154   3.935   0.100  11.861 -2.4132 -2.4720  2.7236
 7565SOL    HW234155   3.845   0.145  11.970 -1.6745  1.4280 -0.0786
 7566SOL     OW34156   1.503   2.689   2.825 -0.0551 -0.3084  0.2915
 7566SOL    HW134157   1.444   2.751   2.781  3.2732  2.6681  0.0313
 7566SOL    HW234158   1.443   2.614   2.824 -0.3463 -0.0708 -0.4650
 7567SOL     OW34159   0.686   1.023   3.591 -0.4286  0.3962 -0.2971
 7567SOL    HW134160   0.728   0.945   3.554 -1.0780 -0.0089 -0.1907
 7567SOL    HW234161   0.623   1.052   3.526  1.1665  2.0029 -1.0955
 7568SOL     OW34162   1.601   3.934   9.452  0.2753  0.4583 -0.1986
 7568SOL    HW134163   1.631   4.017   9.491 -1.3486  0.8428  0.2071
 7568SOL    HW234164   1.615   3.878   9.529  0.7880  2.5507  1.2333
 7569SOL     OW34165   0.990   0.551   1.191 -0.3192  0.2722  0.2360
 7569SOL    HW134166   1.017   0.571   1.101  0.6725 -0.3003  0.4096
 7569SOL    HW234167   1.006   0.456   1.192 -0.1132  0.3289  1.5358
 7570SOL     OW34168   3.119   2.602   7.593  0.1072  0.2577 -0.1798
 7570SOL    HW134169   3.105   2.685   7.547  0.0330 -0.0146 -0.6587
 7570SOL    HW234170   3.182   2.635   7.657 -0.0885 -0.9512  0.6314
 7571SOL     OW34171   4.713   1.403   1.723  0.6552  0.5891 -0.3663
 7571SOL    HW134172   0.080   1.392   1.747  0.7400 -0.9275 -1.3853
 7571SOL    HW234173   4.670   1.384   1.806  0.9049  2.0972  0.1111
 7572SOL     OW34174   3.872   2.629   7.963 -0.2459 -0.0411  0.2567
 7572SOL    HW134175   3.868   2.715   8.004 -2.1969  1.5644 -3.3252
 7572SOL    HW234176   3.950   2.595   8.007 -0.7928 -0.5812  0.8180
 7573SOL     OW34177   3.913   0.831   2.173 -0.4506  0.2747 -0.1436
 7573SOL    HW134178   3.956   0.746   2.187 -1.6507 -0.2227  0.4724
 7573SOL    HW234179   3.826   0.799   2.149 -0.3251  0.4178 -0.8006
 7574SOL     OW34180   3.679   3.667   3.234 -0.2898  0.3781  0.1181
 7574SOL    HW134181   3.709   3.758   3.225 -1.2524  1.0940  4.1400
 7574SOL    HW234182   3.590   3.669   3.200  0.5264  4.9105 -1.8024
 7575SOL     OW34183   1.477   2.116   9.335  0.1476 -0.2412 -0.3325
 7575SOL    HW134184   1.557   2.085   9.293  0.7090  0.2472  0.3829
 7575SOL    HW234185   1.512   2.194   9.378 -2.2978  0.3764  0.5686
 7576SOL     OW34186   1.345   2.922   3.609 -0.2845 -0.2395 -0.5093
 7576SOL    HW134187   1.441   2.925   3.601 -0.2004  0.2535  0.6125
 7576SOL    HW234188   1.334   2.828   3.593 -0.7191 -0.0722 -1.1598
 7577SOL     OW34189   1.802   2.494   6.001 -0.2521  0.4924 -0.5834
 7577SOL    HW134190   1.815   2.414   6.053  0.9615  0.4737 -0.8989
 7577SOL    HW234191   1.887   2.513   5.963 -0.1843 -1.7374 -1.5765
 7578SOL     OW34192   3.306   1.648  14.201 -0.1980  0.2129  0.2743
 7578SOL    HW134193   3.375   1.713  14.191 -0.8158  0.8515  0.1253
 7578SOL    HW234194   3.360   1.570  14.204  0.8962  0.9656 -0.1300
 7579SOL     OW34195   2.543   0.121   2.686 -0.7085 -0.7912  0.3077
 7579SOL    HW134196   2.612   0.104   2.621  0.3284 -3.6891  2.1625
 7579SOL    HW234197   2.545   0.217   2.679 -2.3383 -0.7657  0.2535
 7580SOL     OW34198   4.354   0.892   6.549 -0.1561  0.5985 -0.5132
 7580SOL    HW134199   4.372   0.945   6.471  0.8618 -1.0410 -1.3783
 7580SOL    HW234200   4.280   0.839   6.518  2.4494 -0.7787 -4.2833
 7581SOL     OW34201   4.595   1.605   8.684  0.3527 -0.2560  0.1896
 7581SOL    HW134202   4.537   1.660   8.630  0.5226 -0.3908 -0.1289
 7581SOL    HW234203   4.534   1.552   8.734 -1.7906  1.7025 -0.3183
 7582SOL     OW34204   2.666   2.748   7.384 -0.3054 -0.2726  0.6690
 7582SOL    HW134205   2.616   2.675   7.422 -1.6581 -0.0823 -0.7237
 7582SOL    HW234206   2.629   2.825   7.427  0.1921 -0.1986  0.9655
 7583SOL     OW34207   0.258   2.787   5.388  0.0467  0.1138 -0.3844
 7583SOL    HW134208   0.257   2.883   5.397 -0.9611  0.0564  0.1003
 7583SOL    HW234209   0.163   2.778   5.387  0.2429 -1.9147 -0.3252
 7584SOL     OW34210   4.648   0.876   2.778 -0.1944 -0.1762 -0.1194
 7584SOL    HW134211   4.703   0.944   2.817 -1.2845  0.0451  1.0394
 7584SOL    HW234212   4.597   0.853   2.856 -0.8180 -0.9730 -0.7592
 7585SOL     OW34213   2.914   0.750   5.820  0.1532 -0.4996  1.2486
 7585SOL    HW134214   2.822   0.746   5.794  0.3558  2.2031  0.1187
 7585SOL    HW234215   2.897   0.784   5.908 -3.0813  0.5643  0.2283
 7586SOL     OW34216   0.175   0.577   6.407  0.5034 -0.7665  0.1300
 7586SOL    HW134217   0.133   0.534   6.333  1.0559  1.2463 -1.3616
 7586SOL    HW234218   0.124   0.543   6.480 -2.5523  0.5404 -1.3772
 7587SOL     OW34219   4.347   3.117   0.348 -0.2745 -0.1870 -0.5118
 7587SOL    HW134220   4.389   3.168   0.417 -0.9631 -0.3574  0.0266
 7587SOL    HW234221   4.410   3.047   0.333  0.5284  0.4233 -0.0060
 7588SOL     OW34222   4.608   0.392   6.490 -0.8152  0.0991  0.0560
 7588SOL    HW134223   4.546   0.402   6.419 -1.7392 -0.0213  0.8491
 7588SOL    HW234224   4.674   0.329   6.460 -0.4552  0.2630  0.4965
 7589SOL     OW34225   4.284   1.160   4.037  0.3657  0.2987  0.2919
 7589SOL    HW134226   4.350   1.114   4.089 -1.5618 -0.0961  2.3618
 7589SOL    HW234227   4.328   1.156   3.952 -0.2186  0.9609 -0.0440
 7590SOL     OW34228   2.592   1.457   0.971  0.2080 -0.2680 -0.5003
 7590SOL    HW134229   2.563   1.394   1.038  0.9873  1.2035  1.2397
 7590SOL    HW234230   2.600   1.411   0.888 -0.5776 -0.7551 -0.3126
 7591SOL     OW34231   4.116   2.673   0.560  0.2439  0.3825 -0.0581
 7591SOL    HW134232   4.069   2.735   0.505 -1.0898 -0.5399  0.0364
 7591SOL    HW234233   4.139   2.728   0.636  0.8664 -0.9566  0.7293
 7592SOL     OW34234   2.108   0.986   7.505 -0.0878  0.2553  0.0189
 7592SOL    HW134235   2.100   0.981   7.410  0.7627  0.2574 -0.0480
 7592SOL    HW234236   2.102   1.080   7.522 -1.7138 -0.0991  1.4084
 7593SOL     OW34237   0.211   3.855   6.637 -0.0672  0.1590 -0.0374
 7593SOL    HW134238   0.148   3.816   6.697  1.2127 -2.4199 -0.3820
 7593SOL    HW234239   0.281   3.881   6.696 -1.8200 -0.0500  2.1292
 7594SOL     OW34240   4.586   3.425   8.773  0.7062  0.4690 -0.1179
 7594SOL    HW134241   4.626   3.409   8.859  1.5548  2.0148 -0.2197
 7594SOL    HW234242   4.510   3.477   8.800  1.2047  1.5129 -0.7451
 7595SOL     OW34243   1.824   0.617   8.038 -0.0104 -0.1216  0.1736
 7595SOL    HW134244   1.839   0.534   8.083  0.5145 -1.1940 -1.9910
 7595SOL    HW234245   1.817   0.588   7.948 -2.7990  0.1111  0.3252
 7596SOL     OW34246   1.715   2.817  17.231 -0.1851 -0.3198 -0.4821
 7596SOL    HW134247   1.683   2.727  17.222 -1.5886  0.3870 -2.5618
 7596SOL    HW234248   1.765   2.811  17.312 -0.2924 -0.1362 -0.4040
 7597SOL     OW34249   1.474   3.204   9.957 -0.5239 -1.2749  0.0625
 7597SOL    HW134250   1.396   3.163   9.993  0.6056 -2.3605  1.2522
 7597SOL    HW234251   1.533   3.128   9.951 -0.5226 -1.2814  0.1729
 7598SOL     OW34252   4.534   2.969   4.328 -0.0667  0.4442 -0.5816
 7598SOL    HW134253   4.530   2.990   4.235  1.1413 -1.1590 -0.9962
 7598SOL    HW234254   4.598   2.898   4.328  0.3358  0.8007 -0.4638
 7599SOL     OW34255   3.742   2.599  14.122 -0.2396 -0.2950 -0.2571
 7599SOL    HW134256   3.761   2.518  14.076  2.3264  0.5918 -0.7413
 7599SOL    HW234257   3.826   2.645  14.116  0.7070 -2.1040 -0.6494
 7600SOL     OW34258   0.992   1.645  11.594  0.0908  0.5075  0.6674
 7600SOL    HW134259   0.955   1.734  11.595 -0.2628  0.3620  0.4828
 7600SOL    HW234260   0.963   1.612  11.509  0.5819 -0.1752  0.7699
 7601SOL     OW34261   4.653   1.945   3.672  0.2442  0.5959  0.4705
 7601SOL    HW134262   4.589   1.874   3.660  1.7007 -0.6358  0.0024
 7601SOL    HW234263   4.612   2.017   3.625 -0.3362 -0.0752 -0.0575
 7602SOL     OW34264   0.835   2.093  11.707  0.1287 -0.1414 -0.1662
 7602SOL    HW134265   0.800   2.083  11.618  0.9897 -2.2127 -0.2847
 7602SOL    HW234266   0.879   2.009  11.722 -1.2216 -0.6846  0.7359
 7603SOL     OW34267   4.131   3.628   3.535  0.3519 -0.8362  0.1220
 7603SOL    HW134268   4.111   3.709   3.489  0.9706 -1.7754 -1.8061
 7603SOL    HW234269   4.045   3.598   3.564 -0.2390  1.3398  0.6231
 7604SOL     OW34270   1.520   3.779   8.394  0.3049 -0.1318 -0.0961
 7604SOL    HW134271   1.501   3.691   8.362 -1.1821 -0.2868  1.1866
 7604SOL    HW234272   1.477   3.777   8.480 -0.3211 -0.1039 -0.4064
 7605SOL     OW34273   3.624   2.675   4.846 -0.6965  0.2428  0.0326
 7605SOL    HW134274   3.618   2.665   4.941 -1.1183 -0.4623 -0.0678
 7605SOL    HW234275   3.543   2.718   4.819  0.8424  3.4018  0.4381
 7606SOL     OW34276   0.265   1.434   1.726 -0.3906 -1.0001  0.2965
 7606SOL    HW134277   0.291   1.499   1.791 -1.0324  0.0147 -0.4536
 7606SOL    HW234278   0.323   1.458   1.654  1.6252 -0.2261  2.1893
 7607SOL     OW34279   3.432   3.442   8.665  0.3886 -0.6041  0.3209
 7607SOL    HW134280   3.357   3.403   8.708  0.7618  0.5743  2.0657
 7607SOL    HW234281   3.480   3.474   8.741  2.5606 -1.2717 -0.7544
 7608SOL     OW34282   1.782   1.848  16.471  0.5358 -0.0608 -0.4591
 7608SOL    HW134283   1.735   1.823  16.392 -1.8024  2.0578  0.2922
 7608SOL    HW234284   1.765   1.774  16.530 -2.7904  1.0659 -0.0363
 7609SOL     OW34285   0.545   0.703   2.566  0.0998  0.0545 -0.0344
 7609SOL    HW134286   0.493   0.766   2.516  0.4756 -0.5011 -1.1350
 7609SOL    HW234287   0.609   0.758   2.611  0.1830  0.8862 -1.1801
 7610SOL     OW34288   1.320   3.067  14.267 -0.1840 -0.0650  0.4029
 7610SOL    HW134289   1.268   3.146  14.280  0.3781  0.0727  1.7743
 7610SOL    HW234290   1.363   3.091  14.184 -0.7140  0.1472  0.1880
 7611SOL     OW34291   0.293   3.348  12.308 -0.4807  0.3123 -0.5416
 7611SOL    HW134292   0.378   3.337  12.349 -0.8521 -0.6449 -0.0363
 7611SOL    HW234293   0.310   3.342  12.214  0.5797 -2.8687 -0.1208
 7612SOL     OW34294   0.413   4.017   7.577 -0.3048 -0.1479  0.4527
 7612SOL    HW134295   0.476   4.087   7.593  2.0848 -2.5497  1.4231
 7612SOL    HW234296   0.343   4.059   7.526  1.2300  0.3161 -1.2549
 7613SOL     OW34297   0.132   4.587   2.949  0.5961 -0.2281 -0.7226
 7613SOL    HW134298   0.138   4.646   2.873 -1.9487 -0.9161 -1.4634
 7613SOL    HW234299   0.036   4.592   2.952  0.7430  1.7657  0.7501
 7614SOL     OW34300   3.682   0.404  13.648 -0.0093  0.0082 -0.0542
 7614SOL    HW134301   3.616   0.380  13.713 -1.2809 -0.7105 -1.6137
 7614SOL    HW234302   3.654   0.336  13.587 -0.5778  1.1382 -1.0450
 7615SOL     OW34303   1.147   4.099   3.618  0.1197  0.1397 -0.1006
 7615SOL    HW134304   1.150   4.014   3.661 -0.7911 -0.6218 -1.5863
 7615SOL    HW234305   1.120   4.155   3.691  0.2162  0.5500 -0.3792
 7616SOL     OW34306   0.197   3.563  14.484  0.1556  0.3390 -0.4194
 7616SOL    HW134307   0.224   3.629  14.548  1.2773 -0.6440  0.1237
 7616SOL    HW234308   0.148   3.497  14.534 -0.4539  0.6684 -0.5810
 7617SOL     OW34309   4.053   1.454   8.752 -0.4372 -0.4700  0.4464
 7617SOL    HW134310   4.114   1.418   8.688 -1.6425  0.7884 -1.4201
 7617SOL    HW234311   4.057   1.382   8.815  1.6773 -0.5037  0.2889
 7618SOL     OW34312   0.182   0.743   2.628 -0.3921  0.3555  0.4811
 7618SOL    HW134313   0.173   0.653   2.597  2.5361 -0.1602  1.1251
 7618SOL    HW234314   0.229   0.781   2.554 -2.2625  0.7088 -0.5216
 7619SOL     OW34315   4.262   3.353   1.969  0.1004 -0.3093  0.0060
 7619SOL    HW134316   4.228   3.389   2.050 -2.0529  0.5937 -1.2939
 7619SOL    HW234317   4.355   3.370   1.985  0.2755 -0.1808 -1.0994
 7620SOL     OW34318   1.460   2.772   6.758  0.1309  0.0312 -0.7413
 7620SOL    HW134319   1.411   2.802   6.681 -1.3468  1.6748  0.8244
 7620SOL    HW234320   1.390   2.771   6.824  1.7389  2.7048  0.9845
 7621SOL     OW34321   0.371   3.707   5.945  0.0749  0.3097  0.4318
 7621SOL    HW134322   0.434   3.660   6.000  1.1139 -0.7434 -1.6607
 7621SOL    HW234323   0.413   3.694   5.860 -2.4057 -1.4713 -0.5212
 7622SOL     OW34324   4.055   1.264   0.436 -0.1730  0.2046 -0.2687
 7622SOL    HW134325   4.143   1.275   0.471  0.3490  0.7203 -1.7453
 7622SOL    HW234326   4.039   1.357   0.417  0.3397 -0.3098 -3.2484
 7623SOL     OW34327   4.031   3.128   0.695 -0.5625  0.0938 -0.7924
 7623SOL    HW134328   3.977   3.207   0.685  0.2304  0.9104  1.4651
 7623SOL    HW234329   3.984   3.087   0.767  0.6956 -0.2302 -0.1542
 7624SOL     OW34330   2.048   4.497   6.957  0.4557 -0.1126  0.1561
 7624SOL    HW134331   2.005   4.451   6.885  1.7774 -2.0645  0.5776
 7624SOL    HW234332   2.052   4.584   6.918 -2.4473  0.2275  0.5985
 7625SOL     OW34333   1.482   1.112  11.273  0.7768 -0.2360  0.2545
 7625SOL    HW134334   1.569   1.126  11.310  2.6285 -1.7876 -3.4535
 7625SOL    HW234335   1.486   1.019  11.247  1.1131  0.4227 -2.0647
 7626SOL     OW34336   0.616   2.097   2.738 -0.0327 -0.4342  0.0672
 7626SOL    HW134337   0.600   2.119   2.830 -1.7303 -1.6635  0.0520
 7626SOL    HW234338   0.531   2.098   2.695  0.2581  1.2648 -0.4848
 7627SOL     OW34339   3.808   3.157   8.669 -0.2666 -0.0583 -0.1570
 7627SOL    HW134340   3.898   3.186   8.684  0.3408 -1.7757 -0.4226
 7627SOL    HW234341   3.775   3.223   8.608 -0.5216  1.4425  1.6055
 7628SOL     OW34342   3.506   1.383  16.788 -0.4643 -0.0703  0.7056
 7628SOL    HW134343   3.595   1.400  16.759 -0.4008 -3.1919 -0.9523
 7628SOL    HW234344   3.531   1.336  16.868 -0.8997 -0.6987  0.4708
 7629SOL     OW34345   3.607   1.833   5.533 -0.0449  0.0974  0.0877
 7629SOL    HW134346   3.556   1.855   5.455  1.9883  1.2495 -0.9046
 7629SOL    HW234347   3.650   1.917   5.546  0.9843 -0.6208  1.2699
 7630SOL     OW34348   0.183   3.691   3.104 -0.1157 -0.2210  0.3634
 7630SOL    HW134349   0.200   3.785   3.100 -1.8347  0.1218  1.2961
 7630SOL    HW234350   0.179   3.657   3.014 -1.4136  0.2228  0.2565
 7631SOL     OW34351   2.410   1.067   1.857  0.0082 -0.0127 -0.8579
 7631SOL    HW134352   2.359   1.009   1.801  0.4345 -1.1925 -0.0275
 7631SOL    HW234353   2.351   1.140   1.873 -0.8961 -1.2248  1.2653
 7632SOL     OW34354   0.670   4.070   9.453 -0.2941  0.7530  0.2105
 7632SOL    HW134355   0.606   4.042   9.519 -0.5988  0.4008 -0.2333
 7632SOL    HW234356   0.616   4.130   9.400 -0.0085  0.4012 -0.4713
 7633SOL     OW34357   4.031   3.864   7.549  0.1031 -0.7550  0.1967
 7633SOL    HW134358   4.030   3.959   7.540  1.3174 -0.7351  0.2480
 7633SOL    HW234359   3.948   3.841   7.591  0.7760  0.9586  2.4904
 7634SOL     OW34360   0.189   3.820  13.031  0.6151 -0.0596  0.3301
 7634SOL    HW134361   0.178   3.892  13.093 -1.0062 -0.9418  1.0751
 7634SOL    HW234362   0.199   3.868  12.949  1.6446 -1.3191 -0.2891
 7635SOL     OW34363   4.473   1.739   8.959 -0.1445  0.5500 -0.5948
 7635SOL    HW134364   4.562   1.768   8.979  0.7289 -0.3947 -3.0633
 7635SOL    HW234365   4.495   1.656   8.916  2.0371  1.3162 -0.9442
 7636SOL     OW34366   1.143   2.869   8.747  0.1993 -0.2314  0.3076
 7636SOL    HW134367   1.196   2.925   8.804 -0.6350 -0.4343  1.2538
 7636SOL    HW234368   1.152   2.789   8.799 -1.1973 -0.2785  0.4575
 7637SOL     OW34369   2.968   4.595   2.861 -0.1367  0.1529  0.2805
 7637SOL    HW134370   3.012   4.647   2.793 -0.1879  0.1800  0.2681
 7637SOL    HW234371   2.939   4.533   2.795 -1.5597 -1.3870  2.3701
 7638SOL     OW34372   1.412   2.661   3.579  0.1333 -0.2152  0.0488
 7638SOL    HW134373   1.450   2.655   3.667 -1.8605  1.8567  1.0441
 7638SOL    HW234374   1.345   2.595   3.594 -0.1623  0.2298  0.7030
 7639SOL     OW34375   4.126   0.303   2.858  0.4329  0.2921 -0.7776
 7639SOL    HW134376   4.213   0.338   2.836  0.4864  0.9700  0.4972
 7639SOL    HW234377   4.128   0.209   2.840 -4.3103  0.6532 -2.9999
 7640SOL     OW34378   1.340   4.476   8.573  0.4127  0.0084 -0.3119
 7640SOL    HW134379   1.250   4.505   8.585  0.6896  0.9735 -0.5732
 7640SOL    HW234380   1.331   4.404   8.635  0.0826  0.4291  0.1325
 7641SOL     OW34381   0.102   1.816   9.622 -0.1918  0.0296 -0.5847
 7641SOL    HW134382   0.100   1.785   9.713  2.6619 -1.1925 -0.9337
 7641SOL    HW234383   0.184   1.864   9.609 -0.2725  0.4684  0.5645
 7642SOL     OW34384   3.160   2.869   9.422 -0.5969  0.3150 -0.2021
 7642SOL    HW134385   3.135   2.828   9.504 -1.8444  3.0012  0.7704
 7642SOL    HW234386   3.194   2.954   9.451  0.2294 -0.2239  0.3816
 7643SOL     OW34387   4.004   4.082  12.126  0.3218 -0.1030  0.0873
 7643SOL    HW134388   4.006   4.041  12.212 -1.2250  0.1112  0.2379
 7643SOL    HW234389   3.981   4.008  12.069 -2.7225 -0.3061  1.5626
 7644SOL     OW34390   2.911   0.669   6.190  0.2078  0.2412  0.8300
 7644SOL    HW134391   2.891   0.760   6.167 -0.0498 -0.2668 -0.9060
 7644SOL    HW234392   2.838   0.633   6.240  0.2453  0.0876  0.7726
 7645SOL     OW34393   4.313   3.724  15.204 -0.1875 -0.4640 -0.1394
 7645SOL    HW134394   4.289   3.812  15.175 -0.9940 -0.5078  0.3840
 7645SOL    HW234395   4.228   3.683  15.189  0.1559 -1.0445 -0.4809
 7646SOL     OW34396   1.587   4.078   6.814  0.3844  0.4927  0.2114
 7646SOL    HW134397   1.557   4.127   6.891 -0.9254 -2.6807  1.7090
 7646SOL    HW234398   1.656   4.137   6.784  1.1818 -0.1661  0.7580
 7647SOL     OW34399   3.477   0.281   5.518 -0.0585 -0.5739  0.5515
 7647SOL    HW134400   3.567   0.291   5.488 -1.0095  1.7922 -1.4836
 7647SOL    HW234401   3.484   0.251   5.609 -0.8827 -2.8380 -0.1233
 7648SOL     OW34402   1.846   4.439   4.366 -0.1210  0.3407 -0.9318
 7648SOL    HW134403   1.790   4.361   4.369 -0.8376  0.8975 -0.0312
 7648SOL    HW234404   1.807   4.501   4.428 -0.7267  0.2550 -1.2223
 7649SOL     OW34405   1.144   1.876   3.600 -0.4488  0.2810 -0.2956
 7649SOL    HW134406   1.208   1.819   3.558 -0.0468  0.7022 -0.2524
 7649SOL    HW234407   1.185   1.963   3.601  2.2857 -0.9798 -2.1610
 7650SOL     OW34408   2.567   3.272   6.391 -0.5850 -0.2307 -0.0838
 7650SOL    HW134409   2.606   3.286   6.477 -2.9351  1.7328  0.6875
 7650SOL    HW234410   2.539   3.360   6.367  2.0110  0.2230 -1.4582
 7651SOL     OW34411   0.152   3.404   3.775 -0.3696 -0.8882 -0.1834
 7651SOL    HW134412   0.216   3.380   3.843 -0.2171  1.0144  0.3560
 7651SOL    HW234413   0.139   3.314   3.745 -2.3012 -0.1727 -1.4855
 7652SOL     OW34414   4.632   4.028   7.716 -0.2484  0.2226  0.4286
 7652SOL    HW134415   4.620   4.122   7.700  1.6586  0.1313 -1.4622
 7652SOL    HW234416   4.688   4.009   7.641  0.0448  0.8698  0.4814
 7653SOL     OW34417   2.861   3.429   0.618  0.0297  0.3622 -0.4226
 7653SOL    HW134418   2.892   3.370   0.549  0.8340  0.1821  0.0969
 7653SOL    HW234419   2.779   3.384   0.633  0.1852  0.6117  1.1140
 7654SOL     OW34420   4.170   2.666   8.330 -0.1725  0.3517  0.2499
 7654SOL    HW134421   4.261   2.649   8.356  0.6621  0.1242 -2.7441
 7654SOL    HW234422   4.120   2.675   8.411 -0.5015  1.8190 -0.1294
 7655SOL     OW34423   3.526   3.105   0.446  0.4188  0.4697 -0.5019
 7655SOL    HW134424   3.481   3.129   0.365  0.1002 -0.5127 -0.6176
 7655SOL    HW234425   3.525   3.009   0.446  0.9512  0.4716  0.2344
 7656SOL     OW34426   3.687   1.689   9.531  0.0262  0.0408  0.0555
 7656SOL    HW134427   3.745   1.752   9.488 -2.2970  3.3733  1.7837
 7656SOL    HW234428   3.725   1.604   9.507  0.3691  0.4758 -0.9104
 7657SOL     OW34429   4.187   2.802  14.811 -0.2760  0.1875  0.3267
 7657SOL    HW134430   4.189   2.709  14.786 -1.9085  0.2814 -0.1332
 7657SOL    HW234431   4.117   2.803  14.877 -0.6086  0.4099 -0.0318
 7658SOL     OW34432   2.680   1.869   9.152  0.0989  0.3492 -0.0353
 7658SOL    HW134433   2.671   1.801   9.086  1.7904  0.1244 -0.0262
 7658SOL    HW234434   2.754   1.921   9.121  1.4997 -1.8341 -0.3290
 7659SOL     OW34435   3.838   2.075   4.054  0.0763 -0.1804  0.4008
 7659SOL    HW134436   3.906   2.093   4.119  0.3188 -0.3711  0.1997
 7659SOL    HW234437   3.767   2.132   4.084  0.2149  0.7286 -0.9871
 7660SOL     OW34438   0.879   3.889   8.498 -0.4045 -0.1690  0.4097
 7660SOL    HW134439   0.911   3.979   8.492  3.2880 -1.4695  0.5647
 7660SOL    HW234440   0.949   3.837   8.536  1.2593  1.9952  0.3385
 7661SOL     OW34441   0.511   4.395   1.506 -0.4935 -0.4866 -0.0855
 7661SOL    HW134442   0.478   4.477   1.543  0.2376 -1.0902  1.9110
 7661SOL    HW234443   0.454   4.388   1.430 -0.2731  1.1771 -0.4112
 7662SOL     OW34444   0.669   2.623   5.832 -0.1831 -0.1138  0.1805
 7662SOL    HW134445   0.582   2.624   5.871 -0.2056  0.1872  0.1254
 7662SOL    HW234446   0.710   2.697   5.877  1.4225 -0.0974 -1.3148
 7663SOL     OW34447   3.029   1.621  17.582 -0.2084 -0.1595 -0.2268
 7663SOL    HW134448   3.020   1.687  17.513  0.6797 -0.3330 -0.5193
 7663SOL    HW234449   2.947   1.626  17.630 -0.3129  2.6604 -0.7343
 7664SOL     OW34450   1.762   3.518   8.234 -0.4254  0.1543 -0.1017
 7664SOL    HW134451   1.850   3.480   8.232 -0.1711  0.6786  2.1889
 7664SOL    HW234452   1.735   3.482   8.318 -1.1816 -3.2998 -1.7901
 7665SOL     OW34453   0.130   4.623  12.339  0.1305 -0.2484  0.6045
 7665SOL    HW134454   0.104   4.714  12.327 -3.6341 -1.1937  1.5346
 7665SOL    HW234455   0.123   4.607  12.433  2.4554 -1.1370  0.6100
 7666SOL     OW34456   3.525   0.473   0.176  0.1905  0.1820 -0.1536
 7666SOL    HW134457   3.591   0.534   0.207 -1.3310  1.1532  1.1780
 7666SOL    HW234458   3.561   0.392   0.213  0.5985 -0.3392 -1.7133
 7667SOL     OW34459   3.922   0.191  10.612  0.2840 -0.1627  0.4123
 7667SOL    HW134460   3.960   0.267  10.656  1.4339 -1.6489  1.9751
 7667SOL    HW234461   3.990   0.162  10.552 -2.3969  0.8212 -3.1213
 7668SOL     OW34462   3.461   2.568   0.377  0.7665  0.3645 -0.3990
 7668SOL    HW134463   3.540   2.514   0.387 -0.6271 -1.6376 -0.0596
 7668SOL    HW234464   3.391   2.505   0.360  0.6751  0.0854  1.0580
 7669SOL     OW34465   3.500   0.439   8.616  0.2718  0.0572 -0.5124
 7669SOL    HW134466   3.518   0.499   8.688  0.8327 -0.2683 -0.3766
 7669SOL    HW234467   3.415   0.411   8.649 -0.2915  0.8821 -1.2590
 7670SOL     OW34468   0.261   2.466   2.774  0.1359 -0.9290  0.0633
 7670SOL    HW134469   0.196   2.480   2.705 -0.4750 -1.5320  0.5239
 7670SOL    HW234470   0.336   2.442   2.720  1.0192  0.5018  0.6535
 7671SOL     OW34471   3.168   1.848  13.991 -0.0795 -0.5497  0.1508
 7671SOL    HW134472   3.167   1.769  13.937  0.7711  1.2176 -2.4372
 7671SOL    HW234473   3.206   1.911  13.931  0.6740 -0.6880  0.4813
 7672SOL     OW34474   2.570   1.292   1.999  0.3336  0.4003  0.0224
 7672SOL    HW134475   2.546   1.264   2.088 -1.1410 -1.6596 -1.0325
 7672SOL    HW234476   2.483   1.304   1.962  0.0683 -1.9130 -0.0777
 7673SOL     OW34477   0.905   2.627   7.064  0.4097 -0.1092 -0.2155
 7673SOL    HW134478   0.831   2.687   7.057  1.6561  1.2969 -1.4312
 7673SOL    HW234479   0.968   2.694   7.089  2.5052 -2.1233 -0.0041
 7674SOL     OW34480   3.429   4.546   5.974 -0.4524  0.5388  0.2662
 7674SOL    HW134481   3.371   4.494   6.029 -0.8542  0.7044  0.0059
 7674SOL    HW234482   3.401   4.633   6.002  0.0391  0.2762  1.5608
 7675SOL     OW34483   4.454   0.768   4.079 -0.1341 -0.2481 -0.3111
 7675SOL    HW134484   4.435   0.676   4.064 -0.7856 -0.1908  0.1359
 7675SOL    HW234485   4.473   0.801   3.991 -2.2240  1.1692 -0.2498
 7676SOL     OW34486   0.041   0.427   6.197 -0.2856 -0.3286  0.6220
 7676SOL    HW134487   0.048   0.335   6.170  0.0072 -1.2359  3.8546
 7676SOL    HW234488   4.694   0.471   6.151  0.8626 -0.3407 -1.1959
 7677SOL     OW34489   0.237   3.594   2.862 -0.6397 -0.1410  0.3798
 7677SOL    HW134490   0.198   3.546   2.788 -2.8187  1.8244  0.2542
 7677SOL    HW234491   0.313   3.537   2.854 -0.3703  0.3783 -0.7875
 7678SOL     OW34492   4.078   2.289   1.976 -0.1142  0.1498  0.0096
 7678SOL    HW134493   4.154   2.330   1.936 -0.0817 -0.4794 -0.5727
 7678SOL    HW234494   4.020   2.298   1.900  0.5083  0.4671 -0.4320
 7679SOL     OW34495   3.848   1.329   5.721  0.2953  0.0034 -0.2620
 7679SOL    HW134496   3.773   1.366   5.676 -1.2117 -0.6514  1.6990
 7679SOL    HW234497   3.868   1.254   5.665  0.7364 -0.4417  0.4907
 7680SOL     OW34498   1.802   3.731  15.963  0.4441 -0.1201 -0.5047
 7680SOL    HW134499   1.727   3.773  15.921  0.5263  2.9635  2.4678
 7680SOL    HW234500   1.870   3.789  15.929  0.0610  0.4081 -0.3694
 7681SOL     OW34501   3.056   3.318   2.384 -0.3311  0.1027  0.5792
 7681SOL    HW134502   3.117   3.307   2.457 -0.5600 -3.0869  0.3036
 7681SOL    HW234503   3.036   3.411   2.393  0.6873  0.3292  0.5948
 7682SOL     OW34504   4.613   4.240   8.003  0.0288 -0.1583  0.2356
 7682SOL    HW134505   4.691   4.185   8.003  1.1028  1.3555  0.0946
 7682SOL    HW234506   4.631   4.308   7.938  0.5693 -1.7269 -1.2470
 7683SOL     OW34507   1.540   0.335   5.965 -0.9126 -0.2478  0.0013
 7683SOL    HW134508   1.447   0.359   5.973 -1.0893 -0.5551 -1.0834
 7683SOL    HW234509   1.533   0.245   5.934  2.3766 -0.4219 -0.2263
 7684SOL     OW34510   0.284   3.165   8.839 -0.1687 -0.4117  0.7756
 7684SOL    HW134511   0.265   3.251   8.878  0.4115 -0.7974  1.9018
 7684SOL    HW234512   0.274   3.108   8.915 -0.9328 -3.3256 -1.5305
 7685SOL     OW34513   0.181   4.367   2.694 -0.0042 -0.3955  0.4180
 7685SOL    HW134514   0.151   4.339   2.608  0.5381  0.6912 -0.1325
 7685SOL    HW234515   0.226   4.445   2.662 -1.6006 -0.4580 -1.9775
 7686SOL     OW34516   4.403   1.298   7.687 -0.4897  0.0608 -0.2287
 7686SOL    HW134517   4.321   1.253   7.665 -1.5299  1.9249 -0.2549
 7686SOL    HW234518   4.386   1.377   7.635 -1.1302  0.5825  0.7571
 7687SOL     OW34519   1.207   3.090   6.183  0.5136  0.0516  0.2357
 7687SOL    HW134520   1.301   3.106   6.188  0.6520 -0.8430  0.5320
 7687SOL    HW234521   1.198   3.011   6.236 -1.7100  1.7511  2.4178
 7688SOL     OW34522   3.629   0.962  17.505  0.0031 -0.0760  0.3333
 7688SOL    HW134523   3.703   1.011  17.469 -0.6905 -0.2264 -1.2806
 7688SOL    HW234524   3.562   1.029  17.520 -0.1192 -0.4428  1.3996
 7689SOL     OW34525   3.503   2.297   6.150 -0.7917 -0.1535 -0.1619
 7689SOL    HW134526   3.562   2.363   6.187 -0.6816 -0.0336 -0.5520
 7689SOL    HW234527   3.507   2.227   6.215  2.0048  1.0447  0.9610
 7690SOL     OW34528   3.833   0.860   6.692  0.5144 -0.1956  0.2181
 7690SOL    HW134529   3.860   0.801   6.763  0.8278  2.5846  2.4073
 7690SOL    HW234530   3.879   0.818   6.620  0.8248  4.4741 -2.3030
 7691SOL     OW34531   2.212   2.955   3.106 -0.1263  0.3820 -0.4569
 7691SOL    HW134532   2.290   2.999   3.138 -0.1603 -0.2551  0.5183
 7691SOL    HW234533   2.198   2.887   3.172 -0.3412  1.1686  0.3019
 7692SOL     OW34534   1.658   2.439   2.990  0.1018 -0.1615 -0.4637
 7692SOL    HW134535   1.603   2.516   3.009 -0.2566 -0.1377 -1.5660
 7692SOL    HW234536   1.598   2.370   3.018  1.4064 -1.4895 -0.9430
 7693SOL     OW34537   1.134   4.322   4.873  0.5633  0.2616  0.5629
 7693SOL    HW134538   1.172   4.278   4.797 -0.4967 -0.4920  0.4662
 7693SOL    HW234539   1.213   4.344   4.922 -0.8012  3.8936  1.0850
 7694SOL     OW34540   0.285   1.904   0.524 -0.0216 -0.1857 -0.8093
 7694SOL    HW134541   0.253   1.957   0.596 -0.6367  0.3769 -1.5048
 7694SOL    HW234542   0.203   1.894   0.476  0.0674  1.1568 -1.2414
 7695SOL     OW34543   2.626   3.450   3.081 -0.2902  0.2417 -0.4166
 7695SOL    HW134544   2.690   3.464   3.151 -0.5552 -5.3637  0.9129
 7695SOL    HW234545   2.546   3.476   3.126 -1.3547 -2.6988 -0.6495
 7696SOL     OW34546   2.372   0.958   2.108 -0.4359 -0.1145  0.6951
 7696SOL    HW134547   2.396   0.994   2.023 -2.0899  0.5508  0.5101
 7696SOL    HW234548   2.395   1.039   2.152  0.0709  0.3519 -0.4277
 7697SOL     OW34549   2.356   0.320   6.832 -0.5640 -0.0874  0.1893
 7697SOL    HW134550   2.391   0.233   6.853  0.0022  0.5145  1.7114
 7697SOL    HW234551   2.416   0.375   6.883 -1.0410 -0.6727  1.3826
 7698SOL     OW34552   0.505   2.427   3.092  0.1124 -0.2543  0.3614
 7698SOL    HW134553   0.535   2.340   3.066 -2.1095 -1.0502  0.4911
 7698SOL    HW234554   0.441   2.447   3.024 -0.1348 -2.9041 -0.1942
 7699SOL     OW34555   2.025   1.840   5.614 -0.2066  0.2361  0.6961
 7699SOL    HW134556   2.040   1.910   5.550 -2.2382  0.8088  0.8385
 7699SOL    HW234557   2.061   1.877   5.694 -0.0024  1.0959  0.2017
 7700SOL     OW34558   0.600   1.812   6.851 -0.2355 -0.0771 -0.4279
 7700SOL    HW134559   0.526   1.762   6.818  1.0113 -1.7170 -0.7447
 7700SOL    HW234560   0.596   1.803   6.946 -1.9545  0.2605 -0.4620
 7701SOL     OW34561   1.217   3.159   4.085  0.5052  0.0758  1.1310
 7701SOL    HW134562   1.252   3.134   3.999 -3.9470 -1.1417 -0.3371
 7701SOL    HW234563   1.241   3.081   4.136 -0.2280 -0.3941  0.7505
 7702SOL     OW34564   0.639   1.843   7.112  0.2439 -0.0067  0.8286
 7702SOL    HW134565   0.664   1.934   7.130 -0.7964  0.7215 -1.4601
 7702SOL    HW234566   0.603   1.813   7.195  1.2580  0.6424  1.5074
 7703SOL     OW34567   3.670   0.183  11.710 -0.0334 -0.1432 -0.2221
 7703SOL    HW134568   3.715   0.194  11.794  0.2355  0.1679 -0.4105
 7703SOL    HW234569   3.713   0.245  11.652 -1.0132 -0.1991 -1.0138
 7704SOL     OW34570   3.002   4.089   3.818  0.1522  0.0747  0.4662
 7704SOL    HW134571   2.958   4.070   3.736  2.0709  1.6253 -0.9079
 7704SOL    HW234572   2.971   4.009   3.861  1.3365  1.4200  3.8855
 7705SOL     OW34573   4.405   2.074   7.925  0.1742  0.1378  0.2434
 7705SOL    HW134574   4.451   1.995   7.954 -0.8554 -1.0444 -1.3891
 7705SOL    HW234575   4.468   2.142   7.950  0.7047  0.4317 -1.9591
 7706SOL     OW34576   2.526   2.964   7.505  0.4240  0.2298 -0.2710
 7706SOL    HW134577   2.443   2.916   7.507  0.6983 -0.3366 -2.0194
 7706SOL    HW234578   2.489   3.051   7.508  0.6007  0.3119 -0.4153
 7707SOL     OW34579   3.098   2.593   6.717 -0.2975 -0.1418  0.6384
 7707SOL    HW134580   3.106   2.615   6.624 -2.7159  2.5205  1.0938
 7707SOL    HW234581   3.062   2.676   6.745 -1.1273 -0.1230 -0.4768
 7708SOL     OW34582   4.351   1.799   3.282 -0.8169  0.6959  0.3869
 7708SOL    HW134583   4.394   1.883   3.267 -0.9827  0.6632 -0.2750
 7708SOL    HW234584   4.305   1.781   3.200  2.0670 -1.2475 -0.8066
 7709SOL     OW34585   2.078   1.264   4.005 -0.0027 -0.4851 -0.7900
 7709SOL    HW134586   2.107   1.353   3.983  0.8314 -0.4685  0.4372
 7709SOL    HW234587   2.146   1.256   4.071 -1.0172 -1.5095  0.1176
 7710SOL     OW34588   3.253   0.762   9.028 -0.2060 -0.3879  0.3236
 7710SOL    HW134589   3.210   0.708   9.095 -1.0225  1.3223  1.1886
 7710SOL    HW234590   3.191   0.835   9.033 -3.4872 -3.0775 -0.2533
 7711SOL     OW34591   1.030   3.494   4.298  0.5085 -0.2207  0.3975
 7711SOL    HW134592   0.957   3.476   4.358 -0.8668  4.1435  0.0333
 7711SOL    HW234593   1.020   3.588   4.312  0.5650 -0.3652  1.3949
 7712SOL     OW34594   4.448   2.149   2.000 -0.0827  0.4973 -0.2381
 7712SOL    HW134595   4.353   2.144   1.991  0.0118  0.0985 -0.9820
 7712SOL    HW234596   4.459   2.092   2.076  1.5201  0.6838 -0.3355
 7713SOL     OW34597   1.862   4.281  13.684 -0.1569 -0.1620  0.1026
 7713SOL    HW134598   1.878   4.201  13.735 -3.5308 -1.0895 -0.2692
 7713SOL    HW234599   1.826   4.342  13.749  0.9368 -0.7458  1.2690
 7714SOL     OW34600   3.930   2.031   1.837 -0.1372 -0.2835  0.4103
 7714SOL    HW134601   4.006   2.074   1.799 -0.2261  0.3543  0.9756
 7714SOL    HW234602   3.964   1.941   1.836  0.0080 -0.2409  1.6412
 7715SOL     OW34603   1.174   0.167   1.936 -0.7097 -0.2849 -0.2217
 7715SOL    HW134604   1.169   0.106   2.009  2.1131  1.1603  1.2182
 7715SOL    HW234605   1.269   0.183   1.935 -0.7540 -0.0639 -0.8412
 7716SOL     OW34606   3.535   3.130   7.033  0.8462 -0.3463 -0.5746
 7716SOL    HW134607   3.611   3.124   6.975  2.0237  0.9031  0.8102
 7716SOL    HW234608   3.523   3.224   7.016 -2.0238 -0.7606 -0.7830
 7717SOL     OW34609   1.942   1.705   2.898 -0.3945 -0.0052  0.2339
 7717SOL    HW134610   1.943   1.763   2.822  0.5911 -0.4744 -0.1169
 7717SOL    HW234611   2.035   1.689   2.916  0.2113  1.3864 -1.6919
 7718SOL     OW34612   4.293   3.478   8.980  0.4220 -0.1570 -0.4430
 7718SOL    HW134613   4.344   3.450   9.055  0.1984  0.5052 -0.0381
 7718SOL    HW234614   4.267   3.404   8.925  2.0302 -1.9988  1.2878
 7719SOL     OW34615   2.644   3.624   8.339 -1.1895  0.1751  0.7138
 7719SOL    HW134616   2.548   3.623   8.331 -1.1811 -2.0756  0.8623
 7719SOL    HW234617   2.653   3.567   8.415  2.4005 -0.7772 -0.4572
 7720SOL     OW34618   1.699   3.435   5.817 -0.2777 -0.1551 -0.4639
 7720SOL    HW134619   1.776   3.474   5.858  1.5279 -2.1363 -1.9532
 7720SOL    HW234620   1.624   3.482   5.851  0.1283  1.0131 -1.1827
 7721SOL     OW34621   1.065   0.237   0.179  0.2378  0.6165 -0.1846
 7721SOL    HW134622   0.971   0.227   0.194 -0.0547 -0.1225 -2.4120
 7721SOL    HW234623   1.096   0.190   0.256 -0.1751 -1.3703 -1.2105
 7722SOL     OW34624   0.144   1.406  15.370  0.4040  0.1141 -0.0769
 7722SOL    HW134625   0.223   1.356  15.391 -0.9520 -1.8582  0.3655
 7722SOL    HW234626   0.186   1.486  15.340  2.2326 -1.2730 -1.2251
 7723SOL     OW34627   4.130   4.148   7.870 -0.0344  0.1568  0.0855
 7723SOL    HW134628   4.103   4.103   7.950 -1.0127 -0.0955 -0.3833
 7723SOL    HW234629   4.210   4.103   7.844 -0.3849 -0.6589  0.4272
 7724SOL     OW34630   3.487   2.129  11.178 -0.3729 -0.3234 -0.5059
 7724SOL    HW134631   3.561   2.189  11.171 -0.6565 -0.0437 -1.1015
 7724SOL    HW234632   3.478   2.131  11.273  1.1048 -1.6662 -0.3276
 7725SOL     OW34633   0.518   2.755  16.169  0.1493  0.0491 -0.0944
 7725SOL    HW134634   0.528   2.713  16.254  1.7103  1.8010  0.5933
 7725SOL    HW234635   0.495   2.846  16.188  2.5602  0.5568  0.3711
 7726SOL     OW34636   2.805   0.729  13.786 -0.1715 -0.0684 -0.5819
 7726SOL    HW134637   2.806   0.659  13.852 -3.2191  1.5223  1.1064
 7726SOL    HW234638   2.711   0.738  13.774 -0.6743 -3.1990  0.9462
 7727SOL     OW34639   4.202   3.950   0.700 -0.1307 -0.3775  0.3091
 7727SOL    HW134640   4.250   4.032   0.706 -0.5975 -0.0311 -0.6865
 7727SOL    HW234641   4.128   3.964   0.759  1.1651  1.9322  1.3594
 7728SOL     OW34642   3.916   2.921   7.982  0.4023 -0.0064 -0.0641
 7728SOL    HW134643   3.996   2.956   7.944 -0.1960  0.8106 -0.5770
 7728SOL    HW234644   3.863   2.903   7.904 -1.5949 -1.6071  1.6417
 7729SOL     OW34645   0.466   3.267   4.189 -0.3981  0.5474  0.0788
 7729SOL    HW134646   0.420   3.334   4.240 -0.2336 -1.0737  2.3483
 7729SOL    HW234647   0.552   3.257   4.228  0.2326  1.9671 -0.9110
 7730SOL     OW34648   3.460   2.802   6.242  0.4038 -0.3126  0.4929
 7730SOL    HW134649   3.540   2.818   6.191  0.3001  0.1223  0.4673
 7730SOL    HW234650   3.497   2.796   6.330  0.9601  0.8840  0.3485
 7731SOL     OW34651   1.435   0.798   2.827 -0.5802  0.0945 -0.0226
 7731SOL    HW134652   1.427   0.744   2.905 -2.5094 -1.5251 -1.3282
 7731SOL    HW234653   1.389   0.876   2.858 -1.1035 -0.5334  0.7807
 7732SOL     OW34654   4.571   3.079   2.550 -0.2391 -0.5388  0.3817
 7732SOL    HW134655   4.503   3.019   2.519 -1.2174  0.5833  0.3549
 7732SOL    HW234656   4.614   3.041   2.627  0.3594  2.5256  1.5870
 7733SOL     OW34657   2.012   4.431   0.776 -0.1839  0.7329 -0.1567
 7733SOL    HW134658   1.957   4.376   0.720  0.6698 -0.6751  0.3907
 7733SOL    HW234659   1.942   4.478   0.821 -0.1258 -0.0623  0.7786
 7734SOL     OW34660   4.033   2.372   4.488 -0.2904  0.6957 -0.0151
 7734SOL    HW134661   4.058   2.319   4.411 -1.9259  2.7750 -1.9572
 7734SOL    HW234662   4.099   2.441   4.479 -0.1607  0.7603  1.3999
 7735SOL     OW34663   1.786   4.109   6.369 -0.3060 -0.2703  0.6352
 7735SOL    HW134664   1.828   4.118   6.284 -1.5096  2.2475  0.3037
 7735SOL    HW234665   1.694   4.099   6.345  0.3956 -0.5289 -1.9236
 7736SOL     OW34666   2.201   0.839   0.173  0.5258 -0.2459  0.2898
 7736SOL    HW134667   2.169   0.779   0.240  1.4904 -0.4884  0.5367
 7736SOL    HW234668   2.165   0.924   0.199  2.6907  0.2995  1.5506
 7737SOL     OW34669   1.542   2.197   7.920  0.6290 -0.1162 -0.4243
 7737SOL    HW134670   1.627   2.171   7.957 -0.0332  0.4285  1.4669
 7737SOL    HW234671   1.499   2.231   7.998 -1.4908 -0.8217 -1.2870
 7738SOL     OW34672   1.069   0.896   6.303  0.2911  0.0099 -0.4805
 7738SOL    HW134673   1.005   0.968   6.311  0.9830  0.2422  3.1505
 7738SOL    HW234674   1.008   0.852   6.243 -1.2111  1.1255  0.2168
 7739SOL     OW34675   0.185   4.664   7.538 -0.5796  0.2964 -0.0842
 7739SOL    HW134676   0.227   4.663   7.453  0.7351  0.2287  0.5709
 7739SOL    HW234677   0.118   0.004   7.516  0.8353  2.6977  2.5495
 7740SOL     OW34678   4.293   3.536   4.086 -0.0795 -0.3946  0.0570
 7740SOL    HW134679   4.257   3.600   4.024  0.0084 -0.9178 -0.5333
 7740SOL    HW234680   4.252   3.562   4.168  1.0842  2.1976 -0.1829
 7741SOL     OW34681   4.001   1.280   7.237 -0.2765 -0.2701  0.6954
 7741SOL    HW134682   3.931   1.320   7.185  0.5047  1.0839  0.6950
 7741SOL    HW234683   3.982   1.313   7.325 -1.4885 -1.1340  0.7667
 7742SOL     OW34684   3.953   0.674   4.259  0.8396 -0.4335 -0.3666
 7742SOL    HW134685   4.022   0.733   4.229 -0.3175  1.3409  0.3888
 7742SOL    HW234686   3.879   0.734   4.274  0.7796 -1.3331  3.0575
 7743SOL     OW34687   1.754   0.195   6.908 -0.2053  0.0250  0.1394
 7743SOL    HW134688   1.806   0.185   6.988  0.3160  0.1194 -0.1935
 7743SOL    HW234689   1.769   0.284   6.878  0.0809 -0.2810 -0.6237
 7744SOL     OW34690   3.045   4.485   6.052  0.4120 -0.4619 -0.1295
 7744SOL    HW134691   3.111   4.423   6.086 -0.1411  0.6366  2.9856
 7744SOL    HW234692   2.993   4.430   5.994 -1.8644  0.7249  0.8139
 7745SOL     OW34693   0.035   3.098   6.714 -0.5291 -0.4568  0.4466
 7745SOL    HW134694   4.669   3.130   6.711 -0.1855  0.2868 -2.2256
 7745SOL    HW234695   0.018   3.020   6.662 -0.6666  0.2447 -0.5792
 7746SOL     OW34696   3.804   2.810   4.159 -0.4348 -0.7725 -0.5668
 7746SOL    HW134697   3.885   2.837   4.117  0.1054 -1.6519 -0.0990
 7746SOL    HW234698   3.735   2.874   4.142 -0.8938 -1.2177 -0.4130
 7747SOL     OW34699   2.622   4.389   5.419 -0.4126  0.5338 -0.0159
 7747SOL    HW134700   2.575   4.456   5.369  1.6891  1.7412 -0.3470
 7747SOL    HW234701   2.544   4.336   5.436 -0.3078 -0.0813 -1.4255
 7748SOL     OW34702   1.875   0.042   5.585 -0.0468  0.1379 -0.1187
 7748SOL    HW134703   1.906   0.129   5.563  0.9500 -0.0894  0.3923
 7748SOL    HW234704   1.867   0.041   5.681  0.3143 -1.1812 -0.0937
 7749SOL     OW34705   2.238   3.520   6.024 -0.0368 -0.4264 -0.3656
 7749SOL    HW134706   2.206   3.497   6.112 -1.1289  0.9315 -0.4158
 7749SOL    HW234707   2.193   3.455   5.970 -1.9407  0.3963  0.2380
 7750SOL     OW34708   4.080   0.192   3.552  0.0594  0.3148 -0.2650
 7750SOL    HW134709   4.116   0.160   3.470  0.2846 -0.3138  0.0839
 7750SOL    HW234710   4.156   0.193   3.609  0.2332 -1.9252 -0.4683
 7751SOL     OW34711   1.937   0.909  16.291  0.3212 -0.0389 -0.0379
 7751SOL    HW134712   1.990   0.980  16.328 -0.1604 -0.1391  0.8424
 7751SOL    HW234713   1.967   0.889  16.202  0.9244 -1.4571  0.4930
 7752SOL     OW34714   3.956   0.729   7.908 -0.0746  0.2592 -0.1234
 7752SOL    HW134715   4.016   0.740   7.834  1.5205  0.6926  1.2226
 7752SOL    HW234716   4.019   0.722   7.980  0.8050  1.6091 -0.7692
 7753SOL     OW34717   2.262   1.585   1.176 -0.1205  0.0151 -0.4493
 7753SOL    HW134718   2.326   1.527   1.218 -0.5089  0.3465  0.6039
 7753SOL    HW234719   2.225   1.641   1.245  1.0727 -0.3588  0.4912
 7754SOL     OW34720   1.789   4.437  14.983 -0.1723  0.3409  0.2785
 7754SOL    HW134721   1.696   4.453  14.993 -0.3936 -0.0196 -1.1541
 7754SOL    HW234722   1.780   4.348  14.947 -0.8970  0.9357 -1.0160
 7755SOL     OW34723   0.043   0.441   7.736  0.1243 -0.1556 -0.0190
 7755SOL    HW134724   0.096   0.385   7.793 -1.5632 -1.1383  0.5753
 7755SOL    HW234725   0.051   0.525   7.781  2.0608 -0.5989  0.4811
 7756SOL     OW34726   0.369   1.301   6.709 -0.8232  0.2082  0.8338
 7756SOL    HW134727   0.282   1.262   6.700 -0.9433  0.7886 -0.5485
 7756SOL    HW234728   0.360   1.341   6.795 -0.0138 -0.0522  1.0327
 7757SOL     OW34729   1.224   3.628   2.571 -0.4566 -0.3332 -0.2139
 7757SOL    HW134730   1.243   3.672   2.488 -1.6983  0.2703 -0.1820
 7757SOL    HW234731   1.267   3.693   2.628 -1.9214 -0.9220  1.5560
 7758SOL     OW34732   4.575   3.153  14.697 -0.7303  0.4044 -0.2062
 7758SOL    HW134733   4.641   3.176  14.762 -0.7051  0.3767 -0.2222
 7758SOL    HW234734   4.615   3.087  14.640  0.3225  0.8716  0.0075
 7759SOL     OW34735   3.346   3.346   5.533  0.5503 -0.5506 -0.3626
 7759SOL    HW134736   3.400   3.267   5.535 -0.0212 -0.9304 -0.0753
 7759SOL    HW234737   3.272   3.308   5.581 -0.2190  1.7548  0.2522
 7760SOL     OW34738   1.931   0.535   3.216  0.0302 -0.3179  0.4153
 7760SOL    HW134739   1.952   0.534   3.310 -0.9657  2.0536  0.6764
 7760SOL    HW234740   1.900   0.445   3.211 -0.1041 -0.3960  2.4242
 7761SOL     OW34741   3.420   1.153  16.624 -0.5790 -0.2342 -0.1284
 7761SOL    HW134742   3.440   1.079  16.681  0.2198  0.1119  0.0324
 7761SOL    HW234743   3.423   1.228  16.684  0.3532 -1.2395  1.0686
 7762SOL     OW34744   1.532   4.681   7.465  0.0661  0.0546 -0.2932
 7762SOL    HW134745   1.455   4.686   7.410 -1.2706 -0.7724  1.4915
 7762SOL    HW234746   1.582   4.601   7.445  3.1739  1.7784  0.5636
 7763SOL     OW34747   4.512   3.840   3.851  0.3507  0.3234  0.6672
 7763SOL    HW134748   4.515   3.878   3.939 -2.5286  2.5564 -0.1938
 7763SOL    HW234749   4.449   3.771   3.871  0.5122  0.0949  0.3775
 7764SOL     OW34750   1.488   2.695   4.311 -0.1196 -0.2354  0.1676
 7764SOL    HW134751   1.423   2.638   4.353  0.9152  0.2906  2.4884
 7764SOL    HW234752   1.493   2.762   4.380  0.3441  1.4160 -1.4735
 7765SOL     OW34753   4.412   3.916   4.427  0.6080 -0.0076  0.0251
 7765SOL    HW134754   4.349   3.941   4.494  0.3264 -0.3217 -0.1256
 7765SOL    HW234755   4.499   3.937   4.462 -0.2598  0.5262  1.8824
 7766SOL     OW34756   4.092   1.705   5.641  0.1447 -0.1896  0.0602
 7766SOL    HW134757   4.106   1.738   5.730 -0.5345  0.1626  0.0423
 7766SOL    HW234758   4.169   1.748   5.605 -0.6031  0.3357 -0.8877
 7767SOL     OW34759   4.206   4.150  10.872 -0.0241  0.0961 -0.4758
 7767SOL    HW134760   4.245   4.095  10.940  0.1725 -0.1748 -0.8109
 7767SOL    HW234761   4.233   4.101  10.795  1.0157  0.8971 -0.6286
 7768SOL     OW34762   3.353   2.256  14.220 -0.1720 -0.4585 -0.0046
 7768SOL    HW134763   3.293   2.306  14.165  0.8215  1.9067  1.0298
 7768SOL    HW234764   3.294   2.190  14.255  0.4657 -1.7221 -1.3408
 7769SOL     OW34765   3.951   0.834   0.298 -0.3104  0.3754 -0.3607
 7769SOL    HW134766   4.045   0.829   0.312 -0.1177 -0.5036 -1.9631
 7769SOL    HW234767   3.913   0.768   0.357  0.3809  1.3512  1.1795
 7770SOL     OW34768   2.233   3.749   3.790  0.2202 -0.0049 -0.5273
 7770SOL    HW134769   2.155   3.804   3.800  0.9561  0.7300  1.2461
 7770SOL    HW234770   2.238   3.744   3.694 -0.1047 -0.7213 -0.5052
 7771SOL     OW34771   1.992   4.197  13.477  0.8930 -0.7445 -0.0047
 7771SOL    HW134772   1.997   4.115  13.527  1.7788 -1.1309 -0.7098
 7771SOL    HW234773   1.958   4.256  13.545  0.7331 -0.6942 -0.1300
 7772SOL     OW34774   3.565   0.203  11.351  0.1194  0.4781 -0.3635
 7772SOL    HW134775   3.503   0.270  11.380  0.2606  0.7551 -0.6884
 7772SOL    HW234776   3.590   0.254  11.274 -0.1160  1.0234 -0.0780
 7773SOL     OW34777   2.402   2.949  10.061 -0.6760 -0.4910 -0.1478
 7773SOL    HW134778   2.433   2.929   9.973  0.3044 -1.5681  0.4436
 7773SOL    HW234779   2.316   2.989  10.049 -0.1379 -0.0174 -2.3774
 7774SOL     OW34780   4.025   2.498  14.264  0.0201  0.5162 -0.2906
 7774SOL    HW134781   4.006   2.574  14.318 -0.6272  0.5229 -0.5274
 7774SOL    HW234782   4.056   2.539  14.184 -3.2158 -0.5721 -2.0946
 7775SOL     OW34783   3.468   3.687   0.316 -0.3433  0.0665  0.4247
 7775SOL    HW134784   3.502   3.767   0.276  2.1873 -1.9304 -1.4474
 7775SOL    HW234785   3.470   3.626   0.241 -0.8614  0.0199  0.4459
 7776SOL     OW34786   4.396   1.653   0.582 -0.0094  0.3491 -0.7862
 7776SOL    HW134787   4.345   1.719   0.630  2.4279 -0.2310  2.5715
 7776SOL    HW234788   4.384   1.675   0.489  2.8863 -1.3937 -1.5783
 7777SOL     OW34789   3.536   2.954   1.685  0.2784 -0.3186 -0.2753
 7777SOL    HW134790   3.495   2.873   1.654  0.6131  0.0472 -1.6624
 7777SOL    HW234791   3.491   3.017   1.628 -2.2375 -0.1995  1.8377
 7778SOL     OW34792   1.632   0.446   1.284  0.1773 -0.2430 -0.5993
 7778SOL    HW134793   1.669   0.369   1.239 -0.8740 -0.8210 -0.4813
 7778SOL    HW234794   1.649   0.502   1.208 -2.3865  1.3312  0.0374
 7779SOL     OW34795   2.566   2.723   3.170  0.5296  0.1279  0.3761
 7779SOL    HW134796   2.585   2.711   3.264  0.5188 -0.0415  0.3563
 7779SOL    HW234797   2.592   2.814   3.152 -1.6904  0.4234 -1.3541
 7780SOL     OW34798   2.547   4.222   8.808  0.3399 -0.1592 -0.3980
 7780SOL    HW134799   2.502   4.143   8.835 -2.3831  1.5784  0.1983
 7780SOL    HW234800   2.575   4.256   8.893 -1.2574  0.6364 -0.1739
 7781SOL     OW34801   1.621   4.610  17.694 -0.0087 -0.1931 -0.4493
 7781SOL    HW134802   1.657   4.691  17.657  0.4303 -0.5350 -0.7731
 7781SOL    HW234803   1.674   4.620   0.073  0.0837  0.4977 -0.5991
 7782SOL     OW34804   3.493   4.029   2.981  0.3807 -0.1963  0.2297
 7782SOL    HW134805   3.569   4.058   2.931 -0.1956  1.3386  0.2490
 7782SOL    HW234806   3.467   3.947   2.940  0.6186 -0.5613  0.8035
 7783SOL     OW34807   3.453   1.103  14.404  0.8770 -0.7381 -0.2262
 7783SOL    HW134808   3.424   1.142  14.322 -0.3316 -0.5089  0.3230
 7783SOL    HW234809   3.536   1.146  14.424  1.4323 -0.8700 -2.2199
 7784SOL     OW34810   3.493   2.218   8.423 -0.1528 -0.0384 -0.4682
 7784SOL    HW134811   3.491   2.137   8.472 -0.1764  1.1219  1.4423
 7784SOL    HW234812   3.469   2.283   8.489 -0.0565  1.0038 -1.4482
 7785SOL     OW34813   3.179   1.766   5.485  0.8008  0.2637  0.5024
 7785SOL    HW134814   3.188   1.750   5.391  0.9504  1.4826  0.3072
 7785SOL    HW234815   3.084   1.755   5.486  0.7792  0.6695  1.8192
 7786SOL     OW34816   1.492   3.694   3.638 -0.5109 -0.1476  0.3484
 7786SOL    HW134817   1.555   3.673   3.706 -2.0664 -1.5698  1.3593
 7786SOL    HW234818   1.519   3.779   3.602  1.0492 -0.7641  0.0594
 7787SOL     OW34819   2.243   4.567   7.523  0.2496 -0.0565  0.1926
 7787SOL    HW134820   2.255   4.494   7.584 -2.5298 -0.9769 -0.3846
 7787SOL    HW234821   2.335   4.573   7.497  0.6339 -0.0938  1.5550
 7788SOL     OW34822   0.411   0.976   7.906  0.1849 -0.0541 -0.2649
 7788SOL    HW134823   0.450   0.991   7.993  1.1326  2.5563 -1.1229
 7788SOL    HW234824   0.467   0.910   7.866 -0.8614 -0.9790 -0.2038
 7789SOL     OW34825   4.586   2.798  16.427 -0.1693 -0.2589 -0.2373
 7789SOL    HW134826   4.643   2.781  16.352 -0.1417 -1.0709 -0.0364
 7789SOL    HW234827   4.553   2.708  16.435  0.9914 -0.4540  2.1943
 7790SOL     OW34828   0.029   1.008   3.082  0.2426 -0.1025 -0.3033
 7790SOL    HW134829   0.063   1.064   3.012 -1.9589  1.9859  0.3071
 7790SOL    HW234830   0.036   0.919   3.046 -0.5131 -0.4015  0.2998
 7791SOL     OW34831   1.323   2.071   9.551  0.3060  0.5803  0.1266
 7791SOL    HW134832   1.243   2.047   9.503  1.3983 -2.8124 -0.0227
 7791SOL    HW234833   1.380   2.079   9.475 -1.5134 -0.6770 -1.3832
 7792SOL     OW34834   1.963   4.694   0.684 -0.5178 -0.2383  0.9081
 7792SOL    HW134835   1.869   4.710   0.677 -0.0448  1.8622 -0.7930
 7792SOL    HW234836   1.962   4.598   0.683  2.1849 -0.2805  2.7227
 7793SOL     OW34837   1.615   2.858   6.399  0.4105 -0.2777  0.1995
 7793SOL    HW134838   1.524   2.881   6.417  0.4105 -0.3913  0.3410
 7793SOL    HW234839   1.621   2.768   6.369  3.5843  0.0458 -0.1828
 7794SOL     OW34840   0.609   0.230   2.481  0.0144 -0.4402  1.1999
 7794SOL    HW134841   0.686   0.255   2.431 -1.7052 -1.4885 -1.9430
 7794SOL    HW234842   0.633   0.283   2.558 -0.2405  0.1891  0.8512
 7795SOL     OW34843   4.340   0.683   5.183  0.5309 -0.0118 -0.0879
 7795SOL    HW134844   4.301   0.765   5.212  2.0008  0.3139  0.9974
 7795SOL    HW234845   4.269   0.625   5.158  0.1417  0.0043  0.9594
 7796SOL     OW34846   1.695   0.892   4.158  0.0408 -0.0459  0.7964
 7796SOL    HW134847   1.693   0.948   4.080  1.2251 -1.0799  0.0200
 7796SOL    HW234848   1.746   0.941   4.224  1.1453 -0.5614  0.3257
 7797SOL     OW34849   3.793   4.309   4.908 -0.0533 -0.2165  0.4651
 7797SOL    HW134850   3.734   4.251   4.957 -2.3957  0.6155 -1.3196
 7797SOL    HW234851   3.876   4.278   4.942 -0.3017 -0.1084  1.1716
 7798SOL     OW34852   3.297   0.102   7.610 -0.4875  0.0964  0.2967
 7798SOL    HW134853   3.357   0.139   7.546 -0.3562  0.5521  0.6800
 7798SOL    HW234854   3.341   0.141   7.686  1.4320 -0.2052 -0.6763
 7799SOL     OW34855   0.262   4.058   9.795  0.5599 -0.0434  0.4959
 7799SOL    HW134856   0.291   4.144   9.826  1.2819 -0.7797  1.8741
 7799SOL    HW234857   0.329   4.004   9.837 -0.2368 -0.9566  0.6028
 7800SOL     OW34858   3.311   2.221   3.493  0.3419 -0.8152 -0.3625
 7800SOL    HW134859   3.309   2.169   3.573 -0.6939 -1.4545 -0.8184
 7800SOL    HW234860   3.384   2.278   3.519  0.2592  0.2252 -2.3827
 7801SOL     OW34861   0.645   0.185   8.200 -0.8576 -0.0424 -0.2092
 7801SOL    HW134862   0.618   0.272   8.169  0.9705 -0.0452 -1.8279
 7801SOL    HW234863   0.556   0.156   8.223 -0.2651 -0.0042  2.0798
 7802SOL     OW34864   3.088   0.246   4.746 -0.2360 -0.0182  0.3216
 7802SOL    HW134865   3.005   0.275   4.783 -1.6789 -3.0677 -0.5413
 7802SOL    HW234866   3.133   0.258   4.830 -0.0862  3.2465 -0.2158
 7803SOL     OW34867   2.457   1.140  13.945 -0.6419 -0.1090  0.4583
 7803SOL    HW134868   2.521   1.077  13.977 -0.3893 -1.5768 -2.9999
 7803SOL    HW234869   2.373   1.096  13.957  0.3625 -2.8762 -2.9054
 7804SOL     OW34870   4.461   3.721   5.451  0.5895  0.1237  0.7950
 7804SOL    HW134871   4.464   3.718   5.356 -2.8951 -2.6737  0.7367
 7804SOL    HW234872   4.475   3.628   5.471 -0.2007 -0.2714 -0.4701
 7805SOL     OW34873   3.421   0.256   6.297  0.0884 -0.0542  0.2592
 7805SOL    HW134874   3.493   0.305   6.257 -1.9826  2.1032 -0.7934
 7805SOL    HW234875   3.457   0.168   6.295 -1.1124 -0.5763  1.3914
 7806SOL     OW34876   1.274   0.131   3.570  0.5495 -0.2082  0.3562
 7806SOL    HW134877   1.249   0.193   3.639  0.4975 -0.1848  0.3156
 7806SOL    HW234878   1.204   0.067   3.579  1.1266 -1.0391 -1.0443
 7807SOL     OW34879   2.209   0.714   6.699  0.6159  0.4877  0.4690
 7807SOL    HW134880   2.300   0.687   6.699  0.9544  1.6475 -0.0351
 7807SOL    HW234881   2.176   0.635   6.742  0.4202  0.8940  1.0706
 7808SOL     OW34882   2.113   0.891   3.332  0.2734  0.1379  0.3886
 7808SOL    HW134883   2.030   0.935   3.350 -0.1011  0.4598 -2.1609
 7808SOL    HW234884   2.084   0.863   3.245 -0.1142 -2.0712  1.2249
 7809SOL     OW34885   0.468   3.995   0.356  0.2024 -0.3351 -0.1203
 7809SOL    HW134886   0.426   3.957   0.278 -0.2669 -1.5724  0.7385
 7809SOL    HW234887   0.523   4.060   0.312  0.5932 -1.1543 -0.8427
 7810SOL     OW34888   3.671   2.095   2.526  0.3187  0.7683  0.0455
 7810SOL    HW134889   3.638   2.089   2.436  1.0956 -0.4224 -0.1631
 7810SOL    HW234890   3.605   2.044   2.572  2.8434 -2.5649  0.0341
 7811SOL     OW34891   4.322   4.351   4.417 -0.2046 -0.1382  0.1660
 7811SOL    HW134892   4.391   4.286   4.427  1.3704  1.5063  0.0410
 7811SOL    HW234893   4.289   4.356   4.507 -1.5182 -1.5930 -0.2274
 7812SOL     OW34894   1.650   3.615   5.082  0.3201 -0.0822  0.1902
 7812SOL    HW134895   1.613   3.681   5.141  3.4974  1.4938  0.4687
 7812SOL    HW234896   1.655   3.654   4.994 -0.1463 -0.0067  0.1978
 7813SOL     OW34897   1.493   4.683   1.310  0.2651 -0.2810  1.1986
 7813SOL    HW134898   1.515   4.591   1.294 -1.3948 -0.6464  1.0403
 7813SOL    HW234899   1.555   4.711   1.377  2.5514 -1.3618 -0.4773
 7814SOL     OW34900   4.075   0.491  15.287 -0.2018 -0.2169 -0.0566
 7814SOL    HW134901   4.106   0.557  15.350 -0.6379  0.7993 -0.9114
 7814SOL    HW234902   4.156   0.451  15.255  1.4101  2.2168  0.9367
 7815SOL     OW34903   0.348   3.699   1.695  0.6842 -0.4774  0.3005
 7815SOL    HW134904   0.316   3.785   1.725  0.3769 -0.3121 -0.5123
 7815SOL    HW234905   0.443   3.708   1.687  0.7666 -0.5670  1.1366
 7816SOL     OW34906   3.540   4.198  13.164  0.0909 -0.2518 -0.2290
 7816SOL    HW134907   3.523   4.151  13.245  0.3333 -0.6783 -0.4245
 7816SOL    HW234908   3.592   4.271  13.196  0.0201 -0.9515  1.4500
 7817SOL     OW34909   2.293   0.340   7.153  0.0402  0.3026 -0.0515
 7817SOL    HW134910   2.322   0.254   7.120  1.7369 -0.4380  3.4198
 7817SOL    HW234911   2.367   0.380   7.198 -0.6273  0.9747  0.4240
 7818SOL     OW34912   2.496   1.200   2.894  0.5415 -0.8916  0.5045
 7818SOL    HW134913   2.550   1.129   2.929  2.1694  0.4904  0.8145
 7818SOL    HW234914   2.553   1.222   2.819 -0.2696 -0.0849  0.1340
 7819SOL     OW34915   0.395   0.328  17.561  0.6518  0.1165  0.0026
 7819SOL    HW134916   0.491   0.334  17.558  0.5259  0.9654 -2.2632
 7819SOL    HW234917   0.370   0.372  17.481 -2.4432  1.3008  1.6287
 7820SOL     OW34918   0.242   3.946   5.983 -0.0552  0.1286 -0.4851
 7820SOL    HW134919   0.295   3.868   5.966  0.6201 -0.1191  2.7377
 7820SOL    HW234920   0.295   4.013   5.941  1.4138 -1.0345 -0.4749
 7821SOL     OW34921   1.756   0.980   5.726 -0.3165 -0.5952 -0.4121
 7821SOL    HW134922   1.731   1.071   5.713  2.5798  0.0635 -1.4434
 7821SOL    HW234923   1.736   0.968   5.819  0.8923 -0.6915 -0.1552
 7822SOL     OW34924   0.135   2.191   2.547  0.2115  0.5410  0.0891
 7822SOL    HW134925   0.115   2.282   2.523 -0.9248  0.3959  0.4877
 7822SOL    HW234926   0.070   2.143   2.496  0.3130  1.0585 -0.5326
 7823SOL     OW34927   2.529   1.918   3.911  0.6080 -0.5280  0.1728
 7823SOL    HW134928   2.512   1.982   3.841  0.4143 -0.5990  0.1542
 7823SOL    HW234929   2.608   1.884   3.870 -0.7186 -2.4734 -0.7457
 7824SOL     OW34930   3.974   2.397   2.622 -0.5806  0.3866 -0.2386
 7824SOL    HW134931   3.882   2.372   2.621 -0.5164  0.0513  2.0462
 7824SOL    HW234932   3.983   2.467   2.558  0.6778  1.4205  1.0840
 7825SOL     OW34933   3.540   4.591   3.753 -0.3931  0.0965 -0.2879
 7825SOL    HW134934   3.499   4.667   3.794  0.8749  0.3660  0.4769
 7825SOL    HW234935   3.577   4.627   3.673  0.0268 -0.5552 -0.3891
 7826SOL     OW34936   0.770   0.289  11.462 -0.3280 -0.0593 -0.0908
 7826SOL    HW134937   0.861   0.273  11.438 -1.0764 -3.0203 -1.0034
 7826SOL    HW234938   0.767   0.384  11.462  0.2782 -0.0462 -1.0487
 7827SOL     OW34939   1.045   1.427  13.676  0.8844  0.1448  0.7855
 7827SOL    HW134940   1.016   1.490  13.610 -1.5691 -0.7737  0.9861
 7827SOL    HW234941   1.109   1.483  13.719  0.1248  0.7584  1.1272
 7828SOL     OW34942   3.979   2.912   1.303  0.3560  0.4677 -0.1369
 7828SOL    HW134943   4.056   2.887   1.354  0.2941  1.8617  0.6574
 7828SOL    HW234944   3.932   2.831   1.284  0.2895  0.0391  1.8546
 7829SOL     OW34945   4.437   2.149   8.400 -0.0743 -0.6993  0.6096
 7829SOL    HW134946   4.491   2.070   8.398  0.5804 -0.2628  0.9908
 7829SOL    HW234947   4.358   2.114   8.441 -0.5699 -1.0853 -0.6991
 7830SOL     OW34948   0.358   3.591   7.988 -0.2844 -0.3600 -0.2452
 7830SOL    HW134949   0.398   3.631   8.065  0.3890 -0.7981 -0.3600
 7830SOL    HW234950   0.386   3.659   7.926 -1.7689  0.2330 -0.2504
 7831SOL     OW34951   1.112   4.075  16.507  0.4908  0.3078  0.0510
 7831SOL    HW134952   1.204   4.101  16.515 -0.2097  1.4360  4.2713
 7831SOL    HW234953   1.117   3.991  16.462  0.2742  0.8358 -0.9658
 7832SOL     OW34954   1.320   3.512   0.812 -0.3544 -0.6190  0.4336
 7832SOL    HW134955   1.316   3.589   0.755  1.4129 -1.2247 -0.5213
 7832SOL    HW234956   1.324   3.559   0.896 -0.6137 -0.0747  0.1408
 7833SOL     OW34957   2.243   3.914   7.756  0.4899  0.4443 -0.4623
 7833SOL    HW134958   2.188   3.918   7.834 -0.9836 -0.1558 -1.4876
 7833SOL    HW234959   2.172   3.940   7.698 -1.2205 -0.3510  1.2977
 7834SOL     OW34960   0.062   0.951   4.210  0.9913  0.4334 -0.3379
 7834SOL    HW134961   0.021   0.951   4.124 -0.5691 -0.1667  0.4163
 7834SOL    HW234962   0.055   1.045   4.226  1.7622  0.5986 -0.9610
 7835SOL     OW34963   3.138   1.987   2.023 -0.1558 -0.0674  0.5128
 7835SOL    HW134964   3.113   1.919   2.086  0.5515 -1.3993 -0.6502
 7835SOL    HW234965   3.050   2.019   2.004 -0.9257 -2.7616 -0.4254
 7836SOL     OW34966   0.300   0.376   7.599  0.6285  0.1882  0.0030
 7836SOL    HW134967   0.224   0.425   7.568  2.6530  1.4569 -2.9371
 7836SOL    HW234968   0.300   0.302   7.538  0.0566  1.4105 -1.5038
 7837SOL     OW34969   3.023   0.861   4.850 -0.4672  0.2095 -0.0614
 7837SOL    HW134970   3.065   0.835   4.767  1.1048  0.2350  0.7269
 7837SOL    HW234971   3.099   0.905   4.888 -0.1955  0.3749 -0.7921
 7838SOL     OW34972   0.340   1.716   7.118  0.2190  0.8703  0.2295
 7838SOL    HW134973   0.359   1.625   7.099  0.6269  0.6932  1.4945
 7838SOL    HW234974   0.369   1.721   7.209  2.3475  0.0210 -0.4013
 7839SOL     OW34975   1.829   0.458  11.601  0.2526  0.2137 -0.4818
 7839SOL    HW134976   1.867   0.387  11.550  2.0630 -0.0219  1.1858
 7839SOL    HW234977   1.791   0.510  11.530 -2.3449  0.9410  1.4574
 7840SOL     OW34978   2.427   3.582   8.514 -0.3916 -0.3515  0.4980
 7840SOL    HW134979   2.338   3.555   8.495  0.3050 -2.2729 -0.0595
 7840SOL    HW234980   2.427   3.624   8.600  0.4348  2.0549 -0.6542
 7841SOL     OW34981   0.327   0.336   4.605 -0.6191  0.6150  0.1163
 7841SOL    HW134982   0.261   0.289   4.657  0.5756 -2.5043 -1.1836
 7841SOL    HW234983   0.353   0.267   4.545 -0.7757  2.5342 -2.1591
 7842SOL     OW34984   0.244   3.650   1.086 -0.4586 -0.4333  0.4611
 7842SOL    HW134985   0.296   3.708   1.142 -0.8611 -0.7635  1.1752
 7842SOL    HW234986   0.277   3.680   1.001  0.0862 -0.3816  0.6937
 7843SOL     OW34987   2.818   0.880  15.051  0.4667 -0.5241  0.0554
 7843SOL    HW134988   2.855   0.804  15.004  1.8500 -0.6932  1.4231
 7843SOL    HW234989   2.900   0.920  15.080  0.8898 -0.8730 -0.6480
 7844SOL     OW34990   0.075   1.596   6.831  0.0573  0.3487 -0.3153
 7844SOL    HW134991   0.037   1.646   6.903 -2.7659  1.0732 -2.2996
 7844SOL    HW234992   0.073   1.659   6.758 -0.3173  2.1244  1.2271
 7845SOL     OW34993   1.672   2.789  16.836  0.3378 -0.1775  0.4099
 7845SOL    HW134994   1.651   2.779  16.743 -0.3149 -1.2078  0.6716
 7845SOL    HW234995   1.594   2.837  16.865  0.3658 -0.5190  1.0362
 7846SOL     OW34996   0.851   2.665  10.888  0.3044  0.4101 -0.2567
 7846SOL    HW134997   0.789   2.725  10.928  0.0651  0.0803 -0.1357
 7846SOL    HW234998   0.808   2.660  10.803  0.1268  1.4498 -0.2202
 7847SOL     OW34999   2.137   0.007   3.840 -0.2497 -0.2623 -0.4388
 7847SOL    HW135000   2.222   0.049   3.852  0.0069 -1.3617  1.6248
 7847SOL    HW235001   2.077   0.082   3.844  1.8661  1.3836  0.5318
 7848SOL     OW35002   3.155   0.527   2.633 -0.1123 -0.0684 -0.3423
 7848SOL    HW135003   3.227   0.487   2.584  0.0822  1.6646 -1.4858
 7848SOL    HW235004   3.193   0.614   2.642 -1.4226  0.5873 -1.0380
 7849SOL     OW35005   4.266   2.695   7.420 -0.4446 -0.0475 -0.5609
 7849SOL    HW135006   4.232   2.735   7.500  1.2649  2.7735 -1.2317
 7849SOL    HW235007   4.253   2.601   7.431  1.2338 -0.1886  0.2604
 7850SOL     OW35008   4.539   3.496   6.660  0.2149  0.0255 -0.2371
 7850SOL    HW135009   4.614   3.466   6.711  2.2101  2.6928 -1.5597
 7850SOL    HW235010   4.571   3.544   6.583 -0.1262  1.3389  0.4576
 7851SOL     OW35011   0.714   1.417   1.783  0.3098 -0.1592  0.3684
 7851SOL    HW135012   0.654   1.441   1.854 -0.7847 -1.2380 -0.2006
 7851SOL    HW235013   0.711   1.322   1.795  1.0763  0.0645  2.2488
 7852SOL     OW35014   4.115   1.533  10.154  0.1222  0.3851 -0.1077
 7852SOL    HW135015   4.178   1.597  10.190 -0.3064 -0.0022  1.3346
 7852SOL    HW235016   4.043   1.595  10.147  1.0839  1.7157  1.5814
 7853SOL     OW35017   0.176   0.935  10.071  0.6793 -0.1968  0.4975
 7853SOL    HW135018   0.142   1.009  10.022 -1.5405  0.4262  2.9776
 7853SOL    HW235019   0.097   0.881  10.066  0.6661  0.1924 -3.2190
 7854SOL     OW35020   3.625   3.701   0.687  0.4436 -0.3457 -0.3404
 7854SOL    HW135021   3.716   3.703   0.717  0.5932 -2.2823 -0.6974
 7854SOL    HW235022   3.580   3.694   0.772 -0.4204 -0.5755 -0.8195
 7855SOL     OW35023   3.279   2.829   2.812  0.0080  0.1265 -0.1078
 7855SOL    HW135024   3.235   2.753   2.850  0.5871  0.4291  1.1614
 7855SOL    HW235025   3.343   2.841   2.882  1.5319  1.0482 -1.6776
 7856SOL     OW35026   3.734   0.364   7.624  0.2679 -0.0596 -0.2587
 7856SOL    HW135027   3.699   0.435   7.570 -1.0667  0.2967  1.0587
 7856SOL    HW235028   3.727   0.409   7.709 -1.2759 -0.6601 -0.0674
 7857SOL     OW35029   1.547   3.016   7.416  0.3746 -0.0876 -0.3426
 7857SOL    HW135030   1.568   3.109   7.417 -1.1053  0.2473 -0.5903
 7857SOL    HW235031   1.634   2.979   7.400 -0.3233 -1.7318 -0.3538
 7858SOL     OW35032   4.513   3.182   3.454  0.5986 -0.0934  0.1966
 7858SOL    HW135033   4.535   3.102   3.500 -1.6495 -1.7434 -1.5941
 7858SOL    HW235034   4.448   3.142   3.396 -0.3992  1.8852 -0.0712
 7859SOL     OW35035   0.408   3.273   2.090  0.3987 -0.2053  0.6198
 7859SOL    HW135036   0.493   3.310   2.064 -1.0205  2.1957 -0.6267
 7859SOL    HW235037   0.357   3.295   2.012  0.0007  0.0817  0.9658
 7860SOL     OW35038   3.070   3.475  14.854  0.3203 -0.1985 -0.0736
 7860SOL    HW135039   3.090   3.407  14.919 -2.3858  0.1927  1.1628
 7860SOL    HW235040   3.112   3.438  14.776 -2.0456 -1.4882 -0.7509
 7861SOL     OW35041   2.470   2.804  12.386 -0.4487  0.1336  0.4630
 7861SOL    HW135042   2.460   2.805  12.482 -0.7902  1.7336  0.4076
 7861SOL    HW235043   2.556   2.842  12.368  0.9174 -1.6781  3.0598
 7862SOL     OW35044   0.566   1.195   2.162 -0.1617  0.1956  0.2125
 7862SOL    HW135045   0.516   1.124   2.122  0.2611  0.8874 -1.5642
 7862SOL    HW235046   0.651   1.184   2.119  0.6673 -1.3563  2.2991
 7863SOL     OW35047   2.062   2.637  11.255  0.1829  0.5661 -0.4669
 7863SOL    HW135048   2.045   2.730  11.269  3.6253  1.3073 -1.2356
 7863SOL    HW235049   2.147   2.632  11.298 -0.6045 -0.1646  1.0100
 7864SOL     OW35050   3.319   1.331  17.164 -0.2233  0.0059  0.2181
 7864SOL    HW135051   3.288   1.388  17.094  4.2282  1.3849 -0.6291
 7864SOL    HW235052   3.245   1.276  17.186 -0.2407 -0.3022 -0.6468
 7865SOL     OW35053   1.145   1.989   2.485 -0.3656  0.1412  0.3279
 7865SOL    HW135054   1.165   2.037   2.404  1.4625  1.2663  1.4437
 7865SOL    HW235055   1.119   2.062   2.540 -2.5062  1.4868 -2.4738
 7866SOL     OW35056   0.063   1.489  10.468 -1.1253 -0.6389 -0.5089
 7866SOL    HW135057   0.016   1.420  10.515  0.5162  0.1797  2.3267
 7866SOL    HW235058   0.150   1.459  10.492 -0.8469  0.8450  0.3254
 7867SOL     OW35059   1.037   4.503   8.726  0.2708 -0.1514  0.1303
 7867SOL    HW135060   1.019   4.489   8.633 -0.6189 -2.1530  0.6091
 7867SOL    HW235061   0.991   4.428   8.762 -2.2960  0.1004 -2.6147
 7868SOL     OW35062   3.693   1.801   1.761 -0.1484 -0.5285  0.4848
 7868SOL    HW135063   3.788   1.805   1.773 -0.2513 -1.2055  1.5255
 7868SOL    HW235064   3.694   1.730   1.696  2.2069  2.1050 -2.3772
 7869SOL     OW35065   2.259   0.043  16.044  0.1244 -0.0741  0.0879
 7869SOL    HW135066   2.354   0.037  16.038  0.1596  1.0553 -0.5974
 7869SOL    HW235067   2.244   4.717  16.124 -1.8817  1.4677  0.6957
 7870SOL     OW35068   3.913   2.938  13.346  0.1996  0.6168 -0.0173
 7870SOL    HW135069   3.987   2.892  13.307  2.5216  2.4526  2.2676
 7870SOL    HW235070   3.840   2.910  13.289  0.0895 -0.1657  0.5023
 7871SOL     OW35071   2.767   0.057  15.342  0.4133  0.3013 -0.1088
 7871SOL    HW135072   2.782   0.061  15.248 -1.0138 -0.6708 -0.3817
 7871SOL    HW235073   2.785   4.688  15.349 -0.9537  0.1180  0.8839
 7872SOL     OW35074   2.488   3.089   8.020  0.3226  0.2919  0.2696
 7872SOL    HW135075   2.579   3.063   8.032  0.5258  0.3446 -1.1665
 7872SOL    HW235076   2.482   3.155   8.089 -2.0106  3.2874 -2.8084
 7873SOL     OW35077   1.066   1.581  14.038  0.9423 -0.1077  0.4606
 7873SOL    HW135078   0.998   1.597  13.973  0.6321 -2.5501  0.1612
 7873SOL    HW235079   1.094   1.666  14.070  1.3068 -1.1436  2.9191
 7874SOL     OW35080   3.115   4.313   1.516  0.2033 -0.7889  0.1789
 7874SOL    HW135081   3.042   4.264   1.552 -0.3971  0.5007  0.7071
 7874SOL    HW235082   3.137   4.363   1.594  3.5540 -0.1094 -1.1872
 7875SOL     OW35083   0.631   0.100   5.393  0.7320  0.2332  0.1251
 7875SOL    HW135084   0.544   0.062   5.379  0.4764  1.4308 -1.4856
 7875SOL    HW235085   0.617   0.190   5.364  2.0382  0.4208  0.0896
 7876SOL     OW35086   1.775   3.755   8.052 -0.2580  0.2880  0.5790
 7876SOL    HW135087   1.868   3.745   8.030  0.2515  2.5941  1.5996
 7876SOL    HW235088   1.778   3.692   8.123  2.0879  1.7898  1.8266
 7877SOL     OW35089   1.914   4.048   2.116  0.0301 -0.5590  0.0809
 7877SOL    HW135090   1.967   4.055   2.037  2.7819  1.6916  2.1070
 7877SOL    HW235091   1.972   4.073   2.188 -1.0651  2.4986 -0.0867
 7878SOL     OW35092   2.061   0.466  16.067  0.1072  0.0363 -0.4486
 7878SOL    HW135093   1.982   0.513  16.095 -0.1041  0.8419 -2.4290
 7878SOL    HW235094   2.117   0.494  16.140  0.6943 -2.0290 -0.1074
 7879SOL     OW35095   0.872   4.338   8.847 -0.0823 -0.7017 -0.5184
 7879SOL    HW135096   0.861   4.253   8.890 -2.2118 -0.6388 -0.9287
 7879SOL    HW235097   0.781   4.370   8.840  0.9374  1.7650 -2.5227
 7880SOL     OW35098   1.254   2.536   3.185  0.3172  0.0503  0.1352
 7880SOL    HW135099   1.319   2.499   3.244 -0.3563 -0.4896  0.5408
 7880SOL    HW235100   1.190   2.465   3.190 -1.9987  2.1093 -0.4397
 7881SOL     OW35101   4.499   3.231  10.108 -0.2227 -0.0716  0.4898
 7881SOL    HW135102   4.404   3.218  10.104 -0.1898 -0.6461  1.4773
 7881SOL    HW235103   4.530   3.181  10.033  0.6491  2.6742 -0.9679
 7882SOL     OW35104   2.565   2.765  17.211 -0.0190  0.4103  0.0052
 7882SOL    HW135105   2.634   2.831  17.206 -1.7769  2.2926  0.6763
 7882SOL    HW235106   2.526   2.782  17.125  0.6556 -0.0797 -0.3976
 7883SOL     OW35107   3.800   1.629   5.597  0.1626  0.3794 -0.5626
 7883SOL    HW135108   3.744   1.705   5.579  0.4906  0.8616  0.4815
 7883SOL    HW235109   3.878   1.677   5.625 -0.4112  0.7257  0.4539
 7884SOL     OW35110   3.715   3.986   3.593  0.1116 -0.1811  0.0669
 7884SOL    HW135111   3.680   3.906   3.631 -0.3847  0.1995  0.4200
 7884SOL    HW235112   3.642   4.011   3.536  0.1264  2.9599  1.4107
 7885SOL     OW35113   2.888   4.347  16.041  0.7638 -0.0745 -0.3240
 7885SOL    HW135114   2.834   4.423  16.060 -0.6027 -1.6460  2.0030
 7885SOL    HW235115   2.879   4.304  16.126  0.1626 -0.3921 -0.5493
 7886SOL     OW35116   1.954   1.361   1.504  0.0912 -0.1480  0.1356
 7886SOL    HW135117   2.001   1.315   1.435  0.7405  3.1803 -1.6344
 7886SOL    HW235118   1.889   1.406   1.450  0.6737  2.5488  1.6626
 7887SOL     OW35119   2.315   2.505  16.245  0.4591 -0.0227 -0.2104
 7887SOL    HW135120   2.328   2.505  16.150  3.6164  1.7223  0.2039
 7887SOL    HW235121   2.399   2.543  16.272 -0.1682  0.6002  0.8383
 7888SOL     OW35122   2.439   0.796  17.178  0.0554 -0.3159 -0.5293
 7888SOL    HW135123   2.494   0.719  17.181  0.4708  0.0769  2.3201
 7888SOL    HW235124   2.459   0.837  17.263  1.4105  0.8008 -1.3930
 7889SOL     OW35125   1.867   3.658  10.377 -0.3619 -0.5861  0.3829
 7889SOL    HW135126   1.806   3.730  10.391  0.2996  0.0976 -0.2748
 7889SOL    HW235127   1.931   3.673  10.447  0.3300  0.8688 -0.5564
 7890SOL     OW35128   2.833   3.749  12.973 -0.2648  0.4395 -0.1108
 7890SOL    HW135129   2.774   3.798  12.916  1.0761 -0.4534 -2.3043
 7890SOL    HW235130   2.873   3.687  12.911  0.0598  1.3149 -0.7727
 7891SOL     OW35131   0.434   4.547   6.397  0.0130  0.6215  0.3940
 7891SOL    HW135132   0.471   4.623   6.351 -1.4343  0.1713 -1.5328
 7891SOL    HW235133   0.445   4.578   6.487 -1.1216  0.0975  0.7130
 7892SOL     OW35134   3.944   1.630  14.661 -0.3811  0.0904  0.1728
 7892SOL    HW135135   3.929   1.597  14.750 -2.5352 -1.9638 -0.9750
 7892SOL    HW235136   4.012   1.696  14.673 -0.4116 -0.6832  4.5855
 7893SOL     OW35137   2.063   4.128  12.775  0.4050 -0.2157 -0.2297
 7893SOL    HW135138   2.099   4.144  12.688  1.2409  0.1356  0.1806
 7893SOL    HW235139   1.982   4.088  12.742 -0.0576  0.6493 -0.1322
 7894SOL     OW35140   3.064   4.401  11.282  0.5074  0.2128  0.0035
 7894SOL    HW135141   3.103   4.313  11.275  1.3733  0.4712  1.7022
 7894SOL    HW235142   3.094   4.435  11.197 -0.1431  1.4452  0.2697
 7895SOL     OW35143   3.079   1.009   1.774  0.0464 -0.3776  0.8318
 7895SOL    HW135144   3.062   1.047   1.860  1.7884 -1.0641  1.4892
 7895SOL    HW235145   3.023   1.069   1.725 -0.6823 -1.0707  0.8219
 7896SOL     OW35146   2.249   2.261   8.107 -0.2914 -0.0495 -0.0262
 7896SOL    HW135147   2.242   2.292   8.017  1.5887  2.2575  0.6214
 7896SOL    HW235148   2.336   2.220   8.102 -0.1467  0.3738 -0.9222
 7897SOL     OW35149   4.298   1.698  17.013 -0.1616  0.2052  0.2380
 7897SOL    HW135150   4.301   1.673  16.920 -2.9542  2.2220 -0.3867
 7897SOL    HW235151   4.334   1.786  17.008 -2.2477  1.1813  2.5417
 7898SOL     OW35152   2.601   1.559   2.673  0.1517 -0.5554 -0.5842
 7898SOL    HW135153   2.546   1.622   2.627  3.1522  2.9740  0.7113
 7898SOL    HW235154   2.557   1.558   2.759 -2.3799 -1.4924 -1.8806
 7899SOL     OW35155   4.427   4.407   1.498 -0.2999  0.2004  0.0382
 7899SOL    HW135156   4.422   4.313   1.481  0.3476  0.1292  0.2296
 7899SOL    HW235157   4.506   4.421   1.445 -1.3571  2.2711 -0.9810
 7900SOL     OW35158   1.703   3.140  16.944 -0.2090 -0.1753 -0.4905
 7900SOL    HW135159   1.788   3.147  16.987 -0.1341  1.3492 -0.8815
 7900SOL    HW235160   1.692   3.230  16.912  0.0908 -0.2746 -0.8745
 7901SOL     OW35161   2.164   2.715   2.030  0.1826 -0.2276 -0.4914
 7901SOL    HW135162   2.241   2.727   1.974  0.3551 -1.2765 -0.4936
 7901SOL    HW235163   2.199   2.720   2.119 -0.5358  0.7195 -0.2691
 7902SOL     OW35164   0.393   3.502   6.684 -0.3025  0.4122 -0.1092
 7902SOL    HW135165   0.372   3.544   6.768  0.7149  0.0601  0.3263
 7902SOL    HW235166   0.439   3.571   6.636  2.3969 -1.1309  0.2302
 7903SOL     OW35167   3.529   2.353  14.026 -0.0253  0.3583 -0.3371
 7903SOL    HW135168   3.496   2.300  14.099 -2.9102  1.2423 -0.9995
 7903SOL    HW235169   3.501   2.441  14.050 -1.9300 -0.2705 -0.2388
 7904SOL     OW35170   3.777   3.621  11.420 -0.0891  0.4577 -0.1536
 7904SOL    HW135171   3.775   3.702  11.472  0.0805 -0.3073  1.0478
 7904SOL    HW235172   3.844   3.655  11.360  0.1259 -2.5410 -1.6078
 7905SOL     OW35173   0.207   0.119   3.747 -0.1853  0.3039  1.0518
 7905SOL    HW135174   0.295   0.094   3.776  0.0735  0.1934  0.1744
 7905SOL    HW235175   0.230   0.192   3.690 -0.2175  0.4523  1.2296
 7906SOL     OW35176   2.042   1.073  17.247  0.1759 -0.1213  0.0682
 7906SOL    HW135177   1.967   1.052  17.192  0.1984  1.0297 -0.3971
 7906SOL    HW235178   2.108   1.010  17.219  1.5437  1.5779 -0.5079
 7907SOL     OW35179   3.299   4.423   2.370 -0.1342 -0.1330 -0.6025
 7907SOL    HW135180   3.287   4.328   2.373  2.0883 -0.3937 -0.0959
 7907SOL    HW235181   3.349   4.427   2.288 -1.6889 -0.5504 -1.5751
 7908SOL     OW35182   1.322   2.395   2.204 -0.2459  0.6009  0.0705
 7908SOL    HW135183   1.242   2.416   2.253 -0.6240 -1.0681  0.1765
 7908SOL    HW235184   1.353   2.315   2.247  1.0582  0.7250 -0.6402
 7909SOL     OW35185   4.685   1.273   7.568 -0.2278  0.5669  0.4619
 7909SOL    HW135186   4.605   1.308   7.607 -1.2271 -0.7279 -0.4507
 7909SOL    HW235187   4.678   1.315   7.482 -3.1019  1.0310  0.9117
 7910SOL     OW35188   1.764   1.415   0.077  0.0137  0.0863 -0.3666
 7910SOL    HW135189   1.686   1.364   0.098 -0.3976  1.5989  1.7352
 7910SOL    HW235190   1.760   1.487   0.139  2.4197  0.2921 -0.4584
 7911SOL     OW35191   2.795   2.195   4.608 -0.1844  0.1252 -0.9002
 7911SOL    HW135192   2.885   2.225   4.617 -0.1816  0.5413 -2.3680
 7911SOL    HW235193   2.735   2.245   4.663 -1.1974 -2.6191  0.4727
 7912SOL     OW35194   1.859   1.387   6.718 -0.2726 -0.1432 -0.0520
 7912SOL    HW135195   1.808   1.467   6.726 -2.1433 -1.3949  0.7359
 7912SOL    HW235196   1.794   1.319   6.738 -1.9014  2.0748  2.1639
 7913SOL     OW35197   4.547   0.321   7.068 -0.1006  0.5493  0.1310
 7913SOL    HW135198   4.643   0.314   7.062 -0.0986  0.9518 -0.3562
 7913SOL    HW235199   4.536   0.416   7.065 -2.6808  0.2187 -1.0848
 7914SOL     OW35200   2.291   4.647   6.050 -0.0824  0.0300 -0.0956
 7914SOL    HW135201   2.357   4.586   6.083 -0.9723 -1.5836 -1.3103
 7914SOL    HW235202   2.221   4.584   6.033  0.2398 -0.1345 -0.8135
 7915SOL     OW35203   1.844   3.705   5.891  0.5696  0.0296  0.7528
 7915SOL    HW135204   1.884   3.792   5.895  0.2808  0.2746 -1.4455
 7915SOL    HW235205   1.791   3.709   5.970 -3.4795 -1.9022 -1.8272
 7916SOL     OW35206   2.021   1.729   8.433  0.5534 -0.1904 -0.2040
 7916SOL    HW135207   1.928   1.705   8.438  0.4917  0.3350  1.2378
 7916SOL    HW235208   2.053   1.718   8.522  0.9617 -1.4706 -0.5100
 7917SOL     OW35209   2.588   1.600   9.630  0.2433 -0.3566  0.0181
 7917SOL    HW135210   2.668   1.580   9.581  0.6049 -0.7309  0.7591
 7917SOL    HW235211   2.601   1.695   9.623  2.8365 -0.8513 -2.0417
 7918SOL     OW35212   2.239   4.592   4.096 -0.2750 -0.4169  0.6830
 7918SOL    HW135213   2.333   4.603   4.080 -0.4060  1.3741  1.0514
 7918SOL    HW235214   2.201   4.598   4.008  0.6628  0.2450  0.3240
 7919SOL     OW35215   1.170   0.653  14.508  0.2965  0.1285  0.0294
 7919SOL    HW135216   1.097   0.604  14.546  1.2018 -1.5549 -0.3835
 7919SOL    HW235217   1.234   0.626  14.575  1.6803  0.7709 -1.0356
 7920SOL     OW35218   2.780   0.919  13.332  0.0077 -0.1362 -0.2962
 7920SOL    HW135219   2.864   0.874  13.343 -0.6889 -1.2172  0.6037
 7920SOL    HW235220   2.738   0.902  13.417 -1.7008 -0.7592 -1.2537
 7921SOL     OW35221   3.714   1.150  14.562  0.4602  0.6574  0.1996
 7921SOL    HW135222   3.744   1.073  14.513  2.4468  0.0334  2.4161
 7921SOL    HW235223   3.796   1.186  14.595  0.2609  1.3482 -0.0613
 7922SOL     OW35224   3.993   0.880  15.704 -0.0726  0.0465  0.1865
 7922SOL    HW135225   3.918   0.823  15.721 -0.5805  0.4723 -0.6128
 7922SOL    HW235226   3.976   0.940  15.776 -0.7082  2.0915 -1.6677
 7923SOL     OW35227   2.180   3.373   5.399 -0.5998 -0.2398 -0.2966
 7923SOL    HW135228   2.168   3.279   5.388 -0.5598  0.1219 -3.5606
 7923SOL    HW235229   2.089   3.395   5.421 -0.5105  0.2110 -0.3832
 7924SOL     OW35230   2.107   3.797  15.472 -0.1881 -0.8883  0.5811
 7924SOL    HW135231   2.061   3.719  15.442 -0.6344 -0.2405 -0.4223
 7924SOL    HW235232   2.069   3.866  15.418 -0.8032 -4.1702 -3.2063
 7925SOL     OW35233   1.267   2.275   5.719  1.0380 -0.1039 -0.3935
 7925SOL    HW135234   1.257   2.211   5.789  2.1366  0.5833  0.3830
 7925SOL    HW235235   1.223   2.351   5.756  2.8505  0.5157  0.4757
 7926SOL     OW35236   0.860   3.887   3.142  0.4131  0.1062  0.2602
 7926SOL    HW135237   0.902   3.818   3.092 -2.4481 -1.7573  0.4111
 7926SOL    HW235238   0.933   3.946   3.158  1.1260 -0.7057 -0.0520
 7927SOL     OW35239   2.747   4.602   3.701 -0.5115  0.2662  0.2528
 7927SOL    HW135240   2.654   4.613   3.683 -0.5077 -0.8980 -0.4669
 7927SOL    HW235241   2.778   4.583   3.613  1.9129 -0.6824  1.2964
 7928SOL     OW35242   3.688   0.019   3.082  0.4901  0.7222 -0.3419
 7928SOL    HW135243   3.738   4.662   3.074 -1.8550 -0.6550 -1.1137
 7928SOL    HW235244   3.595   4.721   3.091  0.9768 -1.0271  0.3163
 7929SOL     OW35245   4.065   4.722   6.418  0.1758 -0.0134 -0.0919
 7929SOL    HW135246   4.036   4.631   6.405 -0.6433  0.0105  1.5553
 7929SOL    HW235247   4.029   0.033   6.336  0.4210 -0.8709 -0.5767
 7930SOL     OW35248   0.159   3.422   8.053  0.1176  0.2097  0.2437
 7930SOL    HW135249   0.144   3.449   8.144  1.4079 -3.2549  1.4740
 7930SOL    HW235250   0.212   3.493   8.017  2.0386 -0.6115  1.4262
 7931SOL     OW35251   2.145   4.721   1.773 -0.3833  0.1249  0.5226
 7931SOL    HW135252   2.112   4.631   1.781  0.5150 -0.1618  0.9905
 7931SOL    HW235253   2.207   4.712   1.846  1.5911 -0.1273 -1.1878
 7932SOL     OW35254   0.034   3.163   5.630 -0.5179  0.2891 -0.0094
 7932SOL    HW135255   0.078   3.146   5.713 -1.1856 -1.8938 -0.0903
 7932SOL    HW235256   4.719   3.250   5.629  0.2893  0.6517 -0.3130
 7933SOL     OW35257   2.397   2.337  12.454 -0.2508  0.2351 -0.3168
 7933SOL    HW135258   2.366   2.376  12.535 -2.5072 -0.3298 -0.9216
 7933SOL    HW235259   2.355   2.392  12.389 -1.6186 -0.6443 -0.1948
 7934SOL     OW35260   4.159   0.288   8.098  0.5515 -0.0376  0.6386
 7934SOL    HW135261   4.123   0.327   8.018  0.6755 -0.7181  0.2544
 7934SOL    HW235262   4.084   0.250   8.145 -1.4391  1.4535 -1.3551
 7935SOL     OW35263   1.141   0.187   7.160 -0.7466 -0.1222  0.2178
 7935SOL    HW135264   1.112   0.176   7.069  0.6173 -0.3290 -0.1818
 7935SOL    HW235265   1.055   0.169   7.199 -0.7556  1.5284  0.9613
 7936SOL     OW35266   2.075   0.345   3.785  0.2500 -0.2403 -0.1636
 7936SOL    HW135267   2.008   0.330   3.851  0.6839  2.7048  0.9323
 7936SOL    HW235268   2.039   0.294   3.712  0.0562 -2.1902  1.2911
 7937SOL     OW35269   0.671   4.277   3.824 -0.2317  0.3843  0.3423
 7937SOL    HW135270   0.613   4.204   3.802 -0.2258  0.5644 -0.2638
 7937SOL    HW235271   0.755   4.232   3.831 -0.7406 -0.7442 -0.7559
 7938SOL     OW35272   1.816   1.144   1.304  0.0585 -0.0220 -0.3349
 7938SOL    HW135273   1.894   1.132   1.249  1.3557  0.0692  1.4946
 7938SOL    HW235274   1.749   1.094   1.256  1.0433  0.9684 -2.7118
 7939SOL     OW35275   1.046   1.607  15.391  0.5735 -0.3736  0.3746
 7939SOL    HW135276   0.971   1.564  15.349 -0.7853  2.0731  0.3112
 7939SOL    HW235277   1.055   1.680  15.330 -0.7518  0.3312  1.0338
 7940SOL     OW35278   4.651   2.485   3.245  0.9158 -0.4223  0.1445
 7940SOL    HW135279   4.665   2.521   3.333  0.4301 -0.9064  0.4196
 7940SOL    HW235280   0.007   2.437   3.225  1.4743 -0.0858  1.5655
 7941SOL     OW35281   0.686   4.583   7.628 -0.2113  0.1490  0.2678
 7941SOL    HW135282   0.663   4.669   7.663 -0.7870  0.7270 -1.5461
 7941SOL    HW235283   0.601   4.538   7.620 -0.6471  0.7514  1.4973
 7942SOL     OW35284   2.897   3.252   5.098 -0.0787  0.1183 -0.7056
 7942SOL    HW135285   2.826   3.254   5.034 -1.6742 -2.2478  0.9893
 7942SOL    HW235286   2.865   3.316   5.161  1.6607  1.6282 -1.3571
 7943SOL     OW35287   2.037   2.583  16.210 -0.0204 -0.4908  0.2783
 7943SOL    HW135288   2.124   2.583  16.169  0.9823 -0.5865  2.4131
 7943SOL    HW235289   2.037   2.678  16.224  0.5756 -0.2826 -1.0721
 7944SOL     OW35290   2.118   0.650  13.610  0.0479  0.4836  0.4717
 7944SOL    HW135291   2.154   0.582  13.554  1.6414  1.3784  0.4043
 7944SOL    HW235292   2.176   0.642  13.686 -1.8389  0.7473  1.9640
 7945SOL     OW35293   3.867   2.108   6.442  0.1185 -0.7071  0.4692
 7945SOL    HW135294   3.916   2.048   6.386 -0.8344 -1.6990  0.6959
 7945SOL    HW235295   3.879   2.192   6.398 -2.2620  0.2497  1.6713
 7946SOL     OW35296   1.596   2.244   6.171 -0.3743  0.4040 -0.5104
 7946SOL    HW135297   1.551   2.300   6.108 -3.7401 -0.4315  1.1477
 7946SOL    HW235298   1.607   2.167   6.116 -2.3170 -0.8009  0.7983
 7947SOL     OW35299   3.706   0.370   5.970  0.4051  0.3369 -0.0859
 7947SOL    HW135300   3.777   0.400   5.914 -0.2616  0.0654 -1.0797
 7947SOL    HW235301   3.643   0.442   5.967  0.2138  0.1358 -0.7715
 7948SOL     OW35302   3.989   4.311  14.492 -0.0919 -0.1469  0.5025
 7948SOL    HW135303   3.995   4.260  14.411 -0.9369  1.6464 -0.7022
 7948SOL    HW235304   4.001   4.404  14.472 -0.9605 -0.5017 -1.6258
 7949SOL     OW35305   1.793   2.266  12.453  0.4129 -0.4731 -0.7516
 7949SOL    HW135306   1.717   2.235  12.403 -1.1790 -1.4704  2.2986
 7949SOL    HW235307   1.866   2.277  12.392  2.6517 -1.1727  1.8374
 7950SOL     OW35308   2.506   1.339   3.967  0.1691  0.1243 -0.5445
 7950SOL    HW135309   2.486   1.256   3.924  0.2163  0.1971 -0.7050
 7950SOL    HW235310   2.478   1.315   4.055 -2.2697  0.1120 -1.3266
 7951SOL     OW35311   3.748   0.585   7.802 -0.5276  0.0862 -0.4786
 7951SOL    HW135312   3.679   0.643   7.767  0.9226  2.1624  0.1426
 7951SOL    HW235313   3.802   0.655   7.838 -0.3790 -0.4419  0.3082
 7952SOL     OW35314   3.230   3.192  16.780  0.1181  0.2805 -0.4552
 7952SOL    HW135315   3.140   3.217  16.803 -0.8212 -3.3739 -0.1675
 7952SOL    HW235316   3.254   3.130  16.848  0.7824 -1.2442 -2.0941
 7953SOL     OW35317   1.154   1.222  10.101  0.2239 -0.1529 -0.3478
 7953SOL    HW135318   1.230   1.165  10.097 -0.2364 -0.6710 -1.5085
 7953SOL    HW235319   1.191   1.310  10.107  0.6521 -0.2970 -0.8764
 7954SOL     OW35320   2.305   3.736   7.071 -0.0746  0.0786 -0.0649
 7954SOL    HW135321   2.333   3.777   7.153 -0.0731  0.1253 -0.0886
 7954SOL    HW235322   2.224   3.784   7.052 -1.4759 -2.2744 -0.0680
 7955SOL     OW35323   3.591   2.634   9.074 -0.0942 -0.3701  0.4652
 7955SOL    HW135324   3.577   2.718   9.118  1.3228 -0.7110  1.5639
 7955SOL    HW235325   3.555   2.570   9.135  0.4884  0.8161  2.0675
 7956SOL     OW35326   2.322   1.625   6.669  0.1517 -0.0614  0.7579
 7956SOL    HW135327   2.362   1.539   6.666 -1.5721 -0.8992  1.7043
 7956SOL    HW235328   2.372   1.670   6.737  0.1973 -0.1107  0.7562
 7957SOL     OW35329   3.203   1.611  10.529 -0.1929 -0.5793 -0.0557
 7957SOL    HW135330   3.145   1.583  10.599 -0.1956 -0.3822  0.0218
 7957SOL    HW235331   3.259   1.670  10.580 -1.0933  1.2999 -1.2248
 7958SOL     OW35332   2.198   4.439   6.400  0.1401 -0.1071  0.8298
 7958SOL    HW135333   2.292   4.422   6.396 -0.0232 -0.3490 -1.7758
 7958SOL    HW235334   2.163   4.390   6.326 -0.0831  2.2021 -0.6222
 7959SOL     OW35335   3.085   2.038  10.782  0.4798 -0.3696  0.1476
 7959SOL    HW135336   3.008   1.995  10.745 -0.5893  1.2321  0.5196
 7959SOL    HW235337   3.159   1.996  10.738  1.5113  0.8548  0.7020
 7960SOL     OW35338   1.044   3.793  16.447 -0.5490 -0.7612 -0.1507
 7960SOL    HW135339   1.018   3.726  16.384 -0.3341 -1.2600  0.2865
 7960SOL    HW235340   1.097   3.747  16.512 -0.6329  0.7459  1.0048
 7961SOL     OW35341   3.059   2.789   8.102 -0.8408  0.1159  0.0228
 7961SOL    HW135342   3.037   2.826   8.017  0.1180  2.3044  0.7514
 7961SOL    HW235343   3.019   2.702   8.092  1.2170 -0.7215 -1.0321
 7962SOL     OW35344   0.854   0.356   2.321 -0.7457 -0.5633 -0.0845
 7962SOL    HW135345   0.926   0.293   2.322 -0.9971 -0.8621 -1.4389
 7962SOL    HW235346   0.887   0.413   2.252  1.8599 -0.5839  1.1339
 7963SOL     OW35347   1.984   1.499   2.509 -0.3081 -0.4584 -0.1969
 7963SOL    HW135348   1.889   1.483   2.511 -0.6500  1.6677  0.8889
 7963SOL    HW235349   2.018   1.431   2.567 -1.5615 -1.2009 -0.3319
 7964SOL     OW35350   4.176   4.290  16.124  0.2847 -0.2324  0.1161
 7964SOL    HW135351   4.085   4.263  16.137  0.5001 -0.5419  1.0019
 7964SOL    HW235352   4.204   4.261  16.211 -0.4085  0.3123  0.5223
 7965SOL     OW35353   2.744   3.851   3.421 -0.0988  0.2439 -0.1533
 7965SOL    HW135354   2.718   3.905   3.346  0.2986 -0.7652 -1.0061
 7965SOL    HW235355   2.791   3.916   3.473 -1.2699 -0.3601  1.6646
 7966SOL     OW35356   0.965   3.447   5.784  0.5127  0.5883  0.2821
 7966SOL    HW135357   0.990   3.535   5.758  2.1928 -0.2487 -0.9036
 7966SOL    HW235358   1.049   3.401   5.783 -0.8208 -1.8730 -0.0894
 7967SOL     OW35359   3.769   3.519   8.955 -0.1293  0.6797 -0.1344
 7967SOL    HW135360   3.772   3.510   9.051 -3.5265 -0.4734 -0.1498
 7967SOL    HW235361   3.837   3.585   8.944  2.0844 -1.9327 -2.0668
 7968SOL     OW35362   3.031   0.357   2.816 -0.0461 -0.0255 -0.1017
 7968SOL    HW135363   2.976   0.307   2.755 -1.7552 -0.1478  1.5242
 7968SOL    HW235364   3.078   0.410   2.752 -0.6357 -0.5838 -0.9961
 7969SOL     OW35365   3.147   4.568   3.048  0.1246  0.0511 -0.2964
 7969SOL    HW135366   3.187   4.483   3.031  1.7169  0.7761 -0.1137
 7969SOL    HW235367   3.085   4.576   2.974 -0.2765  0.4863  0.0822
 7970SOL     OW35368   0.012   2.263  14.772  0.1970  0.1368  0.6669
 7970SOL    HW135369   0.065   2.193  14.733  2.9746  2.6132  0.0242
 7970SOL    HW235370   0.005   2.236  14.864  1.5422 -1.9346  0.1752
 7971SOL     OW35371   1.653   1.548   0.981 -0.1576  0.1212 -0.2481
 7971SOL    HW135372   1.692   1.634   0.965  1.0416 -1.0322 -3.6144
 7971SOL    HW235373   1.709   1.530   1.057  2.7339  2.7246 -1.7410
 7972SOL     OW35374   2.534   1.167  12.135 -0.3867  0.5907  0.3685
 7972SOL    HW135375   2.504   1.137  12.220 -1.8780  2.1081  0.3648
 7972SOL    HW235376   2.616   1.119  12.121 -1.0153 -0.2760 -0.3215
 7973SOL     OW35377   2.962   1.102   5.652  0.4797  0.4412 -0.3490
 7973SOL    HW135378   2.979   1.029   5.711  3.2378  1.9412  0.7024
 7973SOL    HW235379   3.038   1.101   5.595 -0.3781  1.0824 -1.5014
 7974SOL     OW35380   1.583   2.576   4.624 -0.0814 -0.3814  0.0044
 7974SOL    HW135381   1.639   2.638   4.577 -2.4330  0.5761 -1.5289
 7974SOL    HW235382   1.504   2.580   4.570  0.5394  2.6621 -0.6573
 7975SOL     OW35383   3.058   3.108   8.467 -0.0339 -0.5047 -0.1833
 7975SOL    HW135384   3.063   3.088   8.373 -2.0598 -0.2719 -0.3442
 7975SOL    HW235385   3.129   3.169   8.488  0.5341 -0.6722 -1.5607
 7976SOL     OW35386   2.452   1.610   2.005  0.5092  0.3449 -0.2245
 7976SOL    HW135387   2.366   1.640   1.974 -0.2157 -1.6948 -0.2024
 7976SOL    HW235388   2.512   1.639   1.936  2.0001  0.5731  1.1690
 7977SOL     OW35389   4.247   1.243   3.471 -0.0694  0.6208  0.2404
 7977SOL    HW135390   4.229   1.200   3.555  0.3636  1.6494  0.8648
 7977SOL    HW235391   4.321   1.293   3.508 -0.6025  0.4707  1.5176
 7978SOL     OW35392   0.004   0.574   4.046 -0.5730  0.0578  0.0736
 7978SOL    HW135393   4.660   0.513   4.019  0.3672 -1.5045  1.2496
 7978SOL    HW235394   4.686   0.629   4.111  0.4434  1.0416 -0.1029
 7979SOL     OW35395   3.262   3.611   6.383  0.3859  0.3637 -0.1816
 7979SOL    HW135396   3.215   3.668   6.443  0.1326 -0.0787  0.0454
 7979SOL    HW235397   3.228   3.526   6.413  0.0279  0.2657 -0.8544
 7980SOL     OW35398   4.177   0.211   2.174  0.5685 -0.2594 -0.8963
 7980SOL    HW135399   4.267   0.233   2.201 -0.1730  1.1982  0.3517
 7980SOL    HW235400   4.150   0.288   2.125 -1.2107 -0.5959 -0.4126
 7981SOL     OW35401   1.568   1.933   5.771 -0.2682 -0.7679 -0.3016
 7981SOL    HW135402   1.514   1.855   5.787 -0.0656 -0.7289  0.5561
 7981SOL    HW235403   1.566   1.980   5.854 -0.0854 -1.2552 -0.0179
 7982SOL     OW35404   0.368   0.296   3.614  0.4737  0.0399 -0.0564
 7982SOL    HW135405   0.410   0.216   3.582  0.9036  0.0729  0.4211
 7982SOL    HW235406   0.404   0.291   3.703  0.3145 -1.2683 -0.0712
 7983SOL     OW35407   1.796   4.518  15.527  0.2120 -0.0750 -0.1558
 7983SOL    HW135408   1.822   4.486  15.441 -0.6112  1.0875 -0.8287
 7983SOL    HW235409   1.751   4.442  15.563 -1.1890  2.4353  3.4043
 7984SOL     OW35410   4.638   4.390   4.956  0.1842  0.2868  0.1055
 7984SOL    HW135411   4.586   4.468   4.972  0.2529 -0.5227  4.1632
 7984SOL    HW235412   4.629   4.372   4.862  0.6495  1.1344 -0.0959
 7985SOL     OW35413   1.374   4.355   4.977  0.6126  0.7229 -0.2367
 7985SOL    HW135414   1.383   4.429   5.036 -1.3709  0.9034 -0.1516
 7985SOL    HW235415   1.461   4.352   4.936  0.6651 -0.1149 -0.0564
 7986SOL     OW35416   4.526   0.597  11.008  0.2960  0.1449  0.0104
 7986SOL    HW135417   4.462   0.655  11.049  2.4264  1.3768  1.5509
 7986SOL    HW235418   4.608   0.625  11.047 -0.2867  1.4896  0.2688
 7987SOL     OW35419   2.870   2.895   8.464  0.5417 -0.0766 -0.1458
 7987SOL    HW135420   2.843   2.900   8.556 -0.0356  0.4577 -0.3453
 7987SOL    HW235421   2.948   2.949   8.459 -0.7950  1.8548  0.0880
 7988SOL     OW35422   2.695   3.056   8.958  0.2365 -0.1561  0.2484
 7988SOL    HW135423   2.673   3.124   8.894 -0.4775 -1.2442 -0.6667
 7988SOL    HW235424   2.642   3.074   9.035 -1.2997  0.8650 -1.0214
 7989SOL     OW35425   0.779   1.529   7.771 -0.1803 -0.0855 -0.0931
 7989SOL    HW135426   0.781   1.435   7.789  1.5929 -0.0676 -0.2168
 7989SOL    HW235427   0.708   1.557   7.829  0.2019  0.5286  0.0768
 7990SOL     OW35428   0.991   4.720   9.127 -0.3410 -0.2055 -0.4137
 7990SOL    HW135429   1.033   4.684   9.049 -0.6644 -2.4497  0.4344
 7990SOL    HW235430   1.009   0.088   9.110  2.6357 -0.7000  0.0324
 7991SOL     OW35431   0.057   2.820   0.153 -0.6173  0.2339 -0.4908
 7991SOL    HW135432   0.046   2.898   0.207 -0.1578 -0.5399  0.7126
 7991SOL    HW235433   0.044   2.857   0.066  0.6982 -0.1521 -0.8606
 7992SOL     OW35434   2.854   4.008  13.709 -0.3641  0.3064 -0.0003
 7992SOL    HW135435   2.852   3.978  13.800 -0.0856  3.5951  1.1219
 7992SOL    HW235436   2.764   4.033  13.687 -1.2105 -1.3259  1.6324
 7993SOL     OW35437   0.220   1.948  10.164  0.0105  0.2012 -0.7251
 7993SOL    HW135438   0.172   1.865  10.164 -1.8144  1.2658  0.9777
 7993SOL    HW235439   0.152   2.012  10.185  1.0070  0.9120  0.2951
 7994SOL     OW35440   3.227   3.921   2.700 -0.2284  0.2879  0.2151
 7994SOL    HW135441   3.247   3.876   2.618 -1.9017 -0.9640  0.5007
 7994SOL    HW235442   3.297   3.894   2.760 -0.6941  1.6227  1.3819
 7995SOL     OW35443   1.963   2.648   4.036 -0.0393  0.1125  0.1807
 7995SOL    HW135444   1.929   2.655   3.947 -2.0765 -0.1170  0.9365
 7995SOL    HW235445   1.889   2.657   4.096  0.6610  1.2935  0.8648
 7996SOL     OW35446   1.794   1.102   0.152  0.2791 -0.1520 -0.4234
 7996SOL    HW135447   1.717   1.159   0.155  0.9023  0.6048  1.2809
 7996SOL    HW235448   1.755   1.033   0.098 -2.0280  0.7399  0.0759
 7997SOL     OW35449   3.675   4.695   7.105  0.2831  0.3228  0.1713
 7997SOL    HW135450   3.629   4.646   7.037 -1.4107  1.5537  0.4193
 7997SOL    HW235451   3.669   4.630   7.175  1.0656  0.1117  0.0434
 7998SOL     OW35452   0.878   1.342   3.678 -0.3463  0.1130  0.0535
 7998SOL    HW135453   0.836   1.278   3.735  2.7919 -0.6449  1.5437
 7998SOL    HW235454   0.896   1.404   3.750  1.4184  0.0231 -0.2971
 7999SOL     OW35455   3.535   4.671   5.032 -0.3755 -0.0244 -0.7387
 7999SOL    HW135456   3.439   4.673   5.037 -0.4055  0.8990 -1.6863
 7999SOL    HW235457   3.552   0.039   5.048 -1.4634 -0.2864  1.9394
 8000SOL     OW35458   1.977   0.699   2.103  0.4003 -0.5389  0.2880
 8000SOL    HW135459   1.885   0.718   2.123 -0.4036 -1.8637 -2.1269
 8000SOL    HW235460   2.018   0.769   2.153  3.3145 -0.4248 -2.2904
 8001SOL     OW35461   3.942   3.555   8.599 -0.0177  0.0222  0.2244
 8001SOL    HW135462   3.987   3.486   8.647 -0.9028 -0.1764  0.7663
 8001SOL    HW235463   3.880   3.509   8.542  0.3273 -2.2492  1.6723
 8002SOL     OW35464   2.213   0.823   7.702 -0.5331 -0.4549  0.3829
 8002SOL    HW135465   2.122   0.794   7.711 -0.8930  0.7070  0.4226
 8002SOL    HW235466   2.189   0.901   7.653  1.6838 -0.1961 -0.2976
 8003SOL     OW35467   0.287   1.877   6.874  0.5908 -0.3230  0.3364
 8003SOL    HW135468   0.313   1.834   6.955 -1.9258 -1.2641  0.6638
 8003SOL    HW235469   0.298   1.808   6.808 -1.2758  0.0981 -0.4278
 8004SOL     OW35470   0.477   3.024  10.820  0.9146 -0.0814 -0.0636
 8004SOL    HW135471   0.460   3.032  10.727  1.0942  1.8156  0.0787
 8004SOL    HW235472   0.571   3.015  10.829  1.0420  1.4920  0.1178
 8005SOL     OW35473   3.992   3.316   3.728 -0.6792  0.6732 -0.9217
 8005SOL    HW135474   4.081   3.333   3.759 -0.2917 -0.8303 -1.2563
 8005SOL    HW235475   3.944   3.317   3.811 -0.4622 -0.9202 -0.7886
 8006SOL     OW35476   1.645   0.588   6.620 -0.2106 -0.7354 -0.0214
 8006SOL    HW135477   1.573   0.584   6.683  0.9914 -3.2820  1.2142
 8006SOL    HW235478   1.713   0.640   6.662 -0.9733 -0.6061  1.0514
 8007SOL     OW35479   2.949   4.300   0.525  0.8171 -0.1607 -0.5278
 8007SOL    HW135480   2.945   4.209   0.552 -1.7217 -0.0428 -0.5500
 8007SOL    HW235481   2.858   4.327   0.539  0.4224 -0.5083 -2.3864
 8008SOL     OW35482   1.529   3.015  17.185 -0.3162  0.2134 -0.2659
 8008SOL    HW135483   1.605   2.956  17.188 -0.3749  0.2454  1.5425
 8008SOL    HW235484   1.461   2.949  17.171 -0.4026  0.3606 -0.5350
 8009SOL     OW35485   0.598   3.275   6.604 -0.2150 -0.1814  0.5385
 8009SOL    HW135486   0.537   3.346   6.627  1.2073  1.3206 -0.3422
 8009SOL    HW235487   0.602   3.233   6.690  3.7554 -0.1254  0.3672
 8010SOL     OW35488   2.801   0.408   3.977  0.3317  0.3414 -0.3512
 8010SOL    HW135489   2.737   0.390   3.908 -0.0768  0.1536  0.0724
 8010SOL    HW235490   2.878   0.365   3.939  0.6419 -0.3396  1.0570
 8011SOL     OW35491   2.178   2.443   4.937 -0.0408  0.0175 -0.1983
 8011SOL    HW135492   2.108   2.487   4.985  0.0837 -1.5527  1.3930
 8011SOL    HW235493   2.243   2.437   5.007 -0.5792  1.1951  0.4105
 8012SOL     OW35494   1.485   0.221   2.171 -0.3450  0.3088 -0.0128
 8012SOL    HW135495   1.463   0.148   2.229  1.4878  0.1544  0.5064
 8012SOL    HW235496   1.493   0.183   2.083  0.2720 -0.3266  0.3097
 8013SOL     OW35497   1.854   2.784   4.429 -0.2207  0.0805 -0.3287
 8013SOL    HW135498   1.805   2.777   4.347 -0.8012  0.5268 -0.0245
 8013SOL    HW235499   1.871   2.693   4.450  0.8710  0.4734  0.4395
 8014SOL     OW35500   0.724   1.674   0.615  0.9913 -0.4477 -0.3872
 8014SOL    HW135501   0.710   1.662   0.521  0.8910  4.3641 -0.9818
 8014SOL    HW235502   0.749   1.766   0.623  0.5548 -0.1683 -2.1960
 8015SOL     OW35503   3.293   2.112  16.519  0.0058 -0.0185  0.3859
 8015SOL    HW135504   3.275   2.029  16.563 -0.3562 -0.7738 -1.1884
 8015SOL    HW235505   3.370   2.095  16.464  1.0177  1.6974  1.2575
 8016SOL     OW35506   2.611   0.316  14.783 -0.0607  0.3065 -0.1822
 8016SOL    HW135507   2.640   0.252  14.717  0.1299  0.5331 -0.3190
 8016SOL    HW235508   2.562   0.257  14.840  0.9505 -0.7078 -0.3488
 8017SOL     OW35509   3.819   3.454   6.624  0.4117  0.6285 -0.3522
 8017SOL    HW135510   3.882   3.383   6.612  1.1945  0.9957  1.6249
 8017SOL    HW235511   3.875   3.513   6.675 -0.1232  0.6556  0.2040
 8018SOL     OW35512   2.353   3.645   9.526 -0.1182  0.4247  0.1344
 8018SOL    HW135513   2.284   3.647   9.459  1.0982  0.7020 -1.1256
 8018SOL    HW235514   2.362   3.738   9.548 -0.8953  0.2742  1.0642
 8019SOL     OW35515   3.083   0.472   5.532 -0.4886 -0.5515  0.6410
 8019SOL    HW135516   3.170   0.484   5.493 -0.2654 -0.5078  1.1559
 8019SOL    HW235517   3.115   0.415   5.602  0.9025 -0.9042 -0.2803
 8020SOL     OW35518   2.881   0.584   2.598 -0.0497  0.2211  0.1867
 8020SOL    HW135519   2.971   0.560   2.617 -0.2455  1.2953  2.4577
 8020SOL    HW235520   2.881   0.637   2.518 -0.5312  1.2093  0.8458
 8021SOL     OW35521   2.870   3.044  15.243 -0.2914  0.0652 -0.7034
 8021SOL    HW135522   2.921   3.093  15.178  0.3659 -0.5206 -0.6287
 8021SOL    HW235523   2.941   2.991  15.279 -0.0805  2.6221  2.7478
 8022SOL     OW35524   4.089   2.055  13.437 -0.3046 -0.2556  0.1538
 8022SOL    HW135525   4.128   2.117  13.376 -1.4619  1.6176  1.3127
 8022SOL    HW235526   3.995   2.053  13.417 -0.6321 -3.4805  2.0747
 8023SOL     OW35527   0.463   0.418   6.073  0.7963  0.0456  0.1174
 8023SOL    HW135528   0.453   0.449   6.163  1.7788  2.0372 -0.4651
 8023SOL    HW235529   0.419   0.485   6.020 -0.6718  0.4090  1.8187
 8024SOL     OW35530   4.479   1.390   3.542  0.0619 -0.3051 -0.3053
 8024SOL    HW135531   4.559   1.337   3.534 -0.0034 -0.2845 -1.1362
 8024SOL    HW235532   4.473   1.438   3.460  0.2926 -1.6332 -1.1065
 8025SOL     OW35533   0.126   0.672   9.202  0.1092 -0.3345 -0.2879
 8025SOL    HW135534   0.133   0.729   9.125 -0.0890 -0.2809 -0.2668
 8025SOL    HW235535   0.109   0.731   9.276  1.0265  0.0869 -0.4097
 8026SOL     OW35536   3.800   4.196  11.405  0.7871  0.1358  0.3396
 8026SOL    HW135537   3.710   4.227  11.415  0.6901 -0.4426  1.2776
 8026SOL    HW235538   3.804   4.202  11.310 -2.1753 -1.0607  0.1405
 8027SOL     OW35539   1.200   4.298  10.801  0.1184 -0.1153  0.0285
 8027SOL    HW135540   1.193   4.218  10.854 -2.9791 -1.1763 -1.9838
 8027SOL    HW235541   1.296   4.309  10.801 -0.0092  0.9997  0.7032
 8028SOL     OW35542   3.504   3.178   6.660  0.2383 -0.5474  0.4762
 8028SOL    HW135543   3.450   3.255   6.645  1.1932 -0.0038 -0.1809
 8028SOL    HW235544   3.566   3.210   6.725 -0.6053  3.6833 -0.8544
 8029SOL     OW35545   3.761   4.033   4.761 -0.1411 -0.3327  0.6329
 8029SOL    HW135546   3.704   4.050   4.686  1.0526 -0.5840 -0.3388
 8029SOL    HW235547   3.696   4.010   4.826 -0.1260 -1.4268  0.2561
 8030SOL     OW35548   3.880   1.983   7.080  0.3682 -0.3542 -0.4224
 8030SOL    HW135549   3.846   2.070   7.101  0.9161 -0.7067  1.8300
 8030SOL    HW235550   3.800   1.941   7.047  0.9616 -1.0338 -1.0013
 8031SOL     OW35551   3.481   4.055  11.543 -0.2684 -0.4720 -0.1055
 8031SOL    HW135552   3.479   4.116  11.470 -2.2437 -0.4684 -0.0520
 8031SOL    HW235553   3.389   4.040  11.564  0.2891 -1.4728  1.6146
 8032SOL     OW35554   0.386   0.593   4.436 -0.2023  0.2188  0.7326
 8032SOL    HW135555   0.341   0.678   4.437 -0.2168  0.1925  2.3652
 8032SOL    HW235556   0.326   0.543   4.490  0.8109  2.0199  3.4979
 8033SOL     OW35557   0.280   3.669   4.877 -0.4023 -0.0705 -0.4796
 8033SOL    HW135558   0.219   3.727   4.833 -0.5523  0.4616  0.4465
 8033SOL    HW235559   0.295   3.705   4.964  1.0061  0.0969 -0.7870
 8034SOL     OW35560   1.292   3.609  13.104  0.0130 -0.1228 -0.0906
 8034SOL    HW135561   1.360   3.665  13.067  1.4035 -1.5328  0.3227
 8034SOL    HW235562   1.216   3.656  13.070  0.2068  0.0266 -0.3154
 8035SOL     OW35563   0.937   4.100   3.868 -0.3604 -0.4770 -0.2047
 8035SOL    HW135564   0.885   4.058   3.799 -0.0737 -0.3373 -0.5066
 8035SOL    HW235565   0.976   4.026   3.914  0.0167  0.0672  0.3544
 8036SOL     OW35566   1.075   2.734   7.927  0.4451  0.2032 -0.6710
 8036SOL    HW135567   1.099   2.663   7.867  2.0696 -0.2234  0.4656
 8036SOL    HW235568   1.032   2.677   7.990 -2.6686 -0.2582 -3.2004
 8037SOL     OW35569   2.641   1.285   4.463  0.1712 -0.0106 -0.4234
 8037SOL    HW135570   2.624   1.379   4.462 -0.4774 -0.1075  1.2959
 8037SOL    HW235571   2.612   1.272   4.553 -0.2870 -1.8668 -0.8435
 8038SOL     OW35572   1.052   1.426  10.277 -0.2147 -0.4642  0.4001
 8038SOL    HW135573   1.122   1.471  10.231 -0.5350  1.2756  1.6211
 8038SOL    HW235574   1.046   1.339  10.238 -0.1431 -0.5057  0.4825
 8039SOL     OW35575   4.519   3.039   5.403  0.0587  0.2560 -0.1358
 8039SOL    HW135576   4.461   3.103   5.443  0.5110 -0.9132  2.3848
 8039SOL    HW235577   4.604   3.085   5.404  0.2167 -0.0335 -0.2984
 8040SOL     OW35578   0.946   1.275  17.624 -0.5341 -0.0903  0.3445
 8040SOL    HW135579   0.870   1.250  17.571 -0.7060  0.4638  0.3317
 8040SOL    HW235580   0.900   1.303   0.004  2.5422  0.2115  1.9937
 8041SOL     OW35581   1.045   3.307   3.923 -0.0101  0.1223 -0.1594
 8041SOL    HW135582   1.096   3.262   3.991 -3.2420 -2.1133  0.7834
 8041SOL    HW235583   1.030   3.234   3.863 -0.7169  1.8689 -2.1089
 8042SOL     OW35584   3.667   2.179   3.376 -0.0409 -0.0496 -0.2822
 8042SOL    HW135585   3.732   2.236   3.417  0.6472 -0.7291 -0.4061
 8042SOL    HW235586   3.688   2.097   3.421  0.2634  0.2716  0.1616
 8043SOL     OW35587   3.809   0.872   9.368 -0.8222 -0.5541 -0.4007
 8043SOL    HW135588   3.870   0.808   9.403 -0.3447  0.6354  0.9493
 8043SOL    HW235589   3.760   0.899   9.446  0.8748  0.2583  0.3802
 8044SOL     OW35590   0.554   1.775   4.247  0.2514  0.0227  0.0882
 8044SOL    HW135591   0.561   1.699   4.189  0.1002 -0.3797  0.6022
 8044SOL    HW235592   0.530   1.840   4.180 -2.2088 -0.2822  0.6844
 8045SOL     OW35593   1.533   0.488   7.293 -0.4550  0.1245 -1.1047
 8045SOL    HW135594   1.615   0.517   7.333 -1.0548  0.0715  0.1549
 8045SOL    HW235595   1.559   0.418   7.234 -2.3526 -1.0916 -0.4668
 8046SOL     OW35596   2.457   3.354   3.766  0.0338 -0.4785  0.1649
 8046SOL    HW135597   2.491   3.423   3.708  0.0631 -1.4683 -0.9979
 8046SOL    HW235598   2.373   3.390   3.793 -0.1935 -0.4829 -0.5206
 8047SOL     OW35599   0.147   3.382   7.069 -0.0099  0.2667 -0.0007
 8047SOL    HW135600   0.063   3.410   7.106  0.6527 -0.4730  2.0140
 8047SOL    HW235601   0.208   3.385   7.142  1.2458  1.2233 -1.0861
 8048SOL     OW35602   2.233   3.699  13.633  0.1603  0.2128  0.6701
 8048SOL    HW135603   2.320   3.678  13.666  0.4799  0.0232 -0.2993
 8048SOL    HW235604   2.246   3.793  13.639 -1.3833  0.4025  0.9642
 8049SOL     OW35605   3.529   3.192   2.405 -0.2925  0.1263  0.3067
 8049SOL    HW135606   3.522   3.119   2.344  1.3056 -0.6049  0.9970
 8049SOL    HW235607   3.562   3.159   2.489 -2.9649  0.4499  1.4620
 8050SOL     OW35608   0.456   3.818  13.891  0.2507  0.2385 -0.2757
 8050SOL    HW135609   0.376   3.870  13.896 -0.1220 -0.2498 -1.1019
 8050SOL    HW235610   0.468   3.823  13.796 -0.4730  2.4429 -0.2418
 8051SOL     OW35611   0.591   2.987   7.554 -0.0411 -0.2847 -0.1655
 8051SOL    HW135612   0.564   2.911   7.605  0.1060 -0.5201 -0.4388
 8051SOL    HW235613   0.686   2.984   7.566 -0.0081 -0.7019 -0.5250
 8052SOL     OW35614   0.772   1.701  11.274 -0.1798  0.3060 -0.2171
 8052SOL    HW135615   0.743   1.610  11.265 -0.2307  0.3229 -0.2269
 8052SOL    HW235616   0.865   1.690  11.293  0.1097  4.0634  0.4200
 8053SOL     OW35617   4.610   1.561  13.757 -0.3645  0.2460 -0.0615
 8053SOL    HW135618   4.618   1.634  13.818  0.5528 -0.0681  0.2015
 8053SOL    HW235619   4.545   1.596  13.696  0.4743  0.9187 -0.5673
 8054SOL     OW35620   2.065   1.561  13.490  0.4652  0.2252  0.0935
 8054SOL    HW135621   2.127   1.622  13.450 -1.7079  1.5073 -1.3119
 8054SOL    HW235622   2.133   1.514  13.538  0.2922  0.6505  0.7438
 8055SOL     OW35623   3.108   2.560   0.785 -0.2887 -0.4012 -0.1789
 8055SOL    HW135624   3.109   2.652   0.758 -0.5748 -0.2417  0.3495
 8055SOL    HW235625   3.089   2.514   0.703 -0.8569 -0.3128 -0.0948
 8056SOL     OW35626   0.319   2.484   6.300 -0.2036 -0.4910 -0.0101
 8056SOL    HW135627   0.263   2.540   6.247 -0.7450 -2.7832 -1.8458
 8056SOL    HW235628   0.383   2.454   6.236 -0.0040 -2.0520  0.9286
 8057SOL     OW35629   1.095   2.223   4.241 -0.7157  0.3661 -0.5120
 8057SOL    HW135630   1.160   2.163   4.277 -1.0348  0.5299  0.3385
 8057SOL    HW235631   1.083   2.193   4.151  3.1780 -0.9627 -0.6002
 8058SOL     OW35632   1.098   3.265   7.490 -0.0371  0.4203 -0.7866
 8058SOL    HW135633   1.170   3.209   7.461  0.6519 -0.5362  2.7925
 8058SOL    HW235634   1.090   3.324   7.415  1.8662 -2.5240 -3.2783
 8059SOL     OW35635   2.450   1.384   6.659 -0.6756 -0.4626  0.2175
 8059SOL    HW135636   2.496   1.319   6.606  1.3281  1.6521 -0.6647
 8059SOL    HW235637   2.438   1.333   6.739 -0.6069 -0.9716 -0.0927
 8060SOL     OW35638   3.082   2.719  13.161  0.1068 -0.4475 -0.3427
 8060SOL    HW135639   3.038   2.795  13.123  0.5360  0.0035  0.0678
 8060SOL    HW235640   3.010   2.690  13.218  0.0272  2.3711  1.0297
 8061SOL     OW35641   1.278   1.332   3.676 -0.2618 -0.2123 -0.6082
 8061SOL    HW135642   1.264   1.288   3.592  0.9688  0.1503 -1.0045
 8061SOL    HW235643   1.324   1.263   3.725  0.8270  0.1950 -1.0468
 8062SOL     OW35644   0.069   4.104   6.411  0.0990  0.1423 -0.3088
 8062SOL    HW135645   0.036   4.105   6.321 -0.8613  0.9565  0.0529
 8062SOL    HW235646   0.099   4.014   6.419 -0.6278 -0.0213  0.6028
 8063SOL     OW35647   4.226   3.991  13.795  0.6913 -0.0332 -0.5509
 8063SOL    HW135648   4.301   3.978  13.737  0.9245 -1.5858  0.0788
 8063SOL    HW235649   4.202   4.083  13.786 -0.9819 -0.3783  0.4687
 8064SOL     OW35650   2.642   3.743   7.257 -0.1911  0.2216  0.1158
 8064SOL    HW135651   2.613   3.819   7.206 -0.4981 -0.8318 -1.2947
 8064SOL    HW235652   2.658   3.683   7.184 -1.9762  0.2744 -0.3040
 8065SOL     OW35653   2.056   4.374   5.471 -0.1800  0.1520 -0.4081
 8065SOL    HW135654   2.061   4.439   5.542  1.1375 -0.8713  0.4209
 8065SOL    HW235655   1.973   4.334   5.495  0.4315 -0.7991  0.0950
 8066SOL     OW35656   2.328   2.669  11.394  0.0825  0.5653  0.7089
 8066SOL    HW135657   2.327   2.670  11.490  0.3740  0.9075  0.7097
 8066SOL    HW235658   2.421   2.689  11.383  0.0566  0.5043  0.3823
 8067SOL     OW35659   1.728   0.364  11.857 -0.1987  0.0475 -0.3803
 8067SOL    HW135660   1.771   0.287  11.895  2.0902  0.9629 -1.0915
 8067SOL    HW235661   1.773   0.371  11.773  1.3337 -1.7080  0.2960
 8068SOL     OW35662   3.245   4.204   2.703 -0.2451 -0.1353 -0.1227
 8068SOL    HW135663   3.195   4.226   2.625  0.5156  1.9115 -0.0519
 8068SOL    HW235664   3.226   4.110   2.705 -0.0812 -0.1924 -1.1145
 8069SOL     OW35665   1.681   0.728   9.759 -0.2508  0.4042  0.3153
 8069SOL    HW135666   1.652   0.753   9.847  0.5684 -0.0706  0.7213
 8069SOL    HW235667   1.633   0.646   9.757  1.0091 -0.3258  0.0753
 8070SOL     OW35668   2.487   3.430   1.708  0.0148  0.1802 -0.5036
 8070SOL    HW135669   2.571   3.473   1.695  0.9737 -1.3277  0.6634
 8070SOL    HW235670   2.443   3.499   1.757 -0.2931 -0.3278 -0.0592
 8071SOL     OW35671   1.196   0.612   2.023 -0.2629  0.3711 -0.3081
 8071SOL    HW135672   1.199   0.535   1.965 -0.3582  0.6431 -0.6767
 8071SOL    HW235673   1.155   0.672   1.961  2.9181  1.5621 -1.3031
 8072SOL     OW35674   4.210   3.439  12.952  0.1634 -0.1924 -0.2682
 8072SOL    HW135675   4.269   3.364  12.958 -1.9287 -1.8554 -0.2917
 8072SOL    HW235676   4.268   3.508  12.983  1.0835 -1.5076  0.9726
 8073SOL     OW35677   2.750   3.788   8.765  0.3926  0.1873  0.1100
 8073SOL    HW135678   2.844   3.799   8.782  0.5016 -2.5580  1.2242
 8073SOL    HW235679   2.746   3.868   8.713  2.5057 -0.0400 -0.4046
 8074SOL     OW35680   1.185   4.482  13.315  0.1892  0.3121  0.4103
 8074SOL    HW135681   1.274   4.501  13.347  1.4026 -0.9668 -2.1584
 8074SOL    HW235682   1.188   4.393  13.351  0.1827  0.0480 -0.2321
 8075SOL     OW35683   2.318   3.430  13.196 -0.3429 -0.2664  0.0188
 8075SOL    HW135684   2.321   3.515  13.240 -1.6521  0.8854 -2.1326
 8075SOL    HW235685   2.247   3.386  13.244 -0.1545 -1.8983 -1.1841
 8076SOL     OW35686   4.297   3.836   2.694 -0.3747 -0.6753 -0.2225
 8076SOL    HW135687   4.279   3.816   2.786 -0.8110 -0.5448 -0.2772
 8076SOL    HW235688   4.350   3.916   2.691 -0.6306 -0.5109 -0.3615
 8077SOL     OW35689   1.030   3.763   4.365  0.0668  0.0634 -0.3480
 8077SOL    HW135690   1.100   3.779   4.429 -1.4121  0.3643  1.2032
 8077SOL    HW235691   0.954   3.786   4.418 -0.2604 -1.0681 -0.3249
 8078SOL     OW35692   4.679   1.337  14.187 -0.0324  0.1543  0.2460
 8078SOL    HW135693   4.651   1.389  14.262 -1.9073  3.1558 -2.5266
 8078SOL    HW235694   0.011   1.406  14.151 -0.0789  0.9282  1.6663
 8079SOL     OW35695   0.896   1.778   1.038 -0.0874  0.2560 -0.3271
 8079SOL    HW135696   0.981   1.751   1.003 -1.1223 -1.7086 -1.3372
 8079SOL    HW235697   0.862   1.694   1.069 -2.8771  0.6207 -2.3727
 8080SOL     OW35698   1.411   4.494   2.458  0.4979 -0.2326 -0.5500
 8080SOL    HW135699   1.337   4.469   2.402 -1.0172  1.2872  0.7748
 8080SOL    HW235700   1.479   4.427   2.453 -0.0195 -0.8895  1.7000
 8081SOL     OW35701   4.639   2.780   5.941 -0.0399 -0.0542 -0.0515
 8081SOL    HW135702   4.553   2.744   5.965  0.1729 -1.6769 -1.6752
 8081SOL    HW235703   4.632   2.787   5.846  0.5583  2.2928  0.0974
 8082SOL     OW35704   3.679   1.687   2.062 -0.1851 -0.0658  0.0930
 8082SOL    HW135705   3.649   1.701   1.972 -0.0118 -1.2701 -0.1574
 8082SOL    HW235706   3.598   1.706   2.110  0.1424 -1.9600  1.3911
 8083SOL     OW35707   0.460   3.970   4.628 -0.6426 -0.1734  0.0126
 8083SOL    HW135708   0.492   3.988   4.716 -2.3250  0.6306  0.4581
 8083SOL    HW235709   0.382   4.026   4.634 -0.7784 -0.5717  1.9355
 8084SOL     OW35710   1.585   2.272   7.017  0.0458 -0.2099 -0.4534
 8084SOL    HW135711   1.615   2.190   7.057 -1.9337 -0.3587  0.7244
 8084SOL    HW235712   1.664   2.324   7.030 -0.0065  0.0896 -1.3719
 8085SOL     OW35713   4.178   3.628   8.107 -0.2904  0.1448  0.5024
 8085SOL    HW135714   4.257   3.681   8.109  0.0869 -0.3749 -0.4084
 8085SOL    HW235715   4.196   3.586   8.191  0.5669 -3.1642 -1.3391
 8086SOL     OW35716   2.123   3.176   9.706 -0.3906 -0.5745  0.0006
 8086SOL    HW135717   2.051   3.132   9.751  0.8850 -1.6161  1.0188
 8086SOL    HW235718   2.069   3.221   9.641  0.1325 -0.0713 -0.0846
 8087SOL     OW35719   2.004   0.617   4.313 -0.1216  0.3356  0.4504
 8087SOL    HW135720   2.015   0.585   4.224 -1.6066 -2.9619  1.4280
 8087SOL    HW235721   2.089   0.649   4.342  0.3096 -0.7257  0.3707
 8088SOL     OW35722   2.405   0.728   2.286 -0.0523  0.3233 -0.2733
 8088SOL    HW135723   2.370   0.769   2.207 -0.5133  2.4997  1.0620
 8088SOL    HW235724   2.491   0.706   2.249  1.6064  2.5013  2.2897
 8089SOL     OW35725   1.000   2.165   1.992  0.0184 -0.1888  0.1787
 8089SOL    HW135726   1.079   2.218   2.003 -0.2387  0.4528 -1.0153
 8089SOL    HW235727   1.034   2.076   1.999 -0.2200 -0.4840 -2.4504
 8090SOL     OW35728   3.611   0.218   8.080 -0.2554 -0.2824 -0.5561
 8090SOL    HW135729   3.694   0.264   8.067  0.7755 -1.4631  1.8460
 8090SOL    HW235730   3.633   0.145   8.021  2.1086 -0.8881  1.0673
 8091SOL     OW35731   1.058   3.835  12.198  0.6922  0.1137  0.3132
 8091SOL    HW135732   1.079   3.837  12.291  0.3066  0.4260  0.3917
 8091SOL    HW235733   0.999   3.760  12.197 -1.7309  2.0114  0.4346
 8092SOL     OW35734   1.870   3.413  10.657 -0.0377  0.2701 -0.1188
 8092SOL    HW135735   1.786   3.398  10.701  0.1948  0.9511  0.5558
 8092SOL    HW235736   1.846   3.501  10.629  2.0569  0.7946 -0.2383
 8093SOL     OW35737   2.691   3.927   7.985  0.0536 -0.3714 -0.6267
 8093SOL    HW135738   2.716   3.912   8.077  0.3062  1.1116 -0.4503
 8093SOL    HW235739   2.610   3.963   8.022  0.0444 -0.8548 -0.1758
 8094SOL     OW35740   2.320   0.900  13.251  0.6955  0.3131  0.1823
 8094SOL    HW135741   2.410   0.891  13.220  0.3569  0.1105 -0.7467
 8094SOL    HW235742   2.310   0.815  13.295  1.1970 -0.6560 -1.6090
 8095SOL     OW35743   2.434   1.293   4.746  0.7448 -0.0575  0.1522
 8095SOL    HW135744   2.513   1.251   4.781 -1.2982 -2.3698  1.9115
 8095SOL    HW235745   2.464   1.383   4.762  1.5597 -0.0570 -1.3508
 8096SOL     OW35746   3.273   0.451   0.232  0.0911 -0.2343  0.0441
 8096SOL    HW135747   3.337   0.451   0.160 -0.5618  1.0139 -0.5412
 8096SOL    HW235748   3.305   0.524   0.285  3.4127 -1.3432 -0.4257
 8097SOL     OW35749   1.582   0.808   7.108  0.4935 -0.1410  0.0205
 8097SOL    HW135750   1.617   0.723   7.081 -0.3440  0.0797 -1.7900
 8097SOL    HW235751   1.506   0.790   7.163  1.8629 -2.0263  1.2669
 8098SOL     OW35752   2.247   1.860  16.078 -0.1065 -0.3691 -0.3294
 8098SOL    HW135753   2.300   1.909  16.141 -0.1338  0.7866 -1.2113
 8098SOL    HW235754   2.192   1.801  16.130 -0.3505 -1.1130 -1.4328
 8099SOL     OW35755   2.805   3.724   7.825  0.3725 -0.1369  0.3118
 8099SOL    HW135756   2.734   3.786   7.844  0.8042 -0.2596  2.2704
 8099SOL    HW235757   2.881   3.778   7.847 -0.3142  0.4960  1.1355
 8100SOL     OW35758   1.577   2.206  11.316  0.3989 -0.1661 -0.6466
 8100SOL    HW135759   1.624   2.255  11.249  2.7669 -2.6945 -0.8272
 8100SOL    HW235760   1.631   2.205  11.395 -1.3994 -2.2950  0.5788
 8101SOL     OW35761   2.472   2.577   9.880 -0.1368  0.7957 -0.2464
 8101SOL    HW135762   2.434   2.500   9.838 -1.0967  0.4724  1.1905
 8101SOL    HW235763   2.566   2.562   9.887 -0.2106  0.0352 -1.0044
 8102SOL     OW35764   1.383   3.785   2.784  0.5180 -0.4435 -0.5976
 8102SOL    HW135765   1.343   3.814   2.866 -0.9471 -1.2683 -1.0172
 8102SOL    HW235766   1.411   3.867   2.743 -1.6279  0.1068 -0.9467
 8103SOL     OW35767   0.611   2.100   8.342 -0.0853  0.4834  0.1114
 8103SOL    HW135768   0.550   2.049   8.394  0.5648  1.0915  1.4633
 8103SOL    HW235769   0.547   2.168   8.320  0.3033  1.0660  0.7987
 8104SOL     OW35770   3.642   0.710   0.181  0.3561 -0.1077  0.2812
 8104SOL    HW135771   3.734   0.689   0.165 -0.2026  0.4922 -3.7520
 8104SOL    HW235772   3.641   0.805   0.186  2.9914 -0.0100 -1.0179
 8105SOL     OW35773   0.858   1.261   7.859 -0.0841  0.3954  0.1235
 8105SOL    HW135774   0.817   1.175   7.855 -0.9901  0.8672 -0.8353
 8105SOL    HW235775   0.924   1.244   7.925  0.2170  2.0237  0.2411
 8106SOL     OW35776   0.321   4.213  13.055 -0.0905 -0.1723 -0.0590
 8106SOL    HW135777   0.293   4.299  13.026 -1.5552 -0.9624 -0.9627
 8106SOL    HW235778   0.380   4.253  13.119  0.2054 -0.3512 -0.2182
 8107SOL     OW35779   3.661   0.580   8.949  0.0691 -0.0713  0.2389
 8107SOL    HW135780   3.699   0.596   9.035 -2.3496 -1.2199  1.5397
 8107SOL    HW235781   3.678   0.662   8.903  0.3476 -1.5591 -2.3217
 8108SOL     OW35782   1.904   3.127  16.477 -0.1874 -0.2834 -0.2661
 8108SOL    HW135783   1.898   3.078  16.559  1.8401  1.5642  0.9878
 8108SOL    HW235784   1.977   3.183  16.503  0.0867 -0.8896  0.2617
 8109SOL     OW35785   1.524   0.522   6.976  0.3224 -0.2688  0.4049
 8109SOL    HW135786   1.452   0.463   6.999  0.6736 -1.0990 -0.6376
 8109SOL    HW235787   1.477   0.580   6.917 -0.7657 -0.7944  0.7386
 8110SOL     OW35788   4.661   3.341  15.756  0.1641 -0.6424  0.0827
 8110SOL    HW135789   4.589   3.322  15.816  1.2870 -3.3666  0.5755
 8110SOL    HW235790   0.003   3.291  15.803 -0.1672 -2.5796 -1.5372
 8111SOL     OW35791   4.065   0.078  15.401  0.0535 -0.2537 -0.8437
 8111SOL    HW135792   4.112   4.721  15.382 -0.9865 -1.2844  1.0501
 8111SOL    HW235793   4.133   0.145  15.407 -1.2477  1.2148 -2.3093
 8112SOL     OW35794   2.019   3.614   2.576 -0.4902 -0.5400  0.0101
 8112SOL    HW135795   2.013   3.640   2.484  0.6740 -0.4177 -0.0292
 8112SOL    HW235796   2.111   3.619   2.600 -0.7105  2.3360  0.2805
 8113SOL     OW35797   3.165   4.147   7.434  0.1528  0.0284 -0.1183
 8113SOL    HW135798   3.236   4.175   7.493 -0.2126  0.1763  0.2520
 8113SOL    HW235799   3.139   4.061   7.466 -0.1627 -0.4693 -1.6996
 8114SOL     OW35800   3.813   0.382   7.255  0.1191 -0.2812  0.5697
 8114SOL    HW135801   3.838   0.420   7.339  1.0685 -3.9555  1.9540
 8114SOL    HW235802   3.768   0.453   7.210  0.9108 -0.5929 -0.7004
 8115SOL     OW35803   2.841   4.640   7.106 -0.0597 -0.0642 -0.3402
 8115SOL    HW135804   2.866   4.575   7.172  2.0888 -1.1180 -2.1841
 8115SOL    HW235805   2.817   4.709   7.169 -0.3705  1.3935 -2.0649
 8116SOL     OW35806   2.237   1.397  13.278 -0.5500 -0.1505  0.2856
 8116SOL    HW135807   2.199   1.311  13.300  2.4901 -0.9079  2.4078
 8116SOL    HW235808   2.255   1.445  13.359 -4.2595 -0.2113  1.1548
 8117SOL     OW35809   4.430   0.256   6.645 -0.4085  0.0161 -0.2873
 8117SOL    HW135810   4.387   0.203   6.577 -0.9129 -0.8790  0.7172
 8117SOL    HW235811   4.483   0.320   6.599 -0.0651  1.0990  1.6708
 8118SOL     OW35812   1.324   1.722   4.195  0.4445 -0.9672 -0.5618
 8118SOL    HW135813   1.410   1.746   4.160  0.7629 -0.8612  0.3048
 8118SOL    HW235814   1.345   1.727   4.288 -1.1688 -2.7069 -0.0917
 8119SOL     OW35815   1.586   1.723   5.389  0.0830 -0.0928  0.1473
 8119SOL    HW135816   1.592   1.628   5.377 -2.2955 -0.3638  1.1300
 8119SOL    HW235817   1.662   1.732   5.446 -0.1147 -2.0772  0.7295
 8120SOL     OW35818   1.135   0.273  17.330 -0.2852 -0.0948  0.2038
 8120SOL    HW135819   1.126   0.355  17.282  1.3964 -1.3169 -2.2014
 8120SOL    HW235820   1.169   0.307  17.412 -2.4380 -0.3954  1.2233
 8121SOL     OW35821   1.222   2.877  14.433  0.2361  0.4011  0.0846
 8121SOL    HW135822   1.286   2.900  14.500  0.2327  0.8031 -0.0489
 8121SOL    HW235823   1.252   2.924  14.355 -0.8444 -1.6568 -1.5589
 8122SOL     OW35824   2.782   1.379   6.479  0.5127  0.3946  0.0249
 8122SOL    HW135825   2.868   1.410   6.452  0.4548  0.6045  0.0846
 8122SOL    HW235826   2.797   1.287   6.501  1.9724  0.9112  1.1946
 8123SOL     OW35827   4.434   4.065  12.561 -0.7245 -0.8788 -0.2143
 8123SOL    HW135828   4.516   4.021  12.586 -1.0550 -1.1458  0.4088
 8123SOL    HW235829   4.474   4.151  12.555 -5.0883  1.1243 -0.4814
 8124SOL     OW35830   1.658   4.699  15.689 -0.3378 -0.3557  0.0572
 8124SOL    HW135831   1.674   4.636  15.619  0.4131 -1.9697  1.6726
 8124SOL    HW235832   1.683   0.056  15.646 -4.0786  0.4076 -0.6124
 8125SOL     OW35833   0.761   2.614   4.576  0.1435  0.1938 -0.1278
 8125SOL    HW135834   0.686   2.594   4.631  1.3365 -1.7679  0.7643
 8125SOL    HW235835   0.828   2.597   4.642  0.0714 -1.1270 -0.4047
 8126SOL     OW35836   3.855   0.669  10.025  0.3250  0.5815 -0.9721
 8126SOL    HW135837   3.924   0.694   9.964  0.6363  1.1152 -0.4008
 8126SOL    HW235838   3.777   0.684   9.973 -0.2956 -1.4844 -0.6437
 8127SOL     OW35839   0.391   0.331   7.291  0.2467  0.0900  0.1002
 8127SOL    HW135840   0.437   0.413   7.273  0.6215 -0.2639 -0.5408
 8127SOL    HW235841   0.466   0.293   7.336  0.4661  0.0416 -0.3019
 8128SOL     OW35842   0.188   2.056   5.920 -0.4406 -0.4630  0.4882
 8128SOL    HW135843   0.158   1.972   5.885  0.0761 -0.5256  0.1935
 8128SOL    HW235844   0.113   2.060   5.979  0.4538 -0.8101  1.6283
 8129SOL     OW35845   1.584   0.696   8.156  0.0382 -0.5358  0.1484
 8129SOL    HW135846   1.665   0.680   8.108 -0.4503  0.3357 -0.9711
 8129SOL    HW235847   1.627   0.726   8.236 -0.5257  0.0678  0.2284
 8130SOL     OW35848   1.618   3.043   0.263 -0.2005  0.0751  0.2913
 8130SOL    HW135849   1.585   2.964   0.220 -0.1612  0.0362  0.3329
 8130SOL    HW235850   1.589   3.039   0.354  0.3401 -0.2976  0.4456
 8131SOL     OW35851   0.774   2.359   9.558 -0.6288 -0.4435  0.5594
 8131SOL    HW135852   0.744   2.378   9.647  0.7972  1.0924  0.7251
 8131SOL    HW235853   0.781   2.451   9.533 -3.0498 -1.0887 -2.4856
 8132SOL     OW35854   0.049   0.087   3.440 -0.2579  0.1374  0.1840
 8132SOL    HW135855   0.113   0.123   3.378 -0.5620  1.2774  0.5368
 8132SOL    HW235856   0.087   4.724   3.452  0.5303  0.6586  1.5270
 8133SOL     OW35857   3.864   1.471   7.966 -0.5032 -0.0858  0.1999
 8133SOL    HW135858   3.873   1.558   8.006 -1.6102 -0.1652  0.6294
 8133SOL    HW235859   3.941   1.425   8.000  0.8515  0.5638 -2.0393
 8134SOL     OW35860   3.657   2.264   4.183  0.3846  0.0021 -0.6276
 8134SOL    HW135861   3.708   2.344   4.194  1.4228 -0.8634  0.8809
 8134SOL    HW235862   3.577   2.304   4.150 -1.3019 -0.7726  2.5407
 8135SOL     OW35863   0.619   4.042   5.779  0.4698  0.0887  0.2442
 8135SOL    HW135864   0.531   4.053   5.743  1.0605  0.7948 -0.9853
 8135SOL    HW235865   0.652   3.978   5.716 -2.7336 -0.6472 -0.7161
 8136SOL     OW35866   0.261   2.210   2.968 -0.4038 -0.2870 -0.1020
 8136SOL    HW135867   0.280   2.254   2.885 -0.8806  1.0863  0.5173
 8136SOL    HW235868   0.208   2.145   2.922  1.5077 -2.3408  0.6311
 8137SOL     OW35869   3.750   1.576   7.713  0.0841 -0.2909 -0.2167
 8137SOL    HW135870   3.727   1.522   7.637 -1.9341  0.2820  0.0001
 8137SOL    HW235871   3.766   1.514   7.784  1.9869  0.1675 -0.2492
 8138SOL     OW35872   1.264   1.571   6.923 -0.0715 -0.4596 -0.7334
 8138SOL    HW135873   1.281   1.653   6.877 -0.0424  0.7793  1.4779
 8138SOL    HW235874   1.233   1.517   6.850 -5.0735  0.1535  0.8929
 8139SOL     OW35875   3.752   2.114   2.011  0.0012 -0.4909  0.6311
 8139SOL    HW135876   3.815   2.093   1.942  1.5052 -0.1788  1.9126
 8139SOL    HW235877   3.772   2.043   2.072  1.4626 -0.8982 -0.3252
 8140SOL     OW35878   0.596   0.442  12.323 -0.0020 -0.0996  0.2320
 8140SOL    HW135879   0.554   0.360  12.300 -1.2322  0.7452 -0.5339
 8140SOL    HW235880   0.665   0.445  12.256 -0.1845  0.5962  0.0677
 8141SOL     OW35881   1.096   0.475  11.737  0.3833 -1.0186  0.3998
 8141SOL    HW135882   1.160   0.437  11.676 -0.7968 -0.4272 -1.2215
 8141SOL    HW235883   1.049   0.394  11.755 -1.3875 -0.2571 -0.8227
 8142SOL     OW35884   0.252   3.707   4.208 -0.7875 -0.5472 -0.2270
 8142SOL    HW135885   0.222   3.790   4.171 -1.7409  0.7361  3.3727
 8142SOL    HW235886   0.267   3.730   4.300  0.6935  0.6195 -0.7573
 8143SOL     OW35887   4.296   3.750   2.165 -0.3343  0.5069  0.1525
 8143SOL    HW135888   4.286   3.745   2.070  1.4317  1.3814 -0.0802
 8143SOL    HW235889   4.313   3.658   2.184 -1.9818  0.0969 -0.4224
 8144SOL     OW35890   2.256   3.487   3.873  0.2289 -0.1770 -0.8898
 8144SOL    HW135891   2.222   3.577   3.867  0.3057 -0.1551 -0.9901
 8144SOL    HW235892   2.235   3.453   3.786 -1.2800 -0.7642 -0.2972
 8145SOL     OW35893   2.288   4.066   2.157  0.6853  0.3925  0.9889
 8145SOL    HW135894   2.369   4.030   2.122 -1.1180 -0.7447 -2.0139
 8145SOL    HW235895   2.263   4.149   2.114 -0.5126 -0.4516  0.0393
 8146SOL     OW35896   1.061   3.239   3.148  0.1019 -1.1649 -0.3590
 8146SOL    HW135897   1.060   3.181   3.224 -0.8793 -0.5764  0.0700
 8146SOL    HW235898   1.141   3.288   3.168 -1.4493  1.3258 -0.2974
 8147SOL     OW35899   0.876   4.013   0.665  0.1748  0.8308 -0.6364
 8147SOL    HW135900   0.784   3.995   0.644  1.0639 -0.5023 -3.2827
 8147SOL    HW235901   0.910   3.925   0.680 -0.9520  0.7733  1.6715
 8148SOL     OW35902   0.248   1.898   5.588  0.0247 -0.2906 -0.2315
 8148SOL    HW135903   0.167   1.940   5.559  1.7937  2.8920 -0.5686
 8148SOL    HW235904   0.216   1.852   5.665  2.6085 -2.3405 -0.3925
 8149SOL     OW35905   3.315   2.482   8.221 -0.2723 -0.1607  0.1503
 8149SOL    HW135906   3.322   2.388   8.202  0.4123 -0.4239  1.7660
 8149SOL    HW235907   3.311   2.490   8.316 -2.0113 -2.9468  0.3146
 8150SOL     OW35908   1.841   2.729   9.418 -0.1152  0.0815  0.1233
 8150SOL    HW135909   1.924   2.764   9.452  0.8063 -1.6705 -0.3181
 8150SOL    HW235910   1.872   2.641   9.398  0.1986  0.6326 -1.8285
 8151SOL     OW35911   0.238   1.028  13.535  0.1771 -0.2597 -0.0162
 8151SOL    HW135912   0.295   0.985  13.599 -0.6305  0.9147  1.4921
 8151SOL    HW235913   0.304   1.036  13.465 -0.3852  3.7722 -0.0777
 8152SOL     OW35914   1.035   1.975   3.220 -0.3591 -0.0038  0.0164
 8152SOL    HW135915   1.062   2.056   3.262  0.9341  0.4037 -1.6231
 8152SOL    HW235916   0.960   1.965   3.279 -0.3105  0.4382  0.1506
 8153SOL     OW35917   1.666   3.431   3.439 -0.7554  0.5977 -0.3952
 8153SOL    HW135918   1.654   3.477   3.355  1.6663  2.5894  0.3444
 8153SOL    HW235919   1.712   3.494   3.495 -0.9608 -0.8258  1.3521
 8154SOL     OW35920   1.598   1.104   4.824  0.0138 -0.1889  0.0837
 8154SOL    HW135921   1.663   1.034   4.825 -0.6321 -0.8027 -0.6743
 8154SOL    HW235922   1.661   1.155   4.773 -1.7480  1.0287 -0.8789
 8155SOL     OW35923   1.241   4.608  13.081  0.0122  0.4224 -0.3076
 8155SOL    HW135924   1.172   4.667  13.049  2.1284  2.0869 -1.7959
 8155SOL    HW235925   1.198   4.568  13.157  0.8096 -0.9089 -0.5663
 8156SOL     OW35926   2.765   4.480   4.787  0.2724 -0.3415 -0.2671
 8156SOL    HW135927   2.711   4.473   4.708 -2.2233 -1.6942  1.5580
 8156SOL    HW235928   2.825   4.551   4.766  0.4812 -0.4018  0.1159
 8157SOL     OW35929   3.999   0.669  14.100  0.0626  0.7085 -0.1333
 8157SOL    HW135930   3.928   0.607  14.118  1.2584 -0.7040 -0.2683
 8157SOL    HW235931   4.060   0.639  14.167 -1.2508  2.4748  1.8546
 8158SOL     OW35932   2.161   1.493   3.914 -0.2677  0.3160  0.1148
 8158SOL    HW135933   2.088   1.549   3.889 -2.4678 -1.0921  3.3432
 8158SOL    HW235934   2.236   1.548   3.937  0.3833  0.4198 -2.2430
 8159SOL     OW35935   0.979   4.148   8.435  0.1937  0.0112 -0.1344
 8159SOL    HW135936   1.031   4.226   8.414  0.8741 -0.4677 -0.2491
 8159SOL    HW235937   0.970   4.108   8.348 -1.1971 -1.4548  0.6996
 8160SOL     OW35938   3.316   1.629   1.807 -0.1961 -0.3467  0.2040
 8160SOL    HW135939   3.344   1.641   1.716 -1.1296 -1.5440 -0.2498
 8160SOL    HW235940   3.345   1.711   1.846  1.9066 -0.9045 -0.1631
 8161SOL     OW35941   3.865   1.755   5.153  0.2408  0.0193  0.3285
 8161SOL    HW135942   3.888   1.848   5.149 -0.7664  0.2354 -0.3658
 8161SOL    HW235943   3.774   1.750   5.183  0.1956 -1.7525 -0.1618
 8162SOL     OW35944   2.477   3.071   2.713 -0.2698 -0.0012 -0.0373
 8162SOL    HW135945   2.441   3.112   2.635 -2.0355  2.2299  1.9444
 8162SOL    HW235946   2.510   3.142   2.769  0.5256 -0.3531 -0.0498
 8163SOL     OW35947   0.818   1.166   8.209 -0.5420 -0.2132  0.2181
 8163SOL    HW135948   0.726   1.192   8.218  0.1794  2.8406 -1.4262
 8163SOL    HW235949   0.814   1.073   8.186  2.1446 -0.8293  2.3086
 8164SOL     OW35950   1.129   3.919   5.188  0.2386  0.0383  0.4171
 8164SOL    HW135951   1.201   3.982   5.179 -0.2449  0.6826  1.0407
 8164SOL    HW235952   1.062   3.948   5.126  1.3022  1.3663 -0.1219
 8165SOL     OW35953   4.502   1.219  10.311  0.6012 -0.1479  0.0747
 8165SOL    HW135954   4.508   1.251  10.221 -1.5427  0.2245  0.0634
 8165SOL    HW235955   4.531   1.128  10.303  0.4537 -0.3803  2.1422
 8166SOL     OW35956   3.830   1.061  17.375  0.0118  0.0605  0.3515
 8166SOL    HW135957   3.846   1.155  17.360  0.4431  0.0679  0.8729
 8166SOL    HW235958   3.821   1.044  17.281 -0.4156  2.6342 -0.0876
 8167SOL     OW35959   3.073   2.109   1.725  0.3723 -0.3022 -0.7002
 8167SOL    HW135960   3.087   2.202   1.745 -0.9969  0.3036 -2.4517
 8167SOL    HW235961   3.056   2.071   1.811 -0.0130 -1.4876 -1.2963
 8168SOL     OW35962   4.551   3.068  16.462  0.1055 -0.1422 -0.6335
 8168SOL    HW135963   4.456   3.058  16.469  0.2095 -0.0577  1.0633
 8168SOL    HW235964   4.574   2.979  16.436 -0.8432  0.1452 -2.4507
 8169SOL     OW35965   4.058   4.564   1.669  0.2192  0.0642  0.0659
 8169SOL    HW135966   4.144   4.604   1.662 -0.7431  2.1987  0.5564
 8169SOL    HW235967   4.063   4.537   1.761 -0.8917 -2.3366 -0.5582
 8170SOL     OW35968   1.545   0.206   9.032 -0.2382  0.1984  0.4527
 8170SOL    HW135969   1.578   0.119   9.010  2.1381  0.8732  1.3626
 8170SOL    HW235970   1.523   0.199   9.125 -0.7930  0.1889  0.3181
 8171SOL     OW35971   4.496   3.823   6.632  0.1194 -0.0834 -0.1048
 8171SOL    HW135972   4.414   3.775   6.620 -0.2911  0.3130  1.0355
 8171SOL    HW235973   4.519   3.792   6.720 -2.5415 -0.3188  0.5118
 8172SOL     OW35974   1.483   3.212   8.020  0.4979 -0.2609  0.3365
 8172SOL    HW135975   1.524   3.186   7.938 -1.3169 -0.0450 -0.6372
 8172SOL    HW235976   1.550   3.258   8.071 -0.6807 -0.4785  2.1050
 8173SOL     OW35977   2.903   0.624  14.963  0.0191 -0.0588  0.2911
 8173SOL    HW135978   2.980   0.603  15.017 -0.0410  0.6870  0.6523
 8173SOL    HW235979   2.934   0.597  14.876  2.4896  0.6380  0.9366
 8174SOL     OW35980   0.403   3.241   9.136 -0.7936 -0.0507  0.0842
 8174SOL    HW135981   0.491   3.254   9.171 -0.4375  1.5837 -1.3992
 8174SOL    HW235982   0.404   3.145   9.129  1.7664  0.0444 -0.8037
 8175SOL     OW35983   0.108   1.556   7.105  0.4253  0.1240  0.1193
 8175SOL    HW135984   0.181   1.611   7.132  0.6853 -1.4103  2.5652
 8175SOL    HW235985   0.166   1.488   7.071  0.3792 -1.1480  2.5386
 8176SOL     OW35986   4.639   1.115   6.835 -0.4525 -0.2022 -0.5791
 8176SOL    HW135987   4.629   1.210   6.827  0.9724  0.0074  0.0749
 8176SOL    HW235988   4.548   1.089   6.819 -0.4833 -1.4276  1.5999
 8177SOL     OW35989   4.161   3.506  14.249 -0.1466 -0.5330 -0.1386
 8177SOL    HW135990   4.249   3.500  14.285  0.9406  0.7936 -2.5283
 8177SOL    HW235991   4.168   3.518  14.154  0.3811  0.8796  0.0821
 8178SOL     OW35992   3.276   2.568   8.485 -0.3748  0.4589  0.4000
 8178SOL    HW135993   3.303   2.652   8.521  1.0709 -1.2224  3.2412
 8178SOL    HW235994   3.183   2.588   8.485  0.3692  3.9775  3.0218
 8179SOL     OW35995   2.485   3.261   8.247  0.1462  0.0564 -0.0184
 8179SOL    HW135996   2.454   3.351   8.249 -2.2227 -0.7247 -1.8013
 8179SOL    HW235997   2.436   3.221   8.318  0.9264 -1.0781 -0.1134
 8180SOL     OW35998   1.128   2.318   7.619  0.3906 -0.2911  0.0699
 8180SOL    HW135999   1.217   2.324   7.655  0.9163 -1.6346 -1.0126
 8180SOL    HW236000   1.131   2.229   7.586  3.4566 -0.0558 -0.3122
 8181SOL     OW36001   3.154   4.597   7.734  0.0064 -0.0886  0.2445
 8181SOL    HW136002   3.206   4.607   7.814 -0.4054 -1.8353  0.7444
 8181SOL    HW236003   3.203   4.654   7.676  0.7997 -1.4113 -0.3888
 8182SOL     OW36004   4.174   2.054   8.320 -0.1853 -0.3272 -0.1830
 8182SOL    HW136005   4.188   1.960   8.316 -1.0892 -0.3684 -2.7781
 8182SOL    HW236006   4.104   2.054   8.385  0.2595 -0.1869  0.2955
 8183SOL     OW36007   3.908   2.598   3.423  0.0919 -0.3379  0.2186
 8183SOL    HW136008   3.938   2.685   3.449 -1.4627  0.5854 -1.1021
 8183SOL    HW236009   3.881   2.612   3.332  2.9184 -0.1567 -0.6049
 8184SOL     OW36010   3.383   2.721   3.774 -0.7714 -0.1767  0.2226
 8184SOL    HW136011   3.454   2.695   3.714 -0.7122  1.7379 -0.5287
 8184SOL    HW236012   3.436   2.765   3.841 -1.0214 -0.1172  0.3776
 8185SOL     OW36013   3.033   1.832   7.593 -0.0034  0.4233  0.2254
 8185SOL    HW136014   3.126   1.812   7.607 -0.3377 -1.6481 -0.6254
 8185SOL    HW236015   2.989   1.748   7.590  0.7475  0.0628 -0.6100
 8186SOL     OW36016   2.423   3.671   7.807 -0.5860 -0.4484  0.1880
 8186SOL    HW136017   2.338   3.678   7.764 -0.5419  1.7918  0.4609
 8186SOL    HW236018   2.483   3.741   7.783  1.1527 -2.5356 -1.5358
 8187SOL     OW36019   4.600   1.782  13.909  0.2977  0.2682 -0.2836
 8187SOL    HW136020   4.557   1.748  13.988  1.8146  1.0506  0.8745
 8187SOL    HW236021   4.609   1.872  13.941 -1.3484  1.2432 -2.6078
 8188SOL     OW36022   1.084   3.832   6.678  0.0776 -0.1988  0.5318
 8188SOL    HW136023   1.153   3.859   6.739  1.0702 -0.8210 -0.3262
 8188SOL    HW236024   1.133   3.768   6.626  0.8990 -0.3715  1.5227
 8189SOL     OW36025   0.773   2.949   4.110 -1.1025 -0.2877  0.2137
 8189SOL    HW136026   0.797   3.040   4.091  1.3397 -0.7208  1.2948
 8189SOL    HW236027   0.677   2.951   4.110 -1.0891  0.6776  3.8536
 8190SOL     OW36028   2.131   1.398   2.901  0.1532  0.3150 -0.3098
 8190SOL    HW136029   2.089   1.365   2.821  2.7126 -3.0168 -0.2891
 8190SOL    HW236030   2.208   1.437   2.861  0.7185  0.2933  0.7574
 8191SOL     OW36031   4.691   0.015   6.790 -0.2004 -0.3441  0.0490
 8191SOL    HW136032   4.721   0.101   6.821 -0.2275 -0.8040  1.3245
 8191SOL    HW236033   4.608   0.005   6.837 -0.4061 -1.5197 -0.5775
 8192SOL     OW36034   3.887   1.145   6.131  0.0250  0.0745  0.1960
 8192SOL    HW136035   3.875   1.079   6.200 -2.0845  0.2536 -0.0010
 8192SOL    HW236036   3.834   1.098   6.067  1.4899 -0.8386 -0.3576
 8193SOL     OW36037   2.738   2.036   5.635  0.0458  0.1347  0.2253
 8193SOL    HW136038   2.703   2.032   5.546 -2.7380 -0.2981  1.3267
 8193SOL    HW236039   2.817   1.984   5.622 -0.5743 -0.8513  0.3908
 8194SOL     OW36040   2.442   2.863   6.148 -0.3983 -0.7227 -0.7301
 8194SOL    HW136041   2.393   2.799   6.200 -0.3828 -0.0486  0.1149
 8194SOL    HW236042   2.491   2.799   6.095 -1.4095 -1.5310 -0.6972
 8195SOL     OW36043   4.254   4.605   0.611 -0.1184 -0.3833  0.1318
 8195SOL    HW136044   4.201   4.542   0.659  1.5491 -1.3328  0.7510
 8195SOL    HW236045   4.191   4.622   0.541  1.9673 -1.1516 -1.9517
 8196SOL     OW36046   1.700   2.326  16.169 -0.0219  0.4190  0.2087
 8196SOL    HW136047   1.649   2.386  16.114 -1.4975 -0.1023  1.0203
 8196SOL    HW236048   1.699   2.242  16.123 -2.0526  1.3107 -1.3790
 8197SOL     OW36049   1.222   4.294  11.735  0.0835 -0.3023 -0.1640
 8197SOL    HW136050   1.185   4.355  11.671 -3.1081 -0.1291  1.8864
 8197SOL    HW236051   1.219   4.216  11.679 -0.9316 -0.0369 -0.4761
 8198SOL     OW36052   2.748   4.273   8.567 -0.3066 -0.5563 -0.0522
 8198SOL    HW136053   2.747   4.358   8.611  3.0302 -0.9761  0.8075
 8198SOL    HW236054   2.674   4.301   8.513 -0.1515  2.1810  1.1443
 8199SOL     OW36055   0.724   2.827   5.993 -0.0329  0.0221  0.2602
 8199SOL    HW136056   0.727   2.864   6.081 -1.0798  0.4230  0.1290
 8199SOL    HW236057   0.662   2.890   5.956  1.6082  1.3370 -0.2856
 8200SOL     OW36058   0.827   1.541   1.127  0.2987  0.4808 -0.0451
 8200SOL    HW136059   0.732   1.534   1.118  0.1108  0.4134  2.0483
 8200SOL    HW236060   0.841   1.451   1.154  1.4569  0.9767  0.9964
 8201SOL     OW36061   1.799   2.138   3.127 -0.3237  0.3842  0.0678
 8201SOL    HW136062   1.809   2.230   3.152 -1.6324  0.7156 -0.5925
 8201SOL    HW236063   1.870   2.099   3.178 -1.0737 -2.4613 -1.0489
 8202SOL     OW36064   0.961   1.753  14.400 -0.1692  0.1740  0.0108
 8202SOL    HW136065   1.041   1.798  14.371  1.3202 -1.5249  1.4599
 8202SOL    HW236066   0.925   1.803  14.473 -0.6900  0.7621 -0.6528
 8203SOL     OW36067   3.599   1.376   7.982 -0.3880  0.1287  0.0019
 8203SOL    HW136068   3.593   1.428   8.062  0.2374 -1.5328  1.1384
 8203SOL    HW236069   3.685   1.407   7.954 -0.0237 -0.6236  0.2778
 8204SOL     OW36070   1.100   2.296   2.934 -0.1002 -0.1609  0.3160
 8204SOL    HW136071   1.063   2.381   2.911  2.0448  0.1814 -1.8372
 8204SOL    HW236072   1.026   2.260   2.983 -0.2792 -0.7545 -0.3989
 8205SOL     OW36073   1.180   2.804  16.748  0.8978  0.3851  0.5438
 8205SOL    HW136074   1.237   2.807  16.825  1.4753 -2.3825  0.2427
 8205SOL    HW236075   1.239   2.819  16.674 -0.7087  1.4871 -0.5296
 8206SOL     OW36076   0.982   4.036   4.734 -0.8762 -0.3669  0.2212
 8206SOL    HW136077   1.065   4.042   4.686  0.4795 -1.4959  2.4587
 8206SOL    HW236078   0.935   3.968   4.685 -0.3457 -0.3844 -0.2636
 8207SOL     OW36079   3.802   3.657   7.340 -0.2149 -0.1397  0.1882
 8207SOL    HW136080   3.867   3.720   7.309 -0.5792  0.3502  0.4078
 8207SOL    HW236081   3.861   3.605   7.395 -2.0390 -1.5179  0.8386
 8208SOL     OW36082   0.138   2.072   0.693 -0.0521 -0.3281 -0.3237
 8208SOL    HW136083   0.161   2.151   0.741 -0.3310 -0.3614 -0.1373
 8208SOL    HW236084   0.097   2.023   0.764  0.7762  0.9389  1.0196
 8209SOL     OW36085   0.502   0.902   8.796  0.3003  0.8620 -0.3203
 8209SOL    HW136086   0.497   0.806   8.787  1.1611  0.9886 -2.2876
 8209SOL    HW236087   0.588   0.914   8.756  0.3538 -0.5417 -0.6397
 8210SOL     OW36088   3.139   1.416   8.192  0.3291 -0.2074  0.3287
 8210SOL    HW136089   3.112   1.398   8.281 -1.4407  0.1402 -0.1458
 8210SOL    HW236090   3.167   1.331   8.160 -0.8522 -0.7294  0.7093
 8211SOL     OW36091   4.626   2.553   7.937 -0.0496 -0.7112  0.5609
 8211SOL    HW136092   4.547   2.500   7.925 -0.4689 -0.0758  0.5352
 8211SOL    HW236093   4.666   2.537   7.852  1.7163 -0.8654  1.4254
 8212SOL     OW36094   0.993   0.710   8.295  0.4527  0.3253  0.4051
 8212SOL    HW136095   0.901   0.685   8.290  1.3325 -3.0024  1.0875
 8212SOL    HW236096   0.981   0.802   8.322 -0.3476  0.9096 -2.0021
 8213SOL     OW36097   2.682   3.042   7.197  0.0096 -0.5115 -0.0783
 8213SOL    HW136098   2.660   3.123   7.149 -0.7256 -0.9748 -0.5280
 8213SOL    HW236099   2.619   3.045   7.269  1.5734  1.9944  1.1751
 8214SOL     OW36100   0.881   0.030   4.077  0.1715 -0.6374 -0.1594
 8214SOL    HW136101   0.873   0.076   4.160 -1.9719  0.4571 -0.9645
 8214SOL    HW236102   0.971   0.056   4.060 -0.3993  1.2323 -0.2527
 8215SOL     OW36103   1.398   3.258  14.021 -0.4539  0.2891 -0.0943
 8215SOL    HW136104   1.432   3.179  13.978  2.7988  1.0488  1.0533
 8215SOL    HW236105   1.336   3.283  13.953  0.3982  3.2973  0.2304
 8216SOL     OW36106   3.055   0.496   8.721 -0.2307  0.4760 -0.4441
 8216SOL    HW136107   2.977   0.494   8.665 -2.3219  2.8675  2.3888
 8216SOL    HW236108   3.023   0.452   8.800  0.4270  1.6282  0.4668
 8217SOL     OW36109   1.821   4.667  16.521 -0.2211  0.6584 -0.1945
 8217SOL    HW136110   1.743   4.720  16.539 -0.5027  0.9064 -2.2487
 8217SOL    HW236111   1.834   4.611  16.598 -1.2738 -0.6898 -1.0217
 8218SOL     OW36112   3.915   1.174  10.292  0.8682 -0.1043  0.3911
 8218SOL    HW136113   3.924   1.236  10.364  0.3855  1.7960 -1.1582
 8218SOL    HW236114   4.005   1.143  10.279 -0.2288 -3.3819  0.6323
 8219SOL     OW36115   3.199   2.443   7.976 -0.5407  0.0048  0.0298
 8219SOL    HW136116   3.211   2.461   8.069  0.7587 -0.8924  0.0179
 8219SOL    HW236117   3.138   2.510   7.944 -0.5097 -0.6528 -1.4079
 8220SOL     OW36118   1.138   2.755  11.218 -0.0061 -0.4427  0.1175
 8220SOL    HW136119   1.070   2.689  11.226  1.0922 -1.9184 -2.6590
 8220SOL    HW236120   1.184   2.725  11.139  0.3934 -2.2655  1.0226
 8221SOL     OW36121   1.911   2.678   2.927  0.5477  0.5143 -0.5193
 8221SOL    HW136122   1.983   2.624   2.959 -0.5774 -0.2905  0.6259
 8221SOL    HW236123   1.873   2.608   2.875 -0.7387  0.5050  0.4302
 8222SOL     OW36124   2.068   2.727   3.755  0.4437  0.0082 -0.0550
 8222SOL    HW136125   2.163   2.720   3.761  0.7349  1.1565 -3.1510
 8222SOL    HW236126   2.052   2.645   3.709 -0.7252  1.4498 -2.2227
 8223SOL     OW36127   0.208   0.028   8.024  0.3190 -0.5111  0.5401
 8223SOL    HW136128   0.221   0.023   8.118  0.2134 -0.0587  0.5762
 8223SOL    HW236129   0.145   4.681   8.015  1.5240 -1.4994 -0.1409
 8224SOL     OW36130   2.701   2.365   2.924  0.1151 -0.3331  0.3354
 8224SOL    HW136131   2.672   2.372   3.015  0.1457 -1.0453  0.4037
 8224SOL    HW236132   2.616   2.344   2.886  0.2654 -0.2601 -0.0405
 8225SOL     OW36133   4.536   1.068   6.436 -0.9902  0.1086  0.4929
 8225SOL    HW136134   4.574   1.006   6.374 -1.5195 -0.7925  1.0738
 8225SOL    HW236135   4.572   1.018   6.510 -0.0202  0.2177  0.0928
 8226SOL     OW36136   3.997   4.337   5.489  0.5106  0.2472  0.4059
 8226SOL    HW136137   4.078   4.297   5.520  0.4324  0.0508  0.3646
 8226SOL    HW236138   3.950   4.262   5.452 -0.3347 -0.2349  2.4550
 8227SOL     OW36139   0.519   3.656   1.995 -0.2676  0.2548 -0.2551
 8227SOL    HW136140   0.595   3.601   2.014  0.1947  0.8338 -0.4113
 8227SOL    HW236141   0.531   3.670   1.901  3.2164  0.8683  0.2840
 8228SOL     OW36142   4.042   1.189  17.646 -0.4281 -0.2238  0.3977
 8228SOL    HW136143   3.976   1.253  17.622 -1.6697 -0.9969  1.7624
 8228SOL    HW236144   4.026   1.197   0.041 -2.1845 -2.4663  0.2927
 8229SOL     OW36145   4.184   3.675   9.624 -0.0161  0.2769 -0.2598
 8229SOL    HW136146   4.127   3.615   9.672 -1.3585  0.0532 -2.1045
 8229SOL    HW236147   4.134   3.755   9.642  0.8247  0.6020  0.6453
 8230SOL     OW36148   3.290   3.688  12.697 -0.5230 -0.2573  0.0902
 8230SOL    HW136149   3.349   3.616  12.717  0.5392  0.1615 -1.5047
 8230SOL    HW236150   3.263   3.679  12.605 -1.0104 -2.1981  0.4322
 8231SOL     OW36151   0.038   2.533   7.702 -0.1032  0.4150 -0.5834
 8231SOL    HW136152   0.043   2.458   7.642 -0.1416 -0.1571  0.1254
 8231SOL    HW236153   0.001   2.602   7.648  0.7291  2.0984  0.9991
 8232SOL     OW36154   1.637   2.090   7.447 -0.4603  0.1069  0.3989
 8232SOL    HW136155   1.728   2.096   7.420 -0.3489  1.3408  1.0159
 8232SOL    HW236156   1.642   2.002   7.483  0.4388 -0.4759 -1.1349
 8233SOL     OW36157   1.014   3.091  16.764  0.5957  0.1244  0.2506
 8233SOL    HW136158   0.978   3.162  16.818  0.3776 -0.1036  0.4003
 8233SOL    HW236159   0.951   3.028  16.798 -2.2144  2.0743 -1.2285
 8234SOL     OW36160   3.345   4.171   5.166 -0.7837  0.0914 -0.3233
 8234SOL    HW136161   3.253   4.169   5.140 -0.8479 -0.3226 -0.0699
 8234SOL    HW236162   3.341   4.204   5.256  0.4850  0.1847 -0.2953
 8235SOL     OW36163   1.306   1.471   6.306  0.0622 -0.6402 -0.3513
 8235SOL    HW136164   1.396   1.467   6.274 -0.1685 -3.0087 -0.6885
 8235SOL    HW236165   1.288   1.565   6.296 -0.4471 -0.5337  1.4846
 8236SOL     OW36166   2.540   4.221  12.933  0.1761  0.0053 -0.4057
 8236SOL    HW136167   2.602   4.293  12.941  1.4655 -1.2043  0.3513
 8236SOL    HW236168   2.529   4.228  12.838 -1.9316 -0.6310 -0.2061
 8237SOL     OW36169   0.011   0.117   2.723  0.1213  0.2559 -0.6100
 8237SOL    HW136170   0.062   0.186   2.766  1.3165 -1.6038  0.9849
 8237SOL    HW236171   4.647   0.153   2.729 -0.0473 -0.0860 -1.0272
 8238SOL     OW36172   0.287   1.164  14.948  0.8365 -0.6379  0.2341
 8238SOL    HW136173   0.289   1.259  14.939  1.8168 -0.9293 -2.7880
 8238SOL    HW236174   0.292   1.162  15.043  0.4126 -3.0146  0.2071
 8239SOL     OW36175   3.559   0.847   4.031 -0.5700 -0.4928  0.1905
 8239SOL    HW136176   3.502   0.826   4.105 -0.6655  0.2159  0.3101
 8239SOL    HW236177   3.647   0.830   4.065  0.0286  1.6175 -0.3439
 8240SOL     OW36178   4.143   0.769   1.622 -0.5990  0.1452 -0.1759
 8240SOL    HW136179   4.183   0.685   1.646  0.4469  0.5744 -0.4051
 8240SOL    HW236180   4.190   0.798   1.544 -2.7256  2.1481 -0.7091
 8241SOL     OW36181   2.306   3.728  12.385  0.4103 -0.2933  0.0761
 8241SOL    HW136182   2.250   3.755  12.457 -1.1862  0.0339 -1.3004
 8241SOL    HW236183   2.370   3.799  12.386 -2.9094  2.6882 -0.6573
 8242SOL     OW36184   2.655   2.830   8.758 -0.4615 -0.0130 -0.4782
 8242SOL    HW136185   2.627   2.886   8.686 -2.4860  1.0037  1.1110
 8242SOL    HW236186   2.699   2.897   8.811 -1.0258 -1.5329  1.9032
 8243SOL     OW36187   3.742   3.964   4.064  0.2253  0.2992 -0.0835
 8243SOL    HW136188   3.755   3.975   3.969  0.1690  0.6808 -0.0454
 8243SOL    HW236189   3.704   4.049   4.083 -0.4328 -0.3311  1.4267
 8244SOL     OW36190   0.196   2.878  15.858  0.0245 -0.2959  0.4506
 8244SOL    HW136191   0.207   2.806  15.920 -0.7873 -0.5936  0.2485
 8244SOL    HW236192   0.283   2.918  15.852 -0.5817  0.8940 -0.4056
 8245SOL     OW36193   3.298   0.525   6.880  0.3560 -0.5325  0.3741
 8245SOL    HW136194   3.324   0.489   6.964 -0.1238 -1.2087  0.2384
 8245SOL    HW236195   3.242   0.454   6.848 -0.4268 -0.1359  0.8693
 8246SOL     OW36196   1.691   4.563   2.281  0.9182  0.9074 -0.3360
 8246SOL    HW136197   1.647   4.648   2.286 -1.8671 -0.4978 -0.9201
 8246SOL    HW236198   1.764   4.581   2.222  0.0591 -0.8669 -1.9430
 8247SOL     OW36199   2.975   2.299   5.318  0.5302  0.0168 -0.0326
 8247SOL    HW136200   2.927   2.363   5.265  0.6125 -0.1706 -0.3350
 8247SOL    HW236201   2.970   2.321   5.411 -2.1926  0.0138 -0.1773
 8248SOL     OW36202   1.076   1.152   8.027 -0.0048 -0.0498 -0.3107
 8248SOL    HW136203   1.095   1.084   8.092 -0.7886  0.3103  0.2919
 8248SOL    HW236204   1.152   1.210   8.035  0.9088 -0.7591 -3.8542
 8249SOL     OW36205   3.173   1.328   5.829 -0.3498 -0.6665 -0.9380
 8249SOL    HW136206   3.181   1.353   5.737 -0.0665 -0.7677 -0.9387
 8249SOL    HW236207   3.078   1.315   5.832 -0.3580 -1.8531 -5.0928
 8250SOL     OW36208   0.271   4.339   9.113  0.7994 -0.2794  0.4216
 8250SOL    HW136209   0.297   4.297   9.031  0.4795 -0.8343  0.6064
 8250SOL    HW236210   0.283   4.259   9.164 -0.1091 -0.5672  0.1795
 8251SOL     OW36211   1.761   3.867   2.401 -0.6188  0.1367  0.4025
 8251SOL    HW136212   1.801   3.786   2.370  1.5963  2.7061 -3.4584
 8251SOL    HW236213   1.835   3.906   2.447 -2.2800  1.6256  1.8548
 8252SOL     OW36214   4.167   0.425   2.525  0.1622  0.5925  0.7846
 8252SOL    HW136215   4.181   0.330   2.526  0.9698  0.6985 -0.6547
 8252SOL    HW236216   4.247   0.453   2.480  0.4216 -1.1395  0.1608
 8253SOL     OW36217   2.979   2.512  14.734 -0.1148 -0.1327 -0.3715
 8253SOL    HW136218   2.911   2.533  14.670 -2.0639 -1.0245  1.4158
 8253SOL    HW236219   3.061   2.526  14.687 -0.3676  0.0100 -0.7770
 8254SOL     OW36220   2.863   2.569   4.325 -0.0087 -0.7810 -0.0838
 8254SOL    HW136221   2.899   2.492   4.369 -2.0263 -0.5035  2.0710
 8254SOL    HW236222   2.917   2.584   4.247 -0.9854  0.3766 -0.5340
 8255SOL     OW36223   0.330   0.141   5.021 -0.1485 -0.1870  0.2403
 8255SOL    HW136224   0.290   0.207   4.965 -1.8684 -2.1800 -0.8888
 8255SOL    HW236225   0.419   0.142   4.986 -0.0444  0.7753  0.5289
 8256SOL     OW36226   1.632   4.152   0.171  0.6560  0.1283 -0.1025
 8256SOL    HW136227   1.586   4.070   0.155 -1.6669  1.8571 -2.2410
 8256SOL    HW236228   1.618   4.197   0.087  0.1819 -1.5891 -0.9433
 8257SOL     OW36229   4.279   4.555  11.185 -0.2048 -0.2488 -0.5531
 8257SOL    HW136230   4.344   4.624  11.174  0.2580 -0.4549  0.9107
 8257SOL    HW236231   4.309   4.488  11.123 -2.4799 -0.9098 -0.9465
 8258SOL     OW36232   1.245   3.044   1.734  0.7958  0.4410 -0.1599
 8258SOL    HW136233   1.203   3.110   1.789  0.1996  2.1055 -2.6036
 8258SOL    HW236234   1.215   2.959   1.768  2.7603 -0.1561  0.0530
 8259SOL     OW36235   3.956   0.987   0.918  0.2614 -0.0891  0.3635
 8259SOL    HW136236   3.975   0.903   0.876  0.1704  0.3043 -0.4636
 8259SOL    HW236237   3.894   0.967   0.988 -1.9915 -0.8721 -1.8451
 8260SOL     OW36238   2.714   1.025   2.898  0.2338 -0.0344 -0.2104
 8260SOL    HW136239   2.745   0.935   2.909  0.8510  0.1504 -0.4532
 8260SOL    HW236240   2.781   1.079   2.940  1.9066  0.2311 -3.2124
 8261SOL     OW36241   0.226   0.781  11.963  0.5910  0.2195  1.0842
 8261SOL    HW136242   0.269   0.807  12.045 -0.6266  2.1270  1.1178
 8261SOL    HW236243   0.271   0.836  11.900  0.6942 -1.4823 -0.3263
 8262SOL     OW36244   0.469   3.827   7.892 -0.6626 -0.1873 -0.1624
 8262SOL    HW136245   0.559   3.851   7.912 -0.9932  0.7950  0.1805
 8262SOL    HW236246   0.442   3.908   7.848 -1.3565 -0.4444 -0.2187
 8263SOL     OW36247   2.072   3.841   7.008  0.5872 -0.0556  0.1365
 8263SOL    HW136248   2.019   3.920   7.018  0.7852 -0.1217  1.7016
 8263SOL    HW236249   2.004   3.775   7.020  0.9070 -0.6091 -1.1474
 8264SOL     OW36250   0.029   2.659   2.819  0.4222 -0.0573  0.1064
 8264SOL    HW136251   0.042   2.644   2.912 -4.0459 -1.1772  0.5783
 8264SOL    HW236252   0.002   2.574   2.782 -1.2804  0.2236  0.6827
 8265SOL     OW36253   1.847   2.169   8.022 -0.3280  0.3371 -0.6936
 8265SOL    HW136254   1.932   2.188   7.984 -1.1377  1.1314 -2.1065
 8265SOL    HW236255   1.850   2.226   8.099 -4.2808 -0.1364 -0.1584
 8266SOL     OW36256   2.027   3.286  11.273  0.4031  0.3346 -0.2111
 8266SOL    HW136257   2.028   3.220  11.203 -1.9680 -0.5326  0.5561
 8266SOL    HW236258   2.049   3.361  11.218  0.0471  0.7878  0.2617
 8267SOL     OW36259   0.935   0.765   8.636  0.4165  0.5737 -0.2016
 8267SOL    HW136260   1.013   0.713   8.652 -0.2059 -0.2660  0.0793
 8267SOL    HW236261   0.980   0.835   8.587 -1.0581 -0.0609 -2.5028
 8268SOL     OW36262   4.072   2.564  11.763 -0.0780 -0.3402  0.4869
 8268SOL    HW136263   4.103   2.598  11.847 -2.5818  0.7231  0.9826
 8268SOL    HW236264   4.155   2.527  11.733  0.4454 -0.0774  1.6260
 8269SOL     OW36265   3.683   2.869   9.622  0.0332 -0.4767  0.0523
 8269SOL    HW136266   3.623   2.940   9.597 -0.2438 -0.6217  0.2943
 8269SOL    HW236267   3.643   2.799   9.572  0.7617 -0.4459 -0.5554
 8270SOL     OW36268   1.495   1.558   3.371  0.4470 -0.1276 -0.0639
 8270SOL    HW136269   1.534   1.513   3.446  1.8224 -0.1110 -0.7670
 8270SOL    HW236270   1.557   1.528   3.304  2.2444  0.4977  1.3179
 8271SOL     OW36271   0.031   4.436   8.385  0.1156 -0.8073 -0.6364
 8271SOL    HW136272   4.695   4.441   8.459 -1.7079  0.2038 -2.1605
 8271SOL    HW236273   0.056   4.344   8.395  0.6312 -0.5652  0.2941
 8272SOL     OW36274   0.097   4.591   0.112 -0.6321  0.1180  0.2832
 8272SOL    HW136275   0.102   4.649   0.036 -2.9666  1.8294  1.4160
 8272SOL    HW236276   0.129   4.508   0.077  0.2105  0.8941 -0.7593
 8273SOL     OW36277   4.542   0.780   7.653  0.0247 -0.5560  0.5423
 8273SOL    HW136278   4.486   0.765   7.729 -1.7692  0.2085 -0.6269
 8273SOL    HW236279   4.618   0.729   7.681  1.1853  1.2799  0.7186
 8274SOL     OW36280   0.540   3.745   6.637  0.0197 -0.0370 -0.7502
 8274SOL    HW136281   0.630   3.753   6.669  0.2242 -0.4782 -1.2160
 8274SOL    HW236282   0.550   3.761   6.544 -1.3989  2.0535 -0.5343
 8275SOL     OW36283   0.745   0.964  16.796  0.3372 -0.5916  0.3609
 8275SOL    HW136284   0.662   1.010  16.803  0.0061 -1.1689  0.2636
 8275SOL    HW236285   0.720   0.900  16.729 -1.8038  0.4711  0.1597
 8276SOL     OW36286   0.321   0.616  14.712 -0.1535  0.1183 -0.2450
 8276SOL    HW136287   0.276   0.532  14.698  1.4888 -0.8330  0.1944
 8276SOL    HW236288   0.314   0.634  14.805 -1.5308  0.2959 -0.3823
 8277SOL     OW36289   0.266   0.538   4.052  0.3800  0.4849  0.0009
 8277SOL    HW136290   0.261   0.605   3.983  1.1942  0.0224 -0.5058
 8277SOL    HW236291   0.173   0.527   4.072 -0.3817  0.0336 -3.6964
 8278SOL     OW36292   3.193   2.730  16.727 -0.7204 -0.5209  0.8174
 8278SOL    HW136293   3.123   2.760  16.785  0.1623  1.9079  0.6424
 8278SOL    HW236294   3.149   2.662  16.677 -2.1476  0.4636  0.7194
 8279SOL     OW36295   0.189   4.253   2.035  0.6061  0.5311 -0.4786
 8279SOL    HW136296   0.282   4.241   2.015  1.0198  0.9157  1.1924
 8279SOL    HW236297   0.159   4.320   1.974  2.0561  2.3445  0.8135
 8280SOL     OW36298   2.204   2.002  11.869  0.7219 -0.6577  0.1054
 8280SOL    HW136299   2.220   2.096  11.878  1.0020 -0.8913  2.0741
 8280SOL    HW236300   2.290   1.965  11.891  1.8282  1.7974 -0.0862
 8281SOL     OW36301   3.246   0.846   4.411 -0.0800  0.4410 -0.5905
 8281SOL    HW136302   3.238   0.798   4.329 -0.1702 -2.1329  0.9480
 8281SOL    HW236303   3.227   0.938   4.390 -2.5094  0.8705  3.5266
 8282SOL     OW36304   1.817   0.740   6.820 -0.3496  0.5163  0.2557
 8282SOL    HW136305   1.853   0.823   6.788  1.2920 -0.7924 -1.3288
 8282SOL    HW236306   1.763   0.763   6.896  0.3011  1.9846  0.2766
 8283SOL     OW36307   0.730   1.215  17.453  0.0910 -0.1644  0.2947
 8283SOL    HW136308   0.682   1.286  17.410 -1.2313 -0.1951  1.7030
 8283SOL    HW236309   0.657   1.160  17.482 -1.2335  1.7626  0.6474
 8284SOL     OW36310   2.249   0.656   8.622 -0.6334  0.1309 -0.4710
 8284SOL    HW136311   2.334   0.615   8.606 -0.4724  0.0769  0.4907
 8284SOL    HW236312   2.240   0.712   8.545 -2.4961  0.8432  0.2659
 8285SOL     OW36313   0.162   0.606  10.536 -0.0676 -0.1149 -0.0139
 8285SOL    HW136314   0.121   0.655  10.465 -0.5037 -2.5000 -1.4190
 8285SOL    HW236315   0.221   0.667  10.580  1.6084 -2.2013  0.6797
 8286SOL     OW36316   1.626   2.135  12.046 -0.2767 -0.4022  0.1066
 8286SOL    HW136317   1.634   2.206  11.982  2.1204 -1.2657 -0.5626
 8286SOL    HW236318   1.607   2.066  11.982 -1.2142  0.4499 -0.5307
 8287SOL     OW36319   4.672   0.984  15.125 -0.2086  0.7266  0.6544
 8287SOL    HW136320   4.694   1.075  15.143 -2.0471  1.5716 -1.4173
 8287SOL    HW236321   0.012   0.953  15.063 -1.9915 -1.2024 -0.2449
 8288SOL     OW36322   1.788   2.327  10.559 -0.0882  0.6250 -0.8009
 8288SOL    HW136323   1.834   2.391  10.504  2.1043  0.8101  1.2927
 8288SOL    HW236324   1.718   2.379  10.598  1.6914  2.6174 -0.2576
 8289SOL     OW36325   2.934   3.084   9.625  0.1357  0.1736  0.0324
 8289SOL    HW136326   3.007   3.042   9.671  0.6640  1.1492  0.0726
 8289SOL    HW236327   2.921   3.013   9.562  1.8300 -0.5537  0.4920
 8290SOL     OW36328   0.197   3.352   5.107  0.1912  0.4704 -0.2336
 8290SOL    HW136329   0.196   3.314   5.019  0.0170 -0.1798  0.0548
 8290SOL    HW236330   0.147   3.286   5.155 -0.3566  0.6300 -0.5814
 8291SOL     OW36331   2.185   3.918   7.309 -0.0697  0.2192  0.1716
 8291SOL    HW136332   2.198   3.972   7.231 -0.0044  0.4745  0.3576
 8291SOL    HW236333   2.259   3.949   7.361  2.1134 -1.2571 -2.0184
 8292SOL     OW36334   3.832   1.474   4.496 -0.1671 -0.2074  0.3849
 8292SOL    HW136335   3.764   1.456   4.562  0.0402 -0.8268  0.4323
 8292SOL    HW236336   3.893   1.535   4.537  1.0041 -1.9192  1.2078
 8293SOL     OW36337   3.924   0.679   3.279  0.0353  0.0835  0.3315
 8293SOL    HW136338   3.901   0.765   3.242 -1.9586  1.3846  4.5033
 8293SOL    HW236339   3.851   0.622   3.256  2.0361 -1.8253 -1.2440
 8294SOL     OW36340   0.886   2.864   4.528 -0.4448 -0.2009  0.3545
 8294SOL    HW136341   0.854   2.778   4.555 -1.3775  0.0839  0.1610
 8294SOL    HW236342   0.915   2.832   4.442  1.2599 -3.9112  2.3182
 8295SOL     OW36343   0.276   4.166   4.646  0.9256  0.3888  0.2042
 8295SOL    HW136344   0.319   4.247   4.619 -1.0408  1.5512  0.5589
 8295SOL    HW236345   0.195   4.198   4.685  0.2207 -1.0656 -0.0558
 8296SOL     OW36346   4.168   1.630   3.353  0.5046 -0.1918 -0.1060
 8296SOL    HW136347   4.241   1.691   3.345  0.7650 -0.5369 -0.3055
 8296SOL    HW236348   4.104   1.701   3.364  0.4045 -0.1633 -0.8399
 8297SOL     OW36349   1.827   2.091  16.758 -0.4601  0.7414 -0.4281
 8297SOL    HW136350   1.777   2.032  16.814  1.8419  1.4022  2.3726
 8297SOL    HW236351   1.773   2.168  16.770 -0.3084  1.0096 -1.5274
 8298SOL     OW36352   2.755   2.436   3.967 -0.3271 -0.5512 -0.1172
 8298SOL    HW136353   2.821   2.496   4.000 -0.8102 -0.5141  0.7771
 8298SOL    HW236354   2.759   2.366   4.032 -0.0074 -0.3131  0.1164
 8299SOL     OW36355   0.191   2.517   6.022 -0.3402 -0.7188  0.0212
 8299SOL    HW136356   0.125   2.465   6.068 -1.8102  1.0895 -0.0408
 8299SOL    HW236357   0.222   2.457   5.954  0.1940  2.1352 -2.2392
 8300SOL     OW36358   0.863   2.022  14.532 -0.2792 -0.5511  0.0737
 8300SOL    HW136359   0.801   2.035  14.461  1.1243 -2.7329 -1.5124
 8300SOL    HW236360   0.937   2.077  14.507 -1.1252 -0.3889 -2.0681
 8301SOL     OW36361   2.298   3.668  12.860 -0.6354  0.4135 -0.2394
 8301SOL    HW136362   2.385   3.647  12.894 -1.4937 -3.1981 -0.2650
 8301SOL    HW236363   2.312   3.700  12.770 -0.6955 -0.3922 -0.5352
 8302SOL     OW36364   3.516   3.537  12.010 -0.4693  0.3515  0.4233
 8302SOL    HW136365   3.503   3.476  12.083 -1.5388  2.2166  1.7908
 8302SOL    HW236366   3.605   3.525  11.977 -1.0650  2.7167 -2.0616
 8303SOL     OW36367   0.338   4.289  17.313  0.5816 -0.4153  0.1664
 8303SOL    HW136368   0.368   4.380  17.320 -3.4795  0.9549 -0.4208
 8303SOL    HW236369   0.355   4.257  17.402 -0.1552  1.2809  0.9087
 8304SOL     OW36370   1.058   4.707   3.291  0.2334  0.0154 -0.3635
 8304SOL    HW136371   1.133   4.651   3.309 -0.8446 -0.5797  2.3177
 8304SOL    HW236372   1.003   4.687   3.367 -0.3721  0.4143 -0.6920
 8305SOL     OW36373   0.169   0.310   8.346 -0.9529 -0.2165 -0.1859
 8305SOL    HW136374   0.092   0.257   8.323 -0.6805  0.2092 -2.0427
 8305SOL    HW236375   0.119   0.390   8.360  2.3244  2.1014 -1.7812
 8306SOL     OW36376   1.405   0.977   6.598  0.0305 -0.2555  0.3901
 8306SOL    HW136377   1.423   0.927   6.519 -0.9858  1.2794 -0.8161
 8306SOL    HW236378   1.486   0.944   6.637 -0.3420 -0.1511  1.2484
 8307SOL     OW36379   3.129   3.555  17.570 -0.6058 -0.3682 -0.0217
 8307SOL    HW136380   3.060   3.621  17.580  0.1631  0.2409  1.3118
 8307SOL    HW236381   3.208   3.604  17.546 -0.3403 -1.6046 -1.6831
 8308SOL     OW36382   3.501   3.053   1.253  0.3886  0.3301 -0.3372
 8308SOL    HW136383   3.581   3.030   1.300 -0.5070 -0.5690  0.7431
 8308SOL    HW236384   3.480   2.974   1.204  1.8616 -0.5643  0.4661
 8309SOL     OW36385   0.577   4.458   9.016  0.0461  0.1130  0.1121
 8309SOL    HW136386   0.644   4.482   9.080  0.1785  0.4192 -0.1459
 8309SOL    HW236387   0.542   4.377   9.054 -0.5819  1.3608  2.1641
 8310SOL     OW36388   3.891   4.016   5.517 -0.2646  0.1791  0.4406
 8310SOL    HW136389   3.944   3.939   5.534  0.4584  0.4194 -0.7057
 8310SOL    HW236390   3.842   4.022   5.599  0.2916  2.6518  0.6036
 8311SOL     OW36391   0.386   2.413   4.857  0.0937  0.3954 -0.1338
 8311SOL    HW136392   0.294   2.437   4.868  0.2720  0.5581  1.0464
 8311SOL    HW236393   0.363   2.328   4.820  1.4435 -1.1790  2.6316
 8312SOL     OW36394   0.461   3.919  13.089  0.3989 -0.1289  0.1557
 8312SOL    HW136395   0.414   3.872  13.020 -0.8308  1.7302 -0.2523
 8312SOL    HW236396   0.433   4.007  13.066  0.2922 -0.9450 -2.8338
 8313SOL     OW36397   4.157   4.485   0.840 -0.7090 -0.6116  0.2698
 8313SOL    HW136398   4.227   4.420   0.833 -2.0339 -2.0137  0.1328
 8313SOL    HW236399   4.191   4.534   0.915  1.9211 -3.4815  0.9402
 8314SOL     OW36400   3.206   4.577  11.558 -0.1499  0.2089 -0.1667
 8314SOL    HW136401   3.206   4.482  11.548 -2.8015  0.2586 -0.7339
 8314SOL    HW236402   3.290   4.605  11.521  1.2304 -1.4885  1.6561
 8315SOL     OW36403   2.288   1.627   1.586 -0.1318  0.0810 -0.3451
 8315SOL    HW136404   2.319   1.707   1.546  1.2003  0.1488  0.8324
 8315SOL    HW236405   2.196   1.648   1.603  0.4439  2.0096  0.4008
 8316SOL     OW36406   4.341   4.602   1.662  0.1667 -0.0241  0.3687
 8316SOL    HW136407   4.385   4.668   1.609  0.1791 -0.2665  0.0743
 8316SOL    HW236408   4.354   4.521   1.613  0.5123 -0.1983  0.7494
 8317SOL     OW36409   2.850   3.893   6.229 -0.1881 -0.5153 -0.2793
 8317SOL    HW136410   2.757   3.873   6.218  0.2027 -1.6947 -1.5020
 8317SOL    HW236411   2.889   3.807   6.245  0.1125 -0.1727  0.8289
 8318SOL     OW36412   3.411   0.826   6.060 -0.2076  0.1940  0.1800
 8318SOL    HW136413   3.349   0.880   6.011  0.9170  0.9947 -0.3786
 8318SOL    HW236414   3.357   0.752   6.088 -1.5292  1.0902 -0.0194
 8319SOL     OW36415   2.757   0.868  11.467  0.1421 -0.0175 -0.2080
 8319SOL    HW136416   2.833   0.819  11.499 -2.3774 -4.4785 -1.1123
 8319SOL    HW236417   2.795   0.957  11.467 -0.7394  0.3584 -0.1597
 8320SOL     OW36418   0.236   1.157   1.686  0.4205 -0.4785  1.0598
 8320SOL    HW136419   0.223   1.250   1.668  2.0997 -0.6742 -1.1349
 8320SOL    HW236420   0.308   1.152   1.750  2.1472 -1.1499 -0.9536
 8321SOL     OW36421   2.128   1.562   7.414 -0.0165 -0.2281 -0.4290
 8321SOL    HW136422   2.042   1.597   7.437  0.5489  2.1406 -1.8381
 8321SOL    HW236423   2.183   1.604   7.481 -2.3291 -0.4490  1.6025
 8322SOL     OW36424   1.837   3.304   2.479 -0.0350  0.1695 -0.1730
 8322SOL    HW136425   1.870   3.235   2.423 -1.7373 -0.2909 -0.6117
 8322SOL    HW236426   1.911   3.365   2.477 -0.3974  0.7468  3.2811
 8323SOL     OW36427   0.924   3.619   6.437  0.4605 -0.2935 -0.0923
 8323SOL    HW136428   0.997   3.634   6.376  0.0713  1.1534 -0.1993
 8323SOL    HW236429   0.892   3.708   6.452 -0.9145 -0.9753  0.9878
 8324SOL     OW36430   0.318   2.449   8.142 -0.2342  0.1055 -0.0923
 8324SOL    HW136431   0.247   2.513   8.132 -0.6263 -0.2639  0.2670
 8324SOL    HW236432   0.273   2.366   8.162  0.2427  0.0316  0.6752
 8325SOL     OW36433   3.759   3.685   5.848  0.3255  0.0560 -0.4510
 8325SOL    HW136434   3.724   3.731   5.924 -1.2704 -0.0537 -1.1059
 8325SOL    HW236435   3.775   3.754   5.783  1.9378  0.2427  0.1481
 8326SOL     OW36436   1.040   1.614   3.385 -0.5015 -0.1069  0.0753
 8326SOL    HW136437   1.116   1.663   3.351  1.0001 -3.6046 -1.6218
 8326SOL    HW236438   0.973   1.655   3.330  0.9586 -0.3411 -1.8919
 8327SOL     OW36439   2.445   4.481   9.717 -0.2826  0.1122  0.1197
 8327SOL    HW136440   2.431   4.532   9.638  2.1030  0.1090 -0.3091
 8327SOL    HW236441   2.398   4.534   9.781 -1.4309  0.2597 -0.8560
 8328SOL     OW36442   1.800   1.072   0.711  0.0204  0.0963 -0.1901
 8328SOL    HW136443   1.867   1.082   0.643  1.9309  0.6886  1.7963
 8328SOL    HW236444   1.811   1.156   0.756 -0.6452 -0.9272  1.8638
 8329SOL     OW36445   3.563   4.215   0.249  0.1395  0.0985 -0.5318
 8329SOL    HW136446   3.517   4.234   0.331  2.0786  0.6760  0.4190
 8329SOL    HW236447   3.624   4.143   0.266  0.7028  0.8539  0.6228
 8330SOL     OW36448   1.134   3.195   6.553 -0.5979 -0.1889 -0.0914
 8330SOL    HW136449   1.090   3.275   6.583  0.6301  0.8218 -0.9594
 8330SOL    HW236450   1.219   3.228   6.522 -0.7845  1.3705  1.0256
 8331SOL     OW36451   0.139   3.146   3.636  0.0961  0.3283  0.0254
 8331SOL    HW136452   0.217   3.091   3.639 -0.7836 -0.8688  1.2146
 8331SOL    HW236453   0.074   3.089   3.595  0.3748 -2.1173  2.9414
 8332SOL     OW36454   3.440   0.897   3.612 -0.0457  0.2193  0.2154
 8332SOL    HW136455   3.534   0.880   3.622 -0.1985 -1.8898 -2.0484
 8332SOL    HW236456   3.393   0.829   3.660 -1.3830 -0.5350 -2.1881
 8333SOL     OW36457   2.973   0.757   7.315  0.0925 -0.0322  0.2325
 8333SOL    HW136458   2.935   0.829   7.266 -1.1441 -0.1970  0.9681
 8333SOL    HW236459   2.941   0.772   7.404 -0.0622 -2.7252  0.6539
 8334SOL     OW36460   0.603   2.604   8.622 -0.0022 -0.4265  0.2040
 8334SOL    HW136461   0.514   2.637   8.615 -0.3970 -1.3840  0.6886
 8334SOL    HW236462   0.655   2.672   8.578  0.7754 -0.1242  1.6020
 8335SOL     OW36463   2.265   1.441  10.398  0.0692  0.4584 -0.5857
 8335SOL    HW136464   2.249   1.432  10.304  1.8840  0.4720 -0.8977
 8335SOL    HW236465   2.314   1.523  10.391 -1.1426  1.2961  0.9136
 8336SOL     OW36466   2.781   1.833  11.108  0.6067 -0.3970  0.0884
 8336SOL    HW136467   2.692   1.802  11.090  0.7612 -1.5055  1.1797
 8336SOL    HW236468   2.794   1.816  11.202  1.0219  0.4609  0.1827
 8337SOL     OW36469   0.397   1.914   4.466 -0.0757 -0.4912  0.1633
 8337SOL    HW136470   0.410   1.956   4.381 -0.7972  1.7611  1.1640
 8337SOL    HW236471   0.302   1.908   4.478 -0.2906 -1.5755 -1.9270
 8338SOL     OW36472   0.028   3.311   3.279  0.1729  0.0028  0.4302
 8338SOL    HW136473   4.673   3.292   3.329  0.2711 -0.4249  0.4298
 8338SOL    HW236474   4.712   3.284   3.196  0.8359 -0.2012  0.1737
 8339SOL     OW36475   4.490   2.503  16.447  0.0982  0.3722  0.5807
 8339SOL    HW136476   4.551   2.447  16.398  1.3667  2.1987  0.0604
 8339SOL    HW236477   4.451   2.451  16.517  0.1452  0.9055  0.9995
 8340SOL     OW36478   3.223   0.322   3.653  0.8576  0.2680  0.1096
 8340SOL    HW136479   3.238   0.377   3.576  2.3490 -0.8751 -0.4185
 8340SOL    HW236480   3.307   0.277   3.661  0.5276 -0.6281 -1.3808
 8341SOL     OW36481   3.426   4.439   8.462 -0.1084 -0.4793 -0.4003
 8341SOL    HW136482   3.409   4.345   8.464 -0.1050 -0.4717 -0.0289
 8341SOL    HW236483   3.508   4.455   8.415 -1.5402  2.7270 -1.8006
 8342SOL     OW36484   2.245   0.717   4.376 -0.2867  0.3129 -0.3423
 8342SOL    HW136485   2.278   0.798   4.415  0.2762  0.1202 -0.4146
 8342SOL    HW236486   2.244   0.663   4.456 -0.4883 -0.5506 -0.9270
 8343SOL     OW36487   2.405   4.286   4.921 -0.2723  0.1363 -0.3456
 8343SOL    HW136488   2.346   4.344   4.872 -2.0347 -0.4008  1.1526
 8343SOL    HW236489   2.416   4.329   5.006  0.4156 -1.1856  0.2262
 8344SOL     OW36490   0.201   0.620   8.169 -0.0236 -0.1164 -0.2093
 8344SOL    HW136491   0.230   0.685   8.233  0.3436  0.0309 -0.5275
 8344SOL    HW236492   0.109   0.646   8.159  0.7185  1.7273 -2.0851
 8345SOL     OW36493   4.387   0.150   8.190 -0.0873  0.1943  0.3991
 8345SOL    HW136494   4.301   0.189   8.175  0.2888  1.2700  1.0071
 8345SOL    HW236495   4.368   0.057   8.187  1.5324 -0.1691  1.3121
 8346SOL     OW36496   3.241   1.551   5.081  0.0853  0.0411  0.2109
 8346SOL    HW136497   3.217   1.592   4.997  0.1441  0.7819  0.5558
 8346SOL    HW236498   3.186   1.605   5.137 -0.4264  0.3745 -0.6126
 8347SOL     OW36499   4.293   2.373   7.214  0.2816  0.1824 -0.7449
 8347SOL    HW136500   4.307   2.468   7.215  0.0008  0.2085  0.3972
 8347SOL    HW236501   4.227   2.368   7.145 -1.0366  2.0800  0.3914
 8348SOL     OW36502   3.520   2.828   7.842 -0.0586  0.4415 -0.4477
 8348SOL    HW136503   3.544   2.814   7.934  0.0555 -1.3133 -0.7513
 8348SOL    HW236504   3.606   2.835   7.799 -0.5261 -1.9887 -1.7755
 8349SOL     OW36505   0.695   0.328   4.190  0.0463  0.0334 -0.2112
 8349SOL    HW136506   0.626   0.394   4.181 -0.9603 -0.8169  1.1914
 8349SOL    HW236507   0.758   0.366   4.129 -1.1809  1.9879 -0.2681
 8350SOL     OW36508   3.643   4.227   4.068 -0.1522  0.2080 -0.4417
 8350SOL    HW136509   3.615   4.236   3.977  0.5391  1.0587 -0.5609
 8350SOL    HW236510   3.609   4.304   4.113 -3.2016 -0.5313 -1.4449
 8351SOL     OW36511   2.679   3.599   1.650  0.5031  0.3691  0.0875
 8351SOL    HW136512   2.613   3.628   1.588  0.3991  0.5430  0.2801
 8351SOL    HW236513   2.733   3.538   1.599  0.6398 -1.1091  1.9746
 8352SOL     OW36514   4.652   3.654  13.124 -0.3706 -0.0389  0.1123
 8352SOL    HW136515   4.573   3.660  13.179 -0.2785 -3.8132  0.6404
 8352SOL    HW236516   4.635   3.724  13.061 -0.6619 -2.3484 -2.3707
 8353SOL     OW36517   3.181   4.383  14.303  0.0556 -0.6663  0.0428
 8353SOL    HW136518   3.108   4.345  14.352 -1.2209  2.5595  0.6780
 8353SOL    HW236519   3.185   4.472  14.339  0.5432 -0.5002 -0.4166
 8354SOL     OW36520   2.224   3.582   9.752  0.0988  0.6000  1.0603
 8354SOL    HW136521   2.292   3.606   9.816  0.6365 -0.3119  0.8194
 8354SOL    HW236522   2.265   3.595   9.667  0.5037  1.1201  1.3318
 8355SOL     OW36523   2.029   1.260   0.917 -0.0840 -0.2876 -0.7450
 8355SOL    HW136524   2.048   1.351   0.894 -1.2207  0.1647  0.1116
 8355SOL    HW236525   1.933   1.265   0.922  0.0609  0.2462  1.3547
 8356SOL     OW36526   2.556   3.526   9.660 -0.3223 -0.0900 -0.6147
 8356SOL    HW136527   2.495   3.566   9.598 -0.3279  0.9565  0.0750
 8356SOL    HW236528   2.549   3.576   9.741 -1.1911 -0.1782 -0.6361
 8357SOL     OW36529   1.805   3.146   4.923  0.0434 -0.2551 -0.3340
 8357SOL    HW136530   1.732   3.192   4.965  1.3835  1.5523  0.0410
 8357SOL    HW236531   1.786   3.056   4.948  0.7305  0.0481  1.3000
 8358SOL     OW36532   3.007   3.241   3.102 -0.0321  0.2251 -0.2567
 8358SOL    HW136533   3.061   3.279   3.171  1.9688  0.0177 -1.7343
 8358SOL    HW236534   3.048   3.156   3.090 -1.1630 -0.2178 -1.0622
 8359SOL     OW36535   2.834   2.096   7.253  0.1213  0.5036  0.1599
 8359SOL    HW136536   2.892   2.170   7.271 -0.0646  0.3434  1.3987
 8359SOL    HW236537   2.882   2.051   7.183 -0.9875  0.6426 -0.6861
 8360SOL     OW36538   1.087   2.943   4.973  0.4451 -0.5997  0.2799
 8360SOL    HW136539   1.091   2.990   4.890 -0.1275 -1.1292 -0.0441
 8360SOL    HW236540   1.006   2.894   4.962 -1.5283  2.8257 -0.5202
 8361SOL     OW36541   4.142   4.248  13.738  0.4832  0.0145  0.0453
 8361SOL    HW136542   4.087   4.305  13.685  0.6072  1.8797  1.9487
 8361SOL    HW236543   4.112   4.282  13.822  1.0041  1.3162 -0.2930
 8362SOL     OW36544   1.801   2.007   5.265 -0.4505 -0.2558 -0.5537
 8362SOL    HW136545   1.801   1.998   5.360 -0.0514  0.4538 -0.4869
 8362SOL    HW236546   1.710   2.032   5.254 -1.1891 -2.6814  0.1332
 8363SOL     OW36547   0.107   4.451   1.856 -0.8371 -0.0793 -0.3888
 8363SOL    HW136548   0.153   4.534   1.865  0.9133 -1.1064  0.3406
 8363SOL    HW236549   0.036   4.467   1.794 -0.5332  0.9133 -0.4751
 8364SOL     OW36550   1.228   4.715   5.668  0.4787 -0.1914 -0.4258
 8364SOL    HW136551   1.228   4.687   5.576  2.9721  1.0609 -0.8053
 8364SOL    HW236552   1.143   4.677   5.691  0.1423  1.5660  1.2253
 8365SOL     OW36553   0.085   0.696   0.498  0.1450  0.1246 -0.6041
 8365SOL    HW136554   0.119   0.709   0.409  0.2656 -1.5955 -0.8103
 8365SOL    HW236555   0.127   0.615   0.527  1.1017  1.5363  1.9537
 8366SOL     OW36556   1.808   2.436   0.807 -0.2433  0.4634 -1.1162
 8366SOL    HW136557   1.745   2.501   0.778 -1.2637 -1.4362 -3.0654
 8366SOL    HW236558   1.886   2.492   0.812 -0.3525  0.5110  0.0406
 8367SOL     OW36559   3.771   2.874   7.744 -0.1607 -0.3790 -0.5556
 8367SOL    HW136560   3.753   2.950   7.690 -0.6341  0.8350  1.3183
 8367SOL    HW236561   3.804   2.811   7.680  0.1338 -1.6232  0.8061
 8368SOL     OW36562   1.420   0.591   2.403 -0.0226  0.2171 -0.2794
 8368SOL    HW136563   1.502   0.601   2.451 -1.5434  0.3562  2.2712
 8368SOL    HW236564   1.367   0.589   2.483  0.6978 -0.6913  0.1826
 8369SOL     OW36565   2.870   2.392  16.630  0.8349 -0.6872 -0.4804
 8369SOL    HW136566   2.786   2.348  16.614 -0.7463  2.1938 -0.1011
 8369SOL    HW236567   2.891   2.369  16.720 -1.1103  0.6967  0.3202
 8370SOL     OW36568   0.356   4.530   1.694 -0.2013  0.0281  0.6123
 8370SOL    HW136569   0.299   4.558   1.766  0.3906  2.8385 -0.0156
 8370SOL    HW236570   0.442   4.546   1.733  1.5001 -4.3993 -1.3406
 8371SOL     OW36571   4.574   3.718   1.812 -0.2870 -0.4594  0.3563
 8371SOL    HW136572   4.627   3.640   1.832  0.3408 -0.4682 -1.3578
 8371SOL    HW236573   4.592   3.753   1.899  1.5281  0.2125 -0.2943
 8372SOL     OW36574   3.930   1.869   3.040  0.7851 -0.3627 -0.0531
 8372SOL    HW136575   3.918   1.778   3.012 -0.0680 -0.5736  1.0141
 8372SOL    HW236576   3.850   1.907   3.004  1.7294  0.1337 -1.6656
 8373SOL     OW36577   1.992   2.938   3.910 -0.2039  0.2618 -0.2470
 8373SOL    HW136578   2.023   2.871   3.850 -2.0488  0.3750 -1.3343
 8373SOL    HW236579   2.058   2.928   3.978 -0.7612  0.8065  0.3852
 8374SOL     OW36580   3.319   4.537  17.256 -0.0743 -0.0368  0.3374
 8374SOL    HW136581   3.355   4.574  17.176  0.3818 -0.1254  0.5026
 8374SOL    HW236582   3.226   4.547  17.236  0.2290  0.8116 -0.6609
 8375SOL     OW36583   1.072   0.726   6.568 -0.6157 -0.0067 -0.5046
 8375SOL    HW136584   1.037   0.771   6.491 -2.9071 -1.0854 -0.1016
 8375SOL    HW236585   1.118   0.651   6.530 -0.5510 -1.7637  3.0865
 8376SOL     OW36586   2.961   1.795  17.386 -0.3664 -0.0144  0.1784
 8376SOL    HW136587   3.010   1.878  17.390 -2.5141  1.2368  0.8184
 8376SOL    HW236588   2.912   1.806  17.304 -0.0043 -0.0638 -0.0425
 8377SOL     OW36589   2.566   1.699   6.096 -0.8852 -0.0241 -0.0285
 8377SOL    HW136590   2.533   1.630   6.039  2.9110 -1.8785 -0.0081
 8377SOL    HW236591   2.547   1.652   6.177 -2.0956  1.6350  0.6502
 8378SOL     OW36592   3.723   1.782  12.085  0.1826 -0.4215  0.2776
 8378SOL    HW136593   3.665   1.858  12.094  0.3214 -0.1740 -0.9788
 8378SOL    HW236594   3.664   1.725  12.036 -1.6319  1.3628  0.3716
 8379SOL     OW36595   2.514   4.672   4.743 -0.3236 -0.0022 -0.2608
 8379SOL    HW136596   2.549   4.717   4.667  2.6433 -2.2242 -0.2250
 8379SOL    HW236597   2.555   4.586   4.729 -2.7721 -1.1405 -0.5257
 8380SOL     OW36598   4.138   3.724  17.668 -0.0497 -0.7933 -0.4165
 8380SOL    HW136599   4.167   3.770   0.047 -0.8809  1.1476 -1.2482
 8380SOL    HW236600   4.136   3.795  17.604  1.7982  0.2237  0.6878
 8381SOL     OW36601   4.261   4.499   0.209 -0.5085  0.6081  0.2196
 8381SOL    HW136602   4.215   4.422   0.178  0.3311 -1.4700  4.0917
 8381SOL    HW236603   4.341   4.491   0.158 -0.5159  0.9166  0.1571
 8382SOL     OW36604   0.703   2.958   6.253 -0.6068 -0.0648  0.5623
 8382SOL    HW136605   0.650   3.019   6.305  2.3981  0.8897  2.5230
 8382SOL    HW236606   0.788   2.991   6.284  0.0259 -0.1726 -1.0868
 8383SOL     OW36607   1.834   2.621   3.446 -0.3658 -0.1107  1.0450
 8383SOL    HW136608   1.766   2.620   3.378  0.8984 -2.1910 -0.2069
 8383SOL    HW236609   1.780   2.638   3.523  0.3133  0.7036  1.3495
 8384SOL     OW36610   0.141   0.059   4.420  0.1076  0.1065 -0.3464
 8384SOL    HW136611   0.062   0.030   4.375 -0.3009  0.1767  0.3178
 8384SOL    HW236612   0.129   0.154   4.427 -0.8015 -0.1573  1.9086
 8385SOL     OW36613   1.163   3.951   7.934  0.0423  0.4022  0.2664
 8385SOL    HW136614   1.239   3.921   7.885 -0.6079 -0.0066 -0.4768
 8385SOL    HW236615   1.153   4.036   7.892  1.1273 -0.1128 -1.0006
 8386SOL     OW36616   4.290   4.052  12.943 -0.1287 -0.2995 -0.1808
 8386SOL    HW136617   4.258   4.140  12.964 -0.3527 -0.1320 -1.2205
 8386SOL    HW236618   4.384   4.071  12.942 -0.0812 -0.5630 -0.6501
 8387SOL     OW36619   2.899   0.616   4.186 -0.0351  0.0201  0.2294
 8387SOL    HW136620   2.880   0.558   4.112 -1.2814  2.4769 -1.3734
 8387SOL    HW236621   2.898   0.563   4.266  2.6142  0.0053  0.2440
 8388SOL     OW36622   4.088   0.633   1.294 -0.2938 -0.0898  0.5770
 8388SOL    HW136623   4.106   0.555   1.348  0.4447 -2.8600 -3.6764
 8388SOL    HW236624   3.997   0.622   1.321  0.8265 -1.5002  3.7879
 8389SOL     OW36625   4.665   1.950  14.242  0.8263  0.5181 -0.1260
 8389SOL    HW136626   4.626   2.009  14.307 -0.9916  0.3838 -1.0840
 8389SOL    HW236627   4.612   1.870  14.238 -1.1100  1.7776 -0.0155
 8390SOL     OW36628   4.146   0.521   4.766 -0.1553 -0.4235  0.1986
 8390SOL    HW136629   4.163   0.450   4.828 -0.6882  0.5452  1.4513
 8390SOL    HW236630   4.094   0.486   4.693 -0.7818  2.7341 -0.8687
 8391SOL     OW36631   1.730   3.951  14.807  0.3998 -0.5534 -0.1059
 8391SOL    HW136632   1.748   3.869  14.854  0.0989 -1.2285 -1.1580
 8391SOL    HW236633   1.640   3.934  14.779 -0.2321 -1.0452  2.1539
 8392SOL     OW36634   0.316   2.409   1.966  0.4119  0.1295  0.4301
 8392SOL    HW136635   0.379   2.442   1.901 -1.0684  1.0428 -0.5322
 8392SOL    HW236636   0.237   2.421   1.913  0.3878 -2.2517 -0.0586
 8393SOL     OW36637   0.861   1.508   2.302 -0.4094 -0.2400  0.1582
 8393SOL    HW136638   0.830   1.422   2.275  1.6953 -0.9909  0.1254
 8393SOL    HW236639   0.783   1.563   2.304 -0.0223  0.3233 -0.2993
 8394SOL     OW36640   3.718   3.879  11.551 -0.1122 -0.1808  0.0017
 8394SOL    HW136641   3.778   3.930  11.606 -1.0554 -1.3238  2.0486
 8394SOL    HW236642   3.665   3.948  11.512  2.3547  2.1736  0.7889
 8395SOL     OW36643   1.441   3.751  17.001 -0.2398 -0.3179  0.4123
 8395SOL    HW136644   1.453   3.666  17.044 -2.0850 -0.8928 -0.2164
 8395SOL    HW236645   1.529   3.767  16.966 -0.2277  0.6335  0.8892
 8396SOL     OW36646   1.672   0.135  17.603  0.2435  0.1501  0.0127
 8396SOL    HW136647   1.652   0.173  17.517  3.5438  1.3762 -0.2513
 8396SOL    HW236648   1.764   0.161  17.616  0.2696 -0.0077  0.1412
 8397SOL     OW36649   4.388   1.452   5.306  0.0148 -0.2548 -0.5751
 8397SOL    HW136650   4.298   1.422   5.290  0.8142 -3.1175  0.3134
 8397SOL    HW236651   4.382   1.545   5.284  0.9885 -0.7326 -2.8846
 8398SOL     OW36652   3.446   0.968   2.895  0.4173  0.1791  0.4727
 8398SOL    HW136653   3.396   1.046   2.871 -0.3279 -0.1674  0.9035
 8398SOL    HW236654   3.475   0.949   2.806 -1.4550 -1.7825  0.2913
 8399SOL     OW36655   2.904   4.055   9.993 -0.3998 -0.1752  0.1132
 8399SOL    HW136656   2.945   4.011  10.067  0.5672  0.0803 -0.2749
 8399SOL    HW236657   2.954   4.135  10.006 -0.9337 -0.1134  1.7574
 8400SOL     OW36658   3.863   1.430   8.972  0.3448  0.7346 -0.7693
 8400SOL    HW136659   3.916   1.500   8.935  0.5946  0.1290 -1.5777
 8400SOL    HW236660   3.889   1.451   9.061 -0.8044 -2.0601  0.2251
 8401SOL     OW36661   4.526   1.203   9.224 -0.0414 -0.0561 -0.2730
 8401SOL    HW136662   4.526   1.293   9.257  1.1155  0.1542 -0.8726
 8401SOL    HW236663   4.445   1.205   9.172  0.1425  2.5526 -0.4438
 8402SOL     OW36664   0.439   3.238  15.205  0.3667  0.2344 -0.5721
 8402SOL    HW136665   0.476   3.307  15.260 -2.1856 -0.9260  2.5748
 8402SOL    HW236666   0.440   3.165  15.266  2.7508  0.1813 -0.6793
 8403SOL     OW36667   4.174   2.321  14.411  0.1950  0.0093  0.1717
 8403SOL    HW136668   4.203   2.273  14.334  3.9751  1.5232  0.6655
 8403SOL    HW236669   4.099   2.372  14.381 -1.1381 -1.1870  1.4225
 8404SOL     OW36670   0.758   4.061   7.341 -0.0636  0.1566  0.5252
 8404SOL    HW136671   0.795   3.999   7.404  1.0261  0.8892  0.5942
 8404SOL    HW236672   0.687   4.021   7.290  1.7624 -0.8446 -1.2375
 8405SOL     OW36673   0.075   4.535   7.765 -0.4259 -0.0544  0.3732
 8405SOL    HW136674   0.114   4.596   7.703  0.0072 -2.0746 -1.3467
 8405SOL    HW236675   0.008   4.592   7.803  0.9930  1.7258  0.1830
 8406SOL     OW36676   1.465   1.870   6.219  0.3257 -0.1751 -0.7879
 8406SOL    HW136677   1.550   1.890   6.179  0.3406  0.0916 -0.6239
 8406SOL    HW236678   1.476   1.902   6.309  0.5231  0.1463 -0.9286
 8407SOL     OW36679   2.955   0.371   3.544 -0.1246 -0.0087  0.8552
 8407SOL    HW136680   3.018   0.421   3.492  0.0061  1.5244  2.5113
 8407SOL    HW236681   3.020   0.322   3.595  0.6859 -1.4698 -1.6091
 8408SOL     OW36682   3.738   3.563   9.209  1.2314  0.1882  0.5510
 8408SOL    HW136683   3.800   3.590   9.277 -0.4458  0.6438  1.8811
 8408SOL    HW236684   3.685   3.642   9.208 -0.6275 -1.0737 -0.5647
 8409SOL     OW36685   0.259   3.312   7.337 -0.3148 -0.1353  0.0337
 8409SOL    HW136686   0.295   3.358   7.413  0.7646  0.9042 -1.1178
 8409SOL    HW236687   0.180   3.279   7.380  0.6299 -0.1724  1.7417
 8410SOL     OW36688   0.569   3.300  12.911 -0.2179  0.0603  0.1351
 8410SOL    HW136689   0.520   3.381  12.897 -0.7302  0.0234  1.7341
 8410SOL    HW236690   0.498   3.243  12.941  0.3048  0.0892  1.4281
 8411SOL     OW36691   2.266   2.701   4.792  0.1031 -0.4207  0.1506
 8411SOL    HW136692   2.315   2.746   4.861 -1.6256  1.6118  0.0625
 8411SOL    HW236693   2.269   2.610   4.823  0.1632  0.1591  1.8798
 8412SOL     OW36694   1.819   3.838  17.305  0.5947  0.1634  0.4935
 8412SOL    HW136695   1.794   3.877  17.388 -1.3975  2.6029 -1.2454
 8412SOL    HW236696   1.769   3.756  17.311  1.3764 -0.3516 -0.0336
 8413SOL     OW36697   4.384   4.598   4.306  0.4334 -0.3466 -0.1853
 8413SOL    HW136698   4.415   4.568   4.220 -1.8059  3.5422 -2.3470
 8413SOL    HW236699   4.363   4.522   4.360  0.6748 -0.4312 -0.2102
 8414SOL     OW36700   0.137   1.674  14.369  0.0780  0.2124  0.3650
 8414SOL    HW136701   0.150   1.767  14.391 -1.2602  0.0500  1.8280
 8414SOL    HW236702   0.150   1.660  14.276 -2.7695 -0.4480  0.0774
 8415SOL     OW36703   3.300   2.872  13.126 -0.0895  0.2219 -0.0465
 8415SOL    HW136704   3.235   2.804  13.144  1.6099 -1.5657 -0.5497
 8415SOL    HW236705   3.254   2.947  13.163 -1.1764 -0.1612 -0.6469
 8416SOL     OW36706   3.518   4.635   6.568 -0.3859  1.4589  0.3566
 8416SOL    HW136707   3.481   4.559   6.614  1.6230  1.1786  1.5123
 8416SOL    HW236708   3.577   4.671   6.634 -1.1812  0.1529  1.7791
 8417SOL     OW36709   0.092   1.916   5.241 -0.0946  0.4114  0.2142
 8417SOL    HW136710   0.014   1.932   5.295 -1.4033  0.3708 -1.6611
 8417SOL    HW236711   0.106   1.824   5.266  3.0007 -0.0892 -3.2919
 8418SOL     OW36712   2.934   3.766   9.046  0.3601 -0.1392  0.0468
 8418SOL    HW136713   3.009   3.814   9.082 -0.0807  1.0005 -0.5247
 8418SOL    HW236714   2.960   3.774   8.954 -0.0649 -1.7108 -0.1990
 8419SOL     OW36715   2.842   1.037  16.845  0.3209 -0.1594 -0.2537
 8419SOL    HW136716   2.837   1.026  16.750  0.3805  0.6654 -0.3573
 8419SOL    HW236717   2.757   1.073  16.872 -0.5772 -0.0471 -3.2496
 8420SOL     OW36718   0.446   3.430   4.666  0.5858 -0.2151  0.0452
 8420SOL    HW136719   0.530   3.384   4.670  0.1479 -0.6485  4.9554
 8420SOL    HW236720   0.434   3.446   4.760 -1.4517  0.2818 -0.3141
 8421SOL     OW36721   1.540   1.981   1.166 -0.0968 -0.0680 -0.6242
 8421SOL    HW136722   1.543   2.028   1.083  0.2665  2.2232  0.6871
 8421SOL    HW236723   1.621   2.010   1.208 -0.9037  0.1840  0.7537
 8422SOL     OW36724   3.555   3.070   5.617  0.0471  0.4205 -0.1606
 8422SOL    HW136725   3.476   3.062   5.563  1.2304  1.5697 -2.0459
 8422SOL    HW236726   3.599   2.989   5.590 -2.4431 -0.1774 -2.4604
 8423SOL     OW36727   1.914   0.873   5.496  0.0366  0.4270 -0.4334
 8423SOL    HW136728   1.961   0.792   5.509  1.4901  1.0963 -1.5665
 8423SOL    HW236729   1.898   0.901   5.587  0.5200 -0.6764 -0.0221
 8424SOL     OW36730   1.353   3.883   6.752  0.2352  0.0029  0.1980
 8424SOL    HW136731   1.331   3.949   6.686  1.0645  0.9454  0.8663
 8424SOL    HW236732   1.391   3.935   6.822  2.9003 -2.6626  0.7223
 8425SOL     OW36733   3.102   1.818   2.941 -0.3185  0.1055 -0.0891
 8425SOL    HW136734   3.015   1.783   2.920 -1.3876  2.9419 -0.4021
 8425SOL    HW236735   3.160   1.743   2.926 -2.1516 -1.4318  0.5000
 8426SOL     OW36736   1.257   2.287   4.745 -0.0339  0.2332 -0.6812
 8426SOL    HW136737   1.231   2.379   4.738  1.4523  0.6571 -0.6149
 8426SOL    HW236738   1.274   2.277   4.839  1.4642 -2.7721 -1.2692
 8427SOL     OW36739   4.375   3.605   5.896  0.6017 -0.1224  0.3459
 8427SOL    HW136740   4.367   3.646   5.982 -1.1073 -3.6093  1.8378
 8427SOL    HW236741   4.468   3.583   5.900  0.8424  0.9107  0.3716
 8428SOL     OW36742   1.034   3.159  16.481 -0.1723  0.0144 -0.3429
 8428SOL    HW136743   0.952   3.203  16.459  0.0767  1.3447  1.3781
 8428SOL    HW236744   1.020   3.150  16.575  0.3481  1.0335 -0.1815
 8429SOL     OW36745   1.278   4.098  12.808  0.6197 -0.5660 -0.6504
 8429SOL    HW136746   1.264   4.150  12.887  2.8262  1.6458 -1.7196
 8429SOL    HW236747   1.339   4.162  12.769 -1.5730  1.7345 -0.2579
 8430SOL     OW36748   3.133   0.180   8.861 -0.0683  0.2721 -0.0778
 8430SOL    HW136749   3.214   0.192   8.910  0.4314  1.3121 -1.1450
 8430SOL    HW236750   3.065   0.215   8.919 -0.6938  0.4596 -0.9167
 8431SOL     OW36751   1.758   1.285   0.891 -0.5123  0.1032 -0.1306
 8431SOL    HW136752   1.690   1.306   0.827 -0.6584  0.0647  0.0110
 8431SOL    HW236753   1.733   1.343   0.963 -1.8350 -0.0644 -0.4365
 8432SOL     OW36754   2.233   0.041  14.900  0.5846 -0.0952  0.1401
 8432SOL    HW136755   2.236   4.691  14.841 -0.9578  0.4373 -0.5957
 8432SOL    HW236756   2.139   0.056  14.900  0.7743  1.1334 -0.9093
 8433SOL     OW36757   1.615   2.796   2.473 -0.0775  0.5480  0.8292
 8433SOL    HW136758   1.649   2.820   2.559 -0.7464  1.6379  0.7973
 8433SOL    HW236759   1.616   2.876   2.421  0.3188 -0.0191 -0.0250
 8434SOL     OW36760   4.720   3.165   8.989  0.5877  0.4146 -0.2658
 8434SOL    HW136761   0.025   3.101   8.925 -0.3038 -0.1639 -0.1059
 8434SOL    HW236762   4.650   3.122   9.040  3.5052 -1.4043  2.2170
 8435SOL     OW36763   3.070   4.315  10.248 -0.1292  0.4676 -0.0394
 8435SOL    HW136764   3.064   4.300  10.153 -1.4535  1.4585 -0.1196
 8435SOL    HW236765   3.134   4.387  10.241 -0.8790  1.1313 -0.0560
 8436SOL     OW36766   3.716   0.501   2.963 -0.1752  0.4286  0.0494
 8436SOL    HW136767   3.786   0.561   2.939  0.5146  0.3341  1.8259
 8436SOL    HW236768   3.756   0.415   2.958  0.4763  0.7549 -0.2749
 8437SOL     OW36769   1.276   3.888   4.910  0.0589  0.5245 -0.4091
 8437SOL    HW136770   1.349   3.919   4.963  0.3475 -0.6393 -0.1211
 8437SOL    HW236771   1.278   3.944   4.833  2.0283  1.5175  0.3436
 8438SOL     OW36772   0.386   1.636   1.862 -0.4833  0.0663 -0.0981
 8438SOL    HW136773   0.441   1.684   1.799  0.5882 -1.4690 -0.3112
 8438SOL    HW236774   0.455   1.589   1.908 -3.8910 -3.2755  1.5830
 8439SOL     OW36775   3.333   0.616   5.723 -0.6012 -0.4801 -0.7014
 8439SOL    HW136776   3.254   0.669   5.715  0.9784  2.0894  0.6513
 8439SOL    HW236777   3.393   0.685   5.694  1.2257 -1.4257  0.8585
 8440SOL     OW36778   0.721   0.833   6.671 -0.3962  0.4932  0.1055
 8440SOL    HW136779   0.641   0.788   6.698  0.6079 -2.0130 -1.0726
 8440SOL    HW236780   0.737   0.801   6.582  0.9131  0.1897  0.4576
 8441SOL     OW36781   2.364   1.068  16.889  0.5515 -0.0976  1.0548
 8441SOL    HW136782   2.453   1.084  16.920  0.6133 -0.7810  1.2207
 8441SOL    HW236783   2.342   1.132  16.821 -0.0630 -1.5367 -0.0883
 8442SOL     OW36784   3.118   1.981   4.561 -0.2081  0.4356 -0.1213
 8442SOL    HW136785   3.071   2.045   4.615  1.9120  2.3341 -0.5237
 8442SOL    HW236786   3.065   1.903   4.575  2.0636 -0.8398  1.3797
 8443SOL     OW36787   4.121   1.330   6.108 -0.1214  0.2893  0.1051
 8443SOL    HW136788   4.054   1.264   6.126  1.0074 -0.5234  1.3168
 8443SOL    HW236789   4.164   1.287   6.035  0.3528  0.1861  0.4436
 8444SOL     OW36790   1.670   3.868  10.448  0.0930  0.2208  0.4973
 8444SOL    HW136791   1.583   3.891  10.416 -0.9660 -1.9291  1.9269
 8444SOL    HW236792   1.673   3.932  10.519 -2.8522 -1.2206  1.8793
 8445SOL     OW36793   1.824   3.264   7.109 -0.2501 -0.5238  0.0055
 8445SOL    HW136794   1.814   3.178   7.151 -0.0711  0.1653  1.4510
 8445SOL    HW236795   1.919   3.274   7.110 -0.1987 -1.1542  1.1884
 8446SOL     OW36796   2.110   0.484   9.664 -0.5141 -0.0264 -0.4183
 8446SOL    HW136797   2.089   0.577   9.658  0.3426  0.1462 -0.7430
 8446SOL    HW236798   2.187   0.481   9.606 -0.2575  3.5758 -0.2331
 8447SOL     OW36799   1.449   0.383  14.251 -0.8295  0.3949  0.3862
 8447SOL    HW136800   1.493   0.428  14.324 -1.0186  0.4793  0.4496
 8447SOL    HW236801   1.476   0.434  14.175 -2.2323  0.0192 -0.3574
 8448SOL     OW36802   1.310   1.038   2.930 -0.1661  0.2487  0.3649
 8448SOL    HW136803   1.250   1.051   3.004  0.6976  0.8716  0.9628
 8448SOL    HW236804   1.259   1.075   2.858  0.4420  0.9418  0.2806
 8449SOL     OW36805   1.810   2.170   2.864  0.4652 -0.1894  0.4268
 8449SOL    HW136806   1.803   2.149   2.957  1.1564  0.1364  0.5500
 8449SOL    HW236807   1.736   2.125   2.824 -0.4237  0.4192  1.3634
 8450SOL     OW36808   1.859   1.040  14.157  0.1032  0.4649  0.0071
 8450SOL    HW136809   1.844   0.946  14.157  1.9579  0.1842 -0.1823
 8450SOL    HW236810   1.923   1.046  14.228  1.1821 -0.9945 -0.8430
 8451SOL     OW36811   3.640   1.904  11.658 -0.3310 -0.3434  0.2944
 8451SOL    HW136812   3.619   1.965  11.728  1.4734  1.1906 -0.4908
 8451SOL    HW236813   3.553   1.870  11.637 -1.3966  1.4635  1.7501
 8452SOL     OW36814   2.330   3.104   6.088  0.4275 -0.6429  0.3078
 8452SOL    HW136815   2.368   3.023   6.120  2.4872 -0.3587 -1.4374
 8452SOL    HW236816   2.251   3.075   6.042 -1.6207 -0.2884  3.6123
 8453SOL     OW36817   4.118   0.488   8.819  0.2803  0.0053  0.4355
 8453SOL    HW136818   4.123   0.509   8.912  1.8614  0.5343  0.2294
 8453SOL    HW236819   4.030   0.525   8.806 -0.1061 -1.0700 -0.0820
 8454SOL     OW36820   3.733   3.428   6.114 -0.1008  0.6699  0.1752
 8454SOL    HW136821   3.738   3.385   6.199  0.0173 -0.8853 -0.6135
 8454SOL    HW236822   3.638   3.440   6.113 -0.2350 -0.2913  1.6517
 8455SOL     OW36823   1.497   2.857   4.528  0.0280 -0.1315  0.2479
 8455SOL    HW136824   1.520   2.940   4.486 -2.0703  0.4881  0.3409
 8455SOL    HW236825   1.537   2.868   4.615  0.0213  1.2338  0.0750
 8456SOL     OW36826   4.453   4.053   2.715 -0.2048  0.1751 -0.7608
 8456SOL    HW136827   4.506   4.127   2.744  1.3277 -1.2817  0.1958
 8456SOL    HW236828   4.476   4.057   2.622 -1.9349  0.0882 -1.2042
 8457SOL     OW36829   0.839   3.441  16.106  0.2837  0.3443  0.1624
 8457SOL    HW136830   0.755   3.454  16.149 -1.0485  0.5239 -2.4368
 8457SOL    HW236831   0.836   3.484  16.020  0.5954 -0.7425 -0.3960
 8458SOL     OW36832   4.587   3.241  11.729 -0.0130  0.4395 -0.7684
 8458SOL    HW136833   4.582   3.252  11.633 -1.6446  2.6392 -0.4418
 8458SOL    HW236834   4.515   3.179  11.737 -0.2722  0.7121 -0.9671
 8459SOL     OW36835   1.974   3.519   6.517 -0.3647  0.1059 -0.0610
 8459SOL    HW136836   1.966   3.511   6.612  1.4090  0.5539  0.1402
 8459SOL    HW236837   1.965   3.426   6.499  2.6560 -0.2490  0.2301
 8460SOL     OW36838   1.619   2.687  15.231 -0.2296 -0.6207  0.2443
 8460SOL    HW136839   1.576   2.760  15.187  1.0538 -0.1498 -0.2206
 8460SOL    HW236840   1.562   2.678  15.308  2.5023 -0.1640  2.2969
 8461SOL     OW36841   0.954   1.481   5.640  0.5172 -0.0396  0.1469
 8461SOL    HW136842   0.970   1.555   5.582  0.6859  0.2780  0.5956
 8461SOL    HW236843   0.881   1.515   5.692  0.2542  0.3013 -0.4508
 8462SOL     OW36844   4.076   2.329   0.177  0.2999 -0.2577  0.3273
 8462SOL    HW136845   4.027   2.316   0.259 -1.3117 -1.8188 -0.8680
 8462SOL    HW236846   4.113   2.415   0.194 -0.6862  0.4141 -0.9911
 8463SOL     OW36847   0.683   3.189   3.189  0.0544  0.2881  0.3154
 8463SOL    HW136848   0.757   3.128   3.180  0.2104  0.1517  2.5746
 8463SOL    HW236849   0.732   3.269   3.206  1.0303 -0.4575  1.0839
 8464SOL     OW36850   1.473   1.527   3.686  0.3942  0.6250  0.4895
 8464SOL    HW136851   1.389   1.481   3.683  0.6723  0.1529 -0.3061
 8464SOL    HW236852   1.541   1.475   3.643  0.6970  1.2522  0.2098
 8465SOL     OW36853   2.007   3.879   4.511 -0.5112 -0.3619  0.3884
 8465SOL    HW136854   2.073   3.902   4.446  0.4423  0.9506  1.8110
 8465SOL    HW236855   2.048   3.910   4.592 -0.5545 -0.1428  0.3271
 8466SOL     OW36856   4.722   1.212  17.382 -0.1940 -0.4693  0.3239
 8466SOL    HW136857   4.668   1.259  17.446 -1.1793 -3.4348  1.6830
 8466SOL    HW236858   0.085   1.250  17.392 -0.6247  0.5458  0.1736
 8467SOL     OW36859   0.411   2.722   7.052 -0.5982 -0.0673  0.1063
 8467SOL    HW136860   0.482   2.663   7.078 -1.3114 -0.5236  1.0305
 8467SOL    HW236861   0.365   2.735   7.135  0.5624  1.6679  0.4814
 8468SOL     OW36862   2.854   1.679   5.090 -0.2601 -0.1723 -0.1048
 8468SOL    HW136863   2.807   1.604   5.053 -0.5620 -0.6820  1.2802
 8468SOL    HW236864   2.855   1.652   5.182 -2.7633  0.2006  0.0492
 8469SOL     OW36865   4.618   3.329   7.990  0.0076  0.3274  0.8048
 8469SOL    HW136866   4.540   3.384   7.984 -0.6881 -0.6383  0.7911
 8469SOL    HW236867   4.693   3.388   7.992  0.3276  0.0256 -2.9216
 8470SOL     OW36868   0.829   3.787   9.892 -0.1820 -0.4195  0.0707
 8470SOL    HW136869   0.777   3.813   9.816  1.5213 -0.8186 -1.2183
 8470SOL    HW236870   0.768   3.818   9.959  2.4188  1.6259  1.5028
 8471SOL     OW36871   1.713   3.869  11.365 -0.1170  0.7889  0.2051
 8471SOL    HW136872   1.755   3.788  11.393 -1.3190 -0.5406 -1.8392
 8471SOL    HW236873   1.777   3.923  11.319 -0.7230  1.7357  0.4729
 8472SOL     OW36874   1.463   4.089   9.257 -0.0315 -0.6317  0.1832
 8472SOL    HW136875   1.494   4.018   9.313 -1.0812 -0.7745  0.5860
 8472SOL    HW236876   1.500   4.055   9.175  0.3384 -1.1111  0.5515
 8473SOL     OW36877   0.377   4.479  12.227 -0.0066 -0.0235  0.2755
 8473SOL    HW136878   0.316   4.552  12.231 -1.2506 -1.0899  0.9618
 8473SOL    HW236879   0.415   4.491  12.314  0.6029 -1.4925  0.2227
 8474SOL     OW36880   3.824   1.400   3.334  0.3027  0.4679 -0.6309
 8474SOL    HW136881   3.770   1.327   3.365  0.9696  0.4978  0.6314
 8474SOL    HW236882   3.899   1.342   3.321  0.4705  0.4802  0.3022
 8475SOL     OW36883   0.420   0.419  10.086  0.1225 -0.0152  0.8894
 8475SOL    HW136884   0.352   0.414  10.020  0.1370  1.3944  0.7801
 8475SOL    HW236885   0.368   0.443  10.162  0.8951  1.2983  0.9943
 8476SOL     OW36886   4.085   3.192  16.405 -0.3653 -0.2141 -0.0899
 8476SOL    HW136887   4.007   3.139  16.387 -1.0250 -0.1596  2.6245
 8476SOL    HW236888   4.058   3.242  16.482  0.4133 -1.9205  1.2846
 8477SOL     OW36889   0.383   4.393   1.257  0.1875  0.7256 -0.2709
 8477SOL    HW136890   0.428   4.411   1.175  3.2153 -0.9591  0.9987
 8477SOL    HW236891   0.295   4.410   1.224 -1.0480  0.4220  2.8671
 8478SOL     OW36892   4.472   4.513  11.698  0.0809 -0.0989  0.0357
 8478SOL    HW136893   4.412   4.532  11.627  0.7280  1.1965 -0.1556
 8478SOL    HW236894   4.525   4.592  11.705 -0.4409  0.3105 -0.7794
 8479SOL     OW36895   2.308   2.583   4.224  0.3439  0.3172  0.5272
 8479SOL    HW136896   2.360   2.663   4.211 -1.1341  1.4658  1.5442
 8479SOL    HW236897   2.370   2.513   4.207 -0.0778 -0.0764  0.6040
 8480SOL     OW36898   3.482   4.489   5.693 -0.8910  0.2602  0.2358
 8480SOL    HW136899   3.552   4.431   5.663 -1.2053  0.9491 -1.8919
 8480SOL    HW236900   3.483   4.487   5.788  0.4653  2.3135  0.2663
 8481SOL     OW36901   2.753   4.197  13.387  0.6203  0.5497  0.0582
 8481SOL    HW136902   2.848   4.190  13.400  0.2197  1.4047  3.5963
 8481SOL    HW236903   2.738   4.144  13.309  2.4687  3.8736 -2.5512
 8482SOL     OW36904   0.150   0.770   4.789 -0.7861  0.5311 -0.1544
 8482SOL    HW136905   0.151   0.847   4.846 -1.1513  1.2323 -1.0923
 8482SOL    HW236906   0.241   0.740   4.799 -0.3558  1.9121  0.1108
 8483SOL     OW36907   2.934   3.190   2.686  0.0388  0.4981 -0.9041
 8483SOL    HW136908   2.882   3.243   2.746 -1.4201 -0.8185 -0.9811
 8483SOL    HW236909   3.026   3.215   2.687 -0.3040  1.6516  1.9835
 8484SOL     OW36910   1.830   4.438   6.463 -0.2604 -0.0661 -0.0240
 8484SOL    HW136911   1.892   4.506   6.437  0.1632 -0.6737 -0.5899
 8484SOL    HW236912   1.821   4.380   6.388  0.8417 -1.6849  1.0770
 8485SOL     OW36913   0.586   2.977  11.202 -0.0301  0.0720 -0.0228
 8485SOL    HW136914   0.617   3.037  11.270  1.0828 -1.2442  0.6359
 8485SOL    HW236915   0.529   2.922  11.257 -0.9376 -1.3814 -2.4379
 8486SOL     OW36916   1.391   0.408   0.207  0.0307 -0.6775  0.1502
 8486SOL    HW136917   1.395   0.357   0.126 -0.0020  0.3583 -0.5142
 8486SOL    HW236918   1.298   0.391   0.224 -0.2660  0.7554 -0.0272
 8487SOL     OW36919   0.760   4.708   3.169 -0.3161 -0.5259 -0.5396
 8487SOL    HW136920   0.783   4.626   3.125 -2.4681 -0.1959 -2.3102
 8487SOL    HW236921   0.815   0.043   3.118  0.4843 -1.4446 -0.7379
 8488SOL     OW36922   3.606   4.174  12.368 -0.1902  0.0506  0.4950
 8488SOL    HW136923   3.580   4.149  12.279  1.3188 -0.9889  0.3534
 8488SOL    HW236924   3.548   4.120  12.421 -2.6217  0.4547 -1.7499
 8489SOL     OW36925   1.678   4.596   0.624 -0.1347  0.4839 -0.0798
 8489SOL    HW136926   1.623   4.670   0.651 -3.0738 -1.3768 -0.9055
 8489SOL    HW236927   1.681   4.534   0.697  0.0036  0.0482 -0.4539
 8490SOL     OW36928   3.806   2.506   2.157 -0.1795 -0.3284  0.5993
 8490SOL    HW136929   3.864   2.432   2.174 -0.6691 -0.4168  1.8012
 8490SOL    HW236930   3.818   2.574   2.223  5.7376 -1.2968  0.5554
 8491SOL     OW36931   0.391   4.252   3.106 -0.4844  0.3714  0.2190
 8491SOL    HW136932   0.459   4.262   3.040 -1.3132  0.5456 -0.6003
 8491SOL    HW236933   0.429   4.179   3.156  2.2088  0.9253 -1.0674
 8492SOL     OW36934   0.533   1.371  17.361 -0.1015 -0.4604  0.0996
 8492SOL    HW136935   0.584   1.408  17.289 -1.3235  1.3210  0.1579
 8492SOL    HW236936   0.474   1.305  17.325 -0.3498  0.2363 -0.7710
 8493SOL     OW36937   0.969   3.809  11.868 -0.3516  0.1459 -0.2973
 8493SOL    HW136938   0.973   3.883  11.929  0.8197  0.6685 -1.0092
 8493SOL    HW236939   1.021   3.750  11.923 -1.9240 -0.3459  0.6740
 8494SOL     OW36940   1.582   2.391   9.180 -0.0497  0.5580  0.0140
 8494SOL    HW136941   1.652   2.382   9.115  0.2227 -0.5824  0.4575
 8494SOL    HW236942   1.624   2.350   9.256 -1.4775  1.4251  1.2571
 8495SOL     OW36943   4.159   4.599  14.377  0.0985  0.1981 -0.0438
 8495SOL    HW136944   4.182   4.691  14.390  0.8502  0.2694 -1.8036
 8495SOL    HW236945   4.067   4.609  14.353  0.1541 -1.1697 -0.8437
 8496SOL     OW36946   3.450   2.907   4.807 -0.0671 -0.4533 -0.2945
 8496SOL    HW136947   3.439   2.877   4.897 -0.1724 -0.3649 -0.2777
 8496SOL    HW236948   3.363   2.899   4.766 -1.0478  4.4104  0.9339
 8497SOL     OW36949   1.310   0.292  10.852 -0.1174 -0.3905  0.1383
 8497SOL    HW136950   1.265   0.243  10.782 -2.4832 -1.7949  2.6426
 8497SOL    HW236951   1.282   0.381  10.832  1.1183 -0.1404 -0.4748
 8498SOL     OW36952   0.470   3.062   2.839 -0.1940  0.4512  0.2226
 8498SOL    HW136953   0.525   3.123   2.789  0.6753 -0.6018 -0.0957
 8498SOL    HW236954   0.413   3.121   2.888  2.0820  1.8807  1.1353
 8499SOL     OW36955   1.414   3.470   6.135 -0.2269  0.4668 -0.0932
 8499SOL    HW136956   1.321   3.477   6.157  0.3788 -0.8974  2.9827
 8499SOL    HW236957   1.424   3.376   6.150  0.1707  0.6874  1.0355
 8500SOL     OW36958   1.828   3.669   8.626  0.1840 -0.5659  0.6811
 8500SOL    HW136959   1.834   3.586   8.578  1.2629 -0.2993  0.3643
 8500SOL    HW236960   1.733   3.677   8.615  0.7623  2.5525 -1.8843
 8501SOL     OW36961   1.121   3.319   2.217 -0.0707  0.5095  0.1346
 8501SOL    HW136962   1.198   3.331   2.271 -0.7360 -0.7663  1.3721
 8501SOL    HW236963   1.101   3.407   2.184  2.1152  0.4685 -1.2855
 8502SOL     OW36964   2.500   1.464   2.944 -0.8276 -0.1632 -0.2038
 8502SOL    HW136965   2.445   1.386   2.932  1.0201 -1.4878 -0.0625
 8502SOL    HW236966   2.443   1.536   2.969 -1.8109  0.3855 -3.9361
 8503SOL     OW36967   1.216   0.836   3.288 -0.3290  0.1016  0.1252
 8503SOL    HW136968   1.300   0.805   3.254 -0.8353 -0.0118 -1.0497
 8503SOL    HW236969   1.196   0.902   3.221  0.4050  1.0127  0.7979
 8504SOL     OW36970   2.160   4.052  15.671  0.1218 -0.5145 -0.8272
 8504SOL    HW136971   2.237   4.093  15.633 -1.7146  3.3495 -0.3791
 8504SOL    HW236972   2.143   4.109  15.746  1.4005 -1.3193  0.0654
 8505SOL     OW36973   3.757   1.428   6.604  0.6409 -0.0120 -0.0106
 8505SOL    HW136974   3.846   1.435   6.638  0.8156  2.6074 -0.9716
 8505SOL    HW236975   3.725   1.348   6.645  1.5202 -0.1216  0.4459
 8506SOL     OW36976   3.185   0.825   5.103  0.1640  0.4492 -0.1300
 8506SOL    HW136977   3.109   0.802   5.156  0.0573  0.7624 -0.1413
 8506SOL    HW236978   3.237   0.745   5.107  0.2206  0.5003  0.1235
 8507SOL     OW36979   0.158   1.514  14.086 -0.7971  0.0924 -0.0987
 8507SOL    HW136980   0.188   1.585  14.029  1.3274 -2.1637 -1.7609
 8507SOL    HW236981   0.230   1.499  14.148 -0.7630 -1.2748 -0.4662
 8508SOL     OW36982   1.167   0.372  14.164  0.5409 -0.2408  0.4135
 8508SOL    HW136983   1.256   0.370  14.199  1.0366  1.6172 -0.7373
 8508SOL    HW236984   1.182   0.347  14.073 -1.5949  1.4627 -0.4093
 8509SOL     OW36985   4.594   2.819   4.856  0.2022 -0.2749 -0.0119
 8509SOL    HW136986   4.515   2.858   4.894  1.1666 -0.0394  1.7756
 8509SOL    HW236987   4.656   2.848   4.923  1.0559  0.1831 -1.0074
 8510SOL     OW36988   2.477   0.433  14.536 -0.1970  0.1197  0.3396
 8510SOL    HW136989   2.398   0.433  14.483 -0.6040  1.8217  0.9525
 8510SOL    HW236990   2.474   0.349  14.583 -0.3942  0.0723  0.2434
 8511SOL     OW36991   3.483   2.481   4.398  0.5450 -0.2976  0.1656
 8511SOL    HW136992   3.512   2.480   4.489 -1.1699  1.6307  0.7550
 8511SOL    HW236993   3.565   2.469   4.352  0.1470  1.3765 -1.0090
 8512SOL     OW36994   2.480   0.222   0.010 -0.0392 -0.1604 -0.2076
 8512SOL    HW136995   2.473   0.264  17.624 -1.7405 -1.5669 -0.7693
 8512SOL    HW236996   2.388   0.197   0.020 -0.3302 -0.2259 -2.9307
 8513SOL     OW36997   2.768   1.092   6.554  0.1225 -0.2306 -0.1594
 8513SOL    HW136998   2.774   1.082   6.649 -1.8770  0.8339  0.0769
 8513SOL    HW236999   2.799   1.004   6.532 -2.0227 -0.5729 -1.8021
 8514SOL     OW37000   1.016   1.694   3.042  0.1485  0.1682 -0.2101
 8514SOL    HW137001   1.072   1.626   3.080 -2.1174 -2.3080 -1.2647
 8514SOL    HW237002   1.083   1.744   2.997  2.6105 -2.5143  0.4692
 8515SOL     OW37003   4.467   2.946   2.114  0.0226  0.2238  0.1801
 8515SOL    HW137004   4.391   2.981   2.067  0.3117 -3.0181 -2.7016
 8515SOL    HW237005   4.524   2.928   2.040  0.2938  0.4443  0.3379
 8516SOL     OW37006   3.008   0.439   9.404 -0.1177  0.5900 -0.6487
 8516SOL    HW137007   2.948   0.456   9.476 -0.3311 -1.7104 -0.2830
 8516SOL    HW237008   3.051   0.356   9.423 -0.0537  0.8482  0.3291
 8517SOL     OW37009   3.978   1.246   2.353  0.1710 -1.0208  0.0163
 8517SOL    HW137010   3.921   1.220   2.280  1.7709 -1.8405 -0.9583
 8517SOL    HW237011   4.038   1.172   2.347  1.2731 -0.2631  1.8523
 8518SOL     OW37012   2.027   4.369  15.079  0.3497 -0.3572  0.4380
 8518SOL    HW137013   1.939   4.399  15.057  0.3490 -0.3003  0.5159
 8518SOL    HW237014   2.074   4.453  15.082  0.2916 -0.3159  0.1072
 8519SOL     OW37015   1.112   3.579   2.146 -0.2988  0.3239 -0.1003
 8519SOL    HW137016   1.151   3.625   2.072  0.9827  0.0558  0.4044
 8519SOL    HW237017   1.134   3.635   2.220  2.5872 -1.8225  0.6825
 8520SOL     OW37018   1.743   0.177   8.297 -0.0277  0.3235 -0.6366
 8520SOL    HW137019   1.664   0.228   8.314  1.1413  1.8095  0.4315
 8520SOL    HW237020   1.705   0.091   8.280 -0.7535  0.4874  0.1728
 8521SOL     OW37021   4.720   4.165   5.123  0.1728  0.7734 -0.1465
 8521SOL    HW137022   0.083   4.175   5.086 -0.0134  2.3460 -0.1498
 8521SOL    HW237023   4.690   4.256   5.116  0.7028  0.9383 -0.2639
 8522SOL     OW37024   3.248   4.453   0.088 -0.0608  0.0388 -0.4619
 8522SOL    HW137025   3.334   4.445   0.129 -0.5894 -2.0018  0.2623
 8522SOL    HW237026   3.197   4.443   0.169  0.9873 -0.4170  0.1476
 8523SOL     OW37027   2.683   0.166  11.636  0.0618  0.3912 -0.0986
 8523SOL    HW137028   2.714   0.209  11.557  1.8022 -0.6249  0.0154
 8523SOL    HW237029   2.669   0.075  11.608 -1.1577  0.8378 -0.9307
 8524SOL     OW37030   3.684   3.056  15.533  0.0530  0.0631 -0.1578
 8524SOL    HW137031   3.661   3.050  15.626  1.8880 -1.3298  0.1953
 8524SOL    HW237032   3.738   2.978  15.523  0.7437  0.5899 -0.5399
 8525SOL     OW37033   1.850   0.322   7.578 -0.0173  0.1079 -0.4625
 8525SOL    HW137034   1.898   0.247   7.614  0.2723 -0.5150 -2.1244
 8525SOL    HW237035   1.791   0.272   7.521 -1.5929  0.7227  0.6462
 8526SOL     OW37036   1.353   1.561  10.409 -0.2576 -0.2071 -0.1385
 8526SOL    HW137037   1.413   1.495  10.375  2.6713  1.6952  1.3909
 8526SOL    HW237038   1.338   1.545  10.502 -0.7877  0.7936 -0.0422
 8527SOL     OW37039   2.876   4.566   9.563  0.1204 -0.2234 -0.1552
 8527SOL    HW137040   2.891   4.552   9.656  2.6977 -2.4070 -0.8761
 8527SOL    HW237041   2.952   4.518   9.530  0.8470  0.8016  0.0302
 8528SOL     OW37042   3.366   2.792   5.038 -0.0799  0.6386  0.0281
 8528SOL    HW137043   3.306   2.847   5.087 -1.2166  0.1284 -0.8119
 8528SOL    HW237044   3.404   2.739   5.109  1.9854 -1.8262 -2.9045
 8529SOL     OW37045   0.048   3.737   6.837 -0.3311 -0.2770 -0.3590
 8529SOL    HW137046   0.030   3.643   6.841 -2.6245  0.1221 -1.2206
 8529SOL    HW237047   4.687   3.772   6.860  1.1252  1.7415  1.9415
 8530SOL     OW37048   1.784   0.327   8.945  0.0657 -0.0062  0.1042
 8530SOL    HW137049   1.698   0.299   8.975  0.9593 -2.2017  0.6355
 8530SOL    HW237050   1.837   0.295   9.019  0.1186 -0.4082 -0.1059
 8531SOL     OW37051   3.310   4.667  16.063 -0.0274 -0.2421 -0.0687
 8531SOL    HW137052   3.363   4.707  16.132 -0.3200 -1.1253  0.6741
 8531SOL    HW237053   3.343   4.579  16.082  0.5957  0.0967  0.3844
 8532SOL     OW37054   4.503   1.945   5.277 -0.6182 -0.5103 -0.3196
 8532SOL    HW137055   4.480   1.941   5.185 -1.8489  2.7610 -0.1487
 8532SOL    HW237056   4.513   2.037   5.301  0.1808 -1.1587  1.8278
 8533SOL     OW37057   4.596   1.208   4.896  0.3019 -0.4833  0.0295
 8533SOL    HW137058   4.561   1.122   4.917 -0.5930 -0.3284 -0.8650
 8533SOL    HW237059   4.522   1.254   4.858  0.7723  1.1866  1.1224
 8534SOL     OW37060   1.367   4.699   0.090  0.3479 -0.0204 -0.0357
 8534SOL    HW137061   1.431   4.657   0.032  0.3899 -0.2769  0.1980
 8534SOL    HW237062   1.348   4.622   0.143 -0.3645  1.0456  1.2589
 8535SOL     OW37063   1.067   3.816   8.936  0.0660 -0.0633  0.2683
 8535SOL    HW137064   1.059   3.910   8.920  2.4421  0.0734 -0.1176
 8535SOL    HW237065   1.011   3.820   9.014 -0.8152  1.6088 -0.4508
 8536SOL     OW37066   2.625   4.094   6.574  0.7367 -0.7052  0.2606
 8536SOL    HW137067   2.654   4.143   6.498  2.5474  0.7307  1.8755
 8536SOL    HW237068   2.540   4.129   6.602  1.2569  0.5379  0.2666
 8537SOL     OW37069   1.788   3.489   7.628  0.6101 -0.0545  0.2610
 8537SOL    HW137070   1.718   3.542   7.666  0.0690  0.0707 -0.9060
 8537SOL    HW237071   1.809   3.429   7.699  0.2151  0.3267  0.7067
 8538SOL     OW37072   0.952   0.651  15.728 -0.1648 -0.0901  0.1803
 8538SOL    HW137073   1.005   0.617  15.799  0.1825 -1.6908 -0.8603
 8538SOL    HW237074   1.011   0.718  15.693  0.7227  0.0250  1.9287
 8539SOL     OW37075   1.361   2.059   6.814  0.4739 -0.1216  0.1707
 8539SOL    HW137076   1.438   2.116   6.810 -1.2151  2.1359 -0.1491
 8539SOL    HW237077   1.291   2.121   6.797 -1.2693 -1.6434  1.8365
 8540SOL     OW37078   1.569   4.329   2.269  0.3734 -0.5614  0.3107
 8540SOL    HW137079   1.597   4.298   2.355  2.0959 -1.2261 -0.4927
 8540SOL    HW237080   1.611   4.415   2.270 -2.4974  0.8080  2.3435
 8541SOL     OW37081   0.445   0.074   5.767  0.3234  0.3848 -0.1252
 8541SOL    HW137082   0.497   0.154   5.760 -1.0183  1.2062 -0.5221
 8541SOL    HW237083   0.368   0.089   5.713 -1.6661 -0.6561  2.4065
 8542SOL     OW37084   4.637   2.142  13.925 -0.1506  0.3593  0.0480
 8542SOL    HW137085   4.552   2.135  13.969 -0.5136  1.1494 -0.5232
 8542SOL    HW237086   4.607   2.130  13.835 -2.7139  1.7170  0.7201
 8543SOL     OW37087   1.254   0.905  12.299  0.5446  0.0256 -0.1239
 8543SOL    HW137088   1.256   0.812  12.276 -0.3436 -0.7924  3.0559
 8543SOL    HW237089   1.343   0.915  12.333 -0.3933  0.9835  2.0447
 8544SOL     OW37090   4.021   2.565  17.189  0.9503 -0.5917  0.2428
 8544SOL    HW137091   3.952   2.582  17.253 -0.0540  0.3227 -1.0723
 8544SOL    HW237092   4.040   2.653  17.155 -0.6599 -0.4054 -0.1568
 8545SOL     OW37093   3.051   1.769   8.616  0.2389  0.1721 -0.0701
 8545SOL    HW137094   3.030   1.832   8.686  0.9036 -2.4877  2.5303
 8545SOL    HW237095   3.132   1.743   8.660 -0.0092  0.7137  0.7252
 8546SOL     OW37096   2.597   2.093  15.868  0.1296  0.0551 -0.3536
 8546SOL    HW137097   2.592   2.017  15.926  1.4083  0.8122  0.7637
 8546SOL    HW237098   2.545   2.161  15.911 -0.3775 -0.3181 -0.3883
 8547SOL     OW37099   3.427   1.093   7.057  0.2601 -0.2843  0.4870
 8547SOL    HW137100   3.428   1.126   6.968 -3.0496 -0.4441  0.3980
 8547SOL    HW237101   3.433   1.180   7.098 -2.2624 -0.4667  1.2397
 8548SOL     OW37102   3.571   4.634   9.924 -0.0173 -0.0301  0.2988
 8548SOL    HW137103   3.490   4.680   9.947 -0.2295  0.9892 -2.5879
 8548SOL    HW237104   3.626   4.707   9.896 -0.4018  0.9537  2.1002
 8549SOL     OW37105   1.404   0.669   0.289 -0.1066  0.4075  0.1430
 8549SOL    HW137106   1.416   0.703   0.201  0.8158  0.0491  0.1269
 8549SOL    HW237107   1.384   0.578   0.265 -0.7888  0.5277  0.2442
 8550SOL     OW37108   2.425   2.523   3.140  0.4493 -0.8083 -0.4376
 8550SOL    HW137109   2.394   2.527   3.049  2.0178 -1.2047 -0.9824
 8550SOL    HW237110   2.468   2.607   3.153  0.5937 -0.4603 -3.0700
 8551SOL     OW37111   0.424   4.003   4.079 -0.1276 -0.2815  0.4225
 8551SOL    HW137112   0.510   4.040   4.059 -0.4994  0.1652 -0.3166
 8551SOL    HW237113   0.446   4.001   4.172  0.7509 -0.2305  0.2161
 8552SOL     OW37114   1.253   1.712  15.715  0.6416 -0.2209  0.1532
 8552SOL    HW137115   1.209   1.664  15.786  1.4806  0.7599  1.3247
 8552SOL    HW237116   1.225   1.803  15.715  1.1835 -0.0588  0.2302
 8553SOL     OW37117   4.348   4.087   3.486 -0.0178  0.5677 -0.1521
 8553SOL    HW137118   4.375   4.141   3.560  0.2074  0.2922 -0.0347
 8553SOL    HW237119   4.364   4.150   3.415 -0.2347  0.9502  0.1368
 8554SOL     OW37120   3.125   3.744   0.814  0.3164  0.5012 -0.1183
 8554SOL    HW137121   3.058   3.809   0.795 -0.8145  0.0854  2.5159
 8554SOL    HW237122   3.184   3.757   0.740  0.4630  1.6559  0.2045
 8555SOL     OW37123   4.071   3.456   9.720  0.2681  0.4418  0.3030
 8555SOL    HW137124   3.988   3.429   9.681 -0.6088  0.9815  1.8017
 8555SOL    HW237125   4.073   3.412   9.805  0.9966 -0.9277 -0.4103
 8556SOL     OW37126   2.672   0.331   3.057 -0.0089  0.4905 -0.2770
 8556SOL    HW137127   2.706   0.255   3.010 -1.2502  0.7241 -1.5448
 8556SOL    HW237128   2.753   0.352   3.103  0.5528  2.7556 -2.3100
 8557SOL     OW37129   2.522   0.881  11.781 -0.2981  0.2553 -0.3955
 8557SOL    HW137130   2.487   0.825  11.712  0.0938  0.4713 -0.7675
 8557SOL    HW237131   2.548   0.963  11.738 -1.1813  0.3444 -0.7694
 8558SOL     OW37132   1.253   3.921  16.878  0.6342  0.0425  0.7537
 8558SOL    HW137133   1.299   3.860  16.935  0.8033  1.2757  1.9500
 8558SOL    HW237134   1.265   3.871  16.798 -1.2892  2.0191 -0.7524
 8559SOL     OW37135   0.892   0.735  10.970  0.3426 -0.4005 -0.0627
 8559SOL    HW137136   0.800   0.760  10.972  0.6323  0.6097  0.6233
 8559SOL    HW237137   0.906   0.729  11.064  2.5356  2.0232 -0.2436
 8560SOL     OW37138   2.841   3.212   2.271 -0.1753  0.0660 -0.1994
 8560SOL    HW137139   2.822   3.152   2.343 -0.1420  1.3138  0.8470
 8560SOL    HW237140   2.906   3.265   2.317  0.9770 -1.6117  0.1138
 8561SOL     OW37141   1.851   0.898  15.582  0.1297 -0.2557  0.2593
 8561SOL    HW137142   1.853   0.943  15.498  0.9499 -1.0116 -0.1325
 8561SOL    HW237143   1.761   0.913  15.611  0.3530  1.1500  0.2317
 8562SOL     OW37144   4.173   3.230   5.036  0.2557 -0.1564  0.0952
 8562SOL    HW137145   4.225   3.284   4.976  1.0083 -0.1518  0.7517
 8562SOL    HW237146   4.088   3.274   5.038 -0.1074 -0.7769 -1.2734
 8563SOL     OW37147   1.281   3.534   3.660 -0.0143  0.1678  0.0128
 8563SOL    HW137148   1.366   3.570   3.637 -0.6437  0.5006 -1.8473
 8563SOL    HW237149   1.231   3.611   3.687  0.2132  0.1693  0.4196
 8564SOL     OW37150   1.330   3.738   4.484  0.5125  0.4445  0.4283
 8564SOL    HW137151   1.425   3.735   4.494  0.4738  3.6212  1.7502
 8564SOL    HW237152   1.310   3.652   4.520 -0.5205 -0.1440 -1.6018
 8565SOL     OW37153   1.338   2.774   4.837 -0.0675  0.0991 -0.8117
 8565SOL    HW137154   1.420   2.822   4.828  1.4912 -2.3033  0.4122
 8565SOL    HW237155   1.291   2.842   4.884  0.4383 -0.6284  0.7483
 8566SOL     OW37156   2.189   0.091   3.521  0.3389 -0.5761 -0.2186
 8566SOL    HW137157   2.104   0.111   3.558 -0.1255  0.2020 -1.6977
 8566SOL    HW237158   2.238   0.172   3.535 -0.1908 -0.2814 -0.0655
 8567SOL     OW37159   2.279   1.542   7.847 -0.1471  0.4263 -0.1131
 8567SOL    HW137160   2.346   1.555   7.913  0.1931  3.2332 -1.0064
 8567SOL    HW237161   2.209   1.498   7.895 -1.0942  0.3713 -1.5336
 8568SOL     OW37162   2.110   3.055   5.931 -0.0990  0.2456  0.1882
 8568SOL    HW137163   2.041   3.064   5.865 -1.0796 -1.0059  1.0476
 8568SOL    HW237164   2.089   2.976   5.982 -1.1429  0.6972  0.4491
 8569SOL     OW37165   4.062   0.573   6.215 -0.4195 -0.1428 -0.7535
 8569SOL    HW137166   4.015   0.511   6.158 -1.8037  0.5067 -0.3095
 8569SOL    HW237167   4.136   0.596   6.158 -0.2679 -1.6661 -1.1820
 8570SOL     OW37168   2.592   3.279   0.652 -0.5077 -0.0056 -0.6583
 8570SOL    HW137169   2.638   3.271   0.736  0.6699  0.4095 -1.2593
 8570SOL    HW237170   2.501   3.269   0.678 -0.2288  0.7326  0.5986
 8571SOL     OW37171   4.064   4.464   8.264  0.1516  0.2315 -0.5187
 8571SOL    HW137172   4.017   4.413   8.197  1.3955  0.5576 -1.6297
 8571SOL    HW237173   4.069   4.398   8.334  2.7227  1.3553  0.3294
 8572SOL     OW37174   1.881   0.415   4.447 -0.4965 -0.4600  0.5792
 8572SOL    HW137175   1.796   0.408   4.404 -1.2135  0.2322  1.8808
 8572SOL    HW237176   1.918   0.481   4.388  1.1478 -2.0870 -0.1982
 8573SOL     OW37177   2.066   0.603   4.032 -0.0794 -0.1683 -0.0991
 8573SOL    HW137178   1.973   0.621   4.016 -0.0736  1.4154  1.7026
 8573SOL    HW237179   2.085   0.537   3.964 -1.9822 -0.7750 -0.0515
 8574SOL     OW37180   1.361   1.673  16.348  0.0437  0.2492 -1.3048
 8574SOL    HW137181   1.366   1.584  16.315  0.7187 -1.0925  2.4408
 8574SOL    HW237182   1.453   1.700  16.352  0.5001 -1.5981  0.2309
 8575SOL     OW37183   4.520   0.139  10.132  0.7728  0.5816 -0.1710
 8575SOL    HW137184   4.439   0.090  10.148  1.0664 -0.0925 -0.7326
 8575SOL    HW237185   4.503   0.192  10.054  0.2693  0.2110 -0.3156
 8576SOL     OW37186   1.802   3.278   1.328 -0.0194  0.0211  0.7300
 8576SOL    HW137187   1.759   3.356   1.292  0.0908 -0.8173 -1.2338
 8576SOL    HW237188   1.788   3.307   1.418 -2.0119 -2.6253  1.2511
 8577SOL     OW37189   3.720   0.560   9.413 -0.4975  0.0917 -0.3151
 8577SOL    HW137190   3.675   0.584   9.494  1.6581  0.0483  0.9022
 8577SOL    HW237191   3.783   0.496   9.445 -0.4309 -0.4576 -1.5638
 8578SOL     OW37192   2.706   3.266   8.740 -0.0672  0.3205  0.6389
 8578SOL    HW137193   2.725   3.343   8.794  0.3736  0.8699 -0.3108
 8578SOL    HW237194   2.734   3.291   8.652 -0.8540 -1.0074  0.0162
 8579SOL     OW37195   4.660   1.931   1.741 -0.4928 -0.1013 -0.4930
 8579SOL    HW137196   4.604   1.856   1.722 -0.4167  0.0790 -1.4739
 8579SOL    HW237197   0.025   1.901   1.755 -0.4434  1.3738  2.2800
 8580SOL     OW37198   4.222   3.444   1.003 -0.1089 -0.2222  1.0941
 8580SOL    HW137199   4.169   3.520   1.027 -0.1810 -0.2592  1.0544
 8580SOL    HW237200   4.157   3.375   0.992 -0.2689  0.1123 -0.0673
 8581SOL     OW37201   2.995   0.109  16.946 -0.4152 -0.2015  0.1444
 8581SOL    HW137202   2.929   0.163  16.902  0.5887  0.3176 -0.7331
 8581SOL    HW237203   3.066   0.119  16.882 -0.5958  1.4067  0.1880
 8582SOL     OW37204   0.855   4.081  14.443  0.1460 -0.2588 -0.0836
 8582SOL    HW137205   0.859   4.177  14.440  1.0387 -0.2167  2.2577
 8582SOL    HW237206   0.769   4.066  14.404 -0.6030 -0.3412  1.5925
 8583SOL     OW37207   4.713   0.137   2.264  0.0594  0.1151 -0.2518
 8583SOL    HW137208   0.006   0.058   2.315 -2.3001 -1.7385 -2.3548
 8583SOL    HW237209   0.015   0.203   2.329 -1.2519  0.3705  0.0086
 8584SOL     OW37210   1.387   1.126   0.175  0.5350  0.4005 -0.0619
 8584SOL    HW137211   1.301   1.165   0.161 -0.0600 -0.1927  1.9928
 8584SOL    HW237212   1.362   1.037   0.200  0.7141  0.2327 -0.4848
 8585SOL     OW37213   2.035   4.566   2.484 -0.2974 -0.5642 -0.9359
 8585SOL    HW137214   2.096   4.515   2.538  2.0202  1.2758 -1.8044
 8585SOL    HW237215   2.008   4.497   2.424 -1.3122 -1.5839  0.7002
 8586SOL     OW37216   3.066   4.105   5.032  0.0904  0.2379 -0.0935
 8586SOL    HW137217   3.126   4.077   4.963 -2.5049 -1.7651 -1.5133
 8586SOL    HW237218   3.029   4.176   4.979  1.2194  2.5914  2.2692
 8587SOL     OW37219   1.069   4.322   9.239 -0.3291  0.2079 -0.1935
 8587SOL    HW137220   1.133   4.270   9.191  0.6735  0.4729  0.8576
 8587SOL    HW237221   1.058   4.264   9.314 -1.9823  0.0851 -0.5280
 8588SOL     OW37222   0.949   2.479  16.422 -0.1608  0.0439  0.5337
 8588SOL    HW137223   0.984   2.403  16.469 -2.5063 -0.7241  1.0022
 8588SOL    HW237224   0.885   2.509  16.486 -0.1278  1.2870 -0.0114
 8589SOL     OW37225   3.423   4.420  12.214  0.1179 -0.4056  0.1002
 8589SOL    HW137226   3.389   4.473  12.286  0.1340  2.3590 -1.9509
 8589SOL    HW237227   3.349   4.395  12.158 -0.3340  1.8181 -0.2791
 8590SOL     OW37228   2.558   1.002  12.346 -0.3404 -0.2119 -0.4943
 8590SOL    HW137229   2.607   0.922  12.326  0.2412  0.4221 -1.6281
 8590SOL    HW237230   2.509   0.961  12.417  0.5536 -0.7158 -0.1661
 8591SOL     OW37231   2.285   0.077  15.236 -0.0083 -0.2696 -0.4802
 8591SOL    HW137232   2.370   0.072  15.279 -0.4963 -1.5153  0.3503
 8591SOL    HW237233   2.282   0.172  15.222 -1.8723 -0.4630 -1.4694
 8592SOL     OW37234   3.529   3.933   8.178 -0.0772 -0.0390  0.7948
 8592SOL    HW137235   3.454   3.977   8.218 -1.1048 -0.7827 -0.2989
 8592SOL    HW237236   3.571   3.901   8.258  2.5027  3.6575  0.9007
 8593SOL     OW37237   2.398   4.405   0.915  0.5397 -0.9019  0.2869
 8593SOL    HW137238   2.436   4.483   0.957 -0.7250 -0.5943  0.8751
 8593SOL    HW237239   2.378   4.421   0.823 -1.8783 -0.2210  0.9112
 8594SOL     OW37240   1.428   0.284  15.088 -0.1200 -0.1695 -0.3630
 8594SOL    HW137241   1.505   0.327  15.052 -0.7197  0.1279 -1.2689
 8594SOL    HW237242   1.456   0.269  15.179  0.2700 -1.8722 -0.7705
 8595SOL     OW37243   0.105   4.105   8.614  0.5226  0.2430  0.4890
 8595SOL    HW137244   0.161   4.043   8.659 -0.1634 -0.9382 -0.2771
 8595SOL    HW237245   0.018   4.084   8.648  1.1523 -1.5283  0.9621
 8596SOL     OW37246   1.061   2.760   7.275  0.5810 -0.3429 -0.2272
 8596SOL    HW137247   1.051   2.665   7.277  0.6169 -0.2937  1.5633
 8596SOL    HW237248   1.104   2.792   7.354  3.1231 -0.6686 -1.4688
 8597SOL     OW37249   1.787   3.824   0.131  0.0714  0.2076  0.0072
 8597SOL    HW137250   1.801   3.729   0.129 -0.9115  0.0647  0.0045
 8597SOL    HW237251   1.737   3.839   0.211  1.7345  2.7601  0.5658
 8598SOL     OW37252   3.957   4.429  11.509  0.1462 -0.1401  0.9309
 8598SOL    HW137253   3.958   4.468  11.422  1.5410 -0.0802  0.9706
 8598SOL    HW237254   3.908   4.348  11.491 -0.3693  0.1744  0.9122
 8599SOL     OW37255   3.725   0.163   5.475  0.5796  1.0289 -0.0804
 8599SOL    HW137256   3.798   0.186   5.532  0.5282  1.1108 -0.0479
 8599SOL    HW237257   3.688   0.085   5.515  0.2934  0.9956 -0.3997
 8600SOL     OW37258   0.649   3.941  13.266  0.1984  0.0997 -0.5443
 8600SOL    HW137259   0.582   3.927  13.200  0.4976  0.5792 -0.9462
 8600SOL    HW237260   0.677   3.850  13.276  0.3878  0.2404  0.2407
 8601SOL     OW37261   0.450   1.178   1.863 -0.3725 -0.2250  0.6251
 8601SOL    HW137262   0.450   1.103   1.923 -2.2316 -1.0067 -0.3762
 8601SOL    HW237263   0.544   1.174   1.842 -0.7044 -0.0367 -0.8407
 8602SOL     OW37264   3.397   1.983   3.323  0.1777 -0.1945 -0.3615
 8602SOL    HW137265   3.396   2.052   3.389 -0.6586 -0.2164 -0.3525
 8602SOL    HW237266   3.491   1.974   3.308  0.3461  1.9302 -0.5898
 8603SOL     OW37267   0.415   2.542  12.121  0.1472  0.1115  0.0400
 8603SOL    HW137268   0.325   2.518  12.146  0.4086 -0.1810  0.7104
 8603SOL    HW237269   0.445   2.484  12.051  0.3073  0.8801 -0.5253
 8604SOL     OW37270   2.453   0.586   1.364 -0.0477 -0.0073  0.2172
 8604SOL    HW137271   2.359   0.602   1.354  0.1236 -0.5992 -2.5781
 8604SOL    HW237272   2.469   0.501   1.321 -2.9711 -0.0740 -0.7066
 8605SOL     OW37273   2.682   0.150   5.453  0.3668 -0.1257  0.4471
 8605SOL    HW137274   2.710   0.060   5.437  1.8207  0.6697 -1.4857
 8605SOL    HW237275   2.678   0.191   5.367 -1.1923  1.0605  1.0958
 8606SOL     OW37276   3.004   2.443  14.207 -0.3259 -0.2089  0.0803
 8606SOL    HW137277   3.057   2.411  14.134 -0.7321 -1.1932  0.2221
 8606SOL    HW237278   3.041   2.531  14.211  1.8089 -1.1055  0.1148
 8607SOL     OW37279   3.048   2.166   8.208  0.3549  0.0723  0.3528
 8607SOL    HW137280   3.138   2.196   8.197  0.6587 -0.8394  0.3375
 8607SOL    HW237281   3.053   2.081   8.251 -2.6631  0.3415  1.2849
 8608SOL     OW37282   1.463   1.499   0.787 -0.3064  0.7202  0.5012
 8608SOL    HW137283   1.505   1.537   0.864  0.1526 -0.4324  0.8051
 8608SOL    HW237284   1.405   1.435   0.827 -1.3113  0.8410 -0.7326
 8609SOL     OW37285   3.926   0.379   4.119 -0.1481  0.1672 -0.1888
 8609SOL    HW137286   3.924   0.430   4.200 -1.7066  1.2248 -0.8718
 8609SOL    HW237287   3.873   0.303   4.140  0.1193 -0.0655 -0.3639
 8610SOL     OW37288   1.434   4.165   4.457  0.2506  0.2978 -0.5814
 8610SOL    HW137289   1.515   4.186   4.410  0.3467 -0.0934 -0.5863
 8610SOL    HW237290   1.370   4.205   4.398  0.0711  0.5633 -0.2112
 8611SOL     OW37291   4.627   2.301   0.383 -0.7309  0.4017  0.0405
 8611SOL    HW137292   4.686   2.230   0.410  1.1221  1.7075 -0.5592
 8611SOL    HW237293   4.669   2.328   0.302 -2.1887 -0.3060 -0.9435
 8612SOL     OW37294   4.513   2.286   4.866 -0.0842  0.1876  0.0964
 8612SOL    HW137295   4.602   2.304   4.896  0.1741  0.8885 -1.0635
 8612SOL    HW237296   4.501   2.192   4.882 -0.5450  0.2902  0.3703
 8613SOL     OW37297   3.956   2.090   2.479  0.3814 -0.0200 -0.1883
 8613SOL    HW137298   3.863   2.084   2.502  0.9050  1.3832  2.3678
 8613SOL    HW237299   3.978   1.999   2.495 -1.7453 -0.2935  1.1800
 8614SOL     OW37300   2.268   1.597   2.725 -0.5000  0.4174 -0.0209
 8614SOL    HW137301   2.268   1.616   2.631 -0.4616  0.3358 -0.0371
 8614SOL    HW237302   2.282   1.678   2.773  1.4692 -1.9826  3.4089
 8615SOL     OW37303   1.188   1.271   4.926 -0.3273 -0.3056 -0.3080
 8615SOL    HW137304   1.194   1.276   4.831  1.0154 -1.3794 -0.2850
 8615SOL    HW237305   1.111   1.320   4.955  0.4317 -0.7813  2.5315
 8616SOL     OW37306   3.392   0.235   0.336  0.5924  0.1632  0.1592
 8616SOL    HW137307   3.338   0.312   0.314  0.7609  0.2179 -0.0605
 8616SOL    HW237308   3.332   0.164   0.313  1.2226 -0.5607  0.7582
 8617SOL     OW37309   1.401   0.517   0.719 -0.2805 -0.0547  0.2871
 8617SOL    HW137310   1.398   0.481   0.807  1.2439  0.5445  0.5932
 8617SOL    HW237311   1.353   0.599   0.728 -0.5010  0.2934 -4.1163
 8618SOL     OW37312   0.443   3.517   3.320  0.2553 -0.2778 -0.4439
 8618SOL    HW137313   0.370   3.490   3.264  0.0888  0.6688 -0.6839
 8618SOL    HW237314   0.486   3.436   3.349  0.0171 -0.2963 -0.1521
 8619SOL     OW37315   2.768   3.665  16.989  0.1948 -0.0705 -0.4636
 8619SOL    HW137316   2.773   3.741  17.047 -0.6968 -0.3171 -0.0666
 8619SOL    HW237317   2.673   3.665  16.977  0.2360 -0.1245 -0.7907
 8620SOL     OW37318   3.293   4.190   3.006  0.1966 -0.6730  0.1119
 8620SOL    HW137319   3.352   4.116   3.020  3.3308  1.9687  0.9549
 8620SOL    HW237320   3.291   4.190   2.910 -0.8127  0.3163  0.1297
 8621SOL     OW37321   0.626   0.111   7.718 -0.1536 -0.1607  0.1159
 8621SOL    HW137322   0.704   0.167   7.721 -0.1010 -0.5163  5.2777
 8621SOL    HW237323   0.560   0.180   7.722 -1.4259 -1.4943  2.3348
 8622SOL     OW37324   2.596   3.724  14.335 -0.2664 -0.0990 -0.0517
 8622SOL    HW137325   2.527   3.790  14.333  0.5566  0.8524  3.0763
 8622SOL    HW237326   2.639   3.734  14.420 -0.1378 -0.6529 -0.0526
 8623SOL     OW37327   2.207   3.834   6.726 -0.4788 -0.5065 -0.1822
 8623SOL    HW137328   2.198   3.839   6.821 -0.3414 -1.1444 -0.1385
 8623SOL    HW237329   2.254   3.915   6.704 -0.7085 -0.2146  0.4083
 8624SOL     OW37330   2.863   0.105   8.621 -0.4082  0.5955 -0.3997
 8624SOL    HW137331   2.769   0.095   8.632  0.1979 -1.7532  2.8104
 8624SOL    HW237332   2.877   0.032   8.560  0.1974  1.3681 -1.1827
 8625SOL     OW37333   2.648   3.463   8.028  0.8131 -0.4800 -0.6168
 8625SOL    HW137334   2.705   3.537   8.046  2.3038 -1.7594 -0.1125
 8625SOL    HW237335   2.705   3.397   8.067 -0.1778 -0.1548  1.3755
 8626SOL     OW37336   2.585   0.231   6.083  0.6704  0.0845 -0.1636
 8626SOL    HW137337   2.622   0.248   6.169 -0.1942 -2.4278  0.7133
 8626SOL    HW237338   2.657   0.207   6.024 -0.5098  0.3397 -1.7084
 8627SOL     OW37339   2.164   1.535  13.041 -0.3993  0.0275  0.6583
 8627SOL    HW137340   2.178   1.466  13.105  2.6820  2.8577  3.0751
 8627SOL    HW237341   2.175   1.613  13.096 -2.1071  0.3749  0.5133
 8628SOL     OW37342   3.497   2.655  10.322  0.2755 -0.0475 -0.1093
 8628SOL    HW137343   3.485   2.663  10.417  1.9029 -0.3453  0.1193
 8628SOL    HW237344   3.567   2.719  10.312 -0.6655  1.2118  1.4016
 8629SOL     OW37345   3.318   1.404   6.358 -0.0831  0.6420 -0.0982
 8629SOL    HW137346   3.293   1.398   6.266  1.3526  1.0468 -0.5167
 8629SOL    HW237347   3.373   1.482   6.355  0.7821 -0.0329 -1.5502
 8630SOL     OW37348   3.801   2.892   5.199 -0.9138  0.3948  0.6464
 8630SOL    HW137349   3.733   2.960   5.199  0.6347  1.9377 -1.6816
 8630SOL    HW237350   3.823   2.878   5.107 -1.6092  0.8222  0.4087
 8631SOL     OW37351   0.899   2.721   7.552  0.1634 -1.0290  0.1891
 8631SOL    HW137352   0.886   2.795   7.612  0.6421  1.5418 -2.8921
 8631SOL    HW237353   0.986   2.692   7.578  0.3454 -1.5170 -0.9620
 8632SOL     OW37354   3.856   0.886   3.099 -0.3608 -0.3776 -0.1271
 8632SOL    HW137355   3.881   0.944   3.027  2.2416  0.2365  1.2848
 8632SOL    HW237356   3.770   0.855   3.069 -0.9614  1.4710 -0.2965
 8633SOL     OW37357   0.025   2.805   5.082  0.5551  0.6971 -0.4782
 8633SOL    HW137358   4.716   2.787   5.170  2.1772  2.3832  0.4885
 8633SOL    HW237359   0.106   2.755   5.089 -1.6978 -2.7471  0.8433
 8634SOL     OW37360   3.722   0.467   1.024 -0.1617  0.2632 -0.4616
 8634SOL    HW137361   3.722   0.562   1.041  1.4249  0.1967 -0.1124
 8634SOL    HW237362   3.807   0.439   1.059  0.0049 -0.0592 -1.1270
 8635SOL     OW37363   1.997   0.318  16.848  0.0696  0.2872 -0.3012
 8635SOL    HW137364   2.077   0.371  16.849  1.2216 -1.5023  1.4551
 8635SOL    HW237365   1.925   0.376  16.873 -1.6243 -0.4474 -3.4962
 8636SOL     OW37366   3.146   4.063   6.584  0.6222 -0.2000  0.2252
 8636SOL    HW137367   3.122   4.019   6.502 -1.3892  1.4544 -0.0723
 8636SOL    HW237368   3.078   4.130   6.593  2.3333  1.3413  1.5739
 8637SOL     OW37369   0.279   1.279   1.433  0.0897 -0.5525 -0.4729
 8637SOL    HW137370   0.303   1.218   1.503  1.1580  0.0872 -0.2819
 8637SOL    HW237371   0.367   1.307   1.407 -0.8634 -0.3319 -3.5221
 8638SOL     OW37372   1.228   2.557   4.693  0.2724 -0.0552  0.1969
 8638SOL    HW137373   1.136   2.580   4.687  0.6281  1.2417 -0.3383
 8638SOL    HW237374   1.270   2.628   4.742  0.9392 -0.2766 -0.0429
 8639SOL     OW37375   4.619   3.339   4.757 -0.0072  0.4386  0.1540
 8639SOL    HW137376   4.683   3.408   4.734  1.0675 -0.5682  0.1241
 8639SOL    HW237377   4.560   3.358   4.684  1.6155 -1.4132 -1.6474
 8640SOL     OW37378   0.718   1.437   1.498  0.0494 -0.6335 -0.3640
 8640SOL    HW137379   0.727   1.529   1.472 -1.7150 -0.2004  0.5511
 8640SOL    HW237380   0.761   1.436   1.583 -0.0021 -0.5658 -0.3372
 8641SOL     OW37381   2.127   2.490   6.636  0.1177  0.3083  0.1251
 8641SOL    HW137382   2.200   2.541   6.673 -2.1271  0.4678  4.3027
 8641SOL    HW237383   2.160   2.463   6.550 -1.0807 -0.7131 -0.0058
 8642SOL     OW37384   2.460   0.410   2.127 -0.4808 -0.7873 -0.0167
 8642SOL    HW137385   2.365   0.405   2.134 -0.5689  0.6583 -0.1309
 8642SOL    HW237386   2.470   0.493   2.079  0.4810 -1.8614 -1.6863
 8643SOL     OW37387   1.350   0.704   7.275  0.3864  0.1130  0.6557
 8643SOL    HW137388   1.358   0.715   7.370  0.6083  0.1029  0.6375
 8643SOL    HW237389   1.414   0.634   7.265  1.1769  0.9551 -0.1743
 8644SOL     OW37390   1.894   1.916   5.030  0.0376 -0.3907 -0.0587
 8644SOL    HW137391   1.879   1.956   5.116 -0.6325  3.1230 -1.8077
 8644SOL    HW237392   1.825   1.850   5.038 -0.9518  0.7192  0.6262
 8645SOL     OW37393   3.323   4.491  10.256 -0.5553 -0.6488  0.0557
 8645SOL    HW137394   3.389   4.559  10.243 -1.0026 -0.3034 -0.4005
 8645SOL    HW237395   3.387   4.426  10.283  0.7939  0.5327 -0.2957
 8646SOL     OW37396   4.623   3.463   5.038  0.2596 -0.4626 -0.5396
 8646SOL    HW137397   4.548   3.521   5.026 -0.3412 -1.1656 -0.1653
 8646SOL    HW237398   4.612   3.402   4.966 -0.6368 -1.6496  0.5919
 8647SOL     OW37399   3.126   0.267   3.290 -0.0739 -0.2829  0.0132
 8647SOL    HW137400   3.082   0.184   3.309 -1.8826  0.7539  0.3612
 8647SOL    HW237401   3.068   0.303   3.223 -0.1138 -0.8348 -0.2457
 8648SOL     OW37402   2.581   3.658   3.304 -0.0879 -0.6622 -0.6988
 8648SOL    HW137403   2.671   3.667   3.335 -0.1042  0.7671 -1.1017
 8648SOL    HW237404   2.545   3.744   3.324  2.3314  0.1116  0.3409
 8649SOL     OW37405   1.481   0.401   5.652  0.1248  0.7627  0.1783
 8649SOL    HW137406   1.480   0.393   5.747  1.5722 -1.5198 -0.0147
 8649SOL    HW237407   1.392   0.382   5.625  0.2047  0.1395  0.3685
 8650SOL     OW37408   4.079   0.144  14.069  0.7501  0.1491  0.3248
 8650SOL    HW137409   4.139   0.218  14.077 -0.0272  0.8325 -0.2699
 8650SOL    HW237410   4.042   0.129  14.156 -1.0199  1.0373 -0.2826
 8651SOL     OW37411   3.190   0.802   3.969 -0.3593  0.0599 -0.4854
 8651SOL    HW137412   3.262   0.784   3.908  0.6173 -0.8472  0.9372
 8651SOL    HW237413   3.202   0.737   4.038 -0.4152 -1.2985 -1.7534
 8652SOL     OW37414   2.865   2.909   9.414 -0.0063 -0.7934 -0.0941
 8652SOL    HW137415   2.913   2.951   9.342 -1.7093  0.6405 -0.3946
 8652SOL    HW237416   2.779   2.950   9.417 -0.8845 -2.6207 -0.0965
 8653SOL     OW37417   3.983   1.540  12.745 -0.5259  0.5364 -0.1806
 8653SOL    HW137418   3.918   1.519  12.679 -1.3498 -1.0790  1.1447
 8653SOL    HW237419   3.940   1.613  12.791  0.2762  0.1270  1.2214
 8654SOL     OW37420   2.965   3.217  14.425  0.0073  0.2000 -0.0516
 8654SOL    HW137421   3.016   3.239  14.503 -3.6581  0.1148  2.4115
 8654SOL    HW237422   2.950   3.306  14.394 -1.6260 -0.5346 -1.3437
 8655SOL     OW37423   3.510   4.310   2.636 -0.0213  0.0911 -0.1622
 8655SOL    HW137424   3.425   4.331   2.676 -0.4210  0.2945 -1.1071
 8655SOL    HW237425   3.526   4.386   2.580  0.0226  0.0809 -0.1631
 8656SOL     OW37426   4.678   3.102   4.574 -0.1900  0.2257 -0.3013
 8656SOL    HW137427   4.639   3.143   4.651  2.2613 -1.9633  2.1021
 8656SOL    HW237428   4.613   3.055   4.522 -1.7334  1.8622  0.1604
 8657SOL     OW37429   3.954   0.623   0.112  0.6473 -0.7749 -0.5204
 8657SOL    HW137430   3.983   0.710   0.138  0.7594 -1.5377  1.9024
 8657SOL    HW237431   4.021   0.573   0.158  2.8599  2.8042  0.1356
 8658SOL     OW37432   4.581   1.879   2.811  0.1372 -0.0698 -0.1694
 8658SOL    HW137433   4.634   1.863   2.733  0.8753 -2.3105  0.7987
 8658SOL    HW237434   4.579   1.788   2.840  2.1861  0.1222  0.6001
 8659SOL     OW37435   3.020   2.318   5.603 -0.2576 -0.1405 -0.2042
 8659SOL    HW137436   3.038   2.229   5.635  2.3555  0.7422  0.8406
 8659SOL    HW237437   2.956   2.350   5.667 -1.2698 -1.6498 -0.4898
 8660SOL     OW37438   3.047   2.848   7.503 -0.0853  0.4655 -0.1323
 8660SOL    HW137439   3.015   2.866   7.415  0.6651  0.5695 -0.3791
 8660SOL    HW237440   3.108   2.921   7.514  2.2088 -1.7050  1.6009
 8661SOL     OW37441   1.403   0.812   4.246 -0.5218 -0.6055  0.4076
 8661SOL    HW137442   1.490   0.773   4.251  0.0564  0.5648 -0.6112
 8661SOL    HW237443   1.423   0.894   4.291  0.1091 -0.0799 -0.8528
 8662SOL     OW37444   3.625   3.114   5.262 -0.1111  0.6244  0.5991
 8662SOL    HW137445   3.548   3.158   5.298 -0.3428 -0.4104  1.3496
 8662SOL    HW237446   3.616   3.140   5.170  0.5601  2.0530  0.9409
 8663SOL     OW37447   1.671   1.231  13.702  0.2729  0.4250 -0.2640
 8663SOL    HW137448   1.581   1.199  13.694 -0.1279  2.0414 -2.1329
 8663SOL    HW237449   1.688   1.204  13.793  1.5313  4.0580  0.5548
 8664SOL     OW37450   1.176   4.499   2.321  0.0764  0.0226 -0.5146
 8664SOL    HW137451   1.140   4.588   2.322 -0.8886 -0.3568 -1.9527
 8664SOL    HW237452   1.140   4.473   2.236  0.4169 -2.4016  0.0906
 8665SOL     OW37453   3.449   2.950   3.289  0.2735 -0.1493 -0.2709
 8665SOL    HW137454   3.523   2.904   3.328  1.4414  1.3542 -0.6997
 8665SOL    HW237455   3.442   3.027   3.345  0.7621 -1.1498  1.1663
 8666SOL     OW37456   4.064   2.553   8.839  0.0836  0.0458  0.0406
 8666SOL    HW137457   4.020   2.469   8.828  1.5441 -1.0663  2.8036
 8666SOL    HW237458   4.021   2.589   8.916  0.4229 -0.5615  0.5154
 8667SOL     OW37459   4.190   2.356   2.306 -0.1111  0.7622  0.0199
 8667SOL    HW137460   4.098   2.382   2.304  0.0184  1.1833 -0.3592
 8667SOL    HW237461   4.200   2.337   2.399 -0.8294  0.8747  0.1213
 8668SOL     OW37462   3.501   2.316   6.758  0.5292  0.0233  0.1580
 8668SOL    HW137463   3.434   2.382   6.739  2.8462  2.4157  0.3537
 8668SOL    HW237464   3.565   2.354   6.817  0.2516 -1.5957  1.4943
 8669SOL     OW37465   0.059   0.010  10.052 -0.2974 -0.1007 -0.2415
 8669SOL    HW137466   4.691   0.014  10.027 -0.9512  1.2428  2.3587
 8669SOL    HW237467   0.076   0.101  10.076 -0.6525  0.5523 -2.4819
 8670SOL     OW37468   4.232   1.146  14.122 -0.1167 -0.0081 -0.4765
 8670SOL    HW137469   4.296   1.140  14.193 -1.9686 -1.7804  1.0510
 8670SOL    HW237470   4.284   1.134  14.042  0.0106  0.8244 -0.5198
 8671SOL     OW37471   1.562   3.124  16.599  0.1421  0.6254 -0.3001
 8671SOL    HW137472   1.468   3.111  16.588  0.5057 -1.4509 -1.0014
 8671SOL    HW237473   1.562   3.171  16.683  0.7244  0.5120 -0.2329
 8672SOL     OW37474   4.607   0.625   1.054  0.1383  0.0772  0.5844
 8672SOL    HW137475   4.676   0.648   0.992 -0.3225 -2.8899 -1.0391
 8672SOL    HW237476   4.650   0.553   1.101 -0.1049 -0.7730 -0.4720
 8673SOL     OW37477   3.972   1.520   0.378 -0.5391 -0.2391  0.0518
 8673SOL    HW137478   3.945   1.580   0.308  0.4897 -0.4377 -0.5130
 8673SOL    HW237479   3.897   1.526   0.437  0.4403  0.7808  1.1749
 8674SOL     OW37480   3.216   4.310   0.846 -0.2916  0.2691  0.7450
 8674SOL    HW137481   3.265   4.342   0.770 -0.0695 -1.5790  0.1067
 8674SOL    HW237482   3.151   4.379   0.857  0.0078  0.1286  3.3662
 8675SOL     OW37483   4.624   1.665   3.181  0.0710  0.1352  0.4493
 8675SOL    HW137484   4.590   1.584   3.221 -0.0465  0.4627  1.0160
 8675SOL    HW237485   4.569   1.732   3.221 -0.1902  0.4675 -0.4855
 8676SOL     OW37486   1.262   0.504   8.439  0.2842 -0.7167 -0.0110
 8676SOL    HW137487   1.200   0.433   8.460 -1.6381  1.3011  1.0957
 8676SOL    HW237488   1.291   0.467   8.356  1.7146  1.9780 -0.6760
 8677SOL     OW37489   3.795   4.166   2.423 -0.2991 -0.0683  0.4167
 8677SOL    HW137490   3.699   4.160   2.419 -0.1774 -1.2273 -0.5070
 8677SOL    HW237491   3.822   4.196   2.336 -0.3070 -0.7610  0.1782
 8678SOL     OW37492   3.829   0.386  16.215 -0.1327 -0.4582 -1.0613
 8678SOL    HW137493   3.921   0.366  16.199  0.3067 -0.4295  1.3135
 8678SOL    HW237494   3.805   0.355  16.303  0.0687  2.9335  0.2284
 8679SOL     OW37495   3.478   0.133   3.875  0.5161  0.2245  0.5868
 8679SOL    HW137496   3.513   0.222   3.882 -1.5316  1.1311 -0.6595
 8679SOL    HW237497   3.453   0.126   3.783  0.5344 -5.0462  0.9751
 8680SOL     OW37498   3.175   2.661   3.437 -0.1608 -0.0549 -0.5229
 8680SOL    HW137499   3.191   2.653   3.343 -1.3467 -0.1556 -0.7118
 8680SOL    HW237500   3.242   2.610   3.482 -0.2283 -0.7293 -1.2006
 8681SOL     OW37501   0.930   1.408   4.682  0.0512 -0.5013  0.0715
 8681SOL    HW137502   0.949   1.500   4.703 -0.8158  0.0902 -1.7325
 8681SOL    HW237503   1.016   1.367   4.681  1.0463  1.6200 -1.7454
 8682SOL     OW37504   3.335   4.710   3.426  0.7777  0.0716  0.1492
 8682SOL    HW137505   3.246   4.685   3.453  0.9253 -0.0060  0.5690
 8682SOL    HW237506   3.380   4.626   3.432  0.8912  0.2610  1.9420
 8683SOL     OW37507   2.539   4.413   3.483  0.0422  0.0898  0.0973
 8683SOL    HW137508   2.466   4.442   3.427  0.7768 -0.7147 -1.2850
 8683SOL    HW237509   2.528   4.467   3.561 -0.5563  1.0739 -0.6680
 8684SOL     OW37510   2.395   1.874  12.027  0.1501 -0.3843 -0.3387
 8684SOL    HW137511   2.400   1.919  12.111  0.6641 -0.6323 -0.2359
 8684SOL    HW237512   2.315   1.822  12.038 -0.5874  0.3239 -2.4780
 8685SOL     OW37513   2.985   0.135   7.308  0.3321 -0.2231  0.0481
 8685SOL    HW137514   3.042   0.059   7.321  2.3010  1.4178  1.1797
 8685SOL    HW237515   2.981   0.159   7.400 -1.7963  0.7044 -0.2862
 8686SOL     OW37516   2.157   2.266   3.895  0.1154  0.1067 -0.0441
 8686SOL    HW137517   2.234   2.323   3.894  0.0882  0.1843  2.0778
 8686SOL    HW237518   2.096   2.316   3.840  1.7352  2.2515  0.0668
 8687SOL     OW37519   0.963   0.311   3.772  0.9623 -0.3016 -0.1655
 8687SOL    HW137520   1.053   0.341   3.760  0.5660  0.0486 -2.3296
 8687SOL    HW237521   0.903   0.381   3.797  0.6683 -0.4386 -0.4874
 8688SOL     OW37522   2.591   4.553   1.297 -0.0793  0.1446 -0.1228
 8688SOL    HW137523   2.684   4.545   1.320  0.2961 -0.5493 -1.8685
 8688SOL    HW237524   2.569   4.640   1.332 -1.9448 -0.8413  1.1329
 8689SOL     OW37525   0.390   1.880  10.343 -0.1792 -0.0549  0.1950
 8689SOL    HW137526   0.424   1.791  10.332  0.5845  0.6055 -2.6207
 8689SOL    HW237527   0.328   1.900  10.273  0.1410 -0.6377 -0.2516
 8690SOL     OW37528   1.973   1.730   4.442  0.3339 -0.2852  0.1157
 8690SOL    HW137529   1.900   1.778   4.403 -0.5551  3.0250  5.8764
 8690SOL    HW237530   2.043   1.792   4.417 -0.8779  1.9633  2.3129
 8691SOL     OW37531   4.104   4.639   0.388 -0.4777  0.3348  0.1941
 8691SOL    HW137532   4.040   4.568   0.377 -0.4170  0.0630  1.5730
 8691SOL    HW237533   4.167   4.606   0.324  0.6518 -0.3362  1.6448
 8692SOL     OW37534   4.403   2.197   7.376  0.0492 -0.4845 -0.2475
 8692SOL    HW137535   4.379   2.222   7.466 -0.8900  0.6149 -0.8073
 8692SOL    HW237536   4.345   2.246   7.318  1.0657  2.5986  1.3638
 8693SOL     OW37537   0.071   2.250  10.037 -0.1190  0.2831  0.3194
 8693SOL    HW137538   4.721   2.309  10.050 -0.3197 -0.0774  0.7887
 8693SOL    HW237539   0.069   2.205  10.121  0.9427  0.0779  0.2304
 8694SOL     OW37540   3.022   3.099  16.565  0.0754 -0.4704 -0.3226
 8694SOL    HW137541   2.996   3.169  16.506  0.9468 -0.9385 -1.2556
 8694SOL    HW237542   3.091   3.139  16.617 -0.2205  1.3191 -1.3122
 8695SOL     OW37543   0.342   2.883   6.854  0.4372  0.1291  0.5061
 8695SOL    HW137544   0.351   2.826   6.930  1.4180 -0.4865 -0.0768
 8695SOL    HW237545   0.320   2.962   6.904 -0.6733 -0.0447  0.2974
 8696SOL     OW37546   2.200   0.093   5.167  0.1662  0.1184  0.0623
 8696SOL    HW137547   2.211   0.035   5.091 -1.0160  0.6194 -0.4800
 8696SOL    HW237548   2.199   0.183   5.135 -2.2880  0.1552  0.3138
 8697SOL     OW37549   3.893   3.472  15.491  0.4716  0.2880 -0.1573
 8697SOL    HW137550   3.847   3.549  15.526  1.8012  1.1532 -0.3193
 8697SOL    HW237551   3.817   3.415  15.478 -0.3972  1.2409  0.6553
 8698SOL     OW37552   1.432   4.005   4.022  0.8456 -0.0433  0.7714
 8698SOL    HW137553   1.456   3.922   3.982 -2.4853 -1.5615  1.9041
 8698SOL    HW237554   1.421   3.976   4.113  0.9625  1.0100  1.1160
 8699SOL     OW37555   1.546   0.820   8.710  0.1483  0.0863 -0.3647
 8699SOL    HW137556   1.511   0.736   8.738  2.3445 -0.4902  0.6278
 8699SOL    HW237557   1.501   0.876   8.774  1.2979  0.6954 -0.0773
 8700SOL     OW37558   1.670   3.688   6.389 -0.1339  0.3807 -0.1093
 8700SOL    HW137559   1.710   3.707   6.474  0.1700  0.5436 -0.2896
 8700SOL    HW237560   1.597   3.750   6.397  0.3507  0.9196  0.1603
 8701SOL     OW37561   0.647   2.274  10.203  0.5823  0.1402 -0.0709
 8701SOL    HW137562   0.717   2.264  10.138  0.8338  0.8043  0.1054
 8701SOL    HW237563   0.591   2.200  10.178 -1.7915  1.7139  0.6576
 8702SOL     OW37564   0.203   4.016   4.435  0.0648 -0.0807  0.6719
 8702SOL    HW137565   0.196   4.078   4.363 -0.6371 -0.8449  0.0868
 8702SOL    HW237566   0.222   4.064   4.516 -0.7281  0.1474  0.7218
 8703SOL     OW37567   2.070   1.293  11.007  0.3959  0.3668  0.0908
 8703SOL    HW137568   2.053   1.386  10.987  3.4144  0.9344  0.1355
 8703SOL    HW237569   1.995   1.248  10.968  0.5989 -0.1625  0.3273
 8704SOL     OW37570   0.746   2.607  10.628 -0.0518  0.7612 -0.3331
 8704SOL    HW137571   0.693   2.680  10.597  1.0650  1.1483 -1.3448
 8704SOL    HW237572   0.751   2.547  10.553  0.4246  0.6082 -0.1764
 8705SOL     OW37573   1.648   0.608   1.504 -0.0412 -0.1639  0.2438
 8705SOL    HW137574   1.632   0.544   1.435  0.3267  2.9502 -2.7548
 8705SOL    HW237575   1.675   0.687   1.456 -1.6906 -0.6198 -1.4652
 8706SOL     OW37576   2.722   3.854  12.755 -0.0535  0.0417  0.2184
 8706SOL    HW137577   2.764   3.786  12.703 -1.9802  1.1227 -2.7470
 8706SOL    HW237578   2.674   3.889  12.680 -1.5530 -1.8868  0.2617
 8707SOL     OW37579   2.883   3.252   5.412 -0.3967  0.4135  0.9894
 8707SOL    HW137580   2.801   3.246   5.462  0.0918  1.8580  1.9546
 8707SOL    HW237581   2.951   3.250   5.479  2.0372 -1.3703 -1.5728
 8708SOL     OW37582   0.308   0.734   5.638  0.1506  0.5809  0.2776
 8708SOL    HW137583   0.353   0.718   5.555 -1.6923  0.7270 -0.7518
 8708SOL    HW237584   0.332   0.826   5.644  0.1061  0.7783 -2.3115
 8709SOL     OW37585   0.170   1.174   5.117 -0.2866  0.6382 -0.0127
 8709SOL    HW137586   0.123   1.251   5.083 -1.7271  1.0485  2.9229
 8709SOL    HW237587   0.216   1.225   5.183  0.0326 -0.6514  0.7536
 8710SOL     OW37588   2.135   3.797   0.999  0.3084 -0.4562 -0.5061
 8710SOL    HW137589   2.070   3.865   0.984 -1.1432 -1.4728  1.2230
 8710SOL    HW237590   2.074   3.724   0.988 -1.0407  0.5094  0.6135
 8711SOL     OW37591   2.437   2.469   8.215  0.1527  0.0544 -0.5797
 8711SOL    HW137592   2.359   2.431   8.255  0.7581 -2.1259 -1.4917
 8711SOL    HW237593   2.454   2.527   8.289 -1.9079  1.9420 -1.5873
 8712SOL     OW37594   1.677   1.199   2.723 -0.8254  0.0363 -0.0703
 8712SOL    HW137595   1.687   1.284   2.680  0.7622 -0.3060 -0.3442
 8712SOL    HW237596   1.618   1.210   2.798  1.3592  1.2496  1.4836
 8713SOL     OW37597   3.561   0.511   4.739  0.2186 -0.3418  0.6188
 8713SOL    HW137598   3.656   0.502   4.747  0.2927 -2.0074 -1.9496
 8713SOL    HW237599   3.537   0.460   4.662  2.8830 -1.0450  0.2558
 8714SOL     OW37600   4.271   3.176   8.172  0.1660  0.4816  1.0114
 8714SOL    HW137601   4.217   3.098   8.190  1.7595 -0.9236 -0.3590
 8714SOL    HW237602   4.357   3.140   8.151  0.9747  2.4253  1.0129
 8715SOL     OW37603   3.684   4.605   8.051  0.1731 -0.0983 -0.3904
 8715SOL    HW137604   3.738   4.584   7.975  0.4257 -0.5029 -0.1016
 8715SOL    HW237605   3.723   4.689   8.076  1.3176 -0.9523  0.6554
 8716SOL     OW37606   4.541   1.433   3.262 -0.1937  0.1246  0.2276
 8716SOL    HW137607   4.487   1.380   3.203  0.9232 -1.9313  1.0373
 8716SOL    HW237608   4.630   1.397   3.256  0.2154  1.2215 -0.3986
 8717SOL     OW37609   1.106   2.504   8.322 -0.3028 -0.1720  0.1947
 8717SOL    HW137610   1.164   2.579   8.335 -0.9426  0.5699 -1.1892
 8717SOL    HW237611   1.064   2.532   8.241  1.5186 -0.4931 -0.8585
 8718SOL     OW37612   0.225   3.177  15.611 -0.0133  0.2429  0.2562
 8718SOL    HW137613   0.244   3.195  15.703  0.7974 -0.4836  0.2228
 8718SOL    HW237614   0.152   3.114  15.611  0.1293  0.0684 -1.0728
 8719SOL     OW37615   3.254   0.870   7.304 -0.0259 -0.4664 -0.5475
 8719SOL    HW137616   3.170   0.824   7.305 -0.2794  0.0541  1.3767
 8719SOL    HW237617   3.235   0.931   7.375  0.8586  1.3847 -1.8895
 8720SOL     OW37618   2.607   1.992   4.610  0.3932  0.0796 -0.1885
 8720SOL    HW137619   2.670   2.063   4.596  1.2309 -0.2987  1.6710
 8720SOL    HW237620   2.607   1.986   4.706  1.7979 -1.6176 -0.2839
 8721SOL     OW37621   3.171   1.595   6.914  0.3833  0.7542 -0.0597
 8721SOL    HW137622   3.170   1.584   7.009  0.5227 -0.8598 -0.2561
 8721SOL    HW237623   3.173   1.691   6.913  0.7589  0.7410 -0.4926
 8722SOL     OW37624   2.691   0.700  14.091 -0.6832  0.1371 -0.1668
 8722SOL    HW137625   2.750   0.633  14.057  0.7987  1.4725 -0.2234
 8722SOL    HW237626   2.645   0.638  14.147  0.3875 -1.7256 -1.3666
 8723SOL     OW37627   3.642   1.363  14.323  0.0237 -0.5028 -0.1173
 8723SOL    HW137628   3.666   1.409  14.403  1.8525 -0.2211 -0.8312
 8723SOL    HW237629   3.727   1.353  14.281  0.9765  3.7502  0.8529
 8724SOL     OW37630   3.233   0.216   2.633  0.0896 -0.3890  0.2081
 8724SOL    HW137631   3.149   0.243   2.594  0.9808  0.4414 -1.1630
 8724SOL    HW237632   3.292   0.258   2.570  0.2871 -0.4193  0.3764
 8725SOL     OW37633   4.022   4.113   2.086  0.5136 -0.5065  0.1990
 8725SOL    HW137634   4.034   4.189   2.029 -0.8318 -0.7987 -0.4920
 8725SOL    HW237635   4.043   4.046   2.020  0.4302  1.6326 -1.9644
 8726SOL     OW37636   0.989   0.038   6.636  0.2656 -0.5962 -0.3018
 8726SOL    HW137637   0.926   0.087   6.689 -0.7319 -2.1580 -0.0450
 8726SOL    HW237638   0.937   4.686   6.611 -0.3744  0.1342 -1.2105
 8727SOL     OW37639   4.371   3.751  12.522 -0.0309  0.1830  0.4156
 8727SOL    HW137640   4.382   3.768  12.615  0.7223 -0.5194  0.4515
 8727SOL    HW237641   4.461   3.756  12.490 -1.0302 -1.0189 -2.5946
 8728SOL     OW37642   2.030   3.804  17.071  0.3951 -0.7896 -0.3088
 8728SOL    HW137643   2.053   3.751  17.147  1.5389  0.5176  0.2482
 8728SOL    HW237644   1.938   3.787  17.050  0.2788 -0.8704  0.2819
 8729SOL     OW37645   1.647   4.079  13.638 -0.0726 -0.4899 -0.2587
 8729SOL    HW137646   1.680   4.015  13.575  2.7754  2.8398 -2.1574
 8729SOL    HW237647   1.704   4.152  13.613  1.4512 -0.9657  1.7707
 8730SOL     OW37648   4.616   3.902  12.948  0.0895  0.1617 -0.2198
 8730SOL    HW137649   4.582   3.987  12.976  0.9571 -0.0440  1.4208
 8730SOL    HW237650   4.705   3.904  12.982  0.1195  0.7689 -0.3448
 8731SOL     OW37651   0.531   1.786  14.349  0.1614 -0.6331  0.5292
 8731SOL    HW137652   0.493   1.831  14.424 -0.9639 -0.6701 -0.0185
 8731SOL    HW237653   0.592   1.844  14.302  1.2769 -2.8914 -0.8194
 8732SOL     OW37654   4.179   0.843   3.898  0.3438 -0.4908 -0.6377
 8732SOL    HW137655   4.093   0.806   3.878  0.8848 -1.6007 -0.9189
 8732SOL    HW237656   4.147   0.910   3.958 -1.9113 -1.5743 -0.6244
 8733SOL     OW37657   2.199   4.112   3.977  0.6013 -0.0141  0.4156
 8733SOL    HW137658   2.168   4.154   3.896  1.0691 -2.5930 -1.1160
 8733SOL    HW237659   2.154   4.170   4.039 -0.1500 -1.0692  0.8517
 8734SOL     OW37660   1.167   1.275   4.621  0.0089 -0.4130  0.3834
 8734SOL    HW137661   1.189   1.209   4.556  0.2164 -0.6210  0.6666
 8734SOL    HW237662   1.189   1.362   4.586 -1.2766 -0.3010 -0.1613
 8735SOL     OW37663   1.036   1.922   7.090  0.4630 -0.6985  0.2444
 8735SOL    HW137664   1.068   1.913   7.001 -1.4256 -0.4993 -0.4509
 8735SOL    HW237665   1.109   1.893   7.145  1.2747 -2.8344 -1.9727
 8736SOL     OW37666   4.528   3.902   8.491 -0.5771  0.3278 -0.7217
 8736SOL    HW137667   4.618   3.870   8.488 -1.3188 -1.7822 -0.6748
 8736SOL    HW237668   4.527   3.963   8.565  2.0238 -1.2757  0.6397
 8737SOL     OW37669   4.404   1.627  13.572  0.0938 -0.2712  0.1393
 8737SOL    HW137670   4.381   1.619  13.664 -1.9988  0.0281 -0.3481
 8737SOL    HW237671   4.343   1.692  13.537 -0.8036 -0.2093  1.8268
 8738SOL     OW37672   4.310   3.026  11.305 -0.1838 -0.0430 -0.4223
 8738SOL    HW137673   4.344   3.081  11.375  3.9271 -1.8292 -1.0025
 8738SOL    HW237674   4.325   2.941  11.347 -0.6978  1.2992  2.4686
 8739SOL     OW37675   2.284   0.121   8.672  1.1135  0.4420  0.2789
 8739SOL    HW137676   2.317   0.175   8.601 -0.9808  0.8917 -0.3299
 8739SOL    HW237677   2.193   0.149   8.674  0.6830 -0.9977  0.4715
 8740SOL     OW37678   4.678   2.293   8.033 -0.2994 -0.4412  0.1691
 8740SOL    HW137679   4.642   2.317   8.118  0.6018  3.2783 -0.5018
 8740SOL    HW237680   4.667   2.383   8.002  0.9760 -0.6130 -0.7786
 8741SOL     OW37681   2.203   3.054   3.419 -0.6118  0.2022  0.1195
 8741SOL    HW137682   2.253   2.972   3.419  1.1104  1.2437  1.7313
 8741SOL    HW237683   2.268   3.123   3.404  1.1037 -1.8262 -1.6870
 8742SOL     OW37684   2.466   1.125  10.262 -0.1638 -0.1663  0.5564
 8742SOL    HW137685   2.430   1.141  10.349 -0.1140 -1.9770  0.9126
 8742SOL    HW237686   2.513   1.043  10.273  0.4697 -0.0433 -1.1931
 8743SOL     OW37687   1.037   3.131   8.077 -0.1721 -0.1083 -0.3167
 8743SOL    HW137688   1.085   3.083   8.145  0.2010 -1.3761 -1.4722
 8743SOL    HW237689   0.960   3.074   8.079 -0.4682  0.3861  2.0136
 8744SOL     OW37690   1.843   3.523  13.693  0.0102  0.2491 -0.4170
 8744SOL    HW137691   1.920   3.531  13.750 -1.6783  0.6661  1.8368
 8744SOL    HW237692   1.803   3.607  13.713  0.8537  0.6390 -0.3841
 8745SOL     OW37693   0.937   2.693   1.923  0.2441 -0.0614  0.2527
 8745SOL    HW137694   0.907   2.731   1.840 -1.7977  1.2885  1.5856
 8745SOL    HW237695   0.887   2.612   1.925  0.4389 -0.2621 -2.4736
 8746SOL     OW37696   0.590   4.403   7.105  0.2306 -0.6059 -0.3539
 8746SOL    HW137697   0.610   4.410   7.198 -0.4886 -0.7483 -0.1860
 8746SOL    HW237698   0.494   4.396   7.104  0.2215 -0.4378 -0.7499
 8747SOL     OW37699   3.293   0.207   4.575  0.1070  0.0406  0.4095
 8747SOL    HW137700   3.218   0.208   4.635 -0.2506 -0.9919 -0.0253
 8747SOL    HW237701   3.343   0.149   4.632 -0.6391  2.2101  3.3008
 8748SOL     OW37702   3.289   3.390  13.285  0.2414 -0.1261  0.4437
 8748SOL    HW137703   3.334   3.429  13.361  1.4066  2.4175 -1.5400
 8748SOL    HW237704   3.226   3.329  13.323 -0.8158 -0.1287 -1.3262
 8749SOL     OW37705   3.262   2.806   0.554  0.3957  0.0167  0.1293
 8749SOL    HW137706   3.193   2.740   0.561 -0.3814  0.7345 -0.6578
 8749SOL    HW237707   3.202   2.877   0.580  1.3448  0.4539  1.1332
 8750SOL     OW37708   1.422   0.959   7.673 -0.1313  0.3313 -0.2865
 8750SOL    HW137709   1.365   0.883   7.661 -1.2373  0.9893  0.8085
 8750SOL    HW237710   1.394   1.013   7.599 -1.1154  0.5644  0.2589
 8751SOL     OW37711   2.343   1.361   1.641 -0.0439  0.2009  0.1484
 8751SOL    HW137712   2.345   1.361   1.736  0.7035  2.7715  0.1520
 8751SOL    HW237713   2.322   1.454   1.626  1.8451  0.3681 -1.5281
 8752SOL     OW37714   1.323   1.008   8.569  0.1431  0.1391 -0.0930
 8752SOL    HW137715   1.346   1.074   8.634  1.2751 -1.8849  1.5858
 8752SOL    HW237716   1.352   1.041   8.484 -1.4631 -0.4462 -0.8706
 8753SOL     OW37717   2.236   1.982   5.275  0.3816 -0.2099  0.1327
 8753SOL    HW137718   2.221   2.063   5.227 -0.3037 -0.0209  0.6690
 8753SOL    HW237719   2.220   1.915   5.209 -1.4283  0.7035 -0.3654
 8754SOL     OW37720   3.760   3.646  13.650 -0.4591 -0.3635  0.7092
 8754SOL    HW137721   3.745   3.580  13.582 -0.5163 -1.1350  1.4577
 8754SOL    HW237722   3.709   3.713  13.606 -0.4578 -1.1490 -0.4839
 8755SOL     OW37723   1.044   1.414  10.557 -0.1817  0.2905  0.1496
 8755SOL    HW137724   1.036   1.463  10.475  3.2511 -2.6051 -1.9396
 8755SOL    HW237725   1.139   1.411  10.570  0.1276  0.4374 -2.1255
 8756SOL     OW37726   3.233   4.033   7.162 -0.0563  0.3194  0.1159
 8756SOL    HW137727   3.140   4.012   7.152  0.1017  0.6662 -2.0742
 8756SOL    HW237728   3.236   4.090   7.239  1.8699 -1.0677  1.0616
 8757SOL     OW37729   0.943   3.267   9.483 -0.0323  0.1411 -0.0807
 8757SOL    HW137730   0.985   3.184   9.506 -3.4159 -2.3300 -2.8712
 8757SOL    HW237731   0.905   3.235   9.402  0.7337 -1.4725  0.1928
 8758SOL     OW37732   4.160   1.701   8.945  0.1055  0.5382 -0.1939
 8758SOL    HW137733   4.197   1.713   9.033  1.7138  1.3810 -0.9896
 8758SOL    HW237734   4.186   1.609   8.935  3.6653  1.4804  0.5680
 8759SOL     OW37735   1.948   4.607   8.226  0.7976 -0.0738 -0.5400
 8759SOL    HW137736   1.858   4.640   8.225  0.6750 -0.2820  2.5027
 8759SOL    HW237737   1.981   4.639   8.310  0.1180 -3.4856  1.0562
 8760SOL     OW37738   1.305   0.559  12.452 -0.3324  0.1949  0.1849
 8760SOL    HW137739   1.244   0.620  12.411 -1.2264  0.3794  1.7720
 8760SOL    HW237740   1.263   0.478  12.423  1.0621 -0.7654  0.8177
 8761SOL     OW37741   2.547   1.369   6.290  0.0064  0.0263 -0.0171
 8761SOL    HW137742   2.636   1.373   6.323 -0.7881  3.7043  1.6892
 8761SOL    HW237743   2.507   1.304   6.347 -2.3624  1.1421 -0.3829
 8762SOL     OW37744   0.459   0.657  14.076  0.2357 -0.6177 -0.3590
 8762SOL    HW137745   0.371   0.667  14.039 -0.3214 -0.9657  0.8753
 8762SOL    HW237746   0.485   0.573  14.038 -0.5706 -0.0410 -2.1549
 8763SOL     OW37747   1.213   1.026  11.695 -0.6447 -0.3437  0.0507
 8763SOL    HW137748   1.249   1.093  11.753  0.6473 -1.6893  0.8381
 8763SOL    HW237749   1.185   1.072  11.617  0.7289  2.1119  1.0166
 8764SOL     OW37750   1.840   4.203  17.609  0.2130 -0.3316 -0.1349
 8764SOL    HW137751   1.800   4.118  17.589  0.8515 -0.9046  1.0411
 8764SOL    HW237752   1.886   4.182  17.690  1.7121  1.9571 -0.3921
 8765SOL     OW37753   4.604   0.838  14.780 -0.0345 -0.0023  0.0382
 8765SOL    HW137754   4.695   0.867  14.787 -0.3595  1.1975 -0.7156
 8765SOL    HW237755   4.595   0.786  14.859 -0.1356  0.2353  0.1825
 8766SOL     OW37756   3.168   2.136   8.647  0.1866  0.0297 -0.6964
 8766SOL    HW137757   3.175   2.224   8.684  1.8701  0.1189 -1.2101
 8766SOL    HW237758   3.258   2.118   8.675  0.4382  1.7018 -0.4198
 8767SOL     OW37759   2.799   3.825  10.580  0.1573  0.5883 -0.0960
 8767SOL    HW137760   2.859   3.752  10.570 -1.8143 -1.1754  0.7378
 8767SOL    HW237761   2.751   3.797  10.659 -1.0357 -0.3248 -1.1395
 8768SOL     OW37762   4.043   1.990   0.792 -0.2863  0.2529 -0.4078
 8768SOL    HW137763   4.017   2.078   0.766 -1.0681  0.3666  0.7593
 8768SOL    HW237764   3.958   1.945   0.788  0.6410 -1.7923  2.4643
 8769SOL     OW37765   1.458   0.817   8.982  0.1115 -0.2127  0.3223
 8769SOL    HW137766   1.397   0.839   9.052  2.4252  0.0454  2.2505
 8769SOL    HW237767   1.405   0.759   8.927  0.0721  1.2754 -1.2094
 8770SOL     OW37768   4.549   0.963   5.070 -0.3804 -0.2556  0.0149
 8770SOL    HW137769   4.465   0.927   5.043 -0.6131 -0.6558  1.2706
 8770SOL    HW237770   4.534   1.031   5.135  0.5730  1.3603 -1.4511
 8771SOL     OW37771   1.371   2.238   2.677  0.6990 -0.2929  0.2190
 8771SOL    HW137772   1.325   2.319   2.698  0.9197  0.2427 -1.3197
 8771SOL    HW237773   1.366   2.238   2.581 -1.5194 -0.1926  0.3265
 8772SOL     OW37774   2.670   0.624   2.242  0.0158 -0.4276  0.1139
 8772SOL    HW137775   2.693   0.656   2.329 -1.6517 -0.4870  0.5780
 8772SOL    HW237776   2.711   0.537   2.242 -0.8308 -0.8327  0.9818
 8773SOL     OW37777   0.693   0.985   9.086  0.0627  0.4428  0.0347
 8773SOL    HW137778   0.624   0.922   9.066  1.4875 -1.3683  0.8659
 8773SOL    HW237779   0.751   0.960   9.014  0.6668  0.2357  0.5945
 8774SOL     OW37780   3.436   1.218   6.817  0.1924 -0.6130 -0.2678
 8774SOL    HW137781   3.415   1.147   6.757 -1.0811 -1.8345  1.6286
 8774SOL    HW237782   3.418   1.293   6.760  1.5852  0.7075  1.0399
 8775SOL     OW37783   0.823   4.609  17.613  0.0871 -0.0433  0.4642
 8775SOL    HW137784   0.775   4.687  17.638  1.0957  0.9827 -0.7933
 8775SOL    HW237785   0.912   4.627  17.645 -0.0117  1.8011 -0.2939
 8776SOL     OW37786   0.536   1.863   9.989  0.3375  0.4062  0.0409
 8776SOL    HW137787   0.620   1.855  10.034  0.4076  2.7079  0.2963
 8776SOL    HW237788   0.565   1.845   9.899 -2.7066  1.3767 -1.1163
 8777SOL     OW37789   1.253   3.919   6.073  0.6366  0.5487  0.0812
 8777SOL    HW137790   1.254   3.894   6.166 -2.1679 -0.8164 -0.2552
 8777SOL    HW237791   1.344   3.911   6.047  0.3081  0.2939 -0.9874
 8778SOL     OW37792   4.173   3.013   9.713  0.4609 -0.2159 -0.1605
 8778SOL    HW137793   4.113   3.087   9.719  0.3194 -0.3223 -0.2544
 8778SOL    HW237794   4.115   2.938   9.724 -0.8008  0.7676 -0.1797
 8779SOL     OW37795   2.344   3.600   6.738 -0.6567 -0.5276  0.6707
 8779SOL    HW137796   2.404   3.663   6.779  0.7165  0.0905 -2.3380
 8779SOL    HW237797   2.264   3.653   6.735 -0.8318 -0.8102  0.3736
 8780SOL     OW37798   0.989   3.946   6.049 -0.3089 -0.4765 -0.2718
 8780SOL    HW137799   0.974   3.884   5.978 -1.0667  0.0681 -0.5855
 8780SOL    HW237800   1.085   3.949   6.045 -0.2376 -2.2818 -0.2087
 8781SOL     OW37801   3.763   1.390   5.030 -0.0704 -0.1691 -0.4131
 8781SOL    HW137802   3.781   1.481   5.006 -1.4157  0.7444  2.0630
 8781SOL    HW237803   3.851   1.354   5.044  0.0895  1.2521  2.2319
 8782SOL     OW37804   0.591   2.396  11.979  0.1363  0.1528  0.2323
 8782SOL    HW137805   0.594   2.350  12.063 -2.2139  0.3518  0.4294
 8782SOL    HW237806   0.616   2.324  11.921 -0.7288  2.1567 -2.6214
 8783SOL     OW37807   2.691   1.309  10.693 -0.4062 -0.5712  0.0926
 8783SOL    HW137808   2.630   1.281  10.761 -0.7181 -0.2259 -0.0410
 8783SOL    HW237809   2.707   1.232  10.639  1.2967 -0.7762  0.9192
 8784SOL     OW37810   0.202   3.028  12.174  0.5019  0.1358  0.1055
 8784SOL    HW137811   0.186   3.117  12.145 -1.0523 -0.3230 -0.4757
 8784SOL    HW237812   0.190   2.973  12.096  2.3116  1.8827 -1.4035
 8785SOL     OW37813   0.478   0.527  10.406  0.2742 -0.2929 -0.0367
 8785SOL    HW137814   0.473   0.518  10.501 -0.6617 -0.2593 -0.0852
 8785SOL    HW237815   0.396   0.487  10.377 -0.8297  2.5766 -0.9105
 8786SOL     OW37816   0.385   3.366  16.061  0.1776 -0.1016 -0.0194
 8786SOL    HW137817   0.400   3.435  16.126  0.4530 -0.1098 -0.0714
 8786SOL    HW237818   0.342   3.299  16.114 -0.0330  0.8484  1.0012
 8787SOL     OW37819   3.441   3.998   6.075  0.4252  0.4998 -0.2852
 8787SOL    HW137820   3.386   4.058   6.025 -0.0519  1.9864  1.9768
 8787SOL    HW237821   3.520   4.051   6.085  2.6330 -2.7735 -0.4514
 8788SOL     OW37822   2.226   4.130  14.821  0.0974  0.0225  1.0855
 8788SOL    HW137823   2.320   4.149  14.816  0.3050 -1.4475 -0.5428
 8788SOL    HW237824   2.222   4.050  14.873  1.3154 -1.2071 -0.7090
 8789SOL     OW37825   1.594   0.402   4.426 -0.0586 -0.5234  0.2379
 8789SOL    HW137826   1.527   0.390   4.494  1.1053  0.0064  1.4720
 8789SOL    HW237827   1.551   0.436   4.347  2.3701 -0.1577 -0.9067
 8790SOL     OW37828   2.078   4.703   7.313 -0.7691  0.0724  0.2041
 8790SOL    HW137829   2.000   0.009   7.359 -0.0238  1.2065  0.7117
 8790SOL    HW237830   2.147   0.018   7.367  0.8800 -3.2070  0.5629
 8791SOL     OW37831   1.687   0.620   1.093  0.3781 -0.3687 -0.3005
 8791SOL    HW137832   1.650   0.643   1.008 -0.1050  2.1590  0.6200
 8791SOL    HW237833   1.667   0.695   1.149 -0.4280 -0.3693 -0.5863
 8792SOL     OW37834   0.011   2.276  12.057 -0.1623 -0.0377  0.1752
 8792SOL    HW137835   0.069   2.322  12.117 -1.0314 -0.3435  1.2549
 8792SOL    HW237836   0.040   2.187  12.075  0.7604  0.2258 -0.0125
 8793SOL     OW37837   2.603   0.563   4.977  0.1534 -0.3103 -0.0241
 8793SOL    HW137838   2.689   0.605   4.970 -0.0709  0.1714  0.0750
 8793SOL    HW237839   2.539   0.634   4.970  0.2150 -0.2095  0.4827
 8794SOL     OW37840   1.367   3.164   4.604  0.0889 -0.3973  0.1720
 8794SOL    HW137841   1.298   3.098   4.611 -1.0116  0.9078  1.6182
 8794SOL    HW237842   1.415   3.145   4.684  1.5233 -2.6179 -1.2101
 8795SOL     OW37843   2.198   0.402   9.124  1.2317  0.0315  0.0967
 8795SOL    HW137844   2.236   0.470   9.180  0.5526 -0.7826  1.5141
 8795SOL    HW237845   2.109   0.439   9.124  0.3428 -2.1488  0.2058
 8796SOL     OW37846   0.265   1.104   9.580  0.3338 -0.1466  0.1969
 8796SOL    HW137847   0.219   1.020   9.584 -1.9987  1.1893  1.0233
 8796SOL    HW237848   0.234   1.138   9.496  0.7619 -1.7278 -0.6073
 8797SOL     OW37849   3.544   1.281  15.714  0.0838 -0.0071  0.4488
 8797SOL    HW137850   3.516   1.325  15.794 -1.2467  1.1229 -0.6510
 8797SOL    HW237851   3.564   1.196  15.752  0.2360  0.1874  0.8078
 8798SOL     OW37852   3.762   0.744  15.710 -0.1572  0.1246  0.5593
 8798SOL    HW137853   3.689   0.806  15.706 -0.6712 -0.5669 -0.9412
 8798SOL    HW237854   3.725   0.659  15.735  0.1382 -1.0320 -2.9341
 8799SOL     OW37855   0.860   2.163   5.022  0.1729  0.2200  0.2178
 8799SOL    HW137856   0.940   2.183   4.974  0.1665 -2.3869 -0.8927
 8799SOL    HW237857   0.848   2.246   5.069  3.2835  0.2446  0.9468
 8800SOL     OW37858   0.260   0.693   5.993 -0.2758 -0.7839 -0.5629
 8800SOL    HW137859   0.317   0.761   5.958  0.2695 -1.8241 -1.6991
 8800SOL    HW237860   0.254   0.707   6.088  2.0397 -0.2979 -0.4817
 8801SOL     OW37861   2.185   1.106  10.256 -0.2223 -0.3401 -0.2850
 8801SOL    HW137862   2.231   1.132  10.336  0.1950 -0.6929 -0.4120
 8801SOL    HW237863   2.250   1.123  10.188 -1.9793  1.4653 -1.5053
 8802SOL     OW37864   1.940   0.552   0.939  0.2407  0.3366  0.2127
 8802SOL    HW137865   1.922   0.483   1.002 -0.4725 -0.7451 -1.1736
 8802SOL    HW237866   1.899   0.497   0.871 -0.6008  0.3280  0.7233
 8803SOL     OW37867   3.974   2.572   1.945  0.1900 -0.2264  0.0325
 8803SOL    HW137868   3.942   2.504   1.886 -0.4139 -0.1873  0.3133
 8803SOL    HW237869   3.933   2.544   2.027 -0.2573 -0.8617 -0.4084
 8804SOL     OW37870   3.492   0.566   3.612  0.1164 -0.0820 -0.2862
 8804SOL    HW137871   3.415   0.537   3.562 -0.4773  1.0656 -0.0295
 8804SOL    HW237872   3.545   0.606   3.544  0.0799 -0.6040 -0.6226
 8805SOL     OW37873   0.893   0.193  13.944  0.0816  0.2615  0.1814
 8805SOL    HW137874   0.971   0.226  13.900  0.1676 -3.1207 -2.1833
 8805SOL    HW237875   0.858   0.269  13.991  2.2676  0.2064  1.9136
 8806SOL     OW37876   0.011   2.653  15.539  0.4211  0.9197  0.1553
 8806SOL    HW137877   4.665   2.597  15.507 -1.3721  2.5664  1.1994
 8806SOL    HW237878   4.697   2.683  15.621 -0.7536  1.7583 -0.6970
 8807SOL     OW37879   1.464   4.180  11.311 -0.3506  0.3958  0.0758
 8807SOL    HW137880   1.369   4.188  11.322 -0.1196  3.1063 -0.0219
 8807SOL    HW237881   1.472   4.273  11.329  0.7762 -0.5417  4.3072
 8808SOL     OW37882   1.748   1.624   8.214  0.2318  0.0172  0.5119
 8808SOL    HW137883   1.778   1.611   8.303  1.7464 -3.4370 -0.5260
 8808SOL    HW237884   1.669   1.679   8.215  0.1564 -0.1464  2.3554
 8809SOL     OW37885   0.059   4.111   5.761  0.0786  0.5472 -0.8540
 8809SOL    HW137886   0.036   4.026   5.797  0.9173  0.3540 -0.7799
 8809SOL    HW237887   0.010   4.113   5.679 -1.7512 -1.5213  0.1820
 8810SOL     OW37888   0.104   1.368   5.318  0.1050  0.5269  0.0798
 8810SOL    HW137889   0.084   1.278   5.344  1.0078 -0.1697 -1.6152
 8810SOL    HW237890   0.057   1.379   5.235  0.6792  4.3578  0.2772
 8811SOL     OW37891   3.505   3.001   0.741  0.1921 -0.1666 -0.2070
 8811SOL    HW137892   3.514   3.035   0.653 -0.6550 -0.1680 -0.2898
 8811SOL    HW237893   3.573   3.051   0.786 -0.3594 -1.1319  1.7300
 8812SOL     OW37894   2.078   2.940  14.914 -0.0609 -0.4731  0.2477
 8812SOL    HW137895   2.041   2.956  14.827  1.6342  0.7087 -0.2586
 8812SOL    HW237896   2.159   2.899  14.883  1.3108  1.5577  1.1308
 8813SOL     OW37897   1.976   4.547  15.891  0.3635 -0.0468  0.3352
 8813SOL    HW137898   1.991   4.624  15.835  3.9422 -0.8204  0.2407
 8813SOL    HW237899   1.883   4.529  15.881  0.2520  0.6397  0.1321
 8814SOL     OW37900   2.659   0.620   1.173  0.1943 -0.3730  0.4896
 8814SOL    HW137901   2.613   0.627   1.257 -1.3188  0.4356 -0.4084
 8814SOL    HW237902   2.596   0.570   1.123 -0.1199 -0.6738  1.1804
 8815SOL     OW37903   1.685   1.871   6.602 -0.8094 -0.3498 -0.0664
 8815SOL    HW137904   1.754   1.931   6.573 -1.8631  0.5395 -0.7747
 8815SOL    HW237905   1.606   1.923   6.583 -1.0868 -0.3523  1.0989
 8816SOL     OW37906   2.009   3.559   7.205 -0.2572  0.0710 -0.1647
 8816SOL    HW137907   1.967   3.610   7.136 -1.1426 -0.7105 -0.2014
 8816SOL    HW237908   1.937   3.560   7.267 -0.0998  0.4855  0.0102
 8817SOL     OW37909   1.834   1.432   0.400 -0.3649 -0.0671  0.7823
 8817SOL    HW137910   1.844   1.482   0.481 -0.0545  0.4973  0.4002
 8817SOL    HW237911   1.782   1.494   0.348  3.5841  1.9969 -0.6988
 8818SOL     OW37912   4.699   2.868  10.033 -0.8452  0.0983 -0.0735
 8818SOL    HW137913   0.008   2.948   9.992 -2.3753  2.1588  2.6903
 8818SOL    HW237914   4.666   2.915  10.110  1.0033  0.5209  0.4511
 8819SOL     OW37915   2.083   3.917  11.697 -0.1928  0.0096 -0.2167
 8819SOL    HW137916   2.027   3.990  11.670  1.3873  1.6583  1.0472
 8819SOL    HW237917   2.159   3.944  11.646 -0.0756 -0.0968 -0.0983
 8820SOL     OW37918   1.842   1.506   4.573 -0.1813  0.2524  0.1771
 8820SOL    HW137919   1.888   1.487   4.655 -0.5315 -2.2956 -0.2166
 8820SOL    HW237920   1.874   1.593   4.551  1.6532 -0.0371  1.6937
 8821SOL     OW37921   4.677   2.410   2.966  0.4182  0.2367 -0.3783
 8821SOL    HW137922   4.594   2.436   3.006 -2.5199 -3.3405 -4.1299
 8821SOL    HW237923   4.659   2.403   2.872  2.1192  0.4289 -0.7227
 8822SOL     OW37924   4.687   0.573  17.144  0.0857  0.1907 -0.2229
 8822SOL    HW137925   4.684   0.511  17.216  0.3081  1.7037  1.0934
 8822SOL    HW237926   4.699   0.658  17.187 -1.0204 -0.0176  0.4673
 8823SOL     OW37927   3.828   0.088   4.201 -0.0599 -0.3647 -0.0704
 8823SOL    HW137928   3.820   0.073   4.106 -1.2163 -1.3461  0.1924
 8823SOL    HW237929   3.889   0.019   4.226 -0.9955 -1.1576 -0.0189
 8824SOL     OW37930   1.712   4.114   3.841 -0.5672 -0.4501 -0.3337
 8824SOL    HW137931   1.633   4.104   3.895 -1.1334  1.6925 -0.7818
 8824SOL    HW237932   1.745   4.028   3.815 -0.4343 -1.1950  2.3048
 8825SOL     OW37933   0.608   4.085  16.596 -0.5491 -0.1181  0.2543
 8825SOL    HW137934   0.668   4.010  16.604 -1.1506 -0.5356  0.8490
 8825SOL    HW237935   0.671   4.151  16.569 -1.1478  0.3004 -0.1305
 8826SOL     OW37936   3.259   3.121   9.423 -0.0045 -0.6563  0.4658
 8826SOL    HW137937   3.225   3.130   9.334 -1.3817  2.4871  1.3008
 8826SOL    HW237938   3.227   3.202   9.463  0.0413  0.4051 -1.6750
 8827SOL     OW37939   2.168   4.198   7.822 -0.1110  0.0747 -0.5524
 8827SOL    HW137940   2.097   4.207   7.759 -0.2214 -1.1576 -0.6002
 8827SOL    HW237941   2.157   4.276   7.877  0.0644 -1.2598  1.3991
 8828SOL     OW37942   1.555   1.067  17.681  0.7508  0.6197  0.3841
 8828SOL    HW137943   1.495   1.020  17.623 -0.2099  3.7575 -1.1333
 8828SOL    HW237944   1.497   1.110   0.044  1.6644  1.4881  0.6488
 8829SOL     OW37945   0.673   3.951  17.609  0.3455  0.0446  0.2059
 8829SOL    HW137946   0.725   3.912  17.679 -1.0574  0.7140  1.6239
 8829SOL    HW237947   0.692   3.885  17.543 -0.5964 -1.0156  0.9936
 8830SOL     OW37948   1.242   3.452   5.650  0.1431 -0.2164 -0.7336
 8830SOL    HW137949   1.200   3.446   5.564 -1.1853 -0.2946 -0.0665
 8830SOL    HW237950   1.327   3.494   5.634  0.5321 -0.4694  0.6953
 8831SOL     OW37951   0.233   3.138   3.262 -0.3921 -0.0289  0.2580
 8831SOL    HW137952   0.179   3.070   3.300  0.1085 -0.2820  0.5144
 8831SOL    HW237953   0.186   3.216   3.289  0.3117  1.9362 -4.0273
 8832SOL     OW37954   3.031   0.605  15.951  0.0552  0.8293 -0.0413
 8832SOL    HW137955   3.110   0.564  15.986 -1.0872  0.7674  2.4935
 8832SOL    HW237956   2.982   0.646  16.022  0.5728  1.5543 -0.0984
 8833SOL     OW37957   0.521   2.720   4.041 -0.0681  0.1847 -0.7750
 8833SOL    HW137958   0.430   2.689   4.045 -0.1068  0.4523  0.3680
 8833SOL    HW237959   0.519   2.806   4.082 -3.7720 -0.2962  0.0922
 8834SOL     OW37960   1.912   0.366   8.147 -0.1022  0.0098  0.0387
 8834SOL    HW137961   1.943   0.297   8.089 -0.8574  1.3091 -1.9246
 8834SOL    HW237962   1.886   0.316   8.225 -1.2586  0.4087 -0.0854
 8835SOL     OW37963   1.003   4.210   7.152  0.8623 -0.2183  0.5647
 8835SOL    HW137964   0.969   4.178   7.235 -0.5483 -0.4703 -0.1121
 8835SOL    HW237965   0.927   4.181   7.102  1.3115  2.2154 -1.5239
 8836SOL     OW37966   1.093   0.485   6.295  0.2128 -0.1502  0.2598
 8836SOL    HW137967   1.094   0.546   6.221 -0.0770  0.6535  0.9268
 8836SOL    HW237968   1.003   0.454   6.293  0.4346 -0.8948  1.8257
 8837SOL     OW37969   2.387   2.538  14.992 -0.1584  0.0055  0.0554
 8837SOL    HW137970   2.327   2.480  14.944  1.4889 -1.2762 -0.4618
 8837SOL    HW237971   2.387   2.504  15.081  0.8198  2.4002  0.9564
 8838SOL     OW37972   2.053   1.345   6.899 -0.0552  0.0210 -1.0229
 8838SOL    HW137973   1.991   1.361   6.827 -2.2699 -2.3978  0.3546
 8838SOL    HW237974   2.069   1.436   6.924 -1.1812  0.1733 -0.8501
 8839SOL     OW37975   1.596   2.140  12.316 -0.6096 -0.0152 -0.2874
 8839SOL    HW137976   1.563   2.136  12.227 -1.0838  0.3986 -0.1346
 8839SOL    HW237977   1.572   2.052  12.345 -0.8031 -0.2935 -1.2981
 8840SOL     OW37978   3.128   2.350  15.749  0.5671  0.3530 -0.4580
 8840SOL    HW137979   3.191   2.395  15.805  0.9855  1.9650 -2.1962
 8840SOL    HW237980   3.124   2.266  15.795  2.7242  1.0324  0.9259
 8841SOL     OW37981   0.698   0.123  13.323 -0.2371 -0.0161 -0.1973
 8841SOL    HW137982   0.686   0.031  13.349  0.7396 -0.9611 -3.0927
 8841SOL    HW237983   0.606   0.148  13.329 -0.5380 -1.0613 -0.3705
 8842SOL     OW37984   0.240   0.910  15.152 -0.2616 -0.1190 -0.1045
 8842SOL    HW137985   0.255   0.875  15.240  0.5212  2.6000  0.8615
 8842SOL    HW237986   0.263   1.002  15.165  0.2718 -0.0650 -1.4934
 8843SOL     OW37987   0.192   3.518   5.327 -0.7559 -0.0082 -0.3785
 8843SOL    HW137988   0.202   3.461   5.252 -0.1775  1.0741 -1.1167
 8843SOL    HW237989   0.147   3.594   5.290 -0.3982  0.5870  0.4131
 8844SOL     OW37990   1.754   3.185   3.452  0.3891 -0.9169  0.5895
 8844SOL    HW137991   1.752   3.281   3.446  0.8162 -1.0938 -2.1970
 8844SOL    HW237992   1.679   3.169   3.394 -0.1068 -0.3370  1.0616
 8845SOL     OW37993   4.062   3.657  15.100 -0.4306  0.5649  0.1478
 8845SOL    HW137994   3.983   3.693  15.059 -1.2469 -0.6400  0.6419
 8845SOL    HW237995   4.044   3.566  15.077  1.6847  0.7932 -2.3022
 8846SOL     OW37996   0.872   1.979   2.477 -0.2155  0.5230  0.2303
 8846SOL    HW137997   0.852   2.070   2.497 -1.5839  0.2164  0.2218
 8846SOL    HW237998   0.968   1.976   2.474 -0.1793  2.1673  0.0792
 8847SOL     OW37999   1.348   2.966   7.128  0.2469  0.7933  0.3783
 8847SOL    HW138000   1.437   2.995   7.109  0.9826 -1.7346  0.0397
 8847SOL    HW238001   1.303   3.043   7.163  0.2975  0.1989  1.7250
 8848SOL     OW38002   0.521   0.535  11.283  0.1131  0.1021 -0.2664
 8848SOL    HW138003   0.480   0.449  11.275  0.9334 -0.2302 -0.8845
 8848SOL    HW238004   0.577   0.512  11.357 -0.4659  0.1996  0.2026
 8849SOL     OW38005   3.127   3.122   0.692  0.5099 -0.4755  0.4927
 8849SOL    HW138006   3.178   3.198   0.663 -0.6005  0.3506  0.7240
 8849SOL    HW238007   3.102   3.167   0.773  0.2335 -0.9467  0.6673
 8850SOL     OW38008   1.783   4.185   6.098 -0.1558  0.3380  0.5817
 8850SOL    HW138009   1.695   4.158   6.073  0.2212 -0.8086  0.4526
 8850SOL    HW238010   1.799   4.236   6.019 -0.3472 -1.2597 -0.5067
 8851SOL     OW38011   1.780   0.743  11.184  0.0748  0.2366 -0.2617
 8851SOL    HW138012   1.847   0.809  11.203  1.4451 -1.1181 -0.3440
 8851SOL    HW238013   1.756   0.770  11.096 -1.3375  1.3236  0.4352
 8852SOL     OW38014   2.213   2.319  17.280  0.3911 -0.2532  0.2508
 8852SOL    HW138015   2.148   2.361  17.224  2.2278  0.5903 -1.2468
 8852SOL    HW238016   2.161   2.244  17.309  1.9233 -2.1250 -1.8631
 8853SOL     OW38017   3.939   3.352   5.069  0.1672 -0.3192  0.1987
 8853SOL    HW138018   3.913   3.410   5.140  1.2915 -0.3725  0.6687
 8853SOL    HW238019   3.861   3.354   5.014 -0.5986 -2.4936  1.1830
 8854SOL     OW38020   4.472   3.941   6.369  0.3073 -0.3853  0.1372
 8854SOL    HW138021   4.567   3.948   6.379  0.1242  1.2885  0.8745
 8854SOL    HW238022   4.441   3.962   6.458 -1.8792  0.6955 -0.8780
 8855SOL     OW38023   3.864   0.672   0.897  0.3204 -0.2984 -0.2232
 8855SOL    HW138024   3.902   0.594   0.857 -0.2808 -0.0150 -1.3459
 8855SOL    HW238025   3.791   0.674   0.835 -0.0089 -2.0190  0.1049
 8856SOL     OW38026   2.883   0.638   8.426 -0.5809  0.0584  0.4404
 8856SOL    HW138027   2.854   0.557   8.468  0.5993 -1.0869 -0.9066
 8856SOL    HW238028   2.835   0.708   8.470 -1.8618  0.8945 -2.3067
 8857SOL     OW38029   4.358   3.623   3.698 -0.8807  0.1152 -0.2811
 8857SOL    HW138030   4.417   3.564   3.650 -0.2604  0.4567  0.0563
 8857SOL    HW238031   4.278   3.618   3.647 -1.9177 -0.4044  1.4116
 8858SOL     OW38032   0.057   3.879  12.029  0.0542  0.0408 -0.1316
 8858SOL    HW138033   0.097   3.965  12.015  1.4069 -0.6984 -0.7900
 8858SOL    HW238034   4.713   3.906  12.090  0.3712  0.1722  0.1684
 8859SOL     OW38035   1.433   0.762  10.315  0.1001  0.0946 -0.2097
 8859SOL    HW138036   1.378   0.712  10.375  0.1083  1.6761  1.0976
 8859SOL    HW238037   1.410   0.726  10.229  1.1766  1.4614 -1.0551
 8860SOL     OW38038   2.218   1.667   1.898 -0.3292  0.1982  0.1107
 8860SOL    HW138039   2.227   1.683   1.804 -2.2627 -0.4936 -0.1907
 8860SOL    HW238040   2.127   1.680   1.924 -0.7068 -3.8390  0.8746
 8861SOL     OW38041   2.908   4.004   0.589  0.0078 -0.1412 -0.1548
 8861SOL    HW138042   2.985   4.035   0.637  1.0313 -3.9661  0.6629
 8861SOL    HW238043   2.869   3.949   0.657 -0.5255  1.9273  1.1978
 8862SOL     OW38044   4.119   2.072   5.621  0.3993 -0.6381 -0.3945
 8862SOL    HW138045   4.213   2.061   5.636  0.3130 -0.7560  0.0654
 8862SOL    HW238046   4.097   2.131   5.694 -0.0610 -3.3883  1.6824
 8863SOL     OW38047   2.085   3.184   0.135 -0.1156 -0.4216 -0.2604
 8863SOL    HW138048   2.170   3.223   0.153 -0.7502  0.6105  0.4495
 8863SOL    HW238049   2.043   3.157   0.217  0.2101  0.9468  0.3389
 8864SOL     OW38050   1.361   0.489   5.265 -0.2985 -0.2495 -0.4930
 8864SOL    HW138051   1.377   0.454   5.177 -1.4393 -0.2870 -0.6831
 8864SOL    HW238052   1.448   0.527   5.273  0.1415 -1.1730 -0.8692
 8865SOL     OW38053   2.464   3.869   4.442  0.6533 -0.3649  1.1780
 8865SOL    HW138054   2.431   3.885   4.531  0.3796  0.1273  0.9883
 8865SOL    HW238055   2.451   3.774   4.435 -1.6857  0.0791 -0.5977
 8866SOL     OW38056   0.701   3.989   3.716 -0.0464  0.0434  0.2237
 8866SOL    HW138057   0.689   4.027   3.629  0.8096  0.8992  0.4812
 8866SOL    HW238058   0.659   3.904   3.701 -1.1943  0.3462  1.6449
 8867SOL     OW38059   2.708   3.213   7.706 -0.5023 -0.1247  0.3105
 8867SOL    HW138060   2.664   3.128   7.700 -0.8427 -0.0749  2.0243
 8867SOL    HW238061   2.632   3.267   7.687 -0.9875 -1.4490 -1.4731
 8868SOL     OW38062   2.154   4.333   9.749 -0.0988 -0.3389  0.1583
 8868SOL    HW138063   2.244   4.301   9.746  0.6877  1.7217  1.9802
 8868SOL    HW238064   2.109   4.262   9.794 -0.7184 -0.9934 -1.4715
 8869SOL     OW38065   2.050   0.231  10.954  0.4769 -0.3591 -0.2140
 8869SOL    HW138066   2.128   0.212  11.005  2.4760  4.4150 -1.4440
 8869SOL    HW238067   2.089   0.269  10.876  0.4253  0.3715  0.1157
 8870SOL     OW38068   3.296   4.697   0.227 -0.7095  0.1612 -0.2899
 8870SOL    HW138069   3.350   4.627   0.263  0.6272 -0.8991 -4.3891
 8870SOL    HW238070   3.316   4.682   0.134 -1.1255 -3.4896  0.2100
 8871SOL     OW38071   3.684   0.629   5.465 -0.1947 -0.3152  0.5060
 8871SOL    HW138072   3.758   0.652   5.522 -1.1452  1.3716  1.0576
 8871SOL    HW238073   3.619   0.682   5.511 -0.5638  0.8225 -1.3638
 8872SOL     OW38074   4.341   1.484  13.993  0.2042 -0.5606  0.2566
 8872SOL    HW138075   4.342   1.522  13.905  1.1583 -0.3872  0.3493
 8872SOL    HW238076   4.399   1.408  13.987  0.4183 -0.3122 -0.8492
 8873SOL     OW38077   0.462   0.264   6.473 -0.4341 -0.2879  0.0458
 8873SOL    HW138078   0.531   0.234   6.533 -0.1453 -0.6096 -0.4397
 8873SOL    HW238079   0.394   0.260   6.540 -0.5522  0.8926 -0.0177
 8874SOL     OW38080   2.102   0.063  11.398  0.3625 -0.1731 -0.2885
 8874SOL    HW138081   2.110   0.006  11.322  0.0530 -0.4430 -0.1207
 8874SOL    HW238082   2.158   0.136  11.371 -1.5397  1.3962  0.0272
 8875SOL     OW38083   2.820   3.460   3.290 -0.5828  0.4144  0.3178
 8875SOL    HW138084   2.834   3.367   3.309 -0.9940  0.3248  0.1921
 8875SOL    HW238085   2.834   3.501   3.376  2.7871 -0.9619  0.4031
 8876SOL     OW38086   2.841   3.220   3.813  0.7209 -0.4509  0.3040
 8876SOL    HW138087   2.810   3.151   3.754 -0.2625  0.5026 -0.2997
 8876SOL    HW238088   2.777   3.208   3.883  0.5839  1.1553  0.4495
 8877SOL     OW38089   3.712   0.583   7.058  0.1503  0.1134  0.3407
 8877SOL    HW138090   3.629   0.609   7.097 -0.0689  0.5241 -0.4070
 8877SOL    HW238091   3.689   0.600   6.967  1.1451  0.1509  0.0975
 8878SOL     OW38092   1.186   0.145   6.890 -0.2210  0.1173  0.0793
 8878SOL    HW138093   1.245   0.133   6.816 -1.6826 -1.9542 -0.7351
 8878SOL    HW238094   1.159   0.054   6.903  1.9210 -0.2650  1.8465
 8879SOL     OW38095   2.209   2.253   7.816  0.3142 -0.0384  0.3967
 8879SOL    HW138096   2.180   2.336   7.780 -0.6489  0.0063  1.2754
 8879SOL    HW238097   2.185   2.197   7.742  1.8541  0.1088 -0.2135
 8880SOL     OW38098   4.008   1.422   4.258  0.2684 -0.3052  0.1661
 8880SOL    HW138099   3.949   1.438   4.184 -0.4479 -1.0317  0.5899
 8880SOL    HW238100   3.944   1.416   4.329  0.4143 -1.6787  0.1750
 8881SOL     OW38101   4.195   1.822   3.019  0.1329 -0.0142 -0.5946
 8881SOL    HW138102   4.197   1.770   2.938  3.3944  2.7521 -2.2618
 8881SOL    HW238103   4.102   1.834   3.039  0.3418 -0.3054  0.5510
 8882SOL     OW38104   2.685   1.725   5.502 -0.4082 -0.0900 -0.5254
 8882SOL    HW138105   2.606   1.763   5.463  0.3228 -1.0454 -2.8956
 8882SOL    HW238106   2.652   1.680   5.580 -1.7457 -0.3938 -1.2486
 8883SOL     OW38107   1.292   0.903   0.318  0.1250 -0.0277 -0.3669
 8883SOL    HW138108   1.303   0.808   0.309  1.5912  0.1346 -0.2841
 8883SOL    HW238109   1.273   0.911   0.412 -0.4306 -1.0764 -0.3881
 8884SOL     OW38110   3.041   0.133  16.299 -0.4661 -0.3519 -0.1086
 8884SOL    HW138111   2.979   0.198  16.335  0.1093 -0.6780  1.4621
 8884SOL    HW238112   3.092   0.180  16.234  0.3664 -0.2731  0.6018
 8885SOL     OW38113   2.639   1.768   2.158  0.1562  0.2027  0.1016
 8885SOL    HW138114   2.567   1.830   2.147  0.8645  0.5994 -2.2916
 8885SOL    HW238115   2.601   1.695   2.109 -0.2596  0.0047  0.7137
 8886SOL     OW38116   1.954   1.470  16.729  0.5821 -0.4375 -0.0691
 8886SOL    HW138117   1.967   1.428  16.644 -1.3862 -0.5324 -0.3411
 8886SOL    HW238118   1.979   1.401  16.791  2.5397  0.0503 -0.3136
 8887SOL     OW38119   1.032   2.912  14.980  0.5688 -0.0478 -0.6761
 8887SOL    HW138120   0.996   3.000  14.967  1.3069  0.7580  2.7743
 8887SOL    HW238121   0.961   2.854  15.008  0.8409  0.3315  0.8131
 8888SOL     OW38122   1.882   2.133  12.177  0.1977 -0.0231  0.2077
 8888SOL    HW138123   1.790   2.140  12.155  0.7711  0.9870 -1.8543
 8888SOL    HW238124   1.915   2.199  12.116  0.4971  0.6299  1.0666
 8889SOL     OW38125   3.373   1.370   0.508 -0.0513  0.3041 -0.1762
 8889SOL    HW138126   3.463   1.339   0.509 -0.4229 -0.8284 -1.4552
 8889SOL    HW238127   3.384   1.465   0.501  0.8491  0.1059 -1.2563
 8890SOL     OW38128   3.530   3.395   7.075 -0.1611 -0.5492 -0.2453
 8890SOL    HW138129   3.585   3.403   7.153 -1.6115  0.0639  0.7147
 8890SOL    HW238130   3.556   3.467   7.018  0.8501  0.0118  0.9148
 8891SOL     OW38131   1.414   0.723   5.873 -0.0244  0.0236 -0.1136
 8891SOL    HW138132   1.382   0.809   5.899 -1.3580 -0.4283 -0.2765
 8891SOL    HW238133   1.386   0.714   5.782  1.0870 -1.7524 -0.2654
 8892SOL     OW38134   2.374   1.843   4.858  0.0913  0.5686  0.3228
 8892SOL    HW138135   2.311   1.899   4.813  0.0913 -0.2569 -0.7143
 8892SOL    HW238136   2.317   1.814   4.930 -0.0927  0.3650  0.0930
 8893SOL     OW38137   1.424   3.200   6.738 -0.0213  0.4985  0.0546
 8893SOL    HW138138   1.430   3.283   6.785 -1.7336  1.8984 -2.1547
 8893SOL    HW238139   1.495   3.145   6.771 -1.3205  0.5986  2.9944
 8894SOL     OW38140   2.139   3.523   2.137  0.5458 -0.1345  0.1046
 8894SOL    HW138141   2.113   3.477   2.057 -0.7617 -0.5255  0.7548
 8894SOL    HW238142   2.173   3.447   2.185  0.2738 -1.9267 -2.5305
 8895SOL     OW38143   1.026   4.577   9.358  0.3313 -0.5040 -0.4999
 8895SOL    HW138144   1.007   4.489   9.325 -0.5059 -0.5836  0.1873
 8895SOL    HW238145   0.992   4.626   9.283  1.3680  1.9001  0.6341
 8896SOL     OW38146   2.910   4.247  14.075 -0.7215  0.3543 -0.0937
 8896SOL    HW138147   2.882   4.338  14.062  3.4812  1.4817 -1.0813
 8896SOL    HW238148   2.830   4.197  14.061  0.0419 -0.8817  0.0027
 8897SOL     OW38149   0.767   1.871  10.113  0.4999 -0.0158 -0.1072
 8897SOL    HW138150   0.813   1.935  10.168  1.5221 -0.1602 -0.7929
 8897SOL    HW238151   0.843   1.834  10.069 -0.5814 -1.2439 -0.9435
 8898SOL     OW38152   3.934   2.700   5.788  1.0367 -0.1972  0.2662
 8898SOL    HW138153   3.925   2.710   5.693  1.5301 -0.1416  0.2237
 8898SOL    HW238154   3.887   2.618   5.806 -1.5424  0.9938 -0.9847
 8899SOL     OW38155   2.666   1.584  17.547  0.2443 -0.1511  0.0740
 8899SOL    HW138156   2.700   1.498  17.523 -1.1737 -0.6522 -0.1578
 8899SOL    HW238157   2.713   1.600  17.628 -0.2562 -3.5996  1.0702
 8900SOL     OW38158   0.986   4.545   4.238 -0.3000  0.3075  0.3609
 8900SOL    HW138159   0.939   4.515   4.315  0.7533  1.4372  1.4403
 8900SOL    HW238160   0.923   4.592   4.183  0.0302  1.0459  0.6109
 8901SOL     OW38161   4.010   3.267   0.969 -0.6550 -0.4557 -0.3788
 8901SOL    HW138162   3.937   3.325   0.948 -0.7020 -0.0313  0.9710
 8901SOL    HW238163   3.971   3.193   1.015 -1.0012  0.9030  1.5101
 8902SOL     OW38164   1.660   1.352   0.609  0.3400 -0.3293  0.0785
 8902SOL    HW138165   1.606   1.420   0.648 -1.5898 -0.9517 -1.4848
 8902SOL    HW238166   1.744   1.396   0.603  0.0190  0.2189 -0.4114
 8903SOL     OW38167   0.203   3.611  15.192  0.5643  0.2580 -0.1592
 8903SOL    HW138168   0.156   3.688  15.159 -0.1462  0.1524  0.6150
 8903SOL    HW238169   0.193   3.562  15.110 -4.1436  2.0931 -0.6383
 8904SOL     OW38170   4.141   2.754  13.203  0.2397 -0.0413  0.1194
 8904SOL    HW138171   4.138   2.776  13.110  1.9129  1.6859  0.4597
 8904SOL    HW238172   4.155   2.661  13.190  0.1981 -0.1245  0.6835
 8905SOL     OW38173   2.587   0.111   4.524  0.0578 -0.6205 -0.3410
 8905SOL    HW138174   2.597   0.055   4.446  4.0955 -0.6301  0.1660
 8905SOL    HW238175   2.663   0.165   4.502  0.4872 -0.3305  1.8565
 8906SOL     OW38176   2.401   1.112   7.523  0.0287  0.4014  0.3541
 8906SOL    HW138177   2.385   1.172   7.597  0.7821 -0.2417  1.0353
 8906SOL    HW238178   2.318   1.064   7.521 -0.6530  1.5937 -0.4211
 8907SOL     OW38179   1.817   2.873   1.562  0.0192 -0.2462 -0.2295
 8907SOL    HW138180   1.760   2.883   1.486 -2.0363 -0.2341  1.3300
 8907SOL    HW238181   1.878   2.947   1.551 -0.4863 -0.2598 -3.0512
 8908SOL     OW38182   4.031   3.310   8.678 -0.3038 -0.2567  0.2812
 8908SOL    HW138183   4.072   3.338   8.597  1.2776  0.9912  1.5153
 8908SOL    HW238184   4.107   3.298   8.735  0.2055 -0.3510 -0.4214
 8909SOL     OW38185   4.220   1.808  13.465 -0.0153 -0.2909  0.3107
 8909SOL    HW138186   4.150   1.763  13.417  0.1566  0.2867 -0.4878
 8909SOL    HW238187   4.183   1.895  13.479 -0.9266 -0.2503 -2.3058
 8910SOL     OW38188   3.808   2.729   8.222 -0.2046 -0.6201  0.3383
 8910SOL    HW138189   3.854   2.658   8.269  3.5744  0.4752 -1.6826
 8910SOL    HW238190   3.728   2.735   8.274 -0.0472  3.1421  0.1029
 8911SOL     OW38191   3.941   0.429   2.681 -0.1308  0.7309  0.5550
 8911SOL    HW138192   3.971   0.354   2.733 -2.5303  0.4780  1.5909
 8911SOL    HW238193   4.013   0.447   2.621  0.8033 -0.9908  1.1458
 8912SOL     OW38194   3.941   4.438   9.891 -0.3158 -0.5941 -0.1485
 8912SOL    HW138195   3.914   4.456   9.981 -0.7888 -1.0292 -0.2026
 8912SOL    HW238196   4.005   4.369   9.912  2.1123  1.8901  0.5682
 8913SOL     OW38197   3.857   2.877   4.945  0.0138 -0.0932  0.0491
 8913SOL    HW138198   3.824   2.811   4.884  0.6884 -0.2162 -0.1766
 8913SOL    HW238199   3.854   2.959   4.896  0.8448  0.2278  0.5488
 8914SOL     OW38200   1.683   2.346   4.321 -0.3451  0.0753  0.1363
 8914SOL    HW138201   1.729   2.337   4.238 -1.3431 -2.2811 -0.1453
 8914SOL    HW238202   1.751   2.382   4.379  0.3565  1.0171 -1.2722
 8915SOL     OW38203   1.106   0.091  12.960 -0.1741 -0.7917 -0.6540
 8915SOL    HW138204   1.064   0.158  12.905 -0.7100  0.0874  0.8383
 8915SOL    HW238205   1.033   0.077  13.020  0.1297  1.3742  0.1988
 8916SOL     OW38206   4.097   1.045   7.151  0.2107  0.1449 -0.2265
 8916SOL    HW138207   4.143   1.008   7.227 -0.3968  0.6275  0.3763
 8916SOL    HW238208   4.073   1.131   7.183  0.5494  0.5880 -1.1548
 8917SOL     OW38209   3.263   2.080   2.293 -0.5118 -0.3441 -0.0199
 8917SOL    HW138210   3.259   1.986   2.311  1.8917 -0.6258 -0.8924
 8917SOL    HW238211   3.170   2.100   2.301 -0.0241  2.0078 -0.2932
 8918SOL     OW38212   3.596   4.031  12.977 -0.1252  0.2477  0.1895
 8918SOL    HW138213   3.569   3.967  13.042 -0.5688  0.0983 -0.1405
 8918SOL    HW238214   3.578   4.114  13.020  1.4444  0.3265  0.6826
 8919SOL     OW38215   1.095   1.676   2.228 -1.0134  0.1816 -0.1073
 8919SOL    HW138216   1.014   1.646   2.268 -1.4727  0.3128 -0.9385
 8919SOL    HW238217   1.119   1.596   2.181 -1.6748 -0.2538  0.2981
 8920SOL     OW38218   4.078   3.297   6.641 -0.3619 -0.5172  0.0615
 8920SOL    HW138219   4.157   3.308   6.694  0.3170 -0.9157 -0.8784
 8920SOL    HW238220   4.091   3.335   6.555  1.1565  0.1427  0.5813
 8921SOL     OW38221   0.238   0.620   6.774 -0.3126  0.3382 -0.1260
 8921SOL    HW138222   0.168   0.567   6.734  0.4374 -0.3784 -0.4814
 8921SOL    HW238223   0.189   0.703   6.772  0.2969  0.7410  1.3446
 8922SOL     OW38224   3.199   4.588   9.097  0.4214  0.0277 -0.3962
 8922SOL    HW138225   3.259   4.649   9.140 -0.6628  0.2657  0.7789
 8922SOL    HW238226   3.124   4.646   9.083  0.3047 -0.1570 -0.5422
 8923SOL     OW38227   2.740   3.649   1.919 -0.0021 -0.0874  0.0117
 8923SOL    HW138228   2.712   3.656   1.827  2.1821 -0.0362 -0.6623
 8923SOL    HW238229   2.668   3.696   1.960  1.6015  2.6711 -0.3174
 8924SOL     OW38230   1.630   0.723   7.623 -0.0780  0.5659  0.2090
 8924SOL    HW138231   1.605   0.659   7.689  0.0674  0.3771  0.0806
 8924SOL    HW238232   1.725   0.731   7.628  0.0143 -1.5656  1.8648
 8925SOL     OW38233   0.004   0.813   6.793  0.5300  0.2822  0.4868
 8925SOL    HW138234   4.656   0.751   6.795  1.0232 -0.2921  0.5390
 8925SOL    HW238235   0.022   0.823   6.886  0.5665 -0.4389  0.5536
 8926SOL     OW38236   3.099   2.040   3.632 -0.0885  0.3129 -0.2186
 8926SOL    HW138237   3.129   1.968   3.576  0.9260  1.1876 -0.8213
 8926SOL    HW238238   3.045   2.091   3.572  1.9647  0.4775 -1.9433
 8927SOL     OW38239   3.153   0.820  16.743 -0.3519 -0.5179  0.1995
 8927SOL    HW138240   3.079   0.805  16.802  0.1030 -1.2331  0.5920
 8927SOL    HW238241   3.112   0.793  16.661 -0.2661  0.2848 -0.1069
 8928SOL     OW38242   1.650   4.643   3.590  0.0491 -0.3520 -0.0623
 8928SOL    HW138243   1.601   4.680   3.664  1.1932  0.8740  0.1036
 8928SOL    HW238244   1.658   4.556   3.628 -2.5683  0.4198  2.3195
 8929SOL     OW38245   2.428   1.180   7.253 -0.1085  0.0069 -0.0322
 8929SOL    HW138246   2.440   1.165   7.347 -1.7449  0.5392  0.2749
 8929SOL    HW238247   2.333   1.168   7.245 -0.6624  2.5928  2.3689
 8930SOL     OW38248   3.663   4.346  17.604 -0.0295 -0.0546  0.5375
 8930SOL    HW138249   3.638   4.312  17.690 -1.4260  0.8865  0.4994
 8930SOL    HW238250   3.589   4.391  17.564 -0.0651 -1.3751 -0.8471
 8931SOL     OW38251   2.720   0.516  15.891  0.6277  0.5719 -0.0980
 8931SOL    HW138252   2.781   0.466  15.944  0.6288  1.1350  0.4185
 8931SOL    HW238253   2.683   0.445  15.838  2.7896 -0.7662  0.1746
 8932SOL     OW38254   3.501   1.947  17.674  0.3063 -0.3781 -0.2998
 8932SOL    HW138255   3.435   1.953   0.044  2.3416  1.7121  1.4346
 8932SOL    HW238256   3.559   2.022  17.685  0.1394 -0.4787  1.2359
 8933SOL     OW38257   2.719   3.846   9.873 -0.5508 -0.2909 -0.1847
 8933SOL    HW138258   2.786   3.893   9.923 -2.0465  2.4434 -0.7076
 8933SOL    HW238259   2.671   3.814   9.949 -0.5787  0.9803  0.3373
 8934SOL     OW38260   2.622   4.072   3.729  0.8909  0.0406 -0.5394
 8934SOL    HW138261   2.626   3.990   3.778 -0.6376  0.4280  0.2200
 8934SOL    HW238262   2.709   4.079   3.688  0.7311 -3.1909 -1.4752
 8935SOL     OW38263   2.298   3.372  17.680 -0.0543 -0.5629  0.0209
 8935SOL    HW138264   2.327   3.289  17.641  0.7917 -0.4347  0.3961
 8935SOL    HW238265   2.347   3.374   0.062  2.9969  0.0282 -1.8571
 8936SOL     OW38266   0.723   0.560   5.373 -0.3402 -0.3798 -0.1955
 8936SOL    HW138267   0.704   0.642   5.328 -2.1768 -0.8039 -0.2227
 8936SOL    HW238268   0.818   0.558   5.383 -0.4543 -0.8836  0.8291
 8937SOL     OW38269   2.321   0.639   9.208 -0.4346 -0.2991 -0.2771
 8937SOL    HW138270   2.367   0.640   9.124  2.2684  1.0714  1.2326
 8937SOL    HW238271   2.302   0.732   9.217  1.4028  0.0830 -0.3176
 8938SOL     OW38272   2.311   4.630   8.206 -0.0331 -0.2196  0.1462
 8938SOL    HW138273   2.286   4.538   8.214 -0.7726 -0.0426 -0.2201
 8938SOL    HW238274   2.348   4.643   8.293 -0.8046 -1.7316  0.7003
 8939SOL     OW38275   0.800   1.663   6.292  0.3095 -0.3775 -0.0116
 8939SOL    HW138276   0.751   1.644   6.211  2.0591  1.4207 -1.4930
 8939SOL    HW238277   0.891   1.652   6.265  0.7970 -0.9236  1.8354
 8940SOL     OW38278   0.631   3.537   7.926  0.7716 -0.2778 -0.2037
 8940SOL    HW138279   0.548   3.509   7.966  1.3374  0.6654  1.6321
 8940SOL    HW238280   0.609   3.538   7.833 -2.3788  0.3349  0.5510
 8941SOL     OW38281   1.815   3.612   7.391 -0.1517 -0.2774  0.2091
 8941SOL    HW138282   1.873   3.672   7.438 -0.3264 -0.2890  0.4411
 8941SOL    HW238283   1.802   3.555   7.466 -2.9926  0.5462  0.3457
 8942SOL     OW38284   1.700   2.014   6.052 -0.2164 -0.2246  0.2144
 8942SOL    HW138285   1.781   2.015   6.001 -0.3410 -0.4476  0.0102
 8942SOL    HW238286   1.734   1.961   6.125  1.8036 -0.5093 -0.9466
 8943SOL     OW38287   1.123   2.203   8.346  0.1399  0.7616  0.3388
 8943SOL    HW138288   1.134   2.290   8.306 -0.9707  1.0456  0.6580
 8943SOL    HW238289   1.029   2.202   8.364  0.2385  1.7760  0.9110
 8944SOL     OW38290   2.515   3.889  12.106  0.1846 -0.1425 -0.7455
 8944SOL    HW138291   2.502   3.891  12.201 -1.6493  0.1332 -0.9990
 8944SOL    HW238292   2.445   3.830  12.078  0.4091 -1.8210  2.2531
 8945SOL     OW38293   2.679   3.989   0.411 -0.1315 -0.4371  0.1922
 8945SOL    HW138294   2.703   4.081   0.422 -0.1376 -0.5244  0.9357
 8945SOL    HW238295   2.721   3.948   0.487 -1.1048 -0.6009  0.6409
 8946SOL     OW38296   2.812   1.110   8.224 -0.0948  0.6119  0.1254
 8946SOL    HW138297   2.816   1.182   8.287 -2.5577 -0.5752  1.6529
 8946SOL    HW238298   2.732   1.071   8.261 -2.0438  3.6320 -0.9094
 8947SOL     OW38299   4.033   2.003   6.664 -0.0411 -0.0784  0.5024
 8947SOL    HW138300   4.010   1.913   6.685 -1.5932  0.3741  0.7218
 8947SOL    HW238301   3.972   2.029   6.595 -1.4398 -0.4354  1.5997
 8948SOL     OW38302   2.365   2.312   5.838 -0.1207  0.1972  0.6668
 8948SOL    HW138303   2.381   2.226   5.876 -1.9153 -0.0074  0.9554
 8948SOL    HW238304   2.393   2.379   5.900  1.2456  0.4820 -0.2515
 8949SOL     OW38305   2.118   0.488   0.729 -0.1026  0.4295  0.5371
 8949SOL    HW138306   2.055   0.462   0.663 -1.2964 -1.5268  2.4544
 8949SOL    HW238307   2.060   0.497   0.804  0.7030 -1.0657  1.3269
 8950SOL     OW38308   3.074   2.166   4.822 -0.2869  0.1139  0.3068
 8950SOL    HW138309   3.169   2.174   4.822 -0.0847 -2.3120  2.6442
 8950SOL    HW238310   3.044   2.203   4.905  1.4498 -1.1156  1.4845
 8951SOL     OW38311   0.888   3.040   1.749 -0.2079 -0.2569 -0.4866
 8951SOL    HW138312   0.908   3.052   1.656  0.5868  0.1869 -0.2580
 8951SOL    HW238313   0.792   3.039   1.749 -0.2093  0.0367 -0.2290
 8952SOL     OW38314   2.618   0.975   7.573 -0.0154  0.5739  0.4220
 8952SOL    HW138315   2.531   1.012   7.585 -0.3350 -0.4875  1.3848
 8952SOL    HW238316   2.642   1.044   7.512 -0.6600  1.9589  1.7284
 8953SOL     OW38317   1.757   1.913   7.829 -0.4696  0.0123 -0.0472
 8953SOL    HW138318   1.670   1.905   7.868 -0.8800  0.3769 -0.8644
 8953SOL    HW238319   1.816   1.916   7.904  0.3263  1.4488 -0.7294
 8954SOL     OW38320   3.847   1.331  17.314 -0.4196  0.0659 -0.0424
 8954SOL    HW138321   3.934   1.353  17.280 -0.0471 -0.1439  0.7734
 8954SOL    HW238322   3.830   1.415  17.358 -2.8690 -0.4676  0.0134
 8955SOL     OW38323   2.289   0.297   8.471 -0.4987  0.1305 -0.1082
 8955SOL    HW138324   2.224   0.262   8.409 -0.8774  0.6614 -0.0137
 8955SOL    HW238325   2.231   0.344   8.531 -0.5465  1.7766 -1.4474
 8956SOL     OW38326   2.489   0.146   9.394  0.1366 -0.4345 -0.0511
 8956SOL    HW138327   2.486   0.058   9.432 -0.1103 -0.8958 -1.1458
 8956SOL    HW238328   2.584   0.159   9.398  0.2514 -1.4763  0.6551
 8957SOL     OW38329   2.593   0.862   9.249 -0.2521 -0.1590  0.5704
 8957SOL    HW138330   2.502   0.881   9.226  0.0709  0.2027 -0.4129
 8957SOL    HW238331   2.636   0.888   9.167 -2.0857 -0.2927 -0.4158
 8958SOL     OW38332   3.590   1.686   3.787  0.2063 -0.3957  0.3008
 8958SOL    HW138333   3.649   1.742   3.837 -0.0679 -0.7447  1.0161
 8958SOL    HW238334   3.596   1.601   3.831  1.5307 -0.2487  0.3949
 8959SOL     OW38335   2.069   2.922  13.221  0.0195 -0.0483  0.2712
 8959SOL    HW138336   2.003   2.858  13.195 -0.8180  0.8265  0.2866
 8959SOL    HW238337   2.105   2.941  13.134 -0.8849 -1.9058 -0.5115
 8960SOL     OW38338   1.791   4.155   8.920  0.3004 -0.0374 -0.3516
 8960SOL    HW138339   1.723   4.221   8.915 -0.9869 -1.1179  2.4194
 8960SOL    HW238340   1.862   4.209   8.888 -0.6496  2.5915  1.9814
 8961SOL     OW38341   1.548   2.009  10.794 -0.5198  0.2705  0.1054
 8961SOL    HW138342   1.541   2.094  10.837  0.0819  1.0437 -1.3287
 8961SOL    HW238343   1.580   1.957  10.868  0.6325  2.0988  0.8743
 8962SOL     OW38344   1.458   3.752   1.596 -0.0413  0.2244  0.2865
 8962SOL    HW138345   1.502   3.687   1.543 -0.2297 -0.1863  0.6319
 8962SOL    HW238346   1.425   3.697   1.667 -0.4296 -0.2993 -0.3100
 8963SOL     OW38347   1.398   1.524   5.577 -0.1896  0.5957  0.2897
 8963SOL    HW138348   1.318   1.537   5.526 -0.8884 -0.7626  1.0305
 8963SOL    HW238349   1.470   1.510   5.516  0.5280  0.8114  1.0748
 8964SOL     OW38350   4.263   1.600   7.814  0.2270 -0.3532  0.1703
 8964SOL    HW138351   4.190   1.652   7.781  1.0315 -0.0019 -1.0567
 8964SOL    HW238352   4.323   1.587   7.741  0.1735  0.0379  0.0559
 8965SOL     OW38353   2.682   1.884   7.960  0.5933 -0.2449 -0.3073
 8965SOL    HW138354   2.619   1.934   8.013  1.9956 -1.3448  2.3735
 8965SOL    HW238355   2.652   1.894   7.870 -0.8804  1.9116  0.4014
 8966SOL     OW38356   0.127   4.243   2.478  0.5479 -0.2132  0.1158
 8966SOL    HW138357   0.105   4.318   2.423 -2.5685 -1.3443 -0.1893
 8966SOL    HW238358   0.128   4.174   2.411  0.7480 -0.1139  0.0158
 8967SOL     OW38359   2.665   4.188   7.347  0.1282 -0.3715 -0.3418
 8967SOL    HW138360   2.728   4.116   7.351  1.2953  0.7382  1.1291
 8967SOL    HW238361   2.680   4.210   7.255  0.0116  0.3924 -0.1776
 8968SOL     OW38362   3.857   3.967  13.078  0.0259 -0.0147 -0.2477
 8968SOL    HW138363   3.803   3.890  13.061  0.0254  0.2183 -1.3177
 8968SOL    HW238364   3.796   4.027  13.121  1.0086 -1.2265  2.8307
 8969SOL     OW38365   0.431   0.644  13.532  0.3412 -0.1833  0.7677
 8969SOL    HW138366   0.465   0.732  13.516  1.8375 -0.1480  4.1900
 8969SOL    HW238367   0.495   0.600  13.588  2.0300 -0.0903 -1.0914
 8970SOL     OW38368   4.278   4.137   7.335 -0.1148  0.1665  0.0526
 8970SOL    HW138369   4.344   4.085   7.290 -0.4974  0.0117 -0.3349
 8970SOL    HW238370   4.289   4.108   7.425 -0.1503 -0.3875 -0.1246
 8971SOL     OW38371   3.082   2.271   4.536  0.1645  0.3915 -0.6307
 8971SOL    HW138372   3.091   2.340   4.602  1.1052  0.0434 -0.3863
 8971SOL    HW238373   3.166   2.254   4.493 -0.0142  2.9158 -1.9322
 8972SOL     OW38374   4.277   4.505   3.159  0.3421 -0.3931  0.2774
 8972SOL    HW138375   4.327   4.537   3.234  0.0015 -0.6118  0.5979
 8972SOL    HW238376   4.215   4.578   3.147  1.0439  0.4666  1.8815
 8973SOL     OW38377   2.565   3.145   5.359 -0.3157 -0.1255  0.2628
 8973SOL    HW138378   2.493   3.187   5.312 -1.6999 -1.3873  1.2272
 8973SOL    HW238379   2.611   3.222   5.391 -1.5806  1.9571 -2.9874
 8974SOL     OW38380   2.715   0.299  15.201 -0.0959 -0.9840 -0.1706
 8974SOL    HW138381   2.685   0.372  15.147  2.0414 -0.0007 -0.0205
 8974SOL    HW238382   2.810   0.306  15.194  0.0731 -3.1756 -0.0812
 8975SOL     OW38383   1.770   0.199   2.914 -0.5999 -0.4263 -0.9866
 8975SOL    HW138384   1.736   0.224   2.828 -3.7320  1.1799  0.7139
 8975SOL    HW238385   1.822   0.275   2.943 -2.1042 -0.0236  0.7066
 8976SOL     OW38386   2.652   4.276   0.460  0.4300 -0.3154  0.2554
 8976SOL    HW138387   2.561   4.256   0.482  0.7010  0.1844  1.8992
 8976SOL    HW238388   2.646   4.368   0.435  2.4645 -0.3126 -0.1832
 8977SOL     OW38389   1.682   3.344   9.003 -0.8902  0.4427  0.6629
 8977SOL    HW138390   1.597   3.374   9.036 -0.0852  3.0422  0.4208
 8977SOL    HW238391   1.692   3.268   9.060  1.7283 -0.0266 -0.4101
 8978SOL     OW38392   1.516   1.596  17.005  0.1490 -0.0472  0.5797
 8978SOL    HW138393   1.533   1.687  17.028  0.9695 -0.1978  0.5567
 8978SOL    HW238394   1.484   1.600  16.915  1.0646 -3.5228  0.0891
 8979SOL     OW38395   0.926   2.160  14.151  0.5429  0.4265 -0.0610
 8979SOL    HW138396   0.899   2.252  14.142 -0.7077  0.1548  0.8359
 8979SOL    HW238397   1.011   2.161  14.108 -0.1731  0.3507 -1.4767
 8980SOL     OW38398   1.927   3.487   9.052  0.0635 -0.0954 -0.1717
 8980SOL    HW138399   1.849   3.444   9.015  1.2836  0.6824 -3.5890
 8980SOL    HW238400   1.924   3.453   9.142 -3.2790  0.8460  0.0684
 8981SOL     OW38401   1.669   4.178   9.510 -0.0864 -0.4074  0.4092
 8981SOL    HW138402   1.611   4.237   9.558 -0.0663 -0.1252  0.0867
 8981SOL    HW238403   1.675   4.212   9.421  1.5839  0.2557  0.7663
 8982SOL     OW38404   3.941   0.130   8.765 -0.4578 -0.2166  0.2780
 8982SOL    HW138405   4.005   0.173   8.821 -2.0422  0.6595  1.4075
 8982SOL    HW238406   3.875   0.195   8.741 -2.4842 -1.5106  2.2742
 8983SOL     OW38407   1.589   3.335   7.422 -0.0813  0.1852  0.8354
 8983SOL    HW138408   1.668   3.299   7.463 -0.4950  0.7685  2.1532
 8983SOL    HW238409   1.604   3.430   7.414  0.8155  0.0019  0.2752
 8984SOL     OW38410   0.412   4.534   7.598 -0.0678 -0.5488  0.3797
 8984SOL    HW138411   0.370   4.454   7.630  0.5644 -1.1758 -0.3889
 8984SOL    HW238412   0.331   4.576   7.570  0.2735 -0.1274  0.0377
 8985SOL     OW38413   1.493   0.251   1.519 -0.4499 -0.4155  0.2338
 8985SOL    HW138414   1.517   0.205   1.600  1.8768 -1.1580 -0.8915
 8985SOL    HW238415   1.564   0.225   1.460 -1.2268  0.8247 -1.2193
 8986SOL     OW38416   1.176   3.009  13.618 -0.2122 -0.7958  0.7861
 8986SOL    HW138417   1.148   2.917  13.620  1.3431 -1.2983 -0.5426
 8986SOL    HW238418   1.166   3.028  13.711  0.9783  1.9162  0.3490
 8987SOL     OW38419   3.895   2.263   0.366 -0.4046  0.0802  0.3760
 8987SOL    HW138420   3.968   2.219   0.412  0.2943  0.9051  0.0496
 8987SOL    HW238421   3.822   2.210   0.399  0.3374 -1.6225 -0.7271
 8988SOL     OW38422   3.635   2.024   4.633  0.0974 -0.0607 -0.2521
 8988SOL    HW138423   3.544   2.021   4.606  0.3225  1.0129 -1.1649
 8988SOL    HW238424   3.675   2.041   4.547  0.6729 -0.7941 -0.1241
 8989SOL     OW38425   1.398   0.845   1.098  0.1013  0.2696  0.4905
 8989SOL    HW138426   1.385   0.762   1.145  2.1776 -0.3679 -0.0471
 8989SOL    HW238427   1.304   0.861   1.094  0.4370  1.5211 -2.6970
 8990SOL     OW38428   1.481   3.635   7.459 -0.3758 -0.1739 -0.4645
 8990SOL    HW138429   1.440   3.721   7.463  1.6978  0.7984 -0.2023
 8990SOL    HW238430   1.411   3.579   7.426  0.9677 -1.2888 -1.4576
 8991SOL     OW38431   1.806   1.988  17.402 -0.4273 -1.0630  0.2122
 8991SOL    HW138432   1.727   2.029  17.366 -0.0487 -1.3362 -0.9230
 8991SOL    HW238433   1.798   2.014  17.494  4.2036 -1.4547  0.7213
 8992SOL     OW38434   1.311   4.603   7.951 -0.1153  0.1925 -0.2833
 8992SOL    HW138435   1.234   4.659   7.955 -1.1243 -1.1311 -1.1166
 8992SOL    HW238436   1.278   4.541   7.885  0.9138  0.3728 -0.9684
 8993SOL     OW38437   2.887   3.563   6.774 -0.0897 -0.0751 -0.6281
 8993SOL    HW138438   2.975   3.527   6.765 -0.0237 -0.2310  0.7207
 8993SOL    HW238439   2.917   3.643   6.817  1.4075 -0.0738 -1.6596
 8994SOL     OW38440   0.382   2.854   6.154  0.4538  0.5440 -0.1431
 8994SOL    HW138441   0.287   2.842   6.147  0.2374  2.2927 -0.3680
 8994SOL    HW238442   0.376   2.949   6.143 -2.3746  0.5037  0.9051
 8995SOL     OW38443   1.392   0.480   1.742  0.4132 -0.0445  0.7811
 8995SOL    HW138444   1.443   0.400   1.753  1.8922  0.5963 -1.4800
 8995SOL    HW238445   1.306   0.459   1.779  0.4504 -1.3494  0.1077
 8996SOL     OW38446   0.280   2.600   7.794 -0.0019 -0.5254  0.0489
 8996SOL    HW138447   0.321   2.535   7.849  0.4631  1.1063  1.6305
 8996SOL    HW238448   0.200   2.552   7.773  1.5064 -2.2519 -1.7692
 8997SOL     OW38449   0.156   2.907  17.174 -0.3032 -0.0692 -0.5346
 8997SOL    HW138450   0.207   2.841  17.127 -0.4888 -2.2186  2.2608
 8997SOL    HW238451   0.219   2.948  17.233 -0.2724 -0.8682 -0.0121
 8998SOL     OW38452   1.778   2.048   0.568 -0.1146 -0.4949  0.5204
 8998SOL    HW138453   1.710   2.108   0.598  0.5099 -0.6586  2.2381
 8998SOL    HW238454   1.838   2.103   0.518 -1.9102 -2.3546 -3.6808
 8999SOL     OW38455   0.939   1.507   0.674  0.2938  0.4817 -0.0481
 8999SOL    HW138456   1.000   1.575   0.646  3.3079 -1.6141  1.4882
 8999SOL    HW238457   0.856   1.550   0.652 -0.2931  0.0939  1.3593
 9000SOL     OW38458   1.330   2.812   5.294  0.0336 -0.0546  0.0650
 9000SOL    HW138459   1.400   2.849   5.240 -0.6232 -1.3610 -1.6522
 9000SOL    HW238460   1.374   2.817   5.380 -2.5480  0.7245  1.3265
 9001SOL     OW38461   0.344   2.943   3.573 -0.1807  0.2042  0.2427
 9001SOL    HW138462   0.410   2.908   3.513  0.5122  1.9012  0.0016
 9001SOL    HW238463   0.275   2.879   3.553  0.0313  0.3815 -1.1078
 9002SOL     OW38464   1.598   2.169  17.356 -0.8395  0.0869  0.2122
 9002SOL    HW138465   1.567   2.259  17.350 -0.5350 -0.1280 -4.1141
 9002SOL    HW238466   1.597   2.138  17.266  1.1251  1.4270 -0.2755
 9003SOL     OW38467   2.173   3.869   4.072 -0.1466 -0.2243  0.4418
 9003SOL    HW138468   2.185   3.951   4.025 -0.6686  0.0368  0.7702
 9003SOL    HW238469   2.230   3.807   4.026  0.7121  0.4478  0.6039
 9004SOL     OW38470   3.545   1.217  17.029 -0.0613 -0.0189 -0.0485
 9004SOL    HW138471   3.458   1.179  17.017  0.9327 -2.1105 -0.5606
 9004SOL    HW238472   3.539   1.244  17.121 -0.3217 -0.7908  0.1635
 9005SOL     OW38473   3.773   3.833   7.610 -0.0356  0.3101  0.4318
 9005SOL    HW138474   3.717   3.756   7.618  0.1832  0.3206  1.9869
 9005SOL    HW238475   3.737   3.878   7.533 -0.0145 -1.9284 -0.8884
 9006SOL     OW38476   2.757   4.207   6.309  0.3152 -0.1815 -0.7861
 9006SOL    HW138477   2.847   4.206   6.340 -0.1975  0.1564  0.7153
 9006SOL    HW238478   2.720   4.295   6.314  0.8351 -0.1099  1.6070
 9007SOL     OW38479   1.293   0.712   7.564  0.4849  0.4924  0.7320
 9007SOL    HW138480   1.299   0.630   7.613 -0.2990  0.3494  0.5795
 9007SOL    HW238481   1.203   0.729   7.589  0.4439  0.9764  0.2692
 9008SOL     OW38482   1.316   0.024   7.288  0.1079 -0.1840  0.1223
 9008SOL    HW138483   1.342   4.699   7.210  0.6101  0.7682 -0.3070
 9008SOL    HW238484   1.253   0.082   7.246  1.3990 -0.2251 -1.8710
 9009SOL     OW38485   1.518   4.006  13.850 -0.0039  0.4316  0.3744
 9009SOL    HW138486   1.571   4.036  13.776 -1.7159  1.2564 -0.5292
 9009SOL    HW238487   1.486   4.082  13.898  0.4155 -0.9023  2.7372
 9010SOL     OW38488   0.538   0.082   3.607 -0.5764 -0.4106  0.3257
 9010SOL    HW138489   0.607   0.084   3.674 -1.8181 -2.9294  1.6934
 9010SOL    HW238490   0.533   4.713   3.586 -1.2144  0.2088 -2.2060
 9011SOL     OW38491   2.882   4.275   6.634  0.0690  0.4794 -0.0585
 9011SOL    HW138492   2.915   4.255   6.546  1.5147 -0.7184  0.7558
 9011SOL    HW238493   2.960   4.295   6.686  0.3868 -0.4108 -0.1865
 9012SOL     OW38494   3.766   3.404  11.911  0.6473 -0.4609 -0.5363
 9012SOL    HW138495   3.859   3.400  11.933 -0.0201  1.0511  2.4481
 9012SOL    HW238496   3.742   3.311  11.905  0.8243 -0.5187 -0.3396
 9013SOL     OW38497   0.547   3.943   2.036 -0.6831  0.1024  0.7964
 9013SOL    HW138498   0.541   3.849   2.018 -1.0922  0.0589  1.1433
 9013SOL    HW238499   0.536   3.972   1.945  0.6577  1.5890  1.1118
 9014SOL     OW38500   0.931   4.373   8.035  0.2782  0.0508 -0.0019
 9014SOL    HW138501   0.918   4.391   8.128  1.0402  0.9059 -0.0613
 9014SOL    HW238502   0.888   4.448   7.994  1.9240  1.0160  0.0140
 9015SOL     OW38503   4.180   2.799   4.726 -0.3398  0.4102 -0.2554
 9015SOL    HW138504   4.143   2.720   4.687  0.4711 -0.4909  0.7863
 9015SOL    HW238505   4.109   2.835   4.779  1.1308  0.1809  1.8671
 9016SOL     OW38506   1.876   3.665   6.975 -0.9131  0.2624 -0.5684
 9016SOL    HW138507   1.914   3.609   6.906 -1.6602 -1.5762  0.5091
 9016SOL    HW238508   1.790   3.683   6.937 -1.2284  1.5260  0.7737
 9017SOL     OW38509   1.049   2.132   2.279 -0.5707 -0.4786 -0.1236
 9017SOL    HW138510   1.059   2.226   2.265  0.9475 -1.0297 -2.6897
 9017SOL    HW238511   0.980   2.104   2.218  1.6451 -1.2300 -2.2657
 9018SOL     OW38512   3.004   2.073   7.898 -0.4752 -0.2480  0.3143
 9018SOL    HW138513   3.094   2.098   7.919 -0.2267  0.6734 -1.8104
 9018SOL    HW238514   2.997   1.990   7.945  0.1400 -1.0305 -0.9502
 9019SOL     OW38515   1.608   3.031   2.942  0.3371 -0.7063 -0.0361
 9019SOL    HW138516   1.656   2.978   3.005  0.9425  0.0611  0.1432
 9019SOL    HW238517   1.568   3.100   2.994 -1.4605 -2.3818  0.7819
 9020SOL     OW38518   4.567   3.753  15.383  0.0892  0.3447 -0.0789
 9020SOL    HW138519   4.542   3.831  15.432  0.4677  0.2815  0.2171
 9020SOL    HW238520   4.497   3.728  15.323  0.0860 -0.0117  0.0738
 9021SOL     OW38521   1.283   3.763   0.117  0.1224 -0.0269 -0.5638
 9021SOL    HW138522   1.275   3.669   0.106  1.3748 -0.3365  1.0588
 9021SOL    HW238523   1.257   3.782   0.207 -0.6235 -0.4187 -0.7029
 9022SOL     OW38524   3.265   0.099   0.756  0.6638 -0.1784  0.3266
 9022SOL    HW138525   3.276   0.170   0.693 -2.6411  1.5678  1.7198
 9022SOL    HW238526   3.342   0.047   0.731  0.6675 -0.4302  0.8700
 9023SOL     OW38527   1.676   2.663   5.534 -0.4321  0.0073 -0.0556
 9023SOL    HW138528   1.605   2.722   5.559 -0.3020  0.3038 -0.3922
 9023SOL    HW238529   1.742   2.675   5.602 -1.7333  0.6844  1.0837
 9024SOL     OW38530   0.701   1.582   7.484 -0.7493  0.1933  0.2675
 9024SOL    HW138531   0.748   1.577   7.567 -0.2831  0.5350  0.0254
 9024SOL    HW238532   0.770   1.565   7.420 -1.0066 -0.8013  0.2531
 9025SOL     OW38533   3.562   1.556  11.991 -0.0659 -0.0775  0.3809
 9025SOL    HW138534   3.498   1.569  12.060 -1.3390 -0.2983 -0.7587
 9025SOL    HW238535   3.566   1.460  11.986 -1.1671 -0.2424  2.7212
 9026SOL     OW38536   3.808   3.685  17.657 -0.1029  0.0251  1.1226
 9026SOL    HW138537   3.838   3.776  17.658 -1.1816  0.3784  2.3688
 9026SOL    HW238538   3.891   3.640  17.667 -1.4748 -2.4608  1.3797
 9027SOL     OW38539   4.298   3.904   8.815 -0.4368 -0.7515  0.0144
 9027SOL    HW138540   4.282   3.951   8.897  0.2517  0.2929 -0.4549
 9027SOL    HW238541   4.315   3.970   8.748  1.9309  1.0720  2.3784
 9028SOL     OW38542   4.096   2.234   4.745  0.4314 -0.1716 -0.1621
 9028SOL    HW138543   4.011   2.249   4.704  0.2697 -0.5111  0.0514
 9028SOL    HW238544   4.129   2.324   4.740  2.5098 -1.0843 -2.6377
 9029SOL     OW38545   1.649   0.797   5.947 -0.0427 -0.1694 -0.7684
 9029SOL    HW138546   1.566   0.756   5.923  0.3472 -1.7515  0.6271
 9029SOL    HW238547   1.691   0.776   5.863 -0.3076  2.7680 -1.6366
 9030SOL     OW38548   4.100   3.763   7.880  0.2394 -0.2049  0.4410
 9030SOL    HW138549   4.120   3.708   7.955  1.4719 -0.2791  0.0629
 9030SOL    HW238550   4.073   3.842   7.927 -1.9965  0.1053 -1.3789
 9031SOL     OW38551   3.235   1.386  16.891 -0.4177 -0.0979  0.1545
 9031SOL    HW138552   3.212   1.293  16.894  0.9624 -0.4179  1.0405
 9031SOL    HW238553   3.282   1.393  16.808 -2.7106 -0.3182 -1.1476
 9032SOL     OW38554   1.359   3.018   3.152  0.3533 -0.0685  0.1286
 9032SOL    HW138555   1.332   3.021   3.244  1.6813 -1.7126  0.5730
 9032SOL    HW238556   1.325   2.931   3.132 -0.3868  0.6132 -1.5284
 9033SOL     OW38557   4.130   4.708  16.679 -0.3429  0.0606  0.3395
 9033SOL    HW138558   4.179   0.057  16.641 -1.6483  0.0697 -1.3559
 9033SOL    HW238559   4.193   4.639  16.700  0.0941  1.1681  2.6461
 9034SOL     OW38560   1.467   2.571   7.037  0.0301  0.3784 -0.3913
 9034SOL    HW138561   1.398   2.631   7.010 -1.4291 -0.8009  0.7287
 9034SOL    HW238562   1.443   2.495   6.984 -0.7094  0.7283 -0.5482
 9035SOL     OW38563   1.963   2.814   5.555  0.1931 -0.0264  0.3211
 9035SOL    HW138564   2.014   2.874   5.609  3.2024 -1.8563 -0.5220
 9035SOL    HW238565   2.004   2.733   5.584  2.0389 -0.3490 -3.1934
 9036SOL     OW38566   0.993   1.918   5.126  0.1740 -0.1168  0.2412
 9036SOL    HW138567   0.935   1.972   5.071  0.0328 -0.7160 -0.1958
 9036SOL    HW238568   1.000   1.968   5.207 -0.3894  1.7580 -0.8537
 9037SOL     OW38569   0.827   4.531   6.605  0.4302  0.0957  0.2654
 9037SOL    HW138570   0.852   4.456   6.659 -3.2958  0.6039  2.6488
 9037SOL    HW238571   0.835   4.494   6.517 -2.2584 -0.7914  0.3830
 9038SOL     OW38572   0.547   4.245   7.675  0.3737 -0.0730  0.1180
 9038SOL    HW138573   0.633   4.250   7.718  0.3396  1.1629  0.0356
 9038SOL    HW238574   0.491   4.299   7.731  1.2797  0.4110  0.5542
 9039SOL     OW38575   4.476   4.448   8.724 -0.0108  0.6316 -0.2483
 9039SOL    HW138576   4.459   4.429   8.632 -1.4713  0.6762  0.0080
 9039SOL    HW238577   4.564   4.482   8.707  0.4518 -0.2044  0.5130
 9040SOL     OW38578   0.817   3.264  14.586 -0.3523  0.1605  0.2228
 9040SOL    HW138579   0.836   3.244  14.494 -1.1940 -0.3752  0.1687
 9040SOL    HW238580   0.790   3.355  14.582 -0.3252  0.1999  0.9476
 9041SOL     OW38581   0.292   4.332   9.877 -0.1354  0.2461 -0.4657
 9041SOL    HW138582   0.210   4.355   9.920  0.5835 -0.3954  1.2718
 9041SOL    HW238583   0.340   4.409   9.908  1.6084 -1.3001  0.7526
 9042SOL     OW38584   0.113   4.410   2.264 -0.0324  0.0948  0.1642
 9042SOL    HW138585   0.042   4.446   2.212 -1.0942 -0.7416  1.0428
 9042SOL    HW238586   0.147   4.349   2.199  0.7668 -0.6705  1.2979
 9043SOL     OW38587   0.212   1.799   1.504 -0.4981 -0.3952 -0.3124
 9043SOL    HW138588   0.223   1.828   1.595  0.3529  1.9863 -1.1668
 9043SOL    HW238589   0.227   1.878   1.452 -1.0926 -0.6552 -0.8655
 9044SOL     OW38590   3.183   4.427   6.488  0.5287  0.3450 -0.7042
 9044SOL    HW138591   3.189   4.517   6.455 -3.1655  0.4039 -1.1897
 9044SOL    HW238592   3.194   4.448   6.580 -1.5768  1.4361 -0.7008
 9045SOL     OW38593   4.355   0.164  11.679 -0.6843  0.0729 -0.0163
 9045SOL    HW138594   4.274   0.200  11.717 -0.2866  0.0197  0.8764
 9045SOL    HW238595   4.329   0.186  11.589 -2.8619  2.3768  1.1851
 9046SOL     OW38596   2.823   1.416   5.506 -0.0615 -0.6165  0.4056
 9046SOL    HW138597   2.872   1.335   5.523 -0.0032 -0.3594  1.4578
 9046SOL    HW238598   2.850   1.474   5.577 -1.2572  0.2917  0.1021
 9047SOL     OW38599   3.116   3.920   5.466 -0.2038 -0.7332  0.1158
 9047SOL    HW138600   3.087   3.980   5.397 -1.6983 -0.5122  0.9551
 9047SOL    HW238601   3.206   3.953   5.474 -1.3746  1.8652  2.6245
 9048SOL     OW38602   1.318   2.052  12.075 -0.3392  0.1510  0.7174
 9048SOL    HW138603   1.303   2.121  12.010  0.4301 -0.8139 -0.4967
 9048SOL    HW238604   1.236   2.032  12.120 -0.9712  0.2073 -0.4099
 9049SOL     OW38605   4.574   0.755   3.791  0.3928 -0.0400 -0.0496
 9049SOL    HW138606   4.648   0.708   3.752  1.9616  0.1811  2.5937
 9049SOL    HW238607   4.506   0.689   3.779  1.0826 -0.3339 -2.3465
 9050SOL     OW38608   2.444   4.239   4.051 -0.4072  0.3684  0.1947
 9050SOL    HW138609   2.379   4.193   3.997 -0.8720 -1.5182  2.3539
 9050SOL    HW238610   2.486   4.166   4.096 -2.7802 -0.0872  1.6828
 9051SOL     OW38611   2.855   2.128   2.927  0.3424 -0.0281 -0.1119
 9051SOL    HW138612   2.846   2.084   2.843  1.4541  0.0803 -0.2793
 9051SOL    HW238613   2.797   2.205   2.922  0.7942  0.3634  0.6437
 9052SOL     OW38614   1.249   3.050  16.956  0.2725  0.5013 -0.1128
 9052SOL    HW138615   1.182   3.053  16.887 -0.7096 -0.2740  0.8258
 9052SOL    HW238616   1.229   3.125  17.012  1.2186 -1.0857  2.3310
 9053SOL     OW38617   1.117   0.502   7.177 -0.2463  0.1447  0.0074
 9053SOL    HW138618   1.202   0.546   7.184  1.0188 -2.5394  1.2847
 9053SOL    HW238619   1.118   0.472   7.086  2.4223  0.4139 -0.0361
 9054SOL     OW38620   1.617   2.054  12.646  0.1053 -0.3889  0.1600
 9054SOL    HW138621   1.589   2.141  12.675  0.0627  0.0238 -1.0909
 9054SOL    HW238622   1.711   2.058  12.633  0.4397 -1.9061  2.2647
 9055SOL     OW38623   0.702   0.581  15.272 -0.4502 -0.1928 -0.5702
 9055SOL    HW138624   0.744   0.495  15.269 -0.1197 -0.1596  2.4734
 9055SOL    HW238625   0.688   0.591  15.367  1.2561 -0.6295 -0.2707
 9056SOL     OW38626   0.094   4.258  17.095  0.2316  0.0383 -0.0647
 9056SOL    HW138627   0.134   4.177  17.063 -0.4932  0.3413 -1.7251
 9056SOL    HW238628   0.116   4.308  17.017  1.5408  1.5698  1.3028
 9057SOL     OW38629   4.439   1.777   5.018  0.1456 -0.1248  0.1166
 9057SOL    HW138630   4.354   1.798   4.981 -0.1192 -0.3349  0.6114
 9057SOL    HW238631   4.409   1.752   5.105 -1.0186  2.4858  0.4619
 9058SOL     OW38632   2.340   2.813   5.041  0.3246  0.4439 -0.2326
 9058SOL    HW138633   2.404   2.884   5.044 -0.5720  1.3451 -2.2336
 9058SOL    HW238634   2.265   2.864   5.071  0.6306  0.0736  1.1724
 9059SOL     OW38635   1.353   0.295   7.033 -0.3234 -0.5709 -0.8083
 9059SOL    HW138636   1.317   0.238   6.965  1.2306 -1.1417 -1.1568
 9059SOL    HW238637   1.296   0.276   7.106 -0.7083  1.2197 -0.6330
 9060SOL     OW38638   1.930   3.850   6.623  0.1288 -0.3049 -0.2860
 9060SOL    HW138639   1.997   3.813   6.681 -0.5623 -1.8300 -0.4473
 9060SOL    HW238640   1.962   3.815   6.540  0.7758 -0.2816 -0.0411
 9061SOL     OW38641   3.072   4.600  17.085  0.1740 -0.7920 -0.1550
 9061SOL    HW138642   3.073   4.509  17.056 -0.4827 -1.3650  1.5727
 9061SOL    HW238643   3.018   4.645  17.020  0.2760  3.0430  2.3811
 9062SOL     OW38644   2.223   3.762  14.048  0.4546  0.0666  0.1761
 9062SOL    HW138645   2.226   3.699  14.119  0.1755  1.6439  1.5911
 9062SOL    HW238646   2.294   3.743  13.987 -0.4770 -1.3115 -0.4961
 9063SOL     OW38647   2.167   3.253   4.439 -0.1690 -0.2381  0.2194
 9063SOL    HW138648   2.088   3.200   4.449 -0.6040  0.3857  0.0797
 9063SOL    HW238649   2.230   3.186   4.464  0.5495  0.2803 -0.1982
 9064SOL     OW38650   3.213   0.147  15.887  0.3138 -0.0280 -0.8853
 9064SOL    HW138651   3.177   0.119  15.803  0.6202 -0.1181 -0.9849
 9064SOL    HW238652   3.231   0.062  15.928 -0.5777  0.4603  0.5259
 9065SOL     OW38653   2.889   3.669   7.537 -0.1617  0.2270  0.3148
 9065SOL    HW138654   2.885   3.689   7.630  0.0813  2.1815 -0.1001
 9065SOL    HW238655   2.801   3.631   7.535  0.2014 -0.5996 -0.5531
 9066SOL     OW38656   0.450   2.128  11.319  0.1903  0.4892 -0.0807
 9066SOL    HW138657   0.471   2.215  11.285 -0.5669  0.6931 -0.0307
 9066SOL    HW238658   0.372   2.171  11.354  0.2960  1.2115 -0.7407
 9067SOL     OW38659   1.938   0.505   3.482  0.6765 -0.2791 -0.2134
 9067SOL    HW138660   1.912   0.436   3.543  1.3512 -0.4501 -0.1147
 9067SOL    HW238661   1.992   0.554   3.545 -0.2860 -0.3306  0.6511
 9068SOL     OW38662   1.665   3.920   2.148  0.2783  0.3945 -0.2340
 9068SOL    HW138663   1.683   3.892   2.238 -1.6300 -0.5371 -0.1356
 9068SOL    HW238664   1.750   3.958   2.126 -0.3030  2.8422  1.8747
 9069SOL     OW38665   4.477   4.596   3.347 -0.3681  0.2501 -0.2729
 9069SOL    HW138666   4.510   4.683   3.368 -2.1785  0.9152 -0.1051
 9069SOL    HW238667   4.469   4.557   3.433  0.3096 -0.0824 -0.3619
 9070SOL     OW38668   2.776   1.769   1.633 -0.0783 -0.0910  1.1092
 9070SOL    HW138669   2.748   1.753   1.543  0.8177  2.4618  0.3913
 9070SOL    HW238670   2.867   1.742   1.619 -0.4178 -0.6689  0.0674
 9071SOL     OW38671   3.801   2.625   7.256  0.0761 -0.0695 -0.5356
 9071SOL    HW138672   3.820   2.644   7.348  1.0079 -1.3673 -0.4585
 9071SOL    HW238673   3.846   2.699   7.215 -0.6027  0.3725 -0.4767
 9072SOL     OW38674   3.417   2.689   1.215 -0.4268 -0.2116 -0.6508
 9072SOL    HW138675   3.366   2.608   1.204  0.5440 -0.9210  0.0216
 9072SOL    HW238676   3.386   2.717   1.301 -2.2333  1.8804 -1.9831
 9073SOL     OW38677   1.718   3.531  17.531  0.3412  0.4027 -0.1141
 9073SOL    HW138678   1.787   3.496  17.474 -0.5992  0.0655 -1.0587
 9073SOL    HW238679   1.666   3.581  17.468 -0.8413  0.6551  1.0616
 9074SOL     OW38680   3.296   2.336   2.455 -0.0696 -0.0218  0.0919
 9074SOL    HW138681   3.223   2.397   2.459  0.2390  0.4193 -0.7920
 9074SOL    HW238682   3.258   2.262   2.407  1.2224 -0.6742  0.0598
 9075SOL     OW38683   1.532   1.995   0.828  0.2429  0.6698 -0.2824
 9075SOL    HW138684   1.582   2.074   0.805  0.4082  1.3629  2.5253
 9075SOL    HW238685   1.448   2.039   0.838  0.5270  1.4404 -1.2079
 9076SOL     OW38686   2.969   4.278  12.072 -0.0399 -0.2759  0.0831
 9076SOL    HW138687   2.889   4.330  12.078 -0.4983 -0.8629 -0.8826
 9076SOL    HW238688   3.024   4.351  12.041  0.4423 -0.4488  0.5264
 9077SOL     OW38689   1.391   0.079   6.666  0.0691  0.5136  0.3464
 9077SOL    HW138690   1.473   0.039   6.695 -0.1057 -0.0241  0.1041
 9077SOL    HW238691   1.341   4.724   6.648  0.3863  0.1028  1.3000
 9078SOL     OW38692   0.417   1.824  17.511  0.1292 -0.0383 -0.2445
 9078SOL    HW138693   0.398   1.903  17.460 -1.1573  0.3835  0.8905
 9078SOL    HW238694   0.452   1.871  17.587 -0.5933 -1.5459  1.0374
 9079SOL     OW38695   1.284   3.324   4.313  0.0409  0.4050  0.4773
 9079SOL    HW138696   1.304   3.311   4.220  0.7697  1.2162  0.5288
 9079SOL    HW238697   1.196   3.286   4.316  0.7066 -1.0253  2.2173
 9080SOL     OW38698   4.347   4.495   5.557 -0.3155  0.4785 -0.0835
 9080SOL    HW138699   4.391   4.580   5.555  1.4111 -0.4236  0.0418
 9080SOL    HW238700   4.403   4.445   5.616 -1.2369 -1.9425 -1.2565
 9081SOL     OW38701   4.419   0.634   7.145  0.1947  0.3257  0.1610
 9081SOL    HW138702   4.464   0.656   7.227  3.7455 -1.8683 -1.1839
 9081SOL    HW238703   4.381   0.720   7.126  1.4663  1.1188  1.1319
 9082SOL     OW38704   2.823   4.197   9.720  0.4628  0.4485  0.1581
 9082SOL    HW138705   2.851   4.124   9.776 -1.0979 -0.2661 -0.0132
 9082SOL    HW238706   2.755   4.229   9.779 -1.2319 -1.9632 -0.4950
 9083SOL     OW38707   0.183   4.641   2.633 -0.0669 -0.7632  0.4600
 9083SOL    HW138708   0.239   4.700   2.582 -2.7967  1.8859  0.5058
 9083SOL    HW238709   0.119   4.701   2.671  0.6505 -0.6390  1.4767
 9084SOL     OW38710   4.439   2.630   0.407 -0.0435 -0.4134  0.1279
 9084SOL    HW138711   4.388   2.697   0.453  2.3327  1.0453  0.6701
 9084SOL    HW238712   4.457   2.678   0.326  0.9623  0.1063  0.6534
 9085SOL     OW38713   1.234   1.318  16.327  0.1965 -0.1484  1.0094
 9085SOL    HW138714   1.283   1.332  16.246 -0.5491 -0.9920  0.4066
 9085SOL    HW238715   1.156   1.273  16.296  1.5294 -2.2581  0.7144
 9086SOL     OW38716   4.085   3.638  16.807  0.2077 -0.0005  0.5137
 9086SOL    HW138717   4.021   3.705  16.783  2.4402  2.1982  0.7664
 9086SOL    HW238718   4.041   3.556  16.786 -0.4381 -0.2399  2.7898
 9087SOL     OW38719   4.037   4.254   4.991  0.5583 -0.4749 -0.4768
 9087SOL    HW138720   4.129   4.251   4.967  0.1493 -1.6179 -1.8855
 9087SOL    HW238721   4.042   4.266   5.086 -1.4963 -0.4340 -0.3607
 9088SOL     OW38722   3.378   2.712  17.302 -0.3177  0.1799 -0.7667
 9088SOL    HW138723   3.463   2.669  17.290  0.4326  1.1794  0.9688
 9088SOL    HW238724   3.377   2.777  17.231  0.1903 -0.1762 -1.1013
 9089SOL     OW38725   2.947   2.949  13.150  0.2185  0.3365 -0.0328
 9089SOL    HW138726   3.009   3.013  13.116  0.1034  0.6776  0.3948
 9089SOL    HW238727   2.916   3.006  13.221  1.7000 -0.7322  1.4982
 9090SOL     OW38728   0.911   0.567   4.857  0.0768 -0.3636 -0.1071
 9090SOL    HW138729   0.881   0.625   4.786  0.2804  2.2453  1.9738
 9090SOL    HW238730   0.977   0.623   4.898 -0.6651  1.6898 -1.6564
 9091SOL     OW38731   0.426   1.842   8.735 -0.1970 -0.0290  0.7218
 9091SOL    HW138732   0.518   1.815   8.729  0.2345  1.2047  1.9084
 9091SOL    HW238733   0.446   1.936   8.734  0.0871 -0.0641  2.3712
 9092SOL     OW38734   3.015   0.876  17.602  0.3003 -0.1549  0.3259
 9092SOL    HW138735   3.027   0.971  17.598  0.7925 -0.1951  0.8169
 9092SOL    HW238736   3.000   0.853  17.694 -0.6150 -0.5231  0.0841
 9093SOL     OW38737   2.200   0.838   5.960 -0.8752  0.0235  0.0575
 9093SOL    HW138738   2.233   0.759   6.003 -0.1545  0.1831 -0.2088
 9093SOL    HW238739   2.105   0.837   5.974 -0.4746  2.3007  3.0909
 9094SOL     OW38740   3.116   2.863   6.611 -0.1221  0.4698  0.7336
 9094SOL    HW138741   3.057   2.931   6.642 -1.3390 -0.1817 -0.1534
 9094SOL    HW238742   3.070   2.826   6.535  1.6607  1.4581 -0.8132
 9095SOL     OW38743   1.618   0.231  15.363 -0.1630 -0.0471 -0.2586
 9095SOL    HW138744   1.656   0.268  15.283  1.1215  2.2281  1.4440
 9095SOL    HW238745   1.643   0.140  15.346 -3.4430 -0.8382 -1.0012
 9096SOL     OW38746   1.843   4.621   8.656 -0.2695  0.0408  0.0707
 9096SOL    HW138747   1.824   4.704   8.698 -0.3804 -0.1972  0.4860
 9096SOL    HW238748   1.913   4.591   8.715 -1.6846 -2.5783  0.4187
 9097SOL     OW38749   3.304   1.460   7.672  0.2695  0.9134  0.2567
 9097SOL    HW138750   3.220   1.472   7.717  0.8746 -0.3693  1.7225
 9097SOL    HW238751   3.366   1.482   7.742  1.4039 -0.9409 -0.1726
 9098SOL     OW38752   3.032   3.805   3.225  0.6723  0.3588  0.0669
 9098SOL    HW138753   2.992   3.888   3.249 -1.5032 -0.5719 -0.4032
 9098SOL    HW238754   2.955   3.750   3.215  0.9916 -0.6104  2.6639
 9099SOL     OW38755   0.542   0.615   8.858  0.1136 -0.0622 -0.0569
 9099SOL    HW138756   0.522   0.666   8.937 -0.3657 -1.1007  0.4866
 9099SOL    HW238757   0.600   0.550   8.897 -1.5488 -1.7324 -0.3868
 9100SOL     OW38758   0.946   2.971   2.535 -0.8891  0.3647 -0.1560
 9100SOL    HW138759   0.996   2.942   2.611  0.4593  1.3355 -0.6760
 9100SOL    HW238760   0.854   2.950   2.551 -0.9016 -0.1549 -0.9018
 9101SOL     OW38761   3.337   3.135   3.469 -0.4883 -0.4172  0.4076
 9101SOL    HW138762   3.288   3.056   3.491  0.0119 -0.5625  1.0331
 9101SOL    HW238763   3.346   3.179   3.554 -0.9898 -0.2717  0.3828
 9102SOL     OW38764   2.509   0.422   7.304 -0.3857 -0.2490  0.4710
 9102SOL    HW138765   2.604   0.424   7.311 -0.1289 -0.4498 -3.1840
 9102SOL    HW238766   2.484   0.502   7.350  3.4470  0.0259  2.0926
 9103SOL     OW38767   0.543   3.041   6.474 -0.1475 -0.3351 -0.0327
 9103SOL    HW138768   0.568   3.118   6.524  0.9450 -0.7755  0.0990
 9103SOL    HW238769   0.448   3.050   6.487  0.1086  0.3158  1.3863
 9104SOL     OW38770   2.791   2.760   5.316 -0.2866  0.0776 -0.1987
 9104SOL    HW138771   2.756   2.690   5.371  1.9462 -1.4963 -0.7763
 9104SOL    HW238772   2.709   2.784   5.272 -0.2193 -0.5897 -0.6993
 9105SOL     OW38773   0.185   4.533   3.649 -0.3073  0.0305 -0.7489
 9105SOL    HW138774   0.151   4.613   3.691  4.3754  1.5753  0.1334
 9105SOL    HW238775   0.210   4.560   3.561  1.3964  1.6470  0.2166
 9106SOL     OW38776   1.184   1.118   6.563  0.0216 -0.3853  0.6268
 9106SOL    HW138777   1.122   1.067   6.615 -1.6381  0.7349 -0.2459
 9106SOL    HW238778   1.262   1.063   6.562  0.5411  0.3628 -0.5832
 9107SOL     OW38779   0.449   0.994  10.843 -0.0217 -0.2688 -0.4134
 9107SOL    HW138780   0.431   1.076  10.796 -0.3834 -1.0335 -1.6184
 9107SOL    HW238781   0.410   1.016  10.927  0.7258 -2.5097  0.5099
 9108SOL     OW38782   1.199   2.847   5.749 -0.2104 -0.5117 -0.4911
 9108SOL    HW138783   1.127   2.863   5.687 -0.3991  2.6084  0.5269
 9108SOL    HW238784   1.150   2.868   5.828 -0.9983 -1.8056 -0.6388
 9109SOL     OW38785   0.327   1.344  12.147 -0.5169 -0.0686 -0.4693
 9109SOL    HW138786   0.347   1.251  12.160  0.9369  0.3260  0.0327
 9109SOL    HW238787   0.407   1.376  12.106  2.1010  1.4262  5.7716
 9110SOL     OW38788   1.150   1.928  15.848  0.0785 -0.2201  0.5615
 9110SOL    HW138789   1.066   1.956  15.811  0.5929  1.5763  0.7525
 9110SOL    HW238790   1.120   1.896  15.933  1.8174 -2.5557  0.3088
 9111SOL     OW38791   0.391   2.979  16.260 -0.4152 -0.1003  0.2646
 9111SOL    HW138792   0.342   3.061  16.254  0.1891  0.1485 -1.4154
 9111SOL    HW238793   0.344   2.943  16.335 -0.5185  0.4686  0.4738
 9112SOL     OW38794   3.781   4.640   0.071 -0.2973  0.1665 -0.2460
 9112SOL    HW138795   3.755   4.688  17.692 -0.8334 -0.3966 -0.4169
 9112SOL    HW238796   3.830   4.708   0.118  0.0352  0.2319 -0.6858
 9113SOL     OW38797   4.411   1.999   2.620  0.4056  0.6798  0.0762
 9113SOL    HW138798   4.452   1.988   2.706 -2.0858 -1.4762  0.9730
 9113SOL    HW238799   4.320   2.016   2.643 -0.3982  0.3120 -2.8117
 9114SOL     OW38800   4.258   4.250  11.667 -0.3126 -0.0342 -0.5048
 9114SOL    HW138801   4.196   4.203  11.723  1.5498  0.7391  2.1723
 9114SOL    HW238802   4.230   4.341  11.666 -0.9192 -0.2160 -0.1613
 9115SOL     OW38803   1.159   2.276   5.418  0.1251  0.2313 -0.8067
 9115SOL    HW138804   1.178   2.337   5.346  0.3865  1.3988  0.2463
 9115SOL    HW238805   1.247   2.249   5.445 -0.0394  1.4873  0.9408
 9116SOL     OW38806   3.383   2.593   8.832 -1.0931  0.3265 -0.4205
 9116SOL    HW138807   3.394   2.681   8.796 -0.2546  0.5734  0.4350
 9116SOL    HW238808   3.380   2.618   8.924 -0.1101  1.0911 -0.5845
 9117SOL     OW38809   2.446   4.331   0.178 -0.5361 -0.3911  0.0563
 9117SOL    HW138810   2.370   4.290   0.221 -1.7954  2.5974  0.6473
 9117SOL    HW238811   2.412   4.399   0.121  1.1010 -0.9794 -1.5967
 9118SOL     OW38812   3.096   2.870   0.755 -0.0108  0.2024 -0.4703
 9118SOL    HW138813   3.091   2.963   0.731 -1.6607  0.7590  2.0321
 9118SOL    HW238814   3.088   2.869   0.850 -0.0192  2.5150 -0.4465
 9119SOL     OW38815   2.438   4.438   6.140 -0.1772  0.3626 -0.5967
 9119SOL    HW138816   2.498   4.366   6.121  0.6343  1.2839 -1.5205
 9119SOL    HW238817   2.499   4.511   6.154  0.1291  0.4817 -2.5678
 9120SOL     OW38818   0.885   0.983   0.152  0.4880 -0.1033 -0.1785
 9120SOL    HW138819   0.833   1.064   0.145  0.3975 -0.2597 -1.3491
 9120SOL    HW238820   0.856   0.947   0.236 -3.0523  1.7509 -0.5844
 9121SOL     OW38821   2.644   1.347   0.730 -0.1719 -0.3233 -0.4464
 9121SOL    HW138822   2.587   1.311   0.662  0.0811 -0.0612 -0.8024
 9121SOL    HW238823   2.693   1.266   0.743  0.7092  0.4437  0.9643
 9122SOL     OW38824   0.085   1.258   3.259  0.2313  0.0165  0.6290
 9122SOL    HW138825   0.069   1.180   3.206  0.0797  0.5658 -0.1408
 9122SOL    HW238826   0.177   1.276   3.241  1.1967 -2.7688  2.7600
 9123SOL     OW38827   1.990   0.257   6.480  0.4625  0.3425  0.5002
 9123SOL    HW138828   2.019   0.260   6.389  1.2890 -0.5373  0.7297
 9123SOL    HW238829   1.898   0.280   6.466 -0.0559 -1.8100  0.3810
 9124SOL     OW38830   0.169   0.626  14.191  0.0057  0.0106 -0.7428
 9124SOL    HW138831   0.098   0.590  14.244 -0.1799  0.6706 -0.5417
 9124SOL    HW238832   0.238   0.614  14.256 -2.3439 -0.3035  1.6842
 9125SOL     OW38833   2.472   2.472   6.379 -0.0005  0.2481 -0.6427
 9125SOL    HW138834   2.514   2.557   6.389 -0.9254  0.6762 -0.3706
 9125SOL    HW238835   2.527   2.404   6.419 -0.1636  1.1597  1.1142
 9126SOL     OW38836   2.399   2.576   3.567 -0.2965 -0.1406  0.2848
 9126SOL    HW138837   2.350   2.506   3.524  0.6186 -0.1190 -0.8225
 9126SOL    HW238838   2.483   2.566   3.521  0.4276  0.7225  1.4009
 9127SOL     OW38839   4.134   3.080   7.800  0.0891  0.3429  0.1385
 9127SOL    HW138840   4.133   3.165   7.844  1.8101  0.2135  0.4247
 9127SOL    HW238841   4.223   3.046   7.813 -1.5830 -3.8308  0.7432
 9128SOL     OW38842   3.459   4.463   0.283 -0.3516 -0.3066  0.4071
 9128SOL    HW138843   3.473   4.412   0.363 -1.6071  1.7136  1.9098
 9128SOL    HW238844   3.527   4.420   0.230 -0.7877 -0.3234 -0.1473
 9129SOL     OW38845   0.388   2.183  10.975  0.0727 -0.3217  0.5016
 9129SOL    HW138846   0.406   2.249  11.042  0.0707  0.0412  0.1432
 9129SOL    HW238847   0.340   2.223  10.903  2.4961  0.4336 -0.7040
 9130SOL     OW38848   2.404   4.289   0.526  0.1622  0.0274 -0.2315
 9130SOL    HW138849   2.357   4.369   0.547  1.0521 -0.0216  2.0722
 9130SOL    HW238850   2.358   4.238   0.459  2.3603 -1.6590 -0.4867
 9131SOL     OW38851   3.398   0.217   3.269 -0.2165 -0.7206  0.0128
 9131SOL    HW138852   3.379   0.142   3.325 -2.1468  0.3045  0.7300
 9131SOL    HW238853   3.307   0.244   3.256 -0.0681 -0.9983 -1.6871
 9132SOL     OW38854   0.530   3.759  10.451  0.0127 -0.1377 -0.1243
 9132SOL    HW138855   0.468   3.701  10.407  1.1089 -0.7620 -0.8650
 9132SOL    HW238856   0.543   3.835  10.395  2.0035 -0.1361  0.3302
 9133SOL     OW38857   0.298   0.854  15.463 -0.2660 -0.3042  0.3473
 9133SOL    HW138858   0.358   0.912  15.510 -1.6621  0.6557  0.9222
 9133SOL    HW238859   0.230   0.845  15.529  1.9531  1.7830  2.9588
 9134SOL     OW38860   4.437   3.367   4.561 -0.5062 -0.1641 -0.2460
 9134SOL    HW138861   4.383   3.327   4.493  0.6243 -1.1666 -0.5664
 9134SOL    HW238862   4.428   3.460   4.541  2.2697  0.0171 -0.6540
 9135SOL     OW38863   2.464   2.641  10.493 -0.1628 -0.3629  0.2405
 9135SOL    HW138864   2.419   2.725  10.482  1.8875  0.5194 -1.1681
 9135SOL    HW238865   2.528   2.654  10.562  0.4868 -2.7942  0.1111
 9136SOL     OW38866   3.146   4.645   8.644 -0.2250  0.0384 -0.1815
 9136SOL    HW138867   3.226   4.607   8.680  0.1016  0.4738 -0.4462
 9136SOL    HW238868   3.133   4.713   8.709  1.1647 -0.1259  0.2722
 9137SOL     OW38869   3.971   1.504  10.799 -0.0082 -0.4131  0.2277
 9137SOL    HW138870   4.056   1.542  10.822 -0.8005  0.5664  1.5244
 9137SOL    HW238871   3.973   1.419  10.842  3.0710 -1.1801 -1.4531
 9138SOL     OW38872   4.359   0.531  15.275  0.5322 -0.5336 -0.6039
 9138SOL    HW138873   4.396   0.569  15.355 -0.3942 -2.5284  0.7745
 9138SOL    HW238874   4.414   0.558  15.201 -0.3247  1.6117 -0.4292
 9139SOL     OW38875   0.626   0.720  17.457  0.4734  0.9478  0.1965
 9139SOL    HW138876   0.669   0.687  17.378 -1.4716  1.8996 -1.2390
 9139SOL    HW238877   0.707   0.728  17.507  1.3971  0.1395 -1.1695
 9140SOL     OW38878   4.618   2.447   2.701 -0.1618 -0.4025 -0.2779
 9140SOL    HW138879   4.603   2.519   2.641 -1.4733 -0.9466 -0.5950
 9140SOL    HW238880   4.581   2.370   2.658  0.4748 -0.1017 -1.3579
 9141SOL     OW38881   0.417   2.189   1.411 -0.4643 -0.2181  0.1685
 9141SOL    HW138882   0.366   2.113   1.382  0.6829 -0.4560 -1.2451
 9141SOL    HW238883   0.471   2.208   1.334 -0.5861 -1.8537 -0.3245
 9142SOL     OW38884   0.993   0.521  13.924 -0.1922 -0.0240 -0.5598
 9142SOL    HW138885   1.053   0.579  13.877  0.7731  0.4829  1.2837
 9142SOL    HW238886   1.050   0.444  13.922  0.7138  0.7141 -2.5308
 9143SOL     OW38887   1.195   0.434  15.162  0.9249 -0.1443  0.5543
 9143SOL    HW138888   1.253   0.374  15.114 -0.0119 -0.4948 -0.1383
 9143SOL    HW238889   1.207   0.402  15.251  2.4328  0.5014  0.5858
 9144SOL     OW38890   3.515   3.322  12.807 -0.2398  0.4862 -0.1830
 9144SOL    HW138891   3.539   3.245  12.756  0.8972 -0.7672  2.2691
 9144SOL    HW238892   3.533   3.391  12.743  1.0407 -0.4601 -0.8409
 9145SOL     OW38893   2.714   0.877   1.744 -1.0547  0.6442 -0.4015
 9145SOL    HW138894   2.623   0.849   1.737 -2.0502  3.7915  0.2299
 9145SOL    HW238895   2.722   0.964   1.783  1.6492  0.2014  0.0549
 9146SOL     OW38896   0.349   3.677  16.793  0.0428  0.8368  0.3823
 9146SOL    HW138897   0.384   3.761  16.823  2.2614  0.6949 -1.7531
 9146SOL    HW238898   0.255   3.698  16.797 -0.2443 -0.3743 -0.1156
 9147SOL     OW38899   4.195   3.961  12.469  0.6067 -0.6151 -0.0358
 9147SOL    HW138900   4.233   3.874  12.484 -0.5690 -1.1942 -0.4621
 9147SOL    HW238901   4.283   4.000  12.477  0.4680 -0.0070 -1.4628
 9148SOL     OW38902   3.434   0.021   8.670 -0.3868  0.3294  0.3574
 9148SOL    HW138903   3.485   4.680   8.624  0.7476  2.1377 -0.9341
 9148SOL    HW238904   3.478   0.018   8.755  0.5867 -1.6850 -0.2073
 9149SOL     OW38905   3.970   0.150  14.313  0.6488  0.4231 -0.1823
 9149SOL    HW138906   3.932   0.064  14.331  0.7073  0.6632  1.0870
 9149SOL    HW238907   3.986   0.179  14.403  1.3035 -1.4429  0.3056
 9150SOL     OW38908   1.790   0.123   4.622  0.1312  0.5397 -0.1635
 9150SOL    HW138909   1.856   0.073   4.574 -1.6728  0.0893 -2.1717
 9150SOL    HW238910   1.831   0.210   4.627 -1.5921  1.3514 -0.0246
 9151SOL     OW38911   2.400   4.570  11.487 -0.0208 -0.0866  0.1605
 9151SOL    HW138912   2.421   4.644  11.544  0.8396  1.3920 -2.0659
 9151SOL    HW238913   2.460   4.588  11.414  1.5352  0.9005  1.6598
 9152SOL     OW38914   0.312   3.234   3.010 -0.1410  0.1573  0.5510
 9152SOL    HW138915   0.291   3.171   3.079 -2.2486  0.5850  0.3160
 9152SOL    HW238916   0.278   3.313   3.052 -1.8510  0.0698 -0.6566
 9153SOL     OW38917   1.434   1.859   7.728  0.0958 -0.0106 -0.1525
 9153SOL    HW138918   1.385   1.942   7.729 -0.1211 -0.1279 -0.7599
 9153SOL    HW238919   1.363   1.801   7.756  0.0911  0.1785  0.2376
 9154SOL     OW38920   0.876   2.521   8.490  0.1721  0.4375  0.0516
 9154SOL    HW138921   0.868   2.607   8.450  2.5328 -0.1619 -1.7685
 9154SOL    HW238922   0.947   2.479   8.441 -0.9085  0.7701 -1.7943
 9155SOL     OW38923   2.581   1.671  14.376  0.2487 -0.4737  0.2414
 9155SOL    HW138924   2.588   1.657  14.470  1.5619  0.4695  0.2858
 9155SOL    HW238925   2.509   1.735  14.377  2.3144  1.8483  0.3016
 9156SOL     OW38926   2.630   1.367  10.360 -0.0785  0.7651 -0.1973
 9156SOL    HW138927   2.627   1.393  10.268 -0.6182 -1.7796 -0.8912
 9156SOL    HW238928   2.609   1.275  10.349  1.0098  0.3425  1.2234
 9157SOL     OW38929   0.685   2.540   1.874 -0.0968  0.1306  0.4645
 9157SOL    HW138930   0.594   2.528   1.847 -0.3750  0.7817  1.1224
 9157SOL    HW238931   0.722   2.594   1.805 -0.1767  1.1084  1.1875
 9158SOL     OW38932   4.263   2.770   2.371  0.1283 -0.0714  0.1114
 9158SOL    HW138933   4.269   2.744   2.279  2.0603  1.2340 -0.1366
 9158SOL    HW238934   4.204   2.845   2.358 -1.0124 -1.0462 -0.3310
 9159SOL     OW38935   3.647   0.156  15.805 -0.1620 -0.0987 -0.0484
 9159SOL    HW138936   3.594   0.082  15.776  0.5082 -0.4542 -0.3573
 9159SOL    HW238937   3.696   0.175  15.725 -1.1438 -0.5476 -0.7529
 9160SOL     OW38938   2.568   1.545  13.007  0.5365 -0.0998  0.4028
 9160SOL    HW138939   2.514   1.590  12.942 -2.4173 -0.2499  2.7494
 9160SOL    HW238940   2.659   1.568  12.988  0.3938  0.0220 -0.1138
 9161SOL     OW38941   0.806   0.043   5.073 -0.0103 -0.9979 -0.2853
 9161SOL    HW138942   0.812   0.135   5.048  0.7641 -1.2037 -0.8651
 9161SOL    HW238943   0.867   0.036   5.146 -1.4195  0.5530  1.0341
 9162SOL     OW38944   3.200   4.131   3.532  0.0961  0.4764  0.0475
 9162SOL    HW138945   3.242   4.125   3.618 -2.4828  0.9775  1.3553
 9162SOL    HW238946   3.170   4.040   3.533 -0.5000  0.6843  1.5013
 9163SOL     OW38947   0.199   1.826   2.344  0.4357 -0.0796  0.0040
 9163SOL    HW138948   0.210   1.741   2.301  0.1302 -0.6914  1.1326
 9163SOL    HW238949   0.271   1.817   2.406 -1.4356  1.7084  2.4078
 9164SOL     OW38950   3.764   2.794  17.105  0.5886 -0.0866  0.4607
 9164SOL    HW138951   3.697   2.862  17.097 -1.3967 -1.7532  2.9890
 9164SOL    HW238952   3.715   2.719  17.140  2.0020 -1.7435 -1.1690
 9165SOL     OW38953   3.940   4.125   3.536 -0.2285 -0.1185 -0.2300
 9165SOL    HW138954   3.884   4.061   3.580 -3.1325  3.2497  0.9426
 9165SOL    HW238955   3.989   4.149   3.614 -0.2852  2.9358 -1.1243
 9166SOL     OW38956   1.884   2.953   6.760  0.5267  0.4432 -0.0752
 9166SOL    HW138957   1.886   2.865   6.798  0.4591  0.0808 -0.8935
 9166SOL    HW238958   1.796   2.979   6.786  0.4432 -0.1395  0.2259
 9167SOL     OW38959   3.798   4.430   8.681  0.4956 -0.4527 -0.4947
 9167SOL    HW138960   3.874   4.425   8.738  1.0660 -2.3604 -1.4161
 9167SOL    HW238961   3.771   4.522   8.685  0.2571 -0.4950 -1.1812
 9168SOL     OW38962   2.205   3.368   7.356 -0.0459 -0.8364 -0.0780
 9168SOL    HW138963   2.113   3.358   7.379 -0.1465  3.1545  1.1325
 9168SOL    HW238964   2.187   3.396   7.266 -2.1228  0.0738  0.6271
 9169SOL     OW38965   2.921   4.720   7.751  0.3940 -0.1874  0.4832
 9169SOL    HW138966   3.007   4.682   7.735  0.5965 -0.0396  1.2213
 9169SOL    HW238967   2.914   4.682   7.839  0.6663  1.3388  1.1508
 9170SOL     OW38968   1.155   4.153  11.182 -0.2967  0.2513 -0.3779
 9170SOL    HW138969   1.068   4.114  11.193  0.0195 -0.5983 -0.9560
 9170SOL    HW238970   1.140   4.242  11.216 -0.9545 -0.2085  0.5394
 9171SOL     OW38971   3.344   2.105   5.526  0.1213  0.2277  0.3445
 9171SOL    HW138972   3.262   2.088   5.571  0.5900 -1.0926  0.6785
 9171SOL    HW238973   3.391   2.136   5.603  0.5197 -0.7235  0.4739
 9172SOL     OW38974   1.302   3.760   5.847  0.0294 -0.0693 -0.1733
 9172SOL    HW138975   1.237   3.822   5.880 -0.9281 -0.2250 -1.7360
 9172SOL    HW238976   1.295   3.776   5.753 -0.7887 -0.7727 -0.2357
 9173SOL     OW38977   1.784   0.661   2.985 -0.0646  0.6501 -0.0104
 9173SOL    HW138978   1.741   0.596   2.929 -1.4181  1.0625  0.5433
 9173SOL    HW238979   1.782   0.621   3.072  1.1919 -0.6499 -0.5785
 9174SOL     OW38980   0.149   3.376   8.930  0.2593  0.4983  0.3722
 9174SOL    HW138981   0.110   3.445   8.983  1.1376  0.5892  0.8997
 9174SOL    HW238982   0.089   3.303   8.948 -0.4871  0.5313 -1.9924
 9175SOL     OW38983   3.160   4.348   5.605  0.6727  0.9011  0.0963
 9175SOL    HW138984   3.154   4.441   5.629 -1.9352  0.9436 -0.7328
 9175SOL    HW238985   3.108   4.303   5.671  0.8939 -1.2485 -1.1916
 9176SOL     OW38986   3.385   0.950   6.288 -0.2336  0.2620 -0.4659
 9176SOL    HW138987   3.316   0.886   6.305  1.7776 -1.8798 -0.3433
 9176SOL    HW238988   3.413   0.925   6.200  1.3411  1.0571 -0.1998
 9177SOL     OW38989   3.934   1.676   0.158  0.1154  0.2583 -0.8829
 9177SOL    HW138990   3.851   1.723   0.162  0.2627  0.6780 -2.6807
 9177SOL    HW238991   3.984   1.729   0.096 -0.9543  2.0627 -0.2052
 9178SOL     OW38992   0.931   3.920   2.415  0.4120  0.0654  0.4921
 9178SOL    HW138993   0.901   3.830   2.429 -2.2146  0.7009 -0.9259
 9178SOL    HW238994   0.855   3.973   2.439  1.8465  2.6120 -0.5877
 9179SOL     OW38995   4.557   3.221   6.984  0.0963 -0.7118 -0.1231
 9179SOL    HW138996   4.642   3.195   7.019  0.7754 -0.0879 -1.3180
 9179SOL    HW238997   4.507   3.233   7.065  0.6366  0.5911  0.0210
 9180SOL     OW38998   3.545   2.299  12.728  0.2604  0.3933  0.1793
 9180SOL    HW138999   3.600   2.327  12.802  0.3145  2.3138 -0.5951
 9180SOL    HW239000   3.460   2.294  12.771  0.1737  0.2492 -0.0093
 9181SOL     OW39001   0.872   3.935  16.650  0.7401 -0.1604  0.4928
 9181SOL    HW139002   0.907   3.855  16.612 -0.1621  0.0746 -0.8188
 9181SOL    HW239003   0.918   4.010  16.612  0.2982 -0.4051 -0.5273
 9182SOL     OW39004   3.135   0.879  17.349  0.1279 -0.4501 -0.2971
 9182SOL    HW139005   3.089   0.871  17.432  0.7844 -0.3641  0.0801
 9182SOL    HW239006   3.179   0.962  17.369 -1.0401  0.4652 -1.6050
 9183SOL     OW39007   3.005   2.181   5.083 -0.2183 -0.6294  0.1686
 9183SOL    HW139008   2.993   2.220   5.169  0.3744  2.1110 -0.9613
 9183SOL    HW239009   2.945   2.107   5.093 -1.1391  0.2722  1.3414
 9184SOL     OW39010   0.176   4.351   3.937 -0.2422  0.2286  0.2655
 9184SOL    HW139011   0.103   4.396   3.978  0.6426  1.4106  0.5438
 9184SOL    HW239012   0.229   4.431   3.927  1.5519 -0.8847  0.7816
 9185SOL     OW39013   1.633   3.386   6.977  1.2883 -0.5880 -0.5727
 9185SOL    HW139014   1.698   3.324   7.008  1.6157  0.3952  0.7278
 9185SOL    HW239015   1.609   3.435   7.055  0.1456 -0.4425 -1.0083
 9186SOL     OW39016   3.201   1.708   8.864  0.3902 -0.2154 -0.2677
 9186SOL    HW139017   3.169   1.797   8.855  0.1304 -0.3298 -0.4794
 9186SOL    HW239018   3.161   1.695   8.950  1.2392 -1.7157 -0.0810
 9187SOL     OW39019   4.327   3.146   2.341 -0.3372 -0.5460  0.1975
 9187SOL    HW139020   4.325   3.050   2.336  1.9608 -0.5150 -1.4817
 9187SOL    HW239021   4.234   3.170   2.340 -0.9167 -2.8348 -1.8367
 9188SOL     OW39022   0.757   1.534   6.569  0.4880 -0.3456  0.2475
 9188SOL    HW139023   0.749   1.590   6.492  1.5498  2.1848  1.9340
 9188SOL    HW239024   0.673   1.490   6.560  1.4834 -2.6174  1.8886
 9189SOL     OW39025   0.934   3.096   0.428 -0.9254  0.1041  0.4820
 9189SOL    HW139026   1.005   3.045   0.466  0.0663  1.1658  0.0442
 9189SOL    HW239027   0.868   3.027   0.418 -0.1758 -0.4747 -0.4636
 9190SOL     OW39028   2.539   3.338   2.809  0.3613  0.0546  0.3169
 9190SOL    HW139029   2.554   3.337   2.903 -0.8814 -2.1600  0.4728
 9190SOL    HW239030   2.521   3.431   2.790  2.6928  0.5891  0.7287
 9191SOL     OW39031   2.924   2.603   9.340  0.2783 -0.1440 -0.0848
 9191SOL    HW139032   2.966   2.627   9.423  1.5821 -1.2990 -0.4099
 9191SOL    HW239033   2.942   2.685   9.294  3.6171 -0.4586  0.7011
 9192SOL     OW39034   2.540   4.278   2.027 -0.4954 -0.3142 -0.2622
 9192SOL    HW139035   2.451   4.279   1.991 -0.5716  1.4030 -0.0433
 9192SOL    HW239036   2.554   4.183   2.025  1.6379  0.0401 -2.5906
 9193SOL     OW39037   0.957   0.336   8.881  0.4818 -0.3576 -0.3165
 9193SOL    HW139038   0.980   0.290   8.961  1.0283  0.0651 -0.2317
 9193SOL    HW239039   0.916   0.262   8.836 -2.0135  0.1871  1.0457
 9194SOL     OW39040   2.490   0.301   5.624  0.1215  0.2947  0.0745
 9194SOL    HW139041   2.456   0.351   5.550  0.5458 -2.6425 -2.0817
 9194SOL    HW239042   2.476   0.213   5.591  2.5660 -0.3907  0.8383
 9195SOL     OW39043   1.708   3.805   6.761 -0.1658 -0.2086  0.3568
 9195SOL    HW139044   1.661   3.887   6.774 -1.6097 -1.0039  0.0829
 9195SOL    HW239045   1.793   3.829   6.723 -0.6809  0.7305 -0.2196
 9196SOL     OW39046   0.809   4.672  10.669  0.0770 -0.1895 -0.6382
 9196SOL    HW139047   0.792   4.657  10.576 -0.3078  1.3723 -0.8290
 9196SOL    HW239048   0.769   4.599  10.717  0.5410  0.3547  0.5952
 9197SOL     OW39049   4.648   2.618   8.858  0.3426 -0.2437  0.5955
 9197SOL    HW139050   0.010   2.595   8.825  0.9453 -0.2576  2.2172
 9197SOL    HW239051   4.618   2.555   8.923 -0.7994  0.0680  0.3826
 9198SOL     OW39052   0.429   2.395  15.669 -0.4027  0.4149  0.5175
 9198SOL    HW139053   0.436   2.331  15.740 -0.0033  2.8838  2.6988
 9198SOL    HW239054   0.419   2.479  15.715 -0.1556  0.3495  0.6860
 9199SOL     OW39055   3.846   0.309  15.372  0.0565 -0.4536  0.0776
 9199SOL    HW139056   3.916   0.250  15.398 -0.5334 -1.1630  0.0499
 9199SOL    HW239057   3.897   0.387  15.348  0.6470 -0.7193  0.4810
 9200SOL     OW39058   4.618   1.664   9.468 -0.0316  0.1043 -0.1882
 9200SOL    HW139059   4.546   1.724   9.447 -1.3325 -2.2099 -2.2792
 9200SOL    HW239060   4.680   1.714   9.522  0.0799 -0.0590 -0.1646
 9201SOL     OW39061   3.205   2.271   7.747 -0.0642 -0.2599  0.0604
 9201SOL    HW139062   3.174   2.307   7.830  0.4654  0.5003 -0.0670
 9201SOL    HW239063   3.164   2.324   7.679  0.4168  0.1038  0.0572
 9202SOL     OW39064   4.647   4.159  12.783 -0.3178  0.8109 -0.0958
 9202SOL    HW139065   0.001   4.186  12.830 -0.1407 -1.4271  0.9239
 9202SOL    HW239066   4.586   4.167  12.857 -0.1781 -0.8788  0.2139
 9203SOL     OW39067   3.960   3.969   3.817  0.2793  0.4087 -0.1952
 9203SOL    HW139068   3.964   4.051   3.867 -1.9136  0.0472  0.5848
 9203SOL    HW239069   4.049   3.970   3.782  0.5228 -1.8076  0.3886
 9204SOL     OW39070   3.006   3.763  17.693 -0.0080  0.1169  0.1687
 9204SOL    HW139071   2.914   3.764   0.019 -0.9464  0.2173 -3.3001
 9204SOL    HW239072   3.042   3.703   0.059  0.1716 -0.2322 -0.2448
 9205SOL     OW39073   4.151   1.757  14.057  0.5665 -0.2240 -0.2621
 9205SOL    HW139074   4.086   1.811  14.103  1.9680  1.2785 -0.0459
 9205SOL    HW239075   4.203   1.728  14.133  0.9818  2.7949  0.6345
 9206SOL     OW39076   4.230   2.669   9.807  0.0374 -0.5903  0.0601
 9206SOL    HW139077   4.156   2.640   9.859 -1.9174  1.2970 -1.6999
 9206SOL    HW239078   4.236   2.594   9.747  0.6951  2.1405 -3.2860
 9207SOL     OW39079   4.065   4.233  11.880  0.1904 -0.2715  0.3459
 9207SOL    HW139080   4.052   4.224  11.975 -0.6120 -0.1554  0.2452
 9207SOL    HW239081   4.054   4.328  11.871 -1.4639 -0.4467  0.5950
 9208SOL     OW39082   0.595   3.469  16.222  0.4957 -0.1012  0.2063
 9208SOL    HW139083   0.583   3.564  16.222  0.9298 -0.0480  0.5889
 9208SOL    HW239084   0.591   3.448  16.315 -1.1306  2.5328  0.7581
 9209SOL     OW39085   3.364   0.492   7.926  0.1717  0.1944  0.1885
 9209SOL    HW139086   3.427   0.503   7.854  1.2420  1.3970  1.3136
 9209SOL    HW239087   3.414   0.523   8.001 -0.4821 -1.3081  1.2703
 9210SOL     OW39088   0.485   1.104  10.357 -0.2000  0.0829 -0.2679
 9210SOL    HW139089   0.485   1.162  10.433 -0.9189 -2.4159  1.6078
 9210SOL    HW239090   0.576   1.100  10.328 -0.5469  0.6691 -1.4480
 9211SOL     OW39091   3.119   4.618   5.628  0.6777 -0.1600 -0.0948
 9211SOL    HW139092   3.141   4.708   5.651 -0.2357 -0.6945  2.9419
 9211SOL    HW239093   3.030   4.608   5.663  0.3850 -1.1501 -1.1341
 9212SOL     OW39094   0.962   0.654  10.208 -0.1035  0.0438  0.2165
 9212SOL    HW139095   1.041   0.610  10.175 -0.1380 -0.5732  0.9384
 9212SOL    HW239096   0.994   0.741  10.230 -1.3329  0.7962 -1.0159
 9213SOL     OW39097   4.430   4.219  16.315  0.2707 -0.0176 -0.2446
 9213SOL    HW139098   4.461   4.251  16.230  2.8381 -1.8858 -0.0334
 9213SOL    HW239099   4.429   4.124  16.299 -3.9173  0.0098 -0.0622
 9214SOL     OW39100   4.574   0.039   6.309  0.0174 -0.0282  0.3779
 9214SOL    HW139101   4.630   0.099   6.357  0.4544  0.4447 -0.7188
 9214SOL    HW239102   4.627   0.013   6.234  1.7355  2.2177  0.8118
 9215SOL     OW39103   1.308   2.120   2.912  0.5359  0.5478  0.3906
 9215SOL    HW139104   1.223   2.163   2.906 -0.2770 -1.4099 -1.9013
 9215SOL    HW239105   1.361   2.159   2.842  1.0354  0.4151  0.6912
 9216SOL     OW39106   4.587   4.499   5.908 -0.7987  0.3707  0.2664
 9216SOL    HW139107   4.544   4.428   5.956  1.7568  0.1953  2.2945
 9216SOL    HW239108   4.551   4.499   5.820  0.7951 -0.0989 -0.3711
 9217SOL     OW39109   2.049   0.748  17.477 -0.5948 -0.3556 -0.0736
 9217SOL    HW139110   2.119   0.789  17.526  0.7670 -2.6940 -0.0420
 9217SOL    HW239111   2.103   0.705  17.410 -1.4529  0.7219 -1.4371
 9218SOL     OW39112   1.851   0.453  15.824 -0.0393  0.2462  1.0235
 9218SOL    HW139113   1.905   0.459  15.745 -0.4753  1.6475  0.8395
 9218SOL    HW239114   1.848   0.542  15.858  0.8001  0.1014  1.4655
 9219SOL     OW39115   3.664   2.086   0.222  0.2691 -0.1099 -0.0674
 9219SOL    HW139116   3.643   2.129   0.305 -0.8338 -1.5433  0.4032
 9219SOL    HW239117   3.732   2.025   0.250 -1.1615 -1.9659 -0.5927
 9220SOL     OW39118   2.749   3.285   8.224  0.3766 -0.0664  0.4421
 9220SOL    HW139119   2.659   3.251   8.219  1.3460 -2.4767 -0.6013
 9220SOL    HW239120   2.791   3.199   8.223 -0.3968 -0.4396  0.0175
 9221SOL     OW39121   0.685   1.557  16.786 -0.0378 -0.3959 -0.0349
 9221SOL    HW139122   0.620   1.546  16.856  1.4448  0.0036  1.3984
 9221SOL    HW239123   0.673   1.649  16.761  1.8142 -0.0276  0.4134
 9222SOL     OW39124   0.437   1.562  12.579  0.3367  0.5227 -0.0305
 9222SOL    HW139125   0.381   1.560  12.657  0.7502 -0.2729  0.2495
 9222SOL    HW239126   0.387   1.496  12.531  0.0545  0.5607  0.2114
 9223SOL     OW39127   3.452   4.401   6.689 -0.3930  0.0738 -0.4871
 9223SOL    HW139128   3.514   4.346   6.641 -0.6616  0.4236 -1.2402
 9223SOL    HW239129   3.392   4.343   6.736 -2.8914  2.9745 -0.0358
 9224SOL     OW39130   1.034   1.454  15.626  0.0097 -0.0262 -0.3143
 9224SOL    HW139131   1.064   1.507  15.552 -1.9192  0.6740 -0.6077
 9224SOL    HW239132   0.945   1.485  15.644  0.5118  0.4913  1.3185
 9225SOL     OW39133   0.629   2.608   2.780 -0.6059 -0.4079  0.6554
 9225SOL    HW139134   0.664   2.690   2.746 -0.6077 -1.4327 -1.8001
 9225SOL    HW239135   0.621   2.632   2.872 -0.0240  1.8694  0.0978
 9226SOL     OW39136   2.672   2.498   7.875 -0.3041 -0.5448 -0.0024
 9226SOL    HW139137   2.617   2.421   7.859 -0.7996 -0.2359  0.2029
 9226SOL    HW239138   2.747   2.472   7.822  0.7619  2.0265  0.2242
 9227SOL     OW39139   3.188   2.966  13.404 -0.1804 -0.1254  0.0671
 9227SOL    HW139140   3.252   2.965  13.474 -2.3262 -1.0187  2.0145
 9227SOL    HW239141   3.165   2.873  13.408 -2.1505  0.2371 -2.5184
 9228SOL     OW39142   4.557   3.092   8.147 -0.3956 -0.2211  0.4891
 9228SOL    HW139143   4.566   3.039   8.068 -0.7023 -0.1825  0.4297
 9228SOL    HW239144   4.612   3.169   8.131 -2.5802  1.4244  0.9490
 9229SOL     OW39145   2.149   4.311   3.020  0.4154  0.5985  0.3915
 9229SOL    HW139146   2.178   4.382   2.962 -0.3489 -0.1040 -0.8489
 9229SOL    HW239147   2.170   4.343   3.108 -1.1160  1.4983  0.4266
 9230SOL     OW39148   1.814   4.002   4.310  0.5586 -0.4380  0.0323
 9230SOL    HW139149   1.753   3.937   4.276 -1.1919  1.1494  0.1764
 9230SOL    HW239150   1.849   3.967   4.392 -1.3781 -1.6455  0.3199
 9231SOL     OW39151   2.382   2.262   3.138 -0.2362  0.0923  0.5543
 9231SOL    HW139152   2.404   2.239   3.229  0.0792 -0.4524  0.3403
 9231SOL    HW239153   2.419   2.350   3.143 -0.6835  0.3389 -0.4938
 9232SOL     OW39154   3.295   2.107   6.733 -0.2852  0.7185  0.0900
 9232SOL    HW139155   3.374   2.160   6.720  1.8699 -2.1388  1.5474
 9232SOL    HW239156   3.333   2.021   6.718 -0.4858  0.4565  1.0790
 9233SOL     OW39157   0.152   3.797   2.663 -0.2425 -0.1068 -0.2129
 9233SOL    HW139158   0.218   3.805   2.732 -0.7878  0.7442  0.2097
 9233SOL    HW239159   0.108   3.882   2.653  0.1055  0.1291  0.2458
 9234SOL     OW39160   0.285   3.946   2.907  0.2422 -0.0101 -0.2029
 9234SOL    HW139161   0.305   3.913   2.995 -1.3250 -0.3745  0.0201
 9234SOL    HW239162   0.377   3.958   2.884 -0.0648  0.0875 -1.3486
 9235SOL     OW39163   3.173   3.454   4.420 -0.1132  0.1385 -0.4611
 9235SOL    HW139164   3.080   3.471   4.407 -0.2073  1.4507  1.9972
 9235SOL    HW239165   3.172   3.457   4.515  0.9591 -1.3417 -0.4145
 9236SOL     OW39166   2.057   0.893   7.092 -0.2467  0.4998  0.0353
 9236SOL    HW139167   2.005   0.839   7.151  0.5789  0.8376  1.0870
 9236SOL    HW239168   1.994   0.927   7.029  0.3597  0.7056 -0.4678
 9237SOL     OW39169   2.644   1.562   4.417 -0.1805  0.4012 -0.3898
 9237SOL    HW139170   2.646   1.590   4.325  0.3526 -0.0008 -0.5049
 9237SOL    HW239171   2.572   1.614   4.453  0.2511 -0.1315  1.2248
 9238SOL     OW39172   4.170   4.351   7.002  0.3017  0.3942  0.5095
 9238SOL    HW139173   4.231   4.412   7.043  0.8627 -1.6894  2.8060
 9238SOL    HW239174   4.179   4.373   6.910  0.6725 -1.2184  0.1519
 9239SOL     OW39175   0.922   3.412   9.151 -0.5146  0.1163  0.1193
 9239SOL    HW139176   0.901   3.332   9.199 -0.3436  0.1000  0.1682
 9239SOL    HW239177   1.005   3.432   9.195 -0.6830  0.3716  0.3215
 9240SOL     OW39178   0.123   0.426  14.630  0.2246 -0.4935 -0.0037
 9240SOL    HW139179   0.107   0.388  14.716  0.1922 -0.5488 -0.0345
 9240SOL    HW239180   0.136   0.349  14.574  0.3648  1.4405 -2.6618
 9241SOL     OW39181   0.066   2.345   2.240 -0.0898 -0.3404  0.2987
 9241SOL    HW139182   4.714   2.385   2.282  0.0566  1.0380 -0.7379
 9241SOL    HW239183   0.113   2.427   2.226  1.6477 -1.1298  1.6054
 9242SOL     OW39184   3.584   0.350   2.567 -0.4358  0.2768 -0.2987
 9242SOL    HW139185   3.553   0.330   2.655  0.2599  2.2468  0.3988
 9242SOL    HW239186   3.653   0.284   2.566  0.1816  0.8377  3.2297
 9243SOL     OW39187   3.888   2.981   5.831  0.0198  0.4526 -0.1015
 9243SOL    HW139188   3.793   2.970   5.839 -0.2194  1.4204 -1.6656
 9243SOL    HW239189   3.913   2.891   5.849 -1.2923 -0.2068 -1.6082
 9244SOL     OW39190   3.908   2.629   8.466  0.1495 -0.1560  0.2520
 9244SOL    HW139191   3.903   2.653   8.559 -1.0012 -0.7924  0.3582
 9244SOL    HW239192   3.926   2.537   8.484  1.2799  0.1426  0.6630
 9245SOL     OW39193   4.012   0.057   2.324  0.3895 -0.2757 -0.0387
 9245SOL    HW139194   4.071   4.707   2.314  0.9059 -0.1363  2.0384
 9245SOL    HW239195   4.061   0.117   2.267  0.7623 -0.2454  0.3171
 9246SOL     OW39196   1.261   3.332   2.615 -0.6319 -0.4962 -0.8064
 9246SOL    HW139197   1.227   3.421   2.627  1.2658  0.1503 -0.2824
 9246SOL    HW239198   1.268   3.332   2.520 -1.4838 -0.2899 -0.8715
 9247SOL     OW39199   4.227   2.254   3.566  0.0752 -0.2094  0.2258
 9247SOL    HW139200   4.181   2.337   3.551  0.6692 -0.5740 -3.5926
 9247SOL    HW239201   4.214   2.244   3.660 -3.2623  1.5855 -0.0264
 9248SOL     OW39202   4.041   0.290   3.125  0.9109 -0.4686 -0.6449
 9248SOL    HW139203   4.037   0.287   3.029  0.0055 -1.3659 -0.5838
 9248SOL    HW239204   4.090   0.370   3.143 -1.0472  0.3634  0.9456
 9249SOL     OW39205   0.877   2.990  10.075 -0.1702 -0.4590  0.6243
 9249SOL    HW139206   0.927   2.923  10.029 -1.1382 -0.8379  0.1283
 9249SOL    HW239207   0.890   3.065  10.018 -0.3063 -2.4488 -2.0000
 9250SOL     OW39208   0.421   0.984   5.611 -0.1882 -0.4628 -0.0845
 9250SOL    HW139209   0.390   1.053   5.552 -2.7045 -0.1568  1.5931
 9250SOL    HW239210   0.489   0.948   5.554 -0.3288 -1.0837  0.1430
 9251SOL     OW39211   3.007   4.250   7.252  0.4091  0.2917 -0.4581
 9251SOL    HW139212   3.061   4.229   7.329 -0.1958  0.3963 -0.0048
 9251SOL    HW239213   2.948   4.308   7.300  1.2943  0.5339  0.3375
 9252SOL     OW39214   2.253   4.214  15.125  0.0470  0.4181 -0.3981
 9252SOL    HW139215   2.172   4.261  15.103  0.7652  0.3900 -3.1387
 9252SOL    HW239216   2.216   4.130  15.151  0.8327 -0.0981 -0.9544
 9253SOL     OW39217   4.471   3.710  12.781 -0.3838 -0.2166  0.1938
 9253SOL    HW139218   4.417   3.695  12.858 -0.8620 -1.9375 -0.4637
 9253SOL    HW239219   4.548   3.754  12.817 -0.9057 -0.2856  1.3746
 9254SOL     OW39220   0.866   0.042   5.838  0.1628 -0.4904 -0.0667
 9254SOL    HW139221   0.791   0.034   5.898  2.2175  2.0870  2.8452
 9254SOL    HW239222   0.824   0.031   5.753 -2.3256 -1.4282  1.2884
 9255SOL     OW39223   4.260   4.088   8.348 -0.1835 -0.4509 -0.1204
 9255SOL    HW139224   4.315   4.137   8.287  0.9936 -0.8665  0.5955
 9255SOL    HW239225   4.200   4.156   8.378  0.1240 -0.3523  0.2782
 9256SOL     OW39226   2.290   4.455  14.866  0.2146 -0.4301  0.5409
 9256SOL    HW139227   2.264   4.372  14.906 -0.6137 -1.4846 -2.1975
 9256SOL    HW239228   2.213   4.467  14.810 -0.0962  1.1355  1.3107
 9257SOL     OW39229   4.128   4.613   2.616 -0.1609 -0.0224 -0.4540
 9257SOL    HW139230   4.058   4.556   2.648 -0.1304  1.3791  2.1033
 9257SOL    HW239231   4.192   4.552   2.579 -0.6977 -0.8259 -0.0735
 9258SOL     OW39232   1.742   1.515   1.410  0.2277  0.2260  0.1719
 9258SOL    HW139233   1.732   1.551   1.321  0.5335  1.0616  0.4816
 9258SOL    HW239234   1.660   1.541   1.452 -0.1421  1.1997 -1.1394
 9259SOL     OW39235   4.281   2.215   3.856  0.1742 -0.1344 -0.5668
 9259SOL    HW139236   4.372   2.238   3.840 -0.1135  0.5496 -1.2446
 9259SOL    HW239237   4.291   2.219   3.951  1.9533  1.4674 -0.8127
 9260SOL     OW39238   3.479   1.993   8.589 -0.3107 -0.2380 -0.4189
 9260SOL    HW139239   3.452   2.024   8.675 -1.6821 -2.6082 -0.0038
 9260SOL    HW239240   3.556   1.942   8.611  0.4612  1.3020  0.4044
 9261SOL     OW39241   1.295   3.100  16.491  0.8918 -0.5961  0.6434
 9261SOL    HW139242   1.200   3.112  16.500  0.7093 -2.0871  0.6776
 9261SOL    HW239243   1.303   3.118  16.397 -0.7126 -4.1299 -0.1791
 9262SOL     OW39244   0.398   0.047   7.078 -0.5005  0.1205  0.4953
 9262SOL    HW139245   0.410   0.081   7.167  2.5741 -2.5413  1.1126
 9262SOL    HW239246   0.381   0.132   7.037 -2.0768 -1.5928 -2.3815
 9263SOL     OW39247   0.359   1.986   9.520 -0.2800 -0.2208  0.1081
 9263SOL    HW139248   0.431   1.923   9.514 -1.7766 -1.8836 -0.2589
 9263SOL    HW239249   0.375   2.032   9.603  1.0658  0.3158 -0.4346
 9264SOL     OW39250   2.232   4.479   8.516  0.0220  0.5392  0.2065
 9264SOL    HW139251   2.315   4.437   8.495  0.0520  0.8072 -0.2225
 9264SOL    HW239252   2.240   4.492   8.610  2.3240 -0.9009  0.2216
 9265SOL     OW39253   1.296   0.543   1.149 -0.1161 -0.2099  0.1191
 9265SOL    HW139254   1.224   0.564   1.090 -1.0170  1.1934  1.7092
 9265SOL    HW239255   1.350   0.484   1.096  0.2363 -0.7330  1.0708
 9266SOL     OW39256   4.677   2.738   7.556 -0.0271  0.0606  0.6324
 9266SOL    HW139257   4.626   2.704   7.483  1.0337  2.4003 -1.1835
 9266SOL    HW239258   4.644   2.827   7.562  1.6147  0.6936  0.0669
 9267SOL     OW39259   3.046   2.089  15.648  0.0599  0.5101  0.1037
 9267SOL    HW139260   3.019   2.116  15.560  0.1713 -0.9240 -0.3843
 9267SOL    HW239261   2.967   2.051  15.685  0.9793 -0.7757  0.7472
 9268SOL     OW39262   4.348   2.443   5.012 -0.0161  0.4696  0.0440
 9268SOL    HW139263   4.410   2.390   4.962 -0.1928 -0.4288  0.7881
 9268SOL    HW239264   4.388   2.525   5.040  0.0461  0.0127  1.3077
 9269SOL     OW39265   4.642   3.914   4.145 -0.4983 -0.4718 -0.1885
 9269SOL    HW139266   4.612   3.999   4.178 -1.9523 -0.6515 -1.0301
 9269SOL    HW239267   4.723   3.939   4.101 -2.0713  1.5811 -1.9676
 9270SOL     OW39268   0.503   4.189   4.997  0.4059 -0.0905 -0.1424
 9270SOL    HW139269   0.409   4.200   5.007  0.5672  1.2613 -0.1754
 9270SOL    HW239270   0.531   4.193   5.088 -0.0736  2.3164 -0.1058
 9271SOL     OW39271   4.285   2.033   1.797 -0.1166 -0.0718  0.3090
 9271SOL    HW139272   4.268   2.127   1.787 -1.3239 -0.0674  2.4549
 9271SOL    HW239273   4.379   2.028   1.812 -0.2611  1.5532  1.7133
 9272SOL     OW39274   0.600   0.655   5.947 -0.5270  0.2999  0.1193
 9272SOL    HW139275   0.584   0.676   6.039 -0.0280 -0.6210  0.4183
 9272SOL    HW239276   0.548   0.728   5.915  0.7225  0.9585 -0.3895
 9273SOL     OW39277   0.240   0.440   3.029 -0.2207 -0.3044  0.0650
 9273SOL    HW139278   0.322   0.464   2.985 -1.2202  1.8569 -0.5891
 9273SOL    HW239279   0.210   0.522   3.067  0.1542 -0.1967  0.1346
 9274SOL     OW39280   2.391   3.340   5.229  0.0009 -0.1877 -0.5336
 9274SOL    HW139281   2.474   3.385   5.246 -0.1017  0.7075 -2.4191
 9274SOL    HW239282   2.327   3.398   5.270 -0.2279 -1.1822  0.5172
 9275SOL     OW39283   1.235   4.460   2.661 -0.2414  0.8774  0.9912
 9275SOL    HW139284   1.158   4.518   2.663 -1.5261 -0.7688 -0.9127
 9275SOL    HW239285   1.282   4.492   2.584 -0.8277 -0.4987  0.0503
 9276SOL     OW39286   0.235   2.257   7.900  0.4613 -0.4397  0.1200
 9276SOL    HW139287   0.323   2.294   7.910  1.1480 -2.1819  0.4833
 9276SOL    HW239288   0.196   2.286   7.983  1.4979  0.8317  0.1749
 9277SOL     OW39289   4.652   2.125   7.370  0.3902  0.1148 -0.5619
 9277SOL    HW139290   4.561   2.154   7.377  0.2588 -1.2400  3.3934
 9277SOL    HW239291   4.650   2.090   7.281  2.1800 -1.7504  0.1425
 9278SOL     OW39292   4.024   1.500   1.723 -0.2800  0.6041 -0.5338
 9278SOL    HW139293   4.120   1.497   1.714  0.0196  0.6102  2.7082
 9278SOL    HW239294   3.994   1.417   1.686  0.2035  0.9318 -1.6807
 9279SOL     OW39295   4.273   3.650   6.534  0.2041 -0.4104  0.0409
 9279SOL    HW139296   4.251   3.588   6.604 -3.0181 -0.9304 -1.4659
 9279SOL    HW239297   4.190   3.668   6.491  0.8474 -4.6332 -2.9391
 9280SOL     OW39298   3.714   0.618  13.864 -0.4547 -0.2221 -0.1250
 9280SOL    HW139299   3.736   0.581  13.950 -1.5962  1.2181  0.8024
 9280SOL    HW239300   3.757   0.556  13.805 -0.4824  0.3358 -0.7247
 9281SOL     OW39301   0.671   2.356   7.211 -0.8320 -0.0637  0.1239
 9281SOL    HW139302   0.764   2.360   7.186 -0.7442 -0.5581  0.3710
 9281SOL    HW239303   0.662   2.432   7.268 -1.6350  1.6040 -2.2457
 9282SOL     OW39304   0.356   1.313   3.257 -0.4126 -0.1331  0.1304
 9282SOL    HW139305   0.409   1.311   3.178  2.9100 -0.0977  2.3747
 9282SOL    HW239306   0.417   1.277   3.321  1.9327 -0.4664 -2.3105
 9283SOL     OW39307   1.011   4.652  13.437  0.4442 -0.7496 -0.0093
 9283SOL    HW139308   1.069   4.579  13.412  0.7545  0.3878 -2.6291
 9283SOL    HW239309   1.074   4.718  13.466 -2.0275  1.0224  1.2821
 9284SOL     OW39310   0.430   2.665   5.931 -0.2007  0.5060 -0.1860
 9284SOL    HW139311   0.422   2.708   6.016  1.4397  1.3624 -0.4523
 9284SOL    HW239312   0.405   2.737   5.873 -0.6434  0.7629  0.3184
 9285SOL     OW39313   3.436   0.167   3.611  0.3236  0.6431 -1.0975
 9285SOL    HW139314   3.390   0.141   3.531 -2.7138 -0.6781  1.0849
 9285SOL    HW239315   3.522   0.133   3.588 -0.4069 -1.1357 -1.2296
 9286SOL     OW39316   0.529   0.429   6.820 -0.2458  0.3217 -0.0685
 9286SOL    HW139317   0.585   0.438   6.898 -2.9882 -1.2910  2.0899
 9286SOL    HW239318   0.531   0.518   6.785 -2.1453 -0.1753 -1.3808
 9287SOL     OW39319   4.178   3.504   1.772 -0.3794 -0.5169 -0.2640
 9287SOL    HW139320   4.211   3.448   1.842 -1.4419 -1.7676 -0.7540
 9287SOL    HW239321   4.188   3.449   1.694 -1.5298  0.5295 -1.1563
 9288SOL     OW39322   2.967   0.055   1.723  0.5575  0.0454  0.0104
 9288SOL    HW139323   2.930   4.696   1.692  1.5300 -0.3242 -0.1689
 9288SOL    HW239324   3.045   0.060   1.667 -1.4966 -0.4148 -2.8811
 9289SOL     OW39325   4.137   1.499   8.322 -0.8681 -0.0828  0.4368
 9289SOL    HW139326   4.117   1.422   8.376 -0.0982 -1.1509 -0.8099
 9289SOL    HW239327   4.178   1.459   8.245 -2.2453 -1.2815  0.3164
 9290SOL     OW39328   2.106   2.782   1.575 -0.7154 -0.0904  0.3589
 9290SOL    HW139329   2.108   2.722   1.501  0.1004 -1.0323  1.1564
 9290SOL    HW239330   2.013   2.805   1.585 -1.1741 -1.6596 -0.3518
 9291SOL     OW39331   1.207   1.689   7.953 -0.1106 -0.0797  0.2309
 9291SOL    HW139332   1.292   1.725   7.980 -0.2606  0.5330 -0.1045
 9291SOL    HW239333   1.164   1.686   8.039  0.9719 -0.6210  0.7476
 9292SOL     OW39334   1.543   0.096   5.860  0.3989 -0.3031 -0.4804
 9292SOL    HW139335   1.538   0.064   5.770  0.9975  1.1540 -1.0301
 9292SOL    HW239336   1.572   0.019   5.910  0.1352  0.3728  0.7112
 9293SOL     OW39337   2.481   3.927   4.763  0.2125 -0.8060  0.0466
 9293SOL    HW139338   2.561   3.878   4.747  2.7834  3.2205  0.4447
 9293SOL    HW239339   2.513   4.004   4.811  1.5248 -1.1703 -0.2455
 9294SOL     OW39340   2.119   4.236  15.843 -0.9380  0.1228 -0.0323
 9294SOL    HW139341   2.087   4.324  15.825  0.3694  0.4125 -0.9238
 9294SOL    HW239342   2.089   4.225  15.933  0.0454 -1.0279  0.1562
 9295SOL     OW39343   4.681   0.372   4.288 -0.2540 -0.2000  0.9670
 9295SOL    HW139344   0.029   0.381   4.349 -0.4474  0.4040  1.1069
 9295SOL    HW239345   4.673   0.461   4.255 -0.2486  0.3416  2.4525
 9296SOL     OW39346   1.686   3.569  12.203 -0.1381  0.5542  0.2545
 9296SOL    HW139347   1.775   3.532  12.204 -1.0690 -1.7126 -0.3815
 9296SOL    HW239348   1.698   3.648  12.151  2.8949  0.5545  0.9071
 9297SOL     OW39349   3.044   0.170   9.653  0.2975  0.5465 -0.2462
 9297SOL    HW139350   3.077   0.089   9.693  2.6685  1.7153  0.1939
 9297SOL    HW239351   3.094   0.184   9.572  2.7524  0.0002  1.1675
 9298SOL     OW39352   0.889   4.658   0.227 -0.0762  0.0360 -0.1119
 9298SOL    HW139353   0.881   4.572   0.267  0.8088  0.6516  1.3860
 9298SOL    HW239354   0.980   4.656   0.198  0.1880  1.5806  0.6029
 9299SOL     OW39355   3.410   0.465   4.127  0.1414 -0.1248  0.1274
 9299SOL    HW139356   3.461   0.440   4.050 -0.3378  0.3629 -0.3529
 9299SOL    HW239357   3.336   0.404   4.131 -0.0724  0.2067  1.3855
 9300SOL     OW39358   3.900   2.893  17.361  0.2702  0.3881  0.9107
 9300SOL    HW139359   3.882   2.865  17.271 -0.4064  0.2832  1.0769
 9300SOL    HW239360   3.863   2.981  17.360 -1.7491 -0.4328  1.4474
 9301SOL     OW39361   4.131   1.356   5.250 -0.2260 -0.0466  0.3112
 9301SOL    HW139362   4.068   1.359   5.322  0.8123 -1.4640  1.2915
 9301SOL    HW239363   4.087   1.329   5.170  1.5024  0.5486 -0.8296
 9302SOL     OW39364   4.235   4.307  12.910  0.7068 -0.4596 -0.4663
 9302SOL    HW139365   4.324   4.340  12.896 -0.2074  2.1436 -0.0501
 9302SOL    HW239366   4.207   4.279  12.824 -0.2721  0.3015 -0.3878
 9303SOL     OW39367   1.907   1.648   7.773 -0.5926  0.3202  0.1104
 9303SOL    HW139368   1.940   1.713   7.836 -1.1468  1.0572 -0.3687
 9303SOL    HW239369   1.852   1.586   7.821 -1.0144 -0.3913 -1.3154
 9304SOL     OW39370   0.046   1.484   5.579  0.3475 -0.4598 -0.0068
 9304SOL    HW139371   0.134   1.477   5.541 -0.9208 -1.7502 -2.7059
 9304SOL    HW239372   4.722   1.447   5.505 -0.7407  2.1360 -0.5971
 9305SOL     OW39373   3.165   2.529   6.258 -0.3409 -0.3068  0.1094
 9305SOL    HW139374   3.113   2.488   6.188  0.9063 -2.9420  0.7265
 9305SOL    HW239375   3.255   2.502   6.239 -0.4599 -0.9835  0.5124
 9306SOL     OW39376   0.552   3.759   3.674  0.2782 -0.7036 -0.7083
 9306SOL    HW139377   0.508   3.719   3.600 -0.1566  2.1881 -2.0410
 9306SOL    HW239378   0.601   3.683   3.705  1.5238  0.5389  0.4000
 9307SOL     OW39379   2.545   3.236   2.228  0.1554  0.6866  0.1536
 9307SOL    HW139380   2.546   3.141   2.218  0.3957  0.4080  2.7100
 9307SOL    HW239381   2.637   3.260   2.224 -0.0379  1.2692 -0.6858
 9308SOL     OW39382   0.881   2.363   7.529 -0.0891  0.4784  0.0666
 9308SOL    HW139383   0.957   2.332   7.578  0.2694 -1.7923 -1.9286
 9308SOL    HW239384   0.889   2.317   7.445 -1.5507 -1.6761  1.1466
 9309SOL     OW39385   4.008   3.980   8.068 -0.4635  0.0816 -0.7148
 9309SOL    HW139386   3.938   3.946   8.012 -0.1800 -0.3340 -0.8204
 9309SOL    HW239387   4.019   3.911   8.133  2.1680 -0.0854 -1.3628
 9310SOL     OW39388   1.223   4.691   4.926  0.6408 -0.0651  0.6816
 9310SOL    HW139389   1.308   4.721   4.894  0.0683  1.0757  0.2049
 9310SOL    HW239390   1.220   0.026   5.002 -0.5959 -1.1777  1.4945
 9311SOL     OW39391   1.955   0.801   9.391 -0.1866 -0.0414  0.5463
 9311SOL    HW139392   1.976   0.718   9.350 -1.8402 -0.4958  0.6383
 9311SOL    HW239393   1.863   0.811   9.365 -0.0290  0.8697  0.3262
 9312SOL     OW39394   3.972   0.761   4.802  0.2959  0.4291  0.0206
 9312SOL    HW139395   3.945   0.742   4.712 -2.0017  0.0908  0.7701
 9312SOL    HW239396   4.033   0.687   4.802  0.2557  0.3986  0.9883
 9313SOL     OW39397   3.866   4.624   8.919  0.5690  0.4174  0.1004
 9313SOL    HW139398   3.793   4.683   8.937  1.5139  1.7696 -0.5364
 9313SOL    HW239399   3.914   4.683   8.861 -1.2371  1.5359 -0.2474
 9314SOL     OW39400   2.100   0.979  14.254 -0.0227 -0.0895  0.1018
 9314SOL    HW139401   2.181   0.967  14.205  0.0262  0.1473  0.1268
 9314SOL    HW239402   2.110   0.917  14.326 -0.4225  1.9611  1.9045
 9315SOL     OW39403   0.991   3.211   1.933  0.1785  0.3169 -0.1308
 9315SOL    HW139404   1.008   3.286   1.875  0.4583 -0.4291 -1.0058
 9315SOL    HW239405   0.962   3.152   1.864 -2.2213 -0.6272  1.6710
 9316SOL     OW39406   3.810   3.810   8.946 -0.4342  0.0569 -0.7413
 9316SOL    HW139407   3.873   3.812   9.018 -0.7166  1.7658 -0.5423
 9316SOL    HW239408   3.871   3.806   8.872 -0.9915  1.0818 -1.2587
 9317SOL     OW39409   4.436   3.673   2.519  0.5156  0.2352 -0.2522
 9317SOL    HW139410   4.512   3.662   2.576  2.2604  0.9510 -2.4442
 9317SOL    HW239411   4.374   3.713   2.580  0.8552  0.6996 -0.2059
 9318SOL     OW39412   0.144   1.878   7.482 -0.1609  0.3755  0.4599
 9318SOL    HW139413   0.125   1.971   7.490  0.9684  0.6581 -0.0596
 9318SOL    HW239414   0.172   1.879   7.391 -0.8537  2.0544  0.2744
 9319SOL     OW39415   0.652   0.868  10.965 -0.2341 -0.1997  0.3425
 9319SOL    HW139416   0.596   0.812  11.019  1.8792 -3.3806 -0.7924
 9319SOL    HW239417   0.587   0.891  10.899  0.3803  0.9773  0.1602
 9320SOL     OW39418   0.023   4.291  11.048 -0.5532 -0.6345  0.1567
 9320SOL    HW139419   0.115   4.277  11.024 -0.7940 -0.1759 -1.0485
 9320SOL    HW239420   4.716   4.201  11.055 -2.3111 -0.3091 -3.3567
 9321SOL     OW39421   0.431   1.056   4.290 -0.3113  0.5859 -0.8779
 9321SOL    HW139422   0.366   1.119   4.259 -1.8861  0.7552  2.7960
 9321SOL    HW239423   0.434   1.010   4.206 -1.0179 -2.2258  0.6484
 9322SOL     OW39424   0.069   3.085   5.088  0.3885 -0.1265  0.1159
 9322SOL    HW139425   0.065   2.990   5.073  0.2407 -0.0681 -0.2234
 9322SOL    HW239426   4.699   3.097   5.098  0.6062 -0.7987  2.9173
 9323SOL     OW39427   3.431   4.371  15.854 -0.0936  0.2964  0.4893
 9323SOL    HW139428   3.354   4.411  15.813  0.8996  2.3869  0.6540
 9323SOL    HW239429   3.465   4.440  15.911  2.0927  0.1295 -0.6231
 9324SOL     OW39430   1.885   4.130  10.469  0.0108  0.6644 -0.4409
 9324SOL    HW139431   1.862   4.133  10.376 -0.1421 -0.4383 -0.4407
 9324SOL    HW239432   1.813   4.082  10.510 -1.8937  2.1922 -1.9880
 9325SOL     OW39433   1.950   0.519   9.240  0.6209 -0.1695 -0.0761
 9325SOL    HW139434   1.872   0.464   9.236 -1.0577  2.2710 -0.8532
 9325SOL    HW239435   2.006   0.473   9.303  0.5958  0.1046  0.1484
 9326SOL     OW39436   0.668   4.292   6.550 -0.3701 -0.1924 -0.3870
 9326SOL    HW139437   0.630   4.205   6.539 -1.5482  0.2041  0.4614
 9326SOL    HW239438   0.626   4.321   6.632 -1.1985 -0.6277 -0.6550
 9327SOL     OW39439   2.880   3.045  11.004  0.3374 -0.1544 -0.3719
 9327SOL    HW139440   2.816   2.992  11.051  0.8906  0.9775  1.6443
 9327SOL    HW239441   2.900   3.111  11.071  0.0476 -1.5701  1.1139
 9328SOL     OW39442   2.494   0.984   8.845  0.2483  0.4935  0.3210
 9328SOL    HW139443   2.406   1.015   8.867  0.7537  0.6007  2.1935
 9328SOL    HW239444   2.542   1.066   8.851  1.1901  0.0908 -1.4985
 9329SOL     OW39445   0.773   0.542  14.815 -0.1041  0.2383 -0.5609
 9329SOL    HW139446   0.690   0.569  14.777  0.0607 -0.4693 -1.4379
 9329SOL    HW239447   0.780   0.615  14.877  0.2248 -0.7694  0.5982
 9330SOL     OW39448   2.653   3.308   5.566  0.3709  0.2582  0.1773
 9330SOL    HW139449   2.648   3.300   5.661  0.6513 -0.7595  0.0958
 9330SOL    HW239450   2.619   3.397   5.555 -0.9522 -0.5325 -2.0859
 9331SOL     OW39451   4.128   1.608  17.618 -0.6818  0.0836 -0.1734
 9331SOL    HW139452   4.194   1.632  17.553  0.1517 -1.7064  0.0085
 9331SOL    HW239453   4.089   1.694  17.631  1.2890  0.8005  1.0791
 9332SOL     OW39454   0.430   2.491   9.783  0.2525  0.0246  0.3025
 9332SOL    HW139455   0.377   2.415   9.804 -1.2389  0.6151 -1.3995
 9332SOL    HW239456   0.411   2.500   9.690 -0.4946 -3.6937  0.0954
 9333SOL     OW39457   1.577   3.048  15.321 -0.2955  0.3648 -0.4279
 9333SOL    HW139458   1.632   2.996  15.380  1.4039  1.5639 -0.9635
 9333SOL    HW239459   1.637   3.119  15.300  2.4025 -2.4780 -2.4473
 9334SOL     OW39460   3.507   4.494  13.654 -0.1937 -0.4545  0.3702
 9334SOL    HW139461   3.448   4.477  13.580 -1.4864 -0.6421  1.4400
 9334SOL    HW239462   3.462   4.441  13.720 -1.2885 -0.6590 -0.5363
 9335SOL     OW39463   3.484   1.486   5.807 -0.4796 -0.2701  0.0434
 9335SOL    HW139464   3.536   1.423   5.757  1.4107  1.9279 -0.7979
 9335SOL    HW239465   3.452   1.547   5.740 -0.7840  0.1462  0.5652
 9336SOL     OW39466   2.312   1.376   4.389 -0.0515  0.0137 -0.1130
 9336SOL    HW139467   2.303   1.330   4.472 -1.3855 -0.0918 -0.3064
 9336SOL    HW239468   2.325   1.469   4.408 -3.0709  0.3790  0.2719
 9337SOL     OW39469   4.492   1.027   7.497  0.1443 -0.2707  0.4371
 9337SOL    HW139470   4.517   1.100   7.554  1.2359 -1.1771  1.1114
 9337SOL    HW239471   4.498   0.961   7.565 -1.0579  0.8317  1.6269
 9338SOL     OW39472   1.646   4.032  11.549 -0.5397  0.9377 -0.0972
 9338SOL    HW139473   1.736   4.065  11.550 -0.2459  0.1543 -1.5542
 9338SOL    HW239474   1.645   3.967  11.479  0.9008 -1.0224  1.6733
 9339SOL     OW39475   0.172   3.915   4.021 -0.4037 -0.1834  0.3456
 9339SOL    HW139476   0.192   3.835   3.972 -0.9861 -0.7203  1.0036
 9339SOL    HW239477   0.262   3.947   4.035 -0.3553  0.2734 -0.9983
 9340SOL     OW39478   3.966   2.384   6.424  0.0769  0.1131 -0.3539
 9340SOL    HW139479   3.902   2.366   6.492 -2.2496  1.1597 -2.2783
 9340SOL    HW239480   3.912   2.427   6.357 -1.9966  1.0036  1.8953
 9341SOL     OW39481   1.240   1.503  10.117 -0.0759  0.2678 -0.0919
 9341SOL    HW139482   1.330   1.533  10.125  0.6681 -2.3631  1.3116
 9341SOL    HW239483   1.212   1.533  10.030 -0.6905 -0.6818 -0.2341
 9342SOL     OW39484   0.775   1.471   3.108 -0.0371 -0.0703  0.4457
 9342SOL    HW139485   0.852   1.499   3.158  0.4460  0.1790 -0.4424
 9342SOL    HW239486   0.746   1.556   3.074 -1.2477 -0.1351  1.3318
 9343SOL     OW39487   4.176   1.367   3.852 -0.1886  0.0838  0.4056
 9343SOL    HW139488   4.181   1.433   3.783 -3.6068  1.0043  1.0263
 9343SOL    HW239489   4.255   1.388   3.903 -0.5671 -1.9162  1.7908
 9344SOL     OW39490   2.469   4.005   2.373  0.4026 -0.1066 -0.0879
 9344SOL    HW139491   2.541   3.972   2.319 -0.0298 -1.4002  0.1209
 9344SOL    HW239492   2.391   4.006   2.317  0.3645  1.0010 -0.0229
 9345SOL     OW39493   0.453   4.661   7.918  0.0157 -0.9117  0.5417
 9345SOL    HW139494   0.472   0.007   7.857 -0.1824 -2.1039 -0.8771
 9345SOL    HW239495   0.380   4.694   7.971 -0.3843 -2.2231  0.8029
 9346SOL     OW39496   1.905   1.411   3.400 -0.4773 -0.2973  0.2427
 9346SOL    HW139497   1.924   1.477   3.466  3.1254  0.4797 -1.6046
 9346SOL    HW239498   1.916   1.465   3.322  0.7960  1.8021  1.8925
 9347SOL     OW39499   0.508   4.193   9.045 -0.4828 -0.2538 -0.2742
 9347SOL    HW139500   0.512   4.111   8.997  0.2228  0.1899 -0.9656
 9347SOL    HW239501   0.492   4.164   9.135 -0.1069 -0.9161 -0.4207
 9348SOL     OW39502   4.533   1.042   7.852 -0.6485 -0.4726 -0.1530
 9348SOL    HW139503   4.475   1.118   7.856  1.8013  1.4985 -2.6638
 9348SOL    HW239504   4.615   1.083   7.826 -0.7872  1.1901  2.0096
 9349SOL     OW39505   2.736   2.323   8.646 -0.4340 -0.3954 -0.1299
 9349SOL    HW139506   2.814   2.301   8.596  1.9919  2.3714  2.4048
 9349SOL    HW239507   2.768   2.399   8.694  0.0920 -2.0847  2.1592
 9350SOL     OW39508   3.974   4.664   5.684 -0.8558 -0.3663 -0.1965
 9350SOL    HW139509   3.882   4.691   5.683 -0.4927  0.8912  0.5039
 9350SOL    HW239510   4.016   0.004   5.626 -0.0315 -1.6630 -1.0354
 9351SOL     OW39511   0.415   2.490   3.736 -0.0088 -0.0739  0.1299
 9351SOL    HW139512   0.498   2.520   3.699  0.2763  0.0686  0.8770
 9351SOL    HW239513   0.437   2.397   3.742  1.1797  0.0455 -2.4031
 9352SOL     OW39514   4.680   3.956   5.304  0.0097  0.3100  0.7951
 9352SOL    HW139515   4.714   3.871   5.274 -0.2594  0.0152  1.3233
 9352SOL    HW239516   4.722   4.014   5.240  0.6717 -0.2967  0.6776
 9353SOL     OW39517   3.037   2.152   6.787  0.2272  0.0589 -0.0530
 9353SOL    HW139518   3.032   2.230   6.843 -0.6100 -0.6262  0.8184
 9353SOL    HW239519   3.129   2.133   6.771  0.3625 -1.0483  2.0684
 9354SOL     OW39520   3.590   2.561   3.648 -0.4726 -0.3562 -0.0027
 9354SOL    HW139521   3.551   2.540   3.563  0.2132 -1.1676 -0.1154
 9354SOL    HW239522   3.599   2.471   3.680  0.9598 -0.1015  0.2913
 9355SOL     OW39523   0.530   3.104   4.498 -0.5504  0.5117 -0.2447
 9355SOL    HW139524   0.566   3.031   4.549 -0.6248 -0.7387 -1.9500
 9355SOL    HW239525   0.456   3.138   4.548 -0.5988 -1.2611  0.8943
 9356SOL     OW39526   3.358   3.640   1.575 -0.1101 -0.3509 -0.3848
 9356SOL    HW139527   3.384   3.682   1.493  2.1883 -3.2360 -1.1263
 9356SOL    HW239528   3.341   3.551   1.545  0.0750 -0.6935  0.5130
 9357SOL     OW39529   2.028   0.278   1.015  0.3474  0.2201  0.0712
 9357SOL    HW139530   2.087   0.298   1.088 -0.2133  1.9096  0.0608
 9357SOL    HW239531   2.069   0.200   0.976  1.5731  0.3762  1.0589
 9358SOL     OW39532   0.324   3.427   1.848  0.1770 -0.5007 -0.3985
 9358SOL    HW139533   0.364   3.497   1.797  0.7624 -1.1213 -0.7911
 9358SOL    HW239534   0.280   3.373   1.782  0.7461 -2.8976  1.1738
 9359SOL     OW39535   2.855   0.324  16.927  0.0662 -0.4396 -0.0248
 9359SOL    HW139536   2.917   0.395  16.911  0.5151 -1.4097 -2.5991
 9359SOL    HW239537   2.776   0.372  16.950 -0.2416 -1.2060  0.5334
 9360SOL     OW39538   3.074   1.509   3.553  0.4354 -0.0955  0.4963
 9360SOL    HW139539   3.081   1.445   3.624 -1.7318 -0.6798  0.1787
 9360SOL    HW239540   2.996   1.471   3.513  1.4951  0.1111 -1.7619
 9361SOL     OW39541   2.856   0.386  14.278 -0.3358  0.1149 -0.0374
 9361SOL    HW139542   2.777   0.434  14.304 -2.1222 -1.8923 -1.7084
 9361SOL    HW239543   2.920   0.457  14.285 -0.5038  0.2846 -0.2129
 9362SOL     OW39544   1.647   1.823   7.574  0.2073  0.5489 -0.2324
 9362SOL    HW139545   1.725   1.819   7.629  0.5958 -1.1352 -0.9043
 9362SOL    HW239546   1.582   1.834   7.643  2.0483 -0.4854  1.6465
 9363SOL     OW39547   2.096   1.224   3.439  0.1735 -0.3218 -0.1425
 9363SOL    HW139548   2.001   1.237   3.443  0.2070 -0.6635  2.2272
 9363SOL    HW239549   2.105   1.192   3.529 -1.9347 -0.1562  0.1256
 9364SOL     OW39550   0.789   1.322   6.184 -0.2133  0.3888  0.4498
 9364SOL    HW139551   0.867   1.377   6.180 -1.2667  1.7760 -0.8149
 9364SOL    HW239552   0.728   1.395   6.184  1.6696  1.9367 -0.8242
 9365SOL     OW39553   0.335   3.302   3.964  0.2733  0.6464  0.3704
 9365SOL    HW139554   0.372   3.390   3.969  1.2123  0.3044 -0.4899
 9365SOL    HW239555   0.371   3.277   4.049 -3.0558  1.4995  2.0467
 9366SOL     OW39556   3.528   3.057  13.353  0.3815 -0.2528  0.0251
 9366SOL    HW139557   3.467   3.023  13.419 -1.9767  2.3135 -0.8199
 9366SOL    HW239558   3.597   3.053  13.419 -1.3284  1.3879  1.9511
 9367SOL     OW39559   4.713   3.932   3.252  0.0088  0.2346 -0.2529
 9367SOL    HW139560   4.704   3.970   3.165  0.8012  0.3732 -0.2750
 9367SOL    HW239561   0.022   4.009   3.298 -2.3001  0.2460  1.4056
 9368SOL     OW39562   3.105   2.347  10.782 -0.0433 -0.0449  0.9053
 9368SOL    HW139563   3.068   2.435  10.782  1.1807  0.4617  1.3985
 9368SOL    HW239564   3.034   2.288  10.758  1.1328  0.1844 -3.1669
 9369SOL     OW39565   1.189   1.947   4.505 -0.0570  0.1650  0.4286
 9369SOL    HW139566   1.100   1.947   4.468  0.5768 -0.9347 -1.1012
 9369SOL    HW239567   1.188   1.851   4.515 -0.4964 -0.1029 -2.3121
 9370SOL     OW39568   1.959   1.638   3.581 -0.2452 -0.5813 -0.0551
 9370SOL    HW139569   1.895   1.706   3.602 -2.5723 -2.1493 -2.0430
 9370SOL    HW239570   1.977   1.599   3.667  1.8753 -1.4778 -0.9135
 9371SOL     OW39571   0.421   0.155  13.249 -0.1257  0.2772  0.3863
 9371SOL    HW139572   0.393   0.182  13.337  1.6215  0.3527  0.9173
 9371SOL    HW239573   0.400   0.061  13.247  0.1205  0.2663 -1.1933
 9372SOL     OW39574   1.151   3.881  11.522  0.2901 -0.1022 -0.7710
 9372SOL    HW139575   1.118   3.793  11.536  1.4887 -0.2406  1.1508
 9372SOL    HW239576   1.155   3.888  11.427 -3.4164  0.0530 -0.9188
 9373SOL     OW39577   1.493   1.691   5.141  0.1280 -0.2272 -0.0167
 9373SOL    HW139578   1.400   1.668   5.142 -0.0529  0.4382 -1.6489
 9373SOL    HW239579   1.508   1.700   5.235 -0.4567 -1.4228  0.2016
 9374SOL     OW39580   3.373   3.435   7.875 -0.7796 -0.1541  0.1013
 9374SOL    HW139581   3.457   3.393   7.854 -0.0931  1.2766 -0.0214
 9374SOL    HW239582   3.383   3.475   7.962  0.1084  1.3656 -0.6958
 9375SOL     OW39583   0.857   0.154   4.310  0.1899  0.6817  0.0316
 9375SOL    HW139584   0.806   0.228   4.278 -1.9418 -0.6067  0.4620
 9375SOL    HW239585   0.829   0.147   4.402 -1.4254  0.5531 -0.4650
 9376SOL     OW39586   1.698   1.512   2.590  0.0086 -0.1209  0.4411
 9376SOL    HW139587   1.713   1.506   2.685  0.0376 -1.1398  0.3751
 9376SOL    HW239588   1.698   1.607   2.583 -1.8964 -0.1796 -0.2738
 9377SOL     OW39589   0.834   1.898  12.995  0.1981 -0.3455  0.6087
 9377SOL    HW139590   0.766   1.892  12.928 -0.0760  2.4355  0.6687
 9377SOL    HW239591   0.897   1.953  12.948 -1.3799 -0.6474 -1.8757
 9378SOL     OW39592   1.101   3.399   7.714 -0.4926  0.0015 -0.0847
 9378SOL    HW139593   1.059   3.343   7.779 -0.1827 -0.8901 -0.6566
 9378SOL    HW239594   1.093   3.344   7.637 -3.1109 -1.1910  1.0447
 9379SOL     OW39595   0.484   1.740   3.796 -0.0360  0.2675  0.0569
 9379SOL    HW139596   0.400   1.693   3.790 -0.6673  1.1197  2.2053
 9379SOL    HW239597   0.455   1.821   3.756  2.5969  0.5293 -1.3062
 9380SOL     OW39598   1.736   1.900   2.582  0.0862 -0.4205  0.4876
 9380SOL    HW139599   1.752   1.977   2.528 -1.2185 -1.5074 -1.4308
 9380SOL    HW239600   1.818   1.851   2.573  0.4321 -0.5747  4.4446
 9381SOL     OW39601   0.752   2.392  10.451  0.0262 -0.1635 -0.2069
 9381SOL    HW139602   0.771   2.299  10.463 -1.8573 -0.5684 -0.3968
 9381SOL    HW239603   0.741   2.392  10.356 -0.8926 -0.2772 -0.1004
 9382SOL     OW39604   4.433   0.360   3.671 -0.1266 -0.3042  0.4562
 9382SOL    HW139605   4.474   0.403   3.596  0.4497  2.0829  2.0969
 9382SOL    HW239606   4.447   0.268   3.650 -0.3039  0.0991 -1.4087
 9383SOL     OW39607   3.695   3.758   6.370 -0.2747 -0.1215 -0.0236
 9383SOL    HW139608   3.720   3.764   6.462 -2.3194 -0.6625  0.5736
 9383SOL    HW239609   3.718   3.668   6.349  0.3249 -0.3792  1.6862
 9384SOL     OW39610   2.418   2.476   2.074  0.0684 -0.1534 -0.0445
 9384SOL    HW139611   2.445   2.520   1.994  0.8675 -0.5819 -0.0080
 9384SOL    HW239612   2.366   2.399   2.051 -0.2005  0.0772 -0.2134
 9385SOL     OW39613   2.324   1.556   8.457 -0.0141  0.9174  0.3963
 9385SOL    HW139614   2.347   1.573   8.366  2.0745 -0.6943  0.6180
 9385SOL    HW239615   2.228   1.557   8.452  0.1368 -0.8027 -2.8507
 9386SOL     OW39616   1.395   4.286   8.105  0.5182  0.0954  0.2677
 9386SOL    HW139617   1.341   4.267   8.181 -1.5800 -0.4697 -1.3436
 9386SOL    HW239618   1.413   4.197   8.075  0.6501  0.4206 -0.6198
 9387SOL     OW39619   0.695   3.597   5.020  0.6288 -0.2008  0.1179
 9387SOL    HW139620   0.705   3.693   5.022 -0.1833 -0.1263  0.5836
 9387SOL    HW239621   0.614   3.572   4.976  0.4296  0.5475  0.0579
 9388SOL     OW39622   2.649   2.569   0.476 -0.4001  0.0774  0.1483
 9388SOL    HW139623   2.726   2.512   0.471 -1.1998 -1.0998  1.2720
 9388SOL    HW239624   2.587   2.504   0.509  0.4772  0.1014  1.8438
 9389SOL     OW39625   1.952   0.325  12.515 -0.1404  0.1322  0.4780
 9389SOL    HW139626   2.025   0.321  12.453 -0.7100 -2.5857 -0.0087
 9389SOL    HW239627   2.001   0.275  12.581 -0.0135 -0.4830 -0.0762
 9390SOL     OW39628   4.592   3.791   8.995  0.4883 -0.3400  0.6492
 9390SOL    HW139629   4.643   3.712   9.012  1.1319 -0.2239 -0.8001
 9390SOL    HW239630   4.537   3.755   8.925  1.9874 -1.1169 -0.1323
 9391SOL     OW39631   0.005   3.481  13.803  0.1357 -0.5035  0.7241
 9391SOL    HW139632   4.721   3.555  13.743 -0.3060 -1.1231  0.0269
 9391SOL    HW239633   0.101   3.472  13.804  0.3710  1.7253 -1.7199
 9392SOL     OW39634   3.650   3.744   6.105  0.4369  0.0581 -0.6298
 9392SOL    HW139635   3.597   3.790   6.170 -2.0433  0.3258 -2.8167
 9392SOL    HW239636   3.599   3.664   6.099  2.6205 -1.2952 -0.9882
 9393SOL     OW39637   4.071   4.274  16.682 -0.3816  0.6341 -0.0785
 9393SOL    HW139638   4.050   4.232  16.766  1.9487 -2.0926 -0.8913
 9393SOL    HW239639   4.139   4.338  16.701  1.3219 -1.3429  0.4340
 9394SOL     OW39640   4.458   2.696   3.496 -0.1187 -0.0060  0.2280
 9394SOL    HW139641   4.388   2.737   3.546 -0.6893 -2.2767  1.2584
 9394SOL    HW239642   4.418   2.610   3.497 -2.0836  0.9937  4.9186
 9395SOL     OW39643   1.737   1.683   5.009  0.5772 -0.4323 -0.1912
 9395SOL    HW139644   1.654   1.691   5.056  0.1298  0.5034 -1.1344
 9395SOL    HW239645   1.715   1.613   4.946 -1.1585 -0.5175  0.5118
 9396SOL     OW39646   1.060   1.397   2.730  0.0987 -0.0191  0.4215
 9396SOL    HW139647   1.097   1.486   2.730  0.1896 -0.0442 -2.8665
 9396SOL    HW239648   0.976   1.420   2.689 -0.2424  1.9189  2.1895
 9397SOL     OW39649   3.070   3.897   7.518 -0.4716  0.0569 -0.2448
 9397SOL    HW139650   3.084   3.805   7.495 -2.7181 -0.4223  0.3248
 9397SOL    HW239651   3.058   3.894   7.612  1.4012 -0.7039 -0.0262
 9398SOL     OW39652   1.811   1.732  17.305 -0.1411  0.4366 -0.0209
 9398SOL    HW139653   1.817   1.821  17.340  1.0974 -0.0650  1.0580
 9398SOL    HW239654   1.788   1.692  17.389  2.4989 -2.0093 -0.4578
 9399SOL     OW39655   2.962   1.791   6.699 -0.2339 -0.0147  0.0405
 9399SOL    HW139656   2.916   1.851   6.641 -0.5249 -0.5934 -0.3197
 9399SOL    HW239657   2.895   1.732   6.731 -0.8241  0.0240 -1.1260
 9400SOL     OW39658   3.963   4.021  16.586  0.0176 -0.7889 -0.2766
 9400SOL    HW139659   3.966   4.096  16.646  1.5531 -0.5316 -0.6658
 9400SOL    HW239660   3.998   4.062  16.507 -2.1768  0.0670 -0.8100
 9401SOL     OW39661   3.182   0.933   6.759 -0.0297 -0.3230 -0.0535
 9401SOL    HW139662   3.127   0.892   6.693  0.3659  1.7903 -1.6860
 9401SOL    HW239663   3.264   0.911   6.716  0.8191 -2.0453  2.4493
 9402SOL     OW39664   4.308   3.783   7.551  0.5952  0.3865 -0.3973
 9402SOL    HW139665   4.364   3.852   7.586 -0.6861  2.0104 -1.5421
 9402SOL    HW239666   4.225   3.806   7.594  2.7219  3.1621  2.2137
 9403SOL     OW39667   4.338   2.535   6.734  0.8176  0.2444  0.1567
 9403SOL    HW139668   4.318   2.590   6.658 -0.0146 -2.0722 -1.3107
 9403SOL    HW239669   4.247   2.527   6.761  0.6934 -1.1817 -0.6652
 9404SOL     OW39670   1.736   1.559  17.522  0.1315 -0.1927  0.1238
 9404SOL    HW139671   1.677   1.508  17.465  1.8792 -2.4996  0.3506
 9404SOL    HW239672   1.698   1.541  17.608  0.8355  0.5676  0.5904
 9405SOL     OW39673   3.549   2.926   9.093 -0.0366  0.0401  0.0857
 9405SOL    HW139674   3.626   2.968   9.131 -1.0878  0.2637  1.9695
 9405SOL    HW239675   3.565   2.952   9.002 -0.9163  0.2461 -0.0151
 9406SOL     OW39676   3.986   2.048   3.563  0.5296 -0.4535 -0.4394
 9406SOL    HW139677   4.006   2.067   3.472 -0.3838 -0.6065 -0.6734
 9406SOL    HW239678   3.952   1.959   3.558  1.7805 -0.9843  0.5840
 9407SOL     OW39679   0.045   0.041   0.707 -0.0030 -0.2480 -0.4266
 9407SOL    HW139680   4.682   0.044   0.745 -0.1574 -1.3903 -0.6637
 9407SOL    HW239681   0.043   0.123   0.658  0.0789  0.6917  1.1310
 9408SOL     OW39682   2.459   3.080  15.036  0.0958 -0.0646  0.8659
 9408SOL    HW139683   2.451   3.138  14.960  0.1741  0.2739  1.1147
 9408SOL    HW239684   2.400   3.011  15.006 -1.9379  2.9442 -2.1510
 9409SOL     OW39685   0.469   0.914   6.413 -0.0349  0.0270  0.0224
 9409SOL    HW139686   0.421   0.996   6.407  0.0403  0.0330 -0.5175
 9409SOL    HW239687   0.515   0.929   6.495  1.2969 -0.3701 -0.6471
 9410SOL     OW39688   2.119   0.587   5.797 -0.0148 -0.5053  0.2710
 9410SOL    HW139689   2.182   0.586   5.870  2.1004  2.3367 -1.5156
 9410SOL    HW239690   2.058   0.643   5.846 -0.1600  0.0325 -0.5263
 9411SOL     OW39691   3.209   1.230  14.865 -0.0963 -0.5524  0.1518
 9411SOL    HW139692   3.209   1.137  14.888 -1.0237 -0.5574  0.1385
 9411SOL    HW239693   3.128   1.261  14.907  0.4453 -2.0080  2.2937
 9412SOL     OW39694   2.516   3.540   5.563 -0.1453 -0.4412 -0.5571
 9412SOL    HW139695   2.494   3.570   5.475  2.6764  2.2770 -0.3253
 9412SOL    HW239696   2.430   3.530   5.604 -0.2604  1.5092 -0.3015
 9413SOL     OW39697   0.367   3.544   6.969  0.6707  0.5388 -0.3552
 9413SOL    HW139698   0.391   3.602   7.042 -0.7285  0.0502  0.4875
 9413SOL    HW239699   0.273   3.532   6.984  0.5260  0.0094 -1.7372
 9414SOL     OW39700   3.528   1.165   5.154  0.3952 -0.1580 -0.4140
 9414SOL    HW139701   3.585   1.185   5.080 -1.2342  1.3205 -1.2752
 9414SOL    HW239702   3.590   1.188   5.223 -0.0263  0.5793 -0.2725
 9415SOL     OW39703   1.230   4.509   3.352  0.2067 -0.3533  0.4751
 9415SOL    HW139704   1.193   4.422   3.366  1.5425 -0.9570  0.1756
 9415SOL    HW239705   1.323   4.493   3.336  0.5782  2.2448 -0.0581
 9416SOL     OW39706   0.165   3.387   8.400  0.1564  0.2606 -0.0079
 9416SOL    HW139707   0.205   3.332   8.468 -0.6012 -0.5249 -0.1946
 9416SOL    HW239708   0.081   3.400   8.445 -0.5388 -0.6333 -1.0540
 9417SOL     OW39709   1.730   3.858   3.941  0.2914 -0.2922  0.1429
 9417SOL    HW139710   1.755   3.880   4.031 -0.6180 -1.0353  0.5733
 9417SOL    HW239711   1.648   3.811   3.950  0.0347  0.0523 -0.3662
 9418SOL     OW39712   2.614   0.204   7.962  0.1415 -0.1468 -0.5340
 9418SOL    HW139713   2.617   0.227   7.870 -2.4444 -1.2141 -0.8826
 9418SOL    HW239714   2.524   0.209   7.994  0.3801 -0.9885  0.2797
 9419SOL     OW39715   0.490   1.212   3.947 -0.2444 -0.0686  0.3520
 9419SOL    HW139716   0.401   1.233   3.974  0.0943 -1.0298  2.2256
 9419SOL    HW239717   0.545   1.255   4.013  1.3257 -0.0008 -0.9969
 9420SOL     OW39718   1.571   1.441  11.425  0.1909  0.7263  0.0542
 9420SOL    HW139719   1.636   1.452  11.356  0.9224 -0.3749  0.5627
 9420SOL    HW239720   1.614   1.494  11.493 -1.7880  2.1022  0.2204
 9421SOL     OW39721   1.520   4.404   1.298  0.3311 -0.5047 -0.0691
 9421SOL    HW139722   1.609   4.371   1.297  1.2373  1.9152  2.0363
 9421SOL    HW239723   1.465   4.330   1.323  0.7646 -0.4514  1.0552
 9422SOL     OW39724   0.731   3.962  12.328  0.3036  0.1696  0.1503
 9422SOL    HW139725   0.773   4.044  12.354 -0.2004  0.2590  0.6832
 9422SOL    HW239726   0.803   3.899  12.320 -0.6667 -0.9984  0.5486
 9423SOL     OW39727   3.578   2.484   7.252  0.5206  0.5141 -0.5000
 9423SOL    HW139728   3.511   2.550   7.234 -1.2253 -0.8106  1.1787
 9423SOL    HW239729   3.663   2.528   7.246 -0.6848  2.7274 -1.2419
 9424SOL     OW39730   3.874   3.167   6.086 -0.4407 -0.2204  0.8722
 9424SOL    HW139731   3.848   3.254   6.055 -0.9524 -1.0346 -1.0194
 9424SOL    HW239732   3.915   3.126   6.009  0.8082  1.1169  0.8360
 9425SOL     OW39733   3.850   3.334   9.878  0.3265  0.4074 -0.3702
 9425SOL    HW139734   3.894   3.271   9.822  1.6058  0.1286  0.9410
 9425SOL    HW239735   3.921   3.340   9.943  1.2211 -0.3740 -1.2964
 9426SOL     OW39736   2.954   2.230   8.494 -0.3100 -0.9994  0.2798
 9426SOL    HW139737   3.016   2.258   8.427 -1.7432 -1.4499 -1.2444
 9426SOL    HW239738   3.018   2.201   8.559 -0.4668 -0.6581  0.5839
 9427SOL     OW39739   0.688   2.510  16.132 -0.1465 -0.8639 -0.7127
 9427SOL    HW139740   0.692   2.538  16.224 -1.0813 -3.1208  0.0135
 9427SOL    HW239741   0.674   2.599  16.101  1.0924 -0.0203  1.1326
 9428SOL     OW39742   3.776   2.726   0.451 -0.2270 -0.3569 -0.2310
 9428SOL    HW139743   3.702   2.781   0.478 -0.5198 -0.4915 -0.7430
 9428SOL    HW239744   3.852   2.783   0.458  0.5141 -1.4403  0.4149
 9429SOL     OW39745   4.690   0.378   8.112  0.1714  0.2050 -0.5224
 9429SOL    HW139746   4.607   0.417   8.142  0.4756  0.0459  0.5317
 9429SOL    HW239747   4.677   0.284   8.126  0.4542  0.1059 -0.9212
 9430SOL     OW39748   1.743   2.124  16.390 -0.4110 -0.1592  0.0416
 9430SOL    HW139749   1.743   2.083  16.303 -1.2673  0.3218 -0.1877
 9430SOL    HW239750   1.683   2.199  16.388  0.5199  0.5610 -1.0926
 9431SOL     OW39751   2.629   2.998   6.307  0.1028  0.5610 -0.1282
 9431SOL    HW139752   2.551   2.988   6.252 -0.6618  1.3204  0.8323
 9431SOL    HW239753   2.631   3.093   6.310  1.1639  0.4898  1.5077
 9432SOL     OW39754   1.357   2.775   0.349  0.1339  0.4757  0.0713
 9432SOL    HW139755   1.405   2.813   0.275  0.3513 -0.4015 -0.2409
 9432SOL    HW239756   1.427   2.718   0.381 -1.4343 -1.1027  0.6699
 9433SOL     OW39757   3.396   3.226  13.772  0.4012  0.3311  0.3921
 9433SOL    HW139758   3.479   3.273  13.764  0.2341  0.4632 -0.6450
 9433SOL    HW239759   3.347   3.290  13.824 -0.2904  0.0453  0.0945
 9434SOL     OW39760   4.496   0.818   2.048 -0.3773  0.3144  0.4689
 9434SOL    HW139761   4.570   0.878   2.048  0.4527 -0.7148 -0.3160
 9434SOL    HW239762   4.488   0.801   1.955 -2.2297  0.1059  0.6644
 9435SOL     OW39763   2.752   4.064   2.411  0.0257 -0.0237 -0.0956
 9435SOL    HW139764   2.835   4.023   2.434 -0.1906 -0.0950  0.5654
 9435SOL    HW239765   2.705   4.003   2.353  0.0659  1.4872 -1.7103
 9436SOL     OW39766   0.726   0.882   2.726  0.6158  0.1003  0.0527
 9436SOL    HW139767   0.682   0.830   2.793  1.5528 -0.1146  0.4926
 9436SOL    HW239768   0.820   0.870   2.732  0.2403 -3.2260 -0.4987
 9437SOL     OW39769   3.983   2.264   3.738  0.2288  0.0471  0.2056
 9437SOL    HW139770   4.022   2.219   3.813  0.5219 -1.9597 -1.1497
 9437SOL    HW239771   3.999   2.202   3.667  0.6615  2.1888 -1.5623
 9438SOL     OW39772   0.522   4.141   6.296  0.4138  0.1881 -0.2528
 9438SOL    HW139773   0.571   4.109   6.220 -1.8382 -1.8202 -0.8918
 9438SOL    HW239774   0.515   4.233   6.272  1.0886  0.5475  0.9955
 9439SOL     OW39775   0.276   2.528   2.199  0.0075  0.3488  0.9595
 9439SOL    HW139776   0.274   2.618   2.167  0.6769 -0.4750 -1.4095
 9439SOL    HW239777   0.315   2.480   2.126  0.3551  1.2680  0.5430
 9440SOL     OW39778   0.470   3.243   3.346  0.0139 -0.2674  0.0535
 9440SOL    HW139779   0.541   3.221   3.287  1.1673 -0.3015  1.4447
 9440SOL    HW239780   0.403   3.186   3.308  0.2529  0.6750 -1.7760
 9441SOL     OW39781   1.739   3.684   5.623  0.4504  0.3590 -0.2151
 9441SOL    HW139782   1.778   3.690   5.710  2.8232  1.7496 -1.4062
 9441SOL    HW239783   1.664   3.629   5.646 -1.0598  2.0835 -0.9407
 9442SOL     OW39784   4.454   2.801   9.836  0.7480 -0.2649  0.0210
 9442SOL    HW139785   4.371   2.753   9.832  0.0741  0.9835 -1.0305
 9442SOL    HW239786   4.451   2.822   9.742  0.3228  0.9998  0.3191
 9443SOL     OW39787   2.693   0.085  17.398  0.2415  0.7229 -0.0232
 9443SOL    HW139788   2.708   0.104  17.305  1.9735  0.0511  0.1007
 9443SOL    HW239789   2.751   0.151  17.436  1.6332 -1.3585  1.5285
 9444SOL     OW39790   0.205   3.436   6.053  0.4546  0.1658 -0.1118
 9444SOL    HW139791   0.132   3.496   6.071  1.4385  1.0719  0.8219
 9444SOL    HW239792   0.236   3.432   6.144 -2.6602  1.3409  1.0256
 9445SOL     OW39793   1.286   3.742   2.328  0.5771 -0.2158 -0.0727
 9445SOL    HW139794   1.265   3.835   2.339  0.2952 -0.2834 -0.0236
 9445SOL    HW239795   1.341   3.750   2.250  1.9762 -1.3096  0.8183
 9446SOL     OW39796   2.116   1.320   5.510  0.3624  1.0277 -0.4122
 9446SOL    HW139797   2.020   1.320   5.515  0.2541 -1.8470 -2.7997
 9446SOL    HW239798   2.129   1.245   5.453  1.7906 -0.4171  1.8028
 9447SOL     OW39799   0.923   2.202   3.605 -0.0958 -0.4662 -0.3896
 9447SOL    HW139800   0.879   2.122   3.634 -0.5971 -0.5180 -1.3025
 9447SOL    HW239801   0.908   2.259   3.681  1.4962 -0.1416 -0.3077
 9448SOL     OW39802   0.029   0.485   5.494 -0.3531 -0.3883  0.0442
 9448SOL    HW139803   0.005   0.548   5.562 -1.8457 -2.1361  1.0891
 9448SOL    HW239804   4.702   0.523   5.423 -0.9489  1.9013  1.7167
 9449SOL     OW39805   1.640   2.628   1.929 -0.2830  0.3912 -0.2412
 9449SOL    HW139806   1.730   2.604   1.951 -0.1297 -0.1188 -1.4424
 9449SOL    HW239807   1.600   2.609   2.014 -1.8114 -0.2077 -1.1061
 9450SOL     OW39808   4.511   2.014  12.295 -0.3581 -0.1206  0.3584
 9450SOL    HW139809   4.492   2.094  12.246 -0.2151  0.7704  1.7777
 9450SOL    HW239810   4.574   1.972  12.235 -2.4739  0.4676 -2.2577
 9451SOL     OW39811   0.099   0.792  13.478 -0.4613 -0.3513 -0.0287
 9451SOL    HW139812   0.019   0.842  13.492  0.2886  0.7706  0.2357
 9451SOL    HW239813   0.150   0.841  13.542  0.3576  1.3137 -1.9589
 9452SOL     OW39814   0.259   1.046   2.241  0.4170 -0.1735 -0.0951
 9452SOL    HW139815   0.272   1.129   2.195  1.5751 -0.4588 -0.2831
 9452SOL    HW239816   0.181   1.016   2.195  0.3380  0.1141 -0.1494
 9453SOL     OW39817   0.850   3.904   7.627 -0.8669  0.6058 -0.0554
 9453SOL    HW139818   0.854   3.826   7.572 -1.7953  0.6907 -0.2472
 9453SOL    HW239819   0.854   3.863   7.714 -1.4261  1.5403  0.4210
 9454SOL     OW39820   2.195   0.565  15.807 -0.2897  0.3432  0.3313
 9454SOL    HW139821   2.134   0.548  15.879  0.8029  1.4003  1.4913
 9454SOL    HW239822   2.267   0.580  15.868 -1.0125 -1.4052  1.6023
 9455SOL     OW39823   0.716   3.282   8.936 -0.2799 -0.0434  0.0564
 9455SOL    HW139824   0.716   3.272   9.032 -0.7094  0.4948  0.1189
 9455SOL    HW239825   0.809   3.293   8.916  0.1286  0.8551  2.4406
 9456SOL     OW39826   0.114   2.201   4.590  0.6243 -0.2416  0.2796
 9456SOL    HW139827   0.136   2.118   4.632  0.9403 -2.1831 -3.6746
 9456SOL    HW239828   0.110   2.172   4.499  1.6062  0.5570 -0.0177
 9457SOL     OW39829   1.726   2.455   5.095  0.9021  0.0088 -0.1220
 9457SOL    HW139830   1.706   2.494   5.010 -0.6975 -3.6036 -1.3981
 9457SOL    HW239831   1.809   2.499   5.116  0.4318  0.3898  0.9347
 9458SOL     OW39832   1.597   3.511   3.870 -0.8529  0.2722  0.0450
 9458SOL    HW139833   1.614   3.436   3.812 -1.1140  1.3229 -1.3845
 9458SOL    HW239834   1.671   3.501   3.930 -1.1117 -0.5195  0.2382
 9459SOL     OW39835   3.004   4.136  13.296  0.2098 -0.0891  0.1964
 9459SOL    HW139836   3.024   4.062  13.354 -1.0618  0.4427  1.2862
 9459SOL    HW239837   3.069   4.118  13.228  1.0917  0.2893  0.9433
 9460SOL     OW39838   3.909   4.627   0.808  0.2264 -0.5968 -0.0477
 9460SOL    HW139839   3.995   4.585   0.807  1.2854  1.5870 -1.2082
 9460SOL    HW239840   3.913   4.685   0.884  1.1538  0.6362 -1.0202
 9461SOL     OW39841   2.322   4.124   7.093 -0.0647  0.4741  0.4681
 9461SOL    HW139842   2.271   4.175   7.030 -0.8680  1.3286  1.8029
 9461SOL    HW239843   2.345   4.194   7.154  2.0456  1.1080 -1.0665
 9462SOL     OW39844   0.109   0.758  15.628  0.3780 -0.5193 -0.5302
 9462SOL    HW139845   0.019   0.726  15.638 -0.1450  1.1642  0.0434
 9462SOL    HW239846   0.130   0.778  15.719 -1.6400 -0.2975 -0.1246
 9463SOL     OW39847   2.474   3.613   4.501 -0.0257  0.2897  0.0838
 9463SOL    HW139848   2.486   3.548   4.431 -0.8841 -1.3896  1.4976
 9463SOL    HW239849   2.411   3.562   4.552  0.1165  0.6776  0.6409
 9464SOL     OW39850   1.854   3.754  15.193  0.3072 -0.3947 -0.0009
 9464SOL    HW139851   1.778   3.701  15.169  0.8438 -0.9474 -0.4847
 9464SOL    HW239852   1.821   3.820  15.254 -1.7479 -1.0581 -0.3826
 9465SOL     OW39853   1.636   4.244  10.849  0.6245 -0.6158 -0.3891
 9465SOL    HW139854   1.572   4.186  10.891  2.2613 -2.2525 -0.1235
 9465SOL    HW239855   1.705   4.233  10.916  0.4211 -1.1551 -0.2658
 9466SOL     OW39856   1.386   2.958  14.641  0.5497  0.6686  0.1688
 9466SOL    HW139857   1.350   3.033  14.595  1.2153  1.2776  0.6386
 9466SOL    HW239858   1.402   2.992  14.729 -3.4491  1.6662  0.4918
 9467SOL     OW39859   1.865   2.429  16.353 -0.6435  0.4179 -0.0216
 9467SOL    HW139860   1.814   2.408  16.275 -0.2402  1.4709 -0.5792
 9467SOL    HW239861   1.915   2.507  16.325  0.2497  0.1580  0.8387
 9468SOL     OW39862   1.485   4.303   2.768 -0.2925 -0.1274  0.4841
 9468SOL    HW139863   1.555   4.365   2.747 -0.1104 -0.5127 -0.0610
 9468SOL    HW239864   1.407   4.355   2.749 -1.1269 -0.8158  2.0707
 9469SOL     OW39865   3.945   2.352   8.469  0.4852 -0.4858  0.0970
 9469SOL    HW139866   3.998   2.312   8.538  1.1227  2.4297  1.3001
 9469SOL    HW239867   3.898   2.275   8.436 -2.7006  1.1553  0.8453
 9470SOL     OW39868   3.425   2.238  13.359 -0.1257  0.5407  0.6138
 9470SOL    HW139869   3.456   2.327  13.373 -1.3504  0.6322  2.6945
 9470SOL    HW239870   3.402   2.251  13.267 -0.6352  0.2915  0.7084
 9471SOL     OW39871   4.386   4.627   3.616 -0.1487  0.1353  0.6854
 9471SOL    HW139872   4.420   4.716   3.616 -1.3128  0.5841 -0.0931
 9471SOL    HW239873   4.352   4.635   3.705 -0.6902 -0.9625  0.5786
 9472SOL     OW39874   4.174   4.295  15.487  0.1512 -0.2476  0.4928
 9472SOL    HW139875   4.107   4.280  15.421 -0.3447 -0.2442  0.9971
 9472SOL    HW239876   4.231   4.220  15.469  0.9968  0.1085  1.6365
 9473SOL     OW39877   3.372   0.229   8.981 -0.1789 -0.5125  0.0001
 9473SOL    HW139878   3.385   0.318   8.947  0.5203 -0.5271  0.2175
 9473SOL    HW239879   3.462   0.201   8.965 -0.0854  1.6560 -3.2511
 9474SOL     OW39880   4.644   2.237   8.898 -0.5777 -0.5114 -0.3648
 9474SOL    HW139881   4.672   2.159   8.945 -1.0395 -0.3675  0.1432
 9474SOL    HW239882   4.690   2.211   8.818 -0.6789 -2.6247  0.2568
 9475SOL     OW39883   0.873   1.242   5.541  0.0172 -0.0962  0.0046
 9475SOL    HW139884   0.811   1.309   5.511 -2.0437 -1.4691  1.2868
 9475SOL    HW239885   0.934   1.298   5.590 -1.7040  0.7125  1.2060
 9476SOL     OW39886   2.701   3.240   0.890 -0.7344 -0.9455 -0.0237
 9476SOL    HW139887   2.770   3.178   0.865 -0.1889 -0.3856  0.1048
 9476SOL    HW239888   2.675   3.197   0.971  1.1429  1.6774  1.9503
 9477SOL     OW39889   3.965   0.638   7.143  0.2804  0.1559  0.0782
 9477SOL    HW139890   3.927   0.659   7.228 -2.1216  0.4384 -1.0601
 9477SOL    HW239891   3.897   0.580   7.109  1.0111 -0.9880  0.5556
 9478SOL     OW39892   4.682   1.312   3.874 -0.1480  0.1561 -0.2614
 9478SOL    HW139893   0.017   1.384   3.852  0.8047 -0.5162  0.1564
 9478SOL    HW239894   4.717   1.286   3.959  0.1146 -2.7680 -1.2764
 9479SOL     OW39895   2.337   0.490   3.722  0.3262 -0.0643  0.3156
 9479SOL    HW139896   2.260   0.440   3.750 -0.2801 -0.1590 -1.5476
 9479SOL    HW239897   2.301   0.578   3.715 -0.2897 -0.1632  2.1547
 9480SOL     OW39898   3.162   4.584   0.869  0.4583  0.1463 -0.1614
 9480SOL    HW139899   3.178   4.666   0.823  0.2996  2.1148  3.3118
 9480SOL    HW239900   3.239   4.570   0.924 -1.1027  1.4721  2.3772
 9481SOL     OW39901   1.424   1.754   1.040 -0.3118  0.2949 -0.1087
 9481SOL    HW139902   1.516   1.733   1.057 -0.3856 -1.0796 -1.4300
 9481SOL    HW239903   1.409   1.836   1.086  0.4025  0.2545  0.1984
 9482SOL     OW39904   1.640   1.263   5.492  0.0624 -0.3996 -0.4449
 9482SOL    HW139905   1.616   1.181   5.449  2.5158 -2.0329  1.3537
 9482SOL    HW239906   1.596   1.248   5.576 -1.2473  2.0716 -0.6895
 9483SOL     OW39907   3.595   1.688   8.469  0.0633 -0.2561 -0.5527
 9483SOL    HW139908   3.633   1.650   8.548 -2.0776  0.7448  0.9593
 9483SOL    HW239909   3.672   1.699   8.414  0.0688  0.1069 -0.4683
 9484SOL     OW39910   4.379   0.647   4.668 -0.1370 -0.8453  0.3520
 9484SOL    HW139911   4.311   0.601   4.718 -0.3795 -0.8093  0.0557
 9484SOL    HW239912   4.330   0.642   4.586  2.8280 -0.3381 -1.4394
 9485SOL     OW39913   0.624   0.698   4.928  0.0926  0.0232  0.2867
 9485SOL    HW139914   0.656   0.720   4.840  0.8080 -2.0457  0.0390
 9485SOL    HW239915   0.705   0.707   4.978 -0.2684 -0.3501  0.9342
 9486SOL     OW39916   0.117   3.485   4.692 -0.5372  0.2471  0.4906
 9486SOL    HW139917   0.152   3.425   4.758 -1.1572 -0.5149  0.1236
 9486SOL    HW239918   0.162   3.567   4.710 -0.1690  0.3276 -0.7908
 9487SOL     OW39919   3.690   3.398   8.550 -0.1079 -0.6244 -0.2518
 9487SOL    HW139920   3.677   3.471   8.611  0.3133 -0.4212 -0.4070
 9487SOL    HW239921   3.599   3.368   8.549  0.1043 -1.2907  0.6830
 9488SOL     OW39922   1.990   1.991   5.990  0.3620 -0.1609 -0.0534
 9488SOL    HW139923   2.074   1.986   5.944 -0.3500  1.8727 -1.6196
 9488SOL    HW239924   1.994   1.923   6.057  0.8203 -0.3871 -0.3114
 9489SOL     OW39925   3.136   0.132  15.181 -0.2583  0.1796  0.0856
 9489SOL    HW139926   3.082   0.209  15.197 -0.0272  0.0499  1.5576
 9489SOL    HW239927   3.078   0.068  15.140 -2.7703  3.3774 -1.2609
 9490SOL     OW39928   3.102   4.371   3.331 -0.3174  0.1363  0.1874
 9490SOL    HW139929   3.165   4.337   3.395  0.1918  2.3365  0.8858
 9490SOL    HW239930   3.158   4.429   3.280 -1.0429  2.1477  1.6157
 9491SOL     OW39931   3.761   0.081   3.939  0.4661 -0.1699  0.2028
 9491SOL    HW139932   3.802   0.104   3.855  0.7626  0.1557  0.4414
 9491SOL    HW239933   3.670   0.074   3.910  0.8039 -1.1297 -0.6383
 9492SOL     OW39934   1.637   0.427   6.217  0.1665  0.1779  0.1889
 9492SOL    HW139935   1.585   0.383   6.149  1.6640 -0.1900 -0.7270
 9492SOL    HW239936   1.594   0.503   6.257  0.4923  1.2742 -1.5158
 9493SOL     OW39937   2.408   0.761   4.885  0.0575 -0.1641 -0.0240
 9493SOL    HW139938   2.346   0.794   4.950  0.0626  0.7977 -0.5155
 9493SOL    HW239939   2.409   0.819   4.809  2.8619 -1.7500 -1.1851
 9494SOL     OW39940   2.904   1.902  13.062  0.4474  0.1125 -0.5351
 9494SOL    HW139941   2.823   1.919  13.110 -0.9615 -1.3240 -2.3639
 9494SOL    HW239942   2.875   1.831  13.003  1.6567  0.1491 -1.1665
 9495SOL     OW39943   2.357   4.072   7.997 -0.6827  1.1079  0.2240
 9495SOL    HW139944   2.387   4.147   7.945 -1.9229  1.2396 -0.3005
 9495SOL    HW239945   2.271   4.071   7.955  0.4832 -0.0320 -2.1658
 9496SOL     OW39946   0.206   2.071  14.730  0.2694  0.2964 -0.0615
 9496SOL    HW139947   0.294   2.079  14.768  0.3592 -0.5130 -0.1012
 9496SOL    HW239948   0.192   1.982  14.762  2.6171  0.1669  0.6795
 9497SOL     OW39949   3.576   1.022   8.433 -0.3638 -0.5386  0.1731
 9497SOL    HW139950   3.547   1.058   8.349 -1.1327 -0.0592  0.6496
 9497SOL    HW239951   3.627   0.949   8.397  0.4960  0.6103 -0.9388
 9498SOL     OW39952   0.230   4.265  15.699 -1.0637  0.3738  0.0841
 9498SOL    HW139953   0.281   4.195  15.659  0.5108  2.4493 -1.5579
 9498SOL    HW239954   0.169   4.226  15.760 -0.3788 -0.4374  0.2491
 9499SOL     OW39955   3.831   3.433  13.171  0.1912  0.3330  0.9516
 9499SOL    HW139956   3.792   3.445  13.258  0.7142 -1.0885  1.3858
 9499SOL    HW239957   3.755   3.445  13.114  2.0006 -1.9187 -1.9259
 9500SOL     OW39958   1.199   1.175   2.736  0.2525  0.4446 -0.5428
 9500SOL    HW139959   1.142   1.252   2.731 -0.8289 -0.2747  0.6448
 9500SOL    HW239960   1.273   1.211   2.687  2.0039 -1.2875  0.8326
 9501SOL     OW39961   4.010   4.326   4.728  0.5313  0.0141  0.0242
 9501SOL    HW139962   3.973   4.249   4.686  0.1655 -0.1466  0.6334
 9501SOL    HW239963   4.031   4.299   4.817  1.1879 -0.6540 -0.3383
 9502SOL     OW39964   4.458   4.249   3.681 -0.1982  0.1871  0.4034
 9502SOL    HW139965   4.544   4.289   3.680 -1.3635  2.6955  0.2127
 9502SOL    HW239966   4.450   4.269   3.774 -1.6885  0.2294  0.2710
 9503SOL     OW39967   3.112   4.518  12.010  0.1689  0.1627 -0.6220
 9503SOL    HW139968   3.073   4.594  11.969 -1.4810 -0.7852 -0.7945
 9503SOL    HW239969   3.202   4.521  11.976  0.0262 -2.0614 -1.2312
 9504SOL     OW39970   1.867   2.381   3.239  0.2769  1.0706  0.1052
 9504SOL    HW139971   1.854   2.423   3.153  0.5938  1.2574  0.1466
 9504SOL    HW239972   1.960   2.398   3.256  0.6133  1.9159 -2.4385
 9505SOL     OW39973   1.605   0.687   2.647 -0.5823 -0.9690 -0.3581
 9505SOL    HW139974   1.548   0.723   2.715 -1.4739  0.1326 -1.6891
 9505SOL    HW239975   1.624   0.764   2.594  0.0232 -1.6521 -1.1345
 9506SOL     OW39976   0.236   2.833  10.788  0.1773 -0.1410 -0.4935
 9506SOL    HW139977   0.157   2.876  10.820  1.0264  2.4161 -1.8888
 9506SOL    HW239978   0.293   2.908  10.805  0.6856 -0.7744  0.6099
 9507SOL     OW39979   3.998   2.084   3.277  0.2079 -0.1690 -0.0049
 9507SOL    HW139980   3.969   2.166   3.237  1.1938 -0.6342 -1.6400
 9507SOL    HW239981   3.958   2.007   3.236  0.1294 -0.9393  1.5180
 9508SOL     OW39982   2.423   0.428  16.062 -0.8694  0.4683  0.0314
 9508SOL    HW139983   2.401   0.354  16.006 -1.0003  0.8563 -0.4276
 9508SOL    HW239984   2.417   0.501  16.000  0.8126 -0.5971 -1.3815
 9509SOL     OW39985   1.716   3.016   6.066 -0.1539  0.0577 -0.3500
 9509SOL    HW139986   1.802   2.977   6.048 -1.3072 -2.3985 -0.4956
 9509SOL    HW239987   1.688   3.060   5.986  2.7675  0.0480 -1.3895
 9510SOL     OW39988   1.949   0.212   1.433 -0.1393 -0.3418  0.3363
 9510SOL    HW139989   1.997   0.236   1.354 -1.3889 -0.5135 -0.4699
 9510SOL    HW239990   2.005   0.164   1.495 -1.5737 -0.7639  1.3039
 9511SOL     OW39991   3.142   0.425  12.497 -0.0347  0.0224 -0.4529
 9511SOL    HW139992   3.065   0.469  12.533  1.5573  1.5507  1.0632
 9511SOL    HW239993   3.102   0.387  12.418 -0.4614 -1.4682  0.4808
 9512SOL     OW39994   4.456   0.199   4.438  0.4651 -0.8791  0.5634
 9512SOL    HW139995   4.450   0.212   4.533  1.5162 -2.0164  0.7881
 9512SOL    HW239996   4.535   0.248   4.416 -1.1277  1.4790  0.0586
 9513SOL     OW39997   4.034   3.782  13.372 -0.2187  0.6031  0.6517
 9513SOL    HW139998   4.075   3.833  13.302  0.7893 -1.1753 -0.0565
 9513SOL    HW239999   3.975   3.848  13.409  0.6958  1.1163  1.2012
 9514SOL     OW40000   0.016   1.857   9.948  0.1874  0.1864  0.4030
 9514SOL    HW140001   0.017   1.793  10.018  1.9528  0.6014  0.7332
 9514SOL    HW240002   0.110   1.864   9.930  0.0738  1.3488  0.1946
 9515SOL     OW40003   2.097   1.095   0.190  0.3328 -0.5657 -0.7678
 9515SOL    HW140004   2.134   1.138   0.113  0.5474  0.8230  0.1173
 9515SOL    HW240005   2.004   1.091   0.166 -0.0191  0.6860  0.4290
 9516SOL     OW40006   2.341   2.487   6.110  0.8310 -0.3725 -0.2048
 9516SOL    HW140007   2.422   2.436   6.118  0.6809 -0.6382 -0.4004
 9516SOL    HW240008   2.332   2.510   6.203 -1.6731 -1.6730 -0.1312
 9517SOL     OW40009   1.203   3.050   2.732  0.5022  0.3385 -0.1861
 9517SOL    HW140010   1.219   3.106   2.808  0.7823 -3.4126  2.5503
 9517SOL    HW240011   1.211   3.117   2.665 -0.1278 -0.6401 -1.2435
 9518SOL     OW40012   0.624   1.578   7.997 -0.5653  0.1738 -0.2694
 9518SOL    HW140013   0.570   1.656   8.012  0.0737  0.6529 -0.4755
 9518SOL    HW240014   0.705   1.599   8.045 -0.5306  0.5773 -0.5057
 9519SOL     OW40015   2.161   1.329   5.794  0.6512 -0.6133 -0.1228
 9519SOL    HW140016   2.147   1.252   5.848 -0.3981  0.3346  0.9365
 9519SOL    HW240017   2.106   1.300   5.721  0.3902 -0.3798 -0.0164
 9520SOL     OW40018   2.671   3.694  10.365 -0.4064  0.0352 -0.3123
 9520SOL    HW140019   2.684   3.758  10.434 -0.1834 -0.4577  0.0970
 9520SOL    HW240020   2.757   3.679  10.325 -0.6356 -1.2553 -0.3233
 9521SOL     OW40021   4.689   3.388  10.219  0.0405 -0.2445  0.7097
 9521SOL    HW140022   0.014   3.313  10.253  0.5553 -0.4079 -0.3830
 9521SOL    HW240023   4.625   3.336  10.170 -0.3927  1.1050 -0.1806
 9522SOL     OW40024   0.704   4.433   5.745 -0.4087  0.1408  0.2062
 9522SOL    HW140025   0.741   4.406   5.660 -0.3999 -1.9019  0.8577
 9522SOL    HW240026   0.713   4.354   5.798  1.0862  1.0068  1.2113
 9523SOL     OW40027   0.058   0.058  11.947  0.1451 -0.1004  0.1941
 9523SOL    HW140028   0.058   0.013  11.862 -1.9243 -0.3211  0.3097
 9523SOL    HW240029   4.703   0.111  11.948 -0.0412 -0.3543 -1.9041
 9524SOL     OW40030   2.558   0.845   0.229 -0.6253  0.2190  0.3357
 9524SOL    HW140031   2.468   0.869   0.250 -0.1081  2.3436  0.0946
 9524SOL    HW240032   2.586   0.839   0.320 -0.7885 -0.0179  0.3688
 9525SOL     OW40033   0.309   3.315   9.390  0.0521  0.1900 -0.0964
 9525SOL    HW140034   0.327   3.224   9.413 -1.3336  0.0811  0.5558
 9525SOL    HW240035   0.357   3.329   9.308  0.5605 -1.3437 -0.0671
 9526SOL     OW40036   3.912   2.849   2.046  0.8199 -0.0716 -0.0579
 9526SOL    HW140037   3.947   2.767   2.012  0.2911 -0.6002  0.6724
 9526SOL    HW240038   3.863   2.808   2.117 -0.1383 -0.1511 -0.7644
 9527SOL     OW40039   3.283   0.977  14.924 -0.0253  0.4258 -0.2461
 9527SOL    HW140040   3.281   0.895  14.974 -1.3101  0.3752 -0.3751
 9527SOL    HW240041   3.322   0.945  14.843  0.6136  0.7142 -0.0491
 9528SOL     OW40042   4.273   0.677   6.047  0.0589  0.0592  0.1229
 9528SOL    HW140043   4.250   0.770   6.045  2.1600  0.5241 -1.4776
 9528SOL    HW240044   4.349   0.677   5.990 -0.8033  1.8253 -1.0355
 9529SOL     OW40045   3.762   3.058   7.554 -0.6961  0.3481  0.5952
 9529SOL    HW140046   3.703   3.132   7.564 -1.2777  0.1942 -1.8101
 9529SOL    HW240047   3.771   3.053   7.459 -0.0645 -0.3309  0.6826
 9530SOL     OW40048   0.455   4.216   1.976  0.4938 -0.0321  0.0737
 9530SOL    HW140049   0.521   4.267   1.930 -0.4666 -1.6029 -3.0189
 9530SOL    HW240050   0.446   4.134   1.928 -0.1610  0.6417 -0.9567
 9531SOL     OW40051   3.274   1.491   6.102 -0.2373 -0.4277 -0.0831
 9531SOL    HW140052   3.255   1.516   6.012 -1.4710 -0.4714  0.1605
 9531SOL    HW240053   3.214   1.554   6.142  0.6296  0.2681  0.1236
 9532SOL     OW40054   3.809   2.321   5.366 -0.4701 -0.4744 -0.1928
 9532SOL    HW140055   3.773   2.282   5.287  0.9598  2.0341 -2.0684
 9532SOL    HW240056   3.894   2.355   5.338 -2.1515  2.3099 -1.9522
 9533SOL     OW40057   2.444   4.610   1.069  0.0263  0.2146 -0.0228
 9533SOL    HW140058   2.388   4.678   1.106 -0.0971  0.5959 -0.9188
 9533SOL    HW240059   2.501   4.575   1.138  0.3983 -0.5891 -0.7305
 9534SOL     OW40060   1.944   3.703  13.467  0.6345 -0.5204  0.4233
 9534SOL    HW140061   2.010   3.695  13.535  1.5577 -0.7986 -0.5128
 9534SOL    HW240062   1.919   3.614  13.442 -1.2647 -0.0073  0.4423
 9535SOL     OW40063   2.602   1.453   1.512  0.1183  0.5236 -0.2038
 9535SOL    HW140064   2.632   1.540   1.538  1.6682 -1.1793  3.6985
 9535SOL    HW240065   2.633   1.392   1.579  0.0581 -1.5812 -2.0955
 9536SOL     OW40066   0.354   1.463   9.383  1.0115 -0.5236 -0.1012
 9536SOL    HW140067   0.395   1.476   9.469 -1.0047 -0.5003  0.8651
 9536SOL    HW240068   0.337   1.554   9.359  0.8965  0.3159  3.1083
 9537SOL     OW40069   1.314   1.105  17.505 -0.5663 -0.3063  0.1677
 9537SOL    HW140070   1.349   1.118  17.417  1.2810 -1.9238  0.6424
 9537SOL    HW240071   1.304   1.197  17.531 -1.3210  0.2477 -2.1331
 9538SOL     OW40072   0.890   3.808   5.071  0.7619 -0.2335 -0.3221
 9538SOL    HW140073   0.856   3.862   4.999  0.7582 -0.8781 -0.8041
 9538SOL    HW240074   0.958   3.758   5.025 -0.1064 -0.0937 -1.7514
 9539SOL     OW40075   1.118   0.664   0.940  0.0700  0.4571 -0.0701
 9539SOL    HW140076   1.097   0.737   0.998  2.4120 -0.0691  1.3933
 9539SOL    HW240077   1.142   0.708   0.858  1.8347 -2.1948 -0.9746
 9540SOL     OW40078   0.284   2.615   3.006  0.3799 -0.1035  0.0588
 9540SOL    HW140079   0.323   2.693   2.966  1.8033 -1.4875 -1.2139
 9540SOL    HW240080   0.270   2.562   2.928 -1.6078 -2.5615  2.1000
 9541SOL     OW40081   2.841   3.209   7.410 -0.0330 -0.5139 -0.2237
 9541SOL    HW140082   2.906   3.253   7.357 -0.8103  1.4427  0.4323
 9541SOL    HW240083   2.763   3.265   7.414 -0.9846 -1.8953  0.6108
 9542SOL     OW40084   2.642   4.124  14.139 -0.3149 -0.1978 -0.0893
 9542SOL    HW140085   2.630   4.217  14.155 -1.4289 -1.2433  4.9279
 9542SOL    HW240086   2.549   4.107  14.127 -0.3786 -0.1862  0.3941
 9543SOL     OW40087   2.137   3.054   7.771 -0.0871  0.1118 -0.7446
 9543SOL    HW140088   2.180   2.989   7.826 -0.3274  2.2513  2.0323
 9543SOL    HW240089   2.199   3.126   7.779  0.9836 -0.5731 -3.1584
 9544SOL     OW40090   1.972   0.866   1.285  0.2875 -0.4975  0.1330
 9544SOL    HW140091   2.003   0.913   1.362  2.3160  0.8201 -1.5107
 9544SOL    HW240092   1.967   0.944   1.231  1.0181  0.4002  1.3695
 9545SOL     OW40093   1.526   0.843  11.263  0.2013  0.0104  0.9431
 9545SOL    HW140094   1.611   0.801  11.245  0.3179  0.1632  1.1377
 9545SOL    HW240095   1.478   0.816  11.184  1.3614 -2.3514  1.0288
 9546SOL     OW40096   3.321   2.001  13.782 -0.4189 -0.1431 -0.4664
 9546SOL    HW140097   3.398   2.017  13.727 -0.3105  1.2975  0.1174
 9546SOL    HW240098   3.264   2.069  13.746  0.1251 -0.7506 -2.5007
 9547SOL     OW40099   4.328   2.730   4.084 -0.7869 -0.0398 -0.8447
 9547SOL    HW140100   4.300   2.649   4.041 -2.2639 -0.1185  0.2667
 9547SOL    HW240101   4.416   2.708   4.113 -0.7799  0.0398 -0.8042
 9548SOL     OW40102   1.601   1.974  12.932 -0.2703 -0.0461 -0.9449
 9548SOL    HW140103   1.593   1.973  12.837  0.5439  0.1519 -1.0089
 9548SOL    HW240104   1.657   2.049  12.948  1.2554 -0.6331 -3.5639
 9549SOL     OW40105   0.201   2.436  12.500  0.1490 -0.1313 -0.1451
 9549SOL    HW140106   0.174   2.355  12.544  2.9955 -1.1687 -0.3491
 9549SOL    HW240107   0.151   2.492  12.560  0.4773 -1.0454  0.9985
 9550SOL     OW40108   0.646   3.271   2.854 -0.1761  0.4109 -0.3813
 9550SOL    HW140109   0.635   3.265   2.949  0.7481 -0.7118 -0.3412
 9550SOL    HW240110   0.741   3.272   2.842 -0.2228  1.8238 -0.6743
 9551SOL     OW40111   3.036   3.396   8.880 -0.4006  0.2064  0.2777
 9551SOL    HW140112   2.943   3.418   8.893 -0.0723  1.3253  0.7648
 9551SOL    HW240113   3.083   3.473   8.912 -1.1878  1.3687 -1.3046
 9552SOL     OW40114   0.054   3.579  12.044 -0.2895 -0.1589  0.3815
 9552SOL    HW140115   0.071   3.672  12.027  2.2006 -0.8076 -0.7017
 9552SOL    HW240116   0.025   3.548  11.959  1.2131  0.2407 -0.2848
 9553SOL     OW40117   2.214   2.442   6.354 -0.8972  0.0355 -0.2774
 9553SOL    HW140118   2.192   2.349   6.358  0.9674 -0.4261 -0.9251
 9553SOL    HW240119   2.309   2.436   6.363 -0.9923 -0.9518  0.0762
 9554SOL     OW40120   3.999   3.431   6.937  0.3250 -0.0559  0.4846
 9554SOL    HW140121   3.995   3.503   7.000 -1.0318 -0.0497  0.3966
 9554SOL    HW240122   3.996   3.479   6.854 -1.7430 -2.0656 -0.6153
 9555SOL     OW40123   2.022   1.461  13.805  0.1941 -0.3627 -0.0912
 9555SOL    HW140124   1.935   1.475  13.769 -0.4753 -1.2777  1.1941
 9555SOL    HW240125   2.080   1.533  13.778 -0.7442  1.3473  2.4382
 9556SOL     OW40126   1.962   0.345  11.258 -0.0683 -0.1577  0.7277
 9556SOL    HW140127   2.011   0.263  11.255 -1.4410 -0.9951  1.2739
 9556SOL    HW240128   1.881   0.315  11.217 -0.1758  0.9161  0.1440
 9557SOL     OW40129   1.991   1.332   8.525  0.1811 -0.5970  0.0170
 9557SOL    HW140130   2.071   1.320   8.576  0.3332 -0.5858 -0.2145
 9557SOL    HW240131   1.937   1.272   8.576 -1.1215  0.8587  0.3461
 9558SOL     OW40132   3.924   0.243  14.557  0.2400  0.5098  0.5579
 9558SOL    HW140133   3.859   0.184  14.597 -0.9765  0.2713 -1.7793
 9558SOL    HW240134   3.868   0.320  14.554  1.0657  0.9760 -2.5170
 9559SOL     OW40135   4.111   1.447   2.243 -0.2033  0.4115  0.8543
 9559SOL    HW140136   4.060   1.386   2.296  0.1953 -0.9022 -0.2772
 9559SOL    HW240137   4.128   1.502   2.319 -0.3937  0.9606  0.5045
 9560SOL     OW40138   0.453   2.406  10.360  0.0659  0.2244 -0.5505
 9560SOL    HW140139   0.452   2.317  10.394 -0.6371  1.3328  2.2738
 9560SOL    HW240140   0.505   2.379  10.284  1.3730 -1.7239  1.0496
 9561SOL     OW40141   2.880   4.587   4.186 -0.1898 -0.0355 -0.2601
 9561SOL    HW140142   2.910   4.500   4.214  0.2155 -0.1246 -0.9922
 9561SOL    HW240143   2.906   4.586   4.094  0.4910 -0.8444 -0.0572
 9562SOL     OW40144   1.907   0.964   6.716 -0.8335 -0.0544  0.2068
 9562SOL    HW140145   1.822   0.985   6.675  0.9519  3.2874 -1.7050
 9562SOL    HW240146   1.919   1.026   6.787  0.1147  0.6551 -0.5708
 9563SOL     OW40147   1.831   1.120   3.195 -0.2848 -0.8291  0.2122
 9563SOL    HW140148   1.863   1.063   3.265 -0.1300  1.0025  1.6255
 9563SOL    HW240149   1.797   1.049   3.140 -2.5294 -0.3142  0.9489
 9564SOL     OW40150   0.836   2.116   4.602  0.3139 -0.0679  0.4422
 9564SOL    HW140151   0.863   2.189   4.547 -1.1523  0.0103 -0.1881
 9564SOL    HW240152   0.741   2.131   4.602  0.0211 -1.8205 -1.2288
 9565SOL     OW40153   4.036   2.230   5.831  0.1348 -0.1660  0.7643
 9565SOL    HW140154   3.996   2.205   5.914 -1.4272  2.4329  0.7922
 9565SOL    HW240155   3.981   2.306   5.813 -1.0370 -1.1778  0.0266
   4.72443   4.72443  17.69927
